                         Program Version 4.2.0 -  RELEASE  -
|  1> # ORCA input file
|  2> # SCF done       -216.331884353815          0.000470542497
|  3> ! CAM-B3LYP def2-SVP def2/J RIJCOSX Grid4 TightSCF
|  4> %maxcore 5000
|  5> %tddft
|  6>     Mode sTDDFT
|  7>     Ethresh 5.0
|  8>     maxcore 5000
|  9> end
| 10>
| 11> %pal
| 12>   nprocs 6
| 13>   end
| 14> * xyz 0 1
| 15>    C       -6.27713         2.38681         9.30499
| 16>    C       -5.29247         2.82603        10.14502
| 17>    F       -5.60909         3.36850        11.32735
| 18>    C       -3.93549         2.71356         9.78034
| 19>    F       -2.99260         3.15229        10.62348
| 20>    C       -3.58181         2.16282         8.58006
| 21>    C       -4.57310         1.70000         7.69347
| 22>    C       -5.94544         1.81257         8.06138
| 23>    C       -6.95818         1.34857         7.19114
| 24>    C       -6.60866         0.78492         5.99208
| 25>    C       -5.23579         0.68128         5.63149
| 26>    C       -4.23589         1.12469         6.44783
| 27>    C       -5.12786         0.05214         4.30637
| 28>    O       -4.11237        -0.12448         3.65701
| 29>    C       -6.50544        -0.24404         3.88282
| 30>    C       -7.41568         0.20289         4.92496
| 31>    C       -8.77443         0.03262         4.95883
| 32>    C       -9.53422        -0.63285         3.97423
| 33>    N      -10.20158        -1.18480         3.21973
| 34>    C       -9.60148         0.47636         6.01334
| 35>    N      -10.32894         0.81459         6.83372
| 36>    C       -6.89827        -0.70265         2.65460
| 37>    N       -6.17899        -1.29518         1.67977
| 38>    C       -5.02443        -2.02589         1.69955
| 39>    S       -4.28081        -2.59389         3.14646
| 40>    C       -3.23310        -3.59562         2.20629
| 41>    N       -2.29334        -4.37424         2.89701
| 42>    O       -1.54788        -5.07766         2.24497
| 43>    O       -2.30848        -4.28937         4.11206
| 44>    C       -3.43353        -3.48850         0.85485
| 45>    C       -4.46020        -2.58276         0.53816
| 46>    C       -4.87313        -2.32951        -0.81617
| 47>    C       -5.45941        -1.21107        -1.29025
| 48>    C       -5.90763        -1.06154        -2.63616
| 49>    C       -6.48522         0.07972        -3.17771
| 50>    C       -6.65963         1.22913        -2.38951
| 51>    N       -6.77921         2.11621        -1.67280
| 52>    C       -6.87541        -0.09439        -4.53281
| 53>    C       -6.58172        -1.38114        -4.97285
| 54>    S       -5.83023        -2.37503        -3.78796
| 55>    S       -7.05366        -1.73335        -6.60302
| 56>    C       -7.66619        -0.11554        -6.71061
| 57>    C       -7.50497         0.65966        -5.56704
| 58>    C       -8.02471         1.97051        -5.74988
| 59>    C       -8.15531         2.91826        -4.72396
| 60>    N       -8.32051         3.67698        -3.87981
| 61>    C       -8.56718         2.15690        -7.01763
| 62>    S       -8.47199         0.69709        -7.99302
| 63>    C       -9.18652         3.29465        -7.59047
| 64>    C       -8.86801         4.61042        -7.39773
| 65>    C       -9.57897         5.70524        -7.96686
| 66>    C       -9.00142         6.91426        -7.75429
| 67>    C       -7.78647         6.84763        -7.02674
| 68>    S       -7.43973         5.20012        -6.56446
| 69>    C       -6.92663         7.89332        -6.74912
| 70>    C       -7.10254         9.25592        -7.08920
| 71>    C       -6.04540        10.04737        -6.76062
| 72>    C       -4.97498         9.35162        -6.14576
| 73>    S       -5.38181         7.66219        -5.96532
| 74>    C       -3.75060         9.83469        -5.72767
| 75>    C       -3.31325        11.13854        -5.95404
| 76>    C       -2.11621        11.70347        -5.57419
| 77>    C       -1.63248        12.90410        -6.29483
| 78>    O       -2.26946        13.60202        -7.05417
| 79>    C       -0.20446        13.02733        -5.93469
| 80>    C        0.72856        13.90207        -6.40932
| 81>    C        2.06003        13.80523        -5.94474
| 82>    C        2.39638        12.79774        -4.99531
| 83>    C        3.72698        12.70089        -4.54223
| 84>    C        4.67845        13.56429        -5.00864
| 85>    C        4.34448        14.56036        -5.94699
| 86>    C        3.06255        14.67999        -6.40588
| 87>    F        5.29830        15.39263        -6.38932
| 88>    F        5.94367        13.46980        -4.57629
| 89>    C        1.40444        11.91046        -4.51517
| 90>    C        0.12107        12.02665        -4.97510
| 91>    C       -1.09816        11.28383        -4.64947
| 92>    C       -1.26878        10.50032        -3.53300
| 93>    C       -2.52075        10.04143        -3.07592
| 94>    N       -3.52074         9.69116        -2.63379
| 95>    C       -0.22718        10.16275        -2.64692
| 96>    N        0.59015         9.83858        -1.90813
| 97>    H       -7.31073         2.47927         9.60001
| 98>    H       -2.53889         2.08373         8.31608
| 99>    H       -7.98646         1.45166         7.49749
|100>    H       -3.20260         1.03112         6.15071
|101>    H       -7.93459        -0.56084         2.37331
|102>    H       -6.63859        -1.33148         0.77334
|103>    H       -2.84841        -4.02683         0.13153
|104>    H       -4.65784        -3.13144        -1.51200
|105>    H       -5.58268        -0.32876        -0.67503
|106>    H       -9.95958         3.08822        -8.32057
|107>    H      -10.49410         5.55116        -8.51031
|108>    H       -9.39905         7.84556        -8.11406
|109>    H       -7.99754         9.61429        -7.56461
|110>    H       -6.00957        11.10585        -6.94258
|111>    H       -3.08523         9.13210        -5.24776
|112>    H       -3.91427        11.77434        -6.59397
|113>    H        0.45667        14.65696        -7.13133
|114>    H        3.99921        11.94570        -3.82150
|115>    H        2.82272        15.44795        -7.12454
|116>    H        1.68976        11.15427        -3.80145
|117> *
|118>
|119>                          ****END OF INPUT****

CARTESIAN COORDINATES (ANGSTROEM)
---------------------------------
  C     -6.277130    2.386810    9.304990
  C     -5.292470    2.826030   10.145020
  F     -5.609090    3.368500   11.327350
  C     -3.935490    2.713560    9.780340
  F     -2.992600    3.152290   10.623480
  C     -3.581810    2.162820    8.580060
  C     -4.573100    1.700000    7.693470
  C     -5.945440    1.812570    8.061380
  C     -6.958180    1.348570    7.191140
  C     -6.608660    0.784920    5.992080
  C     -5.235790    0.681280    5.631490
  C     -4.235890    1.124690    6.447830
  C     -5.127860    0.052140    4.306370
  O     -4.112370   -0.124480    3.657010
  C     -6.505440   -0.244040    3.882820
  C     -7.415680    0.202890    4.924960
  C     -8.774430    0.032620    4.958830
  C     -9.534220   -0.632850    3.974230
  N    -10.201580   -1.184800    3.219730
  C     -9.601480    0.476360    6.013340
  N    -10.328940    0.814590    6.833720
  C     -6.898270   -0.702650    2.654600
  N     -6.178990   -1.295180    1.679770
  C     -5.024430   -2.025890    1.699550
  S     -4.280810   -2.593890    3.146460
  C     -3.233100   -3.595620    2.206290
  N     -2.293340   -4.374240    2.897010
  O     -1.547880   -5.077660    2.244970
  O     -2.308480   -4.289370    4.112060
  C     -3.433530   -3.488500    0.854850
  C     -4.460200   -2.582760    0.538160
  C     -4.873130   -2.329510   -0.816170
  C     -5.459410   -1.211070   -1.290250
  C     -5.907630   -1.061540   -2.636160
  C     -6.485220    0.079720   -3.177710
  C     -6.659630    1.229130   -2.389510
  N     -6.779210    2.116210   -1.672800
  C     -6.875410   -0.094390   -4.532810
  C     -6.581720   -1.381140   -4.972850
  S     -5.830230   -2.375030   -3.787960
  S     -7.053660   -1.733350   -6.603020
  C     -7.666190   -0.115540   -6.710610
  C     -7.504970    0.659660   -5.567040
  C     -8.024710    1.970510   -5.749880
  C     -8.155310    2.918260   -4.723960
  N     -8.320510    3.676980   -3.879810
  C     -8.567180    2.156900   -7.017630
  S     -8.471990    0.697090   -7.993020
  C     -9.186520    3.294650   -7.590470
  C     -8.868010    4.610420   -7.397730
  C     -9.578970    5.705240   -7.966860
  C     -9.001420    6.914260   -7.754290
  C     -7.786470    6.847630   -7.026740
  S     -7.439730    5.200120   -6.564460
  C     -6.926630    7.893320   -6.749120
  C     -7.102540    9.255920   -7.089200
  C     -6.045400   10.047370   -6.760620
  C     -4.974980    9.351620   -6.145760
  S     -5.381810    7.662190   -5.965320
  C     -3.750600    9.834690   -5.727670
  C     -3.313250   11.138540   -5.954040
  C     -2.116210   11.703470   -5.574190
  C     -1.632480   12.904100   -6.294830
  O     -2.269460   13.602020   -7.054170
  C     -0.204460   13.027330   -5.934690
  C      0.728560   13.902070   -6.409320
  C      2.060030   13.805230   -5.944740
  C      2.396380   12.797740   -4.995310
  C      3.726980   12.700890   -4.542230
  C      4.678450   13.564290   -5.008640
  C      4.344480   14.560360   -5.946990
  C      3.062550   14.679990   -6.405880
  F      5.298300   15.392630   -6.389320
  F      5.943670   13.469800   -4.576290
  C      1.404440   11.910460   -4.515170
  C      0.121070   12.026650   -4.975100
  C     -1.098160   11.283830   -4.649470
  C     -1.268780   10.500320   -3.533000
  C     -2.520750   10.041430   -3.075920
  N     -3.520740    9.691160   -2.633790
  C     -0.227180   10.162750   -2.646920
  N      0.590150    9.838580   -1.908130
  H     -7.310730    2.479270    9.600010
  H     -2.538890    2.083730    8.316080
  H     -7.986460    1.451660    7.497490
  H     -3.202600    1.031120    6.150710
  H     -7.934590   -0.560840    2.373310
  H     -6.638590   -1.331480    0.773340
  H     -2.848410   -4.026830    0.131530
  H     -4.657840   -3.131440   -1.512000
  H     -5.582680   -0.328760   -0.675030
  H     -9.959580    3.088220   -8.320570
  H    -10.494100    5.551160   -8.510310
  H     -9.399050    7.845560   -8.114060
  H     -7.997540    9.614290   -7.564610
  H     -6.009570   11.105850   -6.942580
  H     -3.085230    9.132100   -5.247760
  H     -3.914270   11.774340   -6.593970
  H      0.456670   14.656960   -7.131330
  H      3.999210   11.945700   -3.821500
  H      2.822720   15.447950   -7.124540
  H      1.689760   11.154270   -3.801450

 Total Charge           Charge          ....    0
 Multiplicity           Mult            ....    1
 Number of Electrons    NEL             ....  600
 Basis Dimension        Dim             .... 1272

ORBITAL ENERGIES
----------------

  NO   OCC          E(Eh)            E(eV)
   0   2.0000     -89.000942     -2421.8388
   1   2.0000     -88.999277     -2421.7935
   2   2.0000     -88.996416     -2421.7156
   3   2.0000     -88.995273     -2421.6845
   4   2.0000     -88.970793     -2421.0184
   5   2.0000     -88.968389     -2420.9529
   6   2.0000     -24.797995      -674.7878
   7   2.0000     -24.797022      -674.7613
   8   2.0000     -24.792369      -674.6347
   9   2.0000     -24.791480      -674.6105
  10   2.0000     -19.241911      -523.5990
  11   2.0000     -19.241548      -523.5891
  12   2.0000     -19.224419      -523.1230
  13   2.0000     -19.205714      -522.6140
  14   2.0000     -14.653512      -398.7423
  15   2.0000     -14.517217      -395.0336
  16   2.0000     -14.423727      -392.4896
  17   2.0000     -14.418537      -392.3483
  18   2.0000     -14.416343      -392.2886
  19   2.0000     -14.413005      -392.1978
  20   2.0000     -14.407460      -392.0469
  21   2.0000     -14.404333      -391.9618
  22   2.0000     -10.381463      -282.4940
  23   2.0000     -10.380678      -282.4726
  24   2.0000     -10.379295      -282.4350
  25   2.0000     -10.375328      -282.3270
  26   2.0000     -10.374618      -282.3077
  27   2.0000     -10.374370      -282.3010
  28   2.0000     -10.374099      -282.2936
  29   2.0000     -10.356758      -281.8217
  30   2.0000     -10.352003      -281.6923
  31   2.0000     -10.351071      -281.6670
  32   2.0000     -10.349631      -281.6278
  33   2.0000     -10.348559      -281.5986
  34   2.0000     -10.348177      -281.5882
  35   2.0000     -10.347518      -281.5703
  36   2.0000     -10.347257      -281.5632
  37   2.0000     -10.342129      -281.4236
  38   2.0000     -10.340099      -281.3684
  39   2.0000     -10.338425      -281.3228
  40   2.0000     -10.336770      -281.2778
  41   2.0000     -10.335569      -281.2451
  42   2.0000     -10.334615      -281.2192
  43   2.0000     -10.333405      -281.1862
  44   2.0000     -10.332226      -281.1542
  45   2.0000     -10.326553      -280.9998
  46   2.0000     -10.323617      -280.9199
  47   2.0000     -10.323002      -280.9032
  48   2.0000     -10.321513      -280.8626
  49   2.0000     -10.321243      -280.8553
  50   2.0000     -10.316991      -280.7396
  51   2.0000     -10.316723      -280.7323
  52   2.0000     -10.315726      -280.7052
  53   2.0000     -10.315177      -280.6902
  54   2.0000     -10.313973      -280.6575
  55   2.0000     -10.313959      -280.6571
  56   2.0000     -10.313468      -280.6437
  57   2.0000     -10.312410      -280.6150
  58   2.0000     -10.311416      -280.5879
  59   2.0000     -10.311114      -280.5797
  60   2.0000     -10.310798      -280.5711
  61   2.0000     -10.310611      -280.5660
  62   2.0000     -10.309503      -280.5358
  63   2.0000     -10.309438      -280.5341
  64   2.0000     -10.307780      -280.4890
  65   2.0000     -10.307002      -280.4678
  66   2.0000     -10.304797      -280.4078
  67   2.0000     -10.304559      -280.4013
  68   2.0000     -10.303731      -280.3788
  69   2.0000     -10.303061      -280.3605
  70   2.0000     -10.302760      -280.3523
  71   2.0000     -10.300841      -280.3001
  72   2.0000     -10.300559      -280.2924
  73   2.0000     -10.299566      -280.2654
  74   2.0000     -10.295661      -280.1592
  75   2.0000     -10.294708      -280.1332
  76   2.0000     -10.294685      -280.1326
  77   2.0000     -10.293915      -280.1117
  78   2.0000     -10.293700      -280.1058
  79   2.0000     -10.293687      -280.1055
  80   2.0000     -10.286110      -279.8993
  81   2.0000     -10.285324      -279.8779
  82   2.0000      -8.096064      -220.3051
  83   2.0000      -8.094439      -220.2609
  84   2.0000      -8.091976      -220.1939
  85   2.0000      -8.089621      -220.1298
  86   2.0000      -8.066807      -219.5090
  87   2.0000      -8.064997      -219.4597
  88   2.0000      -6.066020      -165.0648
  89   2.0000      -6.063961      -165.0088
  90   2.0000      -6.061790      -164.9497
  91   2.0000      -6.061567      -164.9436
  92   2.0000      -6.059841      -164.8967
  93   2.0000      -6.059076      -164.8758
  94   2.0000      -6.057373      -164.8295
  95   2.0000      -6.056902      -164.8167
  96   2.0000      -6.056073      -164.7941
  97   2.0000      -6.054482      -164.7508
  98   2.0000      -6.053447      -164.7227
  99   2.0000      -6.051688      -164.6748
 100   2.0000      -6.036552      -164.2629
 101   2.0000      -6.034652      -164.2112
 102   2.0000      -6.032422      -164.1505
 103   2.0000      -6.030536      -164.0992
 104   2.0000      -6.027668      -164.0212
 105   2.0000      -6.025995      -163.9757
 106   2.0000      -1.323863       -36.0241
 107   2.0000      -1.320699       -35.9380
 108   2.0000      -1.314486       -35.7690
 109   2.0000      -1.305783       -35.5322
 110   2.0000      -1.299697       -35.3665
 111   2.0000      -1.143190       -31.1078
 112   2.0000      -1.142141       -31.0792
 113   2.0000      -1.120219       -30.4827
 114   2.0000      -1.112671       -30.2773
 115   2.0000      -1.054742       -28.7010
 116   2.0000      -1.025763       -27.9124
 117   2.0000      -1.024844       -27.8874
 118   2.0000      -1.019321       -27.7371
 119   2.0000      -1.015387       -27.6301
 120   2.0000      -1.010556       -27.4986
 121   2.0000      -1.007626       -27.4189
 122   2.0000      -1.002662       -27.2838
 123   2.0000      -0.999429       -27.1958
 124   2.0000      -0.997783       -27.1510
 125   2.0000      -0.995769       -27.0962
 126   2.0000      -0.991497       -26.9800
 127   2.0000      -0.984758       -26.7966
 128   2.0000      -0.983801       -26.7706
 129   2.0000      -0.973023       -26.4773
 130   2.0000      -0.966645       -26.3037
 131   2.0000      -0.938092       -25.5268
 132   2.0000      -0.932252       -25.3679
 133   2.0000      -0.928935       -25.2776
 134   2.0000      -0.918110       -24.9830
 135   2.0000      -0.910821       -24.7847
 136   2.0000      -0.907697       -24.6997
 137   2.0000      -0.901441       -24.5295
 138   2.0000      -0.895245       -24.3609
 139   2.0000      -0.892713       -24.2920
 140   2.0000      -0.888445       -24.1758
 141   2.0000      -0.884047       -24.0561
 142   2.0000      -0.880752       -23.9665
 143   2.0000      -0.871679       -23.7196
 144   2.0000      -0.870790       -23.6954
 145   2.0000      -0.867932       -23.6176
 146   2.0000      -0.859102       -23.3774
 147   2.0000      -0.847512       -23.0620
 148   2.0000      -0.842021       -22.9125
 149   2.0000      -0.834139       -22.6981
 150   2.0000      -0.832829       -22.6624
 151   2.0000      -0.826437       -22.4885
 152   2.0000      -0.819167       -22.2907
 153   2.0000      -0.804714       -21.8974
 154   2.0000      -0.784241       -21.3403
 155   2.0000      -0.775178       -21.0937
 156   2.0000      -0.772029       -21.0080
 157   2.0000      -0.761595       -20.7241
 158   2.0000      -0.756857       -20.5951
 159   2.0000      -0.746082       -20.3019
 160   2.0000      -0.733338       -19.9552
 161   2.0000      -0.727540       -19.7974
 162   2.0000      -0.725382       -19.7386
 163   2.0000      -0.718495       -19.5512
 164   2.0000      -0.716344       -19.4927
 165   2.0000      -0.712172       -19.3792
 166   2.0000      -0.709578       -19.3086
 167   2.0000      -0.703572       -19.1452
 168   2.0000      -0.699451       -19.0330
 169   2.0000      -0.692500       -18.8439
 170   2.0000      -0.689456       -18.7611
 171   2.0000      -0.681644       -18.5485
 172   2.0000      -0.674534       -18.3550
 173   2.0000      -0.669927       -18.2296
 174   2.0000      -0.661728       -18.0065
 175   2.0000      -0.659400       -17.9432
 176   2.0000      -0.656433       -17.8625
 177   2.0000      -0.652750       -17.7622
 178   2.0000      -0.649394       -17.6709
 179   2.0000      -0.644356       -17.5338
 180   2.0000      -0.642464       -17.4823
 181   2.0000      -0.640059       -17.4169
 182   2.0000      -0.638382       -17.3713
 183   2.0000      -0.635368       -17.2892
 184   2.0000      -0.634274       -17.2595
 185   2.0000      -0.633176       -17.2296
 186   2.0000      -0.631996       -17.1975
 187   2.0000      -0.623512       -16.9666
 188   2.0000      -0.613411       -16.6918
 189   2.0000      -0.612294       -16.6614
 190   2.0000      -0.606062       -16.4918
 191   2.0000      -0.604704       -16.4548
 192   2.0000      -0.598259       -16.2795
 193   2.0000      -0.591446       -16.0941
 194   2.0000      -0.588276       -16.0078
 195   2.0000      -0.585131       -15.9222
 196   2.0000      -0.579860       -15.7788
 197   2.0000      -0.579178       -15.7602
 198   2.0000      -0.576231       -15.6800
 199   2.0000      -0.573546       -15.6070
 200   2.0000      -0.568312       -15.4646
 201   2.0000      -0.565033       -15.3753
 202   2.0000      -0.562615       -15.3095
 203   2.0000      -0.556670       -15.1478
 204   2.0000      -0.554524       -15.0894
 205   2.0000      -0.553844       -15.0709
 206   2.0000      -0.551880       -15.0174
 207   2.0000      -0.547830       -14.9072
 208   2.0000      -0.546775       -14.8785
 209   2.0000      -0.546668       -14.8756
 210   2.0000      -0.541968       -14.7477
 211   2.0000      -0.541046       -14.7226
 212   2.0000      -0.539059       -14.6685
 213   2.0000      -0.533951       -14.5296
 214   2.0000      -0.532908       -14.5012
 215   2.0000      -0.532424       -14.4880
 216   2.0000      -0.528173       -14.3723
 217   2.0000      -0.527064       -14.3421
 218   2.0000      -0.526537       -14.3278
 219   2.0000      -0.523794       -14.2532
 220   2.0000      -0.522958       -14.2304
 221   2.0000      -0.521549       -14.1921
 222   2.0000      -0.519273       -14.1301
 223   2.0000      -0.517097       -14.0709
 224   2.0000      -0.516954       -14.0670
 225   2.0000      -0.515843       -14.0368
 226   2.0000      -0.510168       -13.8824
 227   2.0000      -0.507875       -13.8200
 228   2.0000      -0.506468       -13.7817
 229   2.0000      -0.505948       -13.7675
 230   2.0000      -0.503993       -13.7143
 231   2.0000      -0.500073       -13.6077
 232   2.0000      -0.496641       -13.5143
 233   2.0000      -0.494004       -13.4425
 234   2.0000      -0.490883       -13.3576
 235   2.0000      -0.488821       -13.3015
 236   2.0000      -0.487666       -13.2701
 237   2.0000      -0.485195       -13.2028
 238   2.0000      -0.479943       -13.0599
 239   2.0000      -0.477492       -12.9932
 240   2.0000      -0.474671       -12.9165
 241   2.0000      -0.473334       -12.8801
 242   2.0000      -0.471688       -12.8353
 243   2.0000      -0.468910       -12.7597
 244   2.0000      -0.466505       -12.6942
 245   2.0000      -0.464872       -12.6498
 246   2.0000      -0.462840       -12.5945
 247   2.0000      -0.457603       -12.4520
 248   2.0000      -0.457104       -12.4384
 249   2.0000      -0.455561       -12.3964
 250   2.0000      -0.451655       -12.2902
 251   2.0000      -0.449944       -12.2436
 252   2.0000      -0.448568       -12.2061
 253   2.0000      -0.447527       -12.1778
 254   2.0000      -0.446421       -12.1477
 255   2.0000      -0.445426       -12.1207
 256   2.0000      -0.442900       -12.0519
 257   2.0000      -0.441732       -12.0201
 258   2.0000      -0.438966       -11.9449
 259   2.0000      -0.438187       -11.9237
 260   2.0000      -0.437178       -11.8962
 261   2.0000      -0.433823       -11.8049
 262   2.0000      -0.433477       -11.7955
 263   2.0000      -0.432316       -11.7639
 264   2.0000      -0.431475       -11.7410
 265   2.0000      -0.429756       -11.6943
 266   2.0000      -0.427777       -11.6404
 267   2.0000      -0.421952       -11.4819
 268   2.0000      -0.419297       -11.4097
 269   2.0000      -0.416984       -11.3467
 270   2.0000      -0.414558       -11.2807
 271   2.0000      -0.413035       -11.2393
 272   2.0000      -0.406381       -11.0582
 273   2.0000      -0.400589       -10.9006
 274   2.0000      -0.398492       -10.8435
 275   2.0000      -0.396805       -10.7976
 276   2.0000      -0.390754       -10.6329
 277   2.0000      -0.388506       -10.5718
 278   2.0000      -0.386578       -10.5193
 279   2.0000      -0.384246       -10.4559
 280   2.0000      -0.381634       -10.3848
 281   2.0000      -0.378243       -10.2925
 282   2.0000      -0.370558       -10.0834
 283   2.0000      -0.365624        -9.9491
 284   2.0000      -0.360229        -9.8023
 285   2.0000      -0.358409        -9.7528
 286   2.0000      -0.350927        -9.5492
 287   2.0000      -0.345723        -9.4076
 288   2.0000      -0.336256        -9.1500
 289   2.0000      -0.331575        -9.0226
 290   2.0000      -0.330553        -8.9948
 291   2.0000      -0.323682        -8.8078
 292   2.0000      -0.317235        -8.6324
 293   2.0000      -0.310184        -8.4405
 294   2.0000      -0.309748        -8.4287
 295   2.0000      -0.299226        -8.1424
 296   2.0000      -0.298319        -8.1177
 297   2.0000      -0.290789        -7.9128
 298   2.0000      -0.275507        -7.4969
 299   2.0000      -0.240233        -6.5371
 300   0.0000      -0.117599        -3.2000
 301   0.0000      -0.094242        -2.5645
 302   0.0000      -0.068097        -1.8530
 303   0.0000      -0.066411        -1.8071
 304   0.0000      -0.060958        -1.6587

MULLIKEN ATOMIC CHARGES
-----------------------
   0 C :   -0.113144
   1 C :    0.244933
   2 F :   -0.169858
   3 C :    0.243826
   4 F :   -0.169060
   5 C :   -0.110962
   6 C :    0.120997
   7 C :    0.119349
   8 C :   -0.088493
   9 C :    0.048576
  10 C :    0.008583
  11 C :   -0.084688
  12 C :    0.148047
  13 O :   -0.167675
  14 C :   -0.130407
  15 C :    0.313638
  16 C :   -0.339939
  17 C :   -0.211123
  18 N :    0.154085
  19 C :   -0.179119
  20 N :    0.147485
  21 C :    0.011923
  22 N :    0.017103
  23 C :   -0.067560
  24 S :    0.235098
  25 C :   -0.014409
  26 N :    0.276805
  27 O :   -0.245040
  28 O :   -0.260796
  29 C :    0.012377
  30 C :    0.102532
  31 C :   -0.033361
  32 C :   -0.045343
  33 C :   -0.093961
  34 C :   -0.015788
  35 C :   -0.321003
  36 N :    0.209007
  37 C :    0.169501
  38 C :   -0.233399
  39 S :    0.159874
  40 S :    0.198681
  41 C :   -0.233103
  42 C :    0.122550
  43 C :    0.010843
  44 C :   -0.341088
  45 N :    0.218701
  46 C :   -0.118812
  47 S :    0.172763
  48 C :   -0.026146
  49 C :   -0.019451
  50 C :    0.041770
  51 C :    0.041414
  52 C :   -0.045255
  53 S :    0.147626
  54 C :   -0.059132
  55 C :    0.037697
  56 C :    0.030726
  57 C :   -0.052993
  58 S :    0.153221
  59 C :    0.048935
  60 C :    0.021718
  61 C :   -0.131499
  62 C :    0.143192
  63 O :   -0.155105
  64 C :    0.004993
  65 C :   -0.087790
  66 C :    0.115796
  67 C :    0.114646
  68 C :   -0.112937
  69 C :    0.242628
  70 C :    0.240384
  71 C :   -0.109800
  72 F :   -0.174933
  73 F :   -0.173725
  74 C :   -0.088356
  75 C :    0.044982
  76 C :    0.286688
  77 C :   -0.338791
  78 C :   -0.219321
  79 N :    0.168205
  80 C :   -0.174244
  81 N :    0.137842
  82 H :    0.007853
  83 H :    0.002162
  84 H :   -0.004774
  85 H :   -0.007063
  86 H :    0.054078
  87 H :    0.158382
  88 H :    0.008754
  89 H :    0.011040
  90 H :    0.027480
  91 H :    0.009739
  92 H :    0.000664
  93 H :   -0.001796
  94 H :   -0.002849
  95 H :    0.009301
  96 H :    0.006832
  97 H :    0.005655
  98 H :   -0.012978
  99 H :    0.005248
 100 H :   -0.003164
 101 H :   -0.006696
Sum of atomic charges:   -0.0000000

LOEWDIN ATOMIC CHARGES
----------------------
   0 C :   -0.028567
   1 C :    0.067207
   2 F :   -0.047770
   3 C :    0.068877
   4 F :   -0.047361
   5 C :   -0.031994
   6 C :   -0.007326
   7 C :   -0.006845
   8 C :    0.021066
   9 C :   -0.024716
  10 C :   -0.051018
  11 C :    0.032010
  12 C :    0.065235
  13 O :   -0.169280
  14 C :   -0.142009
  15 C :    0.082734
  16 C :   -0.143566
  17 C :   -0.024536
  18 N :   -0.054271
  19 C :   -0.017861
  20 N :   -0.050518
  21 C :    0.100436
  22 N :    0.084861
  23 C :   -0.103901
  24 S :    0.549456
  25 C :   -0.209318
  26 N :    0.273832
  27 O :   -0.210996
  28 O :   -0.226192
  29 C :   -0.008951
  30 C :   -0.096408
  31 C :   -0.008052
  32 C :   -0.060581
  33 C :   -0.130915
  34 C :   -0.095365
  35 C :   -0.042503
  36 N :   -0.031627
  37 C :   -0.062347
  38 C :   -0.329672
  39 S :    0.450330
  40 S :    0.430618
  41 C :   -0.332425
  42 C :   -0.061153
  43 C :   -0.103524
  44 C :   -0.059366
  45 N :   -0.024608
  46 C :   -0.135349
  47 S :    0.448575
  48 C :   -0.078590
  49 C :   -0.128431
  50 C :   -0.017222
  51 C :   -0.022779
  52 C :   -0.154017
  53 S :    0.429133
  54 C :   -0.179749
  55 C :   -0.005064
  56 C :   -0.034532
  57 C :   -0.102066
  58 S :    0.423200
  59 C :   -0.058583
  60 C :    0.058236
  61 C :   -0.102206
  62 C :    0.078765
  63 O :   -0.156085
  64 C :   -0.051883
  65 C :    0.026036
  66 C :   -0.010713
  67 C :   -0.006759
  68 C :   -0.031057
  69 C :    0.064982
  70 C :    0.064991
  71 C :   -0.034227
  72 F :   -0.052477
  73 F :   -0.051466
  74 C :    0.010495
  75 C :   -0.017758
  76 C :    0.066746
  77 C :   -0.146586
  78 C :   -0.026930
  79 N :   -0.052170
  80 C :   -0.018808
  81 N :   -0.059775
  82 H :    0.047951
  83 H :    0.045852
  84 H :    0.040516
  85 H :    0.041762
  86 H :    0.049267
  87 H :    0.105931
  88 H :    0.045580
  89 H :    0.030122
  90 H :    0.041411
  91 H :    0.039947
  92 H :    0.038512
  93 H :    0.036519
  94 H :    0.036847
  95 H :    0.039785
  96 H :    0.035200
  97 H :    0.039259
  98 H :    0.039084
  99 H :    0.046804
 100 H :    0.043715
 101 H :    0.038937

  Mayer bond orders larger than 0.100000
B(  0-C ,  1-C ) :   1.4386 B(  0-C ,  5-C ) :   0.1087 B(  0-C ,  7-C ) :   1.1862
B(  0-C , 82-H ) :   1.0082 B(  1-C ,  2-F ) :   1.1359 B(  1-C ,  3-C ) :   1.1920
B(  3-C ,  4-F ) :   1.1366 B(  3-C ,  5-C ) :   1.4400 B(  5-C ,  6-C ) :   1.1917
B(  5-C , 83-H ) :   1.0086 B(  6-C ,  7-C ) :   1.2584 B(  6-C , 11-C ) :   1.1839
B(  7-C ,  8-C ) :   1.2139 B(  8-C ,  9-C ) :   1.4476 B(  8-C , 84-H ) :   0.9913
B(  9-C , 10-C ) :   1.2222 B(  9-C , 15-C ) :   0.9979 B( 10-C , 11-C ) :   1.4704
B( 10-C , 12-C ) :   0.9438 B( 11-C , 85-H ) :   1.0192 B( 12-C , 13-O ) :   2.1755
B( 12-C , 14-C ) :   0.9615 B( 14-C , 15-C ) :   1.0984 B( 14-C , 21-C ) :   1.5230
B( 15-C , 16-C ) :   1.6350 B( 16-C , 17-C ) :   1.1382 B( 16-C , 19-C ) :   1.1454
B( 17-C , 18-N ) :   2.9851 B( 19-C , 20-N ) :   2.9627 B( 21-C , 22-N ) :   1.3091
B( 21-C , 86-H ) :   0.9285 B( 22-N , 23-C ) :   1.1576 B( 22-N , 87-H ) :   0.8872
B( 23-C , 24-S ) :   1.1742 B( 23-C , 30-C ) :   1.3792 B( 24-S , 25-C ) :   1.1321
B( 25-C , 26-N ) :   0.9621 B( 25-C , 29-C ) :   1.4648 B( 26-N , 27-O ) :   1.5413
B( 26-N , 28-O ) :   1.5172 B( 27-O , 28-O ) :   0.2618 B( 29-C , 30-C ) :   1.2470
B( 29-C , 88-H ) :   1.0064 B( 30-C , 31-C ) :   1.0835 B( 31-C , 32-C ) :   1.6579
B( 31-C , 89-H ) :   0.9656 B( 32-C , 33-C ) :   1.1877 B( 32-C , 90-H ) :   0.9544
B( 33-C , 34-C ) :   1.4967 B( 33-C , 39-S ) :   1.1176 B( 34-C , 35-C ) :   1.1670
B( 34-C , 37-C ) :   1.2438 B( 35-C , 36-N ) :   2.9864 B( 37-C , 38-C ) :   1.4140
B( 37-C , 42-C ) :   1.0696 B( 38-C , 39-S ) :   1.0920 B( 38-C , 40-S ) :   1.0874
B( 40-S , 41-C ) :   1.0867 B( 41-C , 42-C ) :   1.4126 B( 41-C , 47-S ) :   1.0908
B( 42-C , 43-C ) :   1.2576 B( 43-C , 44-C ) :   1.1647 B( 43-C , 46-C ) :   1.4806
B( 44-C , 45-N ) :   2.9924 B( 46-C , 47-S ) :   1.1231 B( 46-C , 48-C ) :   1.1281
B( 48-C , 49-C ) :   1.6423 B( 48-C , 91-H ) :   0.9435 B( 49-C , 50-C ) :   1.1216
B( 49-C , 53-S ) :   1.0540 B( 50-C , 51-C ) :   1.6165 B( 50-C , 92-H ) :   0.9988
B( 51-C , 52-C ) :   1.1683 B( 51-C , 93-H ) :   0.9927 B( 52-C , 53-S ) :   1.0802
B( 52-C , 54-C ) :   1.5039 B( 54-C , 55-C ) :   1.1905 B( 54-C , 58-S ) :   1.0540
B( 55-C , 56-C ) :   1.5898 B( 55-C , 94-H ) :   0.9921 B( 56-C , 57-C ) :   1.1718
B( 56-C , 95-H ) :   0.9896 B( 57-C , 58-S ) :   1.0920 B( 57-C , 59-C ) :   1.4897
B( 59-C , 60-C ) :   1.2428 B( 59-C , 96-H ) :   0.9482 B( 60-C , 61-C ) :   1.5444
B( 60-C , 97-H ) :   0.9397 B( 61-C , 62-C ) :   0.9610 B( 61-C , 76-C ) :   1.0716
B( 62-C , 63-O ) :   2.2420 B( 62-C , 64-C ) :   0.9202 B( 64-C , 65-C ) :   1.4811
B( 64-C , 75-C ) :   1.2189 B( 65-C , 66-C ) :   1.1858 B( 65-C , 98-H ) :   1.0170
B( 66-C , 67-C ) :   1.2621 B( 66-C , 71-C ) :   1.1930 B( 67-C , 68-C ) :   1.1900
B( 67-C , 74-C ) :   1.2064 B( 68-C , 69-C ) :   1.4378 B( 68-C , 71-C ) :   0.1095
B( 68-C , 99-H ) :   1.0082 B( 69-C , 70-C ) :   1.1943 B( 69-C , 73-F ) :   1.1323
B( 70-C , 71-C ) :   1.4398 B( 70-C , 72-F ) :   1.1306 B( 71-C ,100-H ) :   1.0082
B( 74-C , 75-C ) :   1.4624 B( 74-C ,101-H ) :   0.9935 B( 75-C , 76-C ) :   0.9907
B( 76-C , 77-C ) :   1.6165 B( 77-C , 78-C ) :   1.1594 B( 77-C , 80-C ) :   1.1361
B( 78-C , 79-N ) :   3.0141 B( 80-C , 81-N ) :   2.9713

-----------------------------------------------------------------------------
         ABSORPTION SPECTRUM VIA TRANSITION ELECTRIC DIPOLE MOMENTS
-----------------------------------------------------------------------------
State   Energy  Wavelength   fosc         T2         TX        TY        TZ
        (cm-1)    (nm)                  (au**2)     (au)      (au)      (au)
-----------------------------------------------------------------------------
   0   12942.9    772.6   1.486444846  37.80879   3.85380   4.73643   0.72334
   1   22356.2    447.3   0.063539685   0.93567  -0.27326   0.52734  -0.76348
   2   22879.0    437.1   0.769673089  11.07500   0.71961  -0.76776  -3.15717
   3   23334.4    428.6   0.013154589   0.18559   0.20535  -0.24485  -0.28891
   4   23987.8    416.9   0.101072203   1.38713   0.68743  -0.82627   0.48151
   5   24236.4    412.6   0.318104050   4.32093   0.62900  -1.82505   0.77102
   6   24971.6    400.5   0.130981535   1.72679   0.91853  -0.80612   0.48297
   7   26796.1    373.2   0.080325269   0.98686   0.94515  -0.19362   0.23680
   8   27286.6    366.5   0.185247424   2.23500   1.45080  -0.17784   0.31393
   9   27352.9    365.6   0.083146245   1.00072  -0.95411  -0.05375  -0.29583
  10   28071.1    356.2   0.013225801   0.15511   0.05613   0.33476   0.19974
  11   28246.5    354.0   0.269788066   3.14437  -1.02406   0.01044  -1.44761
  12   28247.8    354.0   0.120026667   1.39884   0.04592   0.43813  -1.09762
  13   28978.5    345.1   0.023058783   0.26196   0.06004  -0.25166   0.44162
  14   29053.3    344.2   0.388400857   4.40109  -1.09055   0.59495  -1.69051
  15   29876.2    334.7   0.173378146   1.91049  -0.23216  -1.34690  -0.20607
  16   30717.0    325.6   0.044293802   0.47472  -0.44428   0.13042  -0.51023
  17   30837.9    324.3   0.172375245   1.84020  -1.11579   0.42314  -0.64512
  18   31117.5    321.4   0.001356376   0.01435   0.09539  -0.06306   0.03570
  19   31254.0    320.0   0.065370643   0.68858  -0.77560   0.29184  -0.04313
  20   31604.9    316.4   0.039035994   0.40662   0.44646   0.29887   0.34346
  21   31626.9    316.2   0.180798547   1.88198   0.43100  -1.28564  -0.20821
  22   32393.6    308.7   0.027853402   0.28307   0.36103  -0.30948  -0.23864
  23   32615.8    306.6   0.169391025   1.70977   1.17246   0.50793  -0.27771
  24   33101.8    302.1   0.345282963   3.43399   1.54623   0.94233  -0.39395
  25   33196.5    301.2   0.083276604   0.82586   0.87353  -0.24044   0.07073
  26   33548.2    298.1   0.005153216   0.05057  -0.00066  -0.21875   0.05214
  27   33805.4    295.8   0.016142834   0.15721   0.06249   0.31394  -0.23397
  28   33920.4    294.8   0.030696987   0.29793  -0.19986  -0.01693   0.50764
  29   34154.1    292.8   0.013531268   0.13043   0.35301   0.06827   0.03388
  30   34417.9    290.5   0.634861070   6.07253   1.88312   0.84664   1.34522
  31   34929.3    286.3   0.015823758   0.14914  -0.23562   0.00210   0.30597
  32   35147.1    284.5   0.083406094   0.78124  -0.70644  -0.35875   0.39177
  33   35445.5    282.1   0.009700339   0.09010   0.01080   0.02027  -0.29928
  34   36019.2    277.6   0.037386215   0.34171   0.31647  -0.44502   0.20859
  35   36339.1    275.2   0.048529626   0.43965  -0.31274   0.19288  -0.55195
  36   36496.5    274.0   0.061017055   0.55040  -0.20221   0.31728  -0.63940
  37   36679.3    272.6   0.070972380   0.63701   0.24394   0.62564  -0.43136
  38   36964.7    270.5   0.029605329   0.26367  -0.38166   0.29358   0.17837
  39   37318.9    268.0   0.138328845   1.22028   0.25428  -0.56459  -0.91480
  40   37457.2    267.0   0.032780084   0.28810   0.25986   0.46614   0.05736
  41   37756.2    264.9   0.009448418   0.08238  -0.06278   0.22580  -0.16570
  42   38128.6    262.3   0.096964700   0.83722  -0.37323   0.21405  -0.80753
  43   38464.9    260.0   0.260848260   2.23254  -0.27746  -1.16800   0.88956
  44   38699.4    258.4   0.025858990   0.21998   0.35562  -0.26252  -0.15684
  45   38892.9    257.1   0.133404682   1.12921  -0.47551  -0.76190   0.56800
  46   38953.8    256.7   0.029928742   0.25294  -0.02585   0.26991  -0.42358
  47   39290.6    254.5   0.011807324   0.09893  -0.05452  -0.19383   0.24164
  48   39524.8    253.0   0.221374732   1.84388   1.23744  -0.24616   0.50204
  49   40132.0    249.2   0.026345635   0.21612  -0.34307  -0.29475  -0.10745
  50   40180.2    248.9   0.045869360   0.37583  -0.26988   0.32883   0.44143
  51   40303.2    248.1   0.032822553   0.26811  -0.02536  -0.28182   0.43364

FINAL SINGLE POINT ENERGY     -5820.628858735990

DIPOLE MOMENT
-------------
                                X             Y             Z
Electronic contribution:     17.54930      -9.36492      20.27823
Nuclear contribution   :    -19.44405       8.11769     -25.71080
                        -----------------------------------------
Total Dipole Moment    :     -1.89474      -1.24723      -5.43257
                        -----------------------------------------
Magnitude (a.u.)       :      5.88715
Magnitude (Debye)      :     14.96394

Rotational constants in cm-1:     0.000514     0.000242     0.000191
Rotational constants in MHz :    15.398909     7.258953     5.739523

                             ****ORCA TERMINATED NORMALLY****
TOTAL RUN TIME: 0 days 0 hours 10 minutes 52 seconds 522 msec
