                         Program Version 4.2.0 -  RELEASE  -
|  1> # ORCA input file
|  2> # SCF done       -186.213084014140          0.000681219796
|  3> ! CAM-B3LYP def2-SVP def2/J RIJCOSX Grid4 TightSCF
|  4> %maxcore 5000
|  5> %tddft
|  6>     Mode sTDDFT
|  7>     Ethresh 5.0
|  8>     maxcore 5000
|  9> end
| 10>
| 11> %pal
| 12>   nprocs 6
| 13>   end
| 14> * xyz 0 1
| 15>    C       -5.00241       -12.11395         0.10843
| 16>    C       -3.92842       -11.94925         0.93911
| 17>    F       -3.37588       -13.01010         1.54348
| 18>    C       -3.39105       -10.66864         1.17022
| 19>    F       -2.33783       -10.53416         1.98956
| 20>    C       -3.93485        -9.56834         0.56706
| 21>    C       -5.04121        -9.70579        -0.29197
| 22>    C       -5.58641       -11.00081        -0.52684
| 23>    C       -6.70016       -11.16270        -1.38505
| 24>    C       -7.25235       -10.06397        -1.98675
| 25>    C       -6.69970        -8.77241        -1.74536
| 26>    C       -5.62489        -8.58507        -0.92525
| 27>    C       -7.47388        -7.78081        -2.50047
| 28>    O       -7.29004        -6.56409        -2.53895
| 29>    C       -8.51852        -8.52248        -3.20467
| 30>    C       -8.38559        -9.92585        -2.90015
| 31>    C       -9.16365       -10.95442        -3.37195
| 32>    C      -10.24322       -10.78239        -4.25996
| 33>    N      -11.12896       -10.68733        -4.98486
| 34>    C       -8.97772       -12.30763        -3.02912
| 35>    N       -8.87450       -13.42501        -2.78435
| 36>    C       -9.44025        -7.88049        -4.00372
| 37>    N       -9.37657        -6.55162        -4.14454
| 38>    C      -10.18474        -5.74799        -4.87325
| 39>    S      -11.52067        -6.37609        -5.78981
| 40>    C      -11.88876        -4.76108        -6.30778
| 41>    N      -12.98284        -4.57644        -7.15831
| 42>    O      -13.23052        -3.43869        -7.52084
| 43>    O      -13.61038        -5.57312        -7.47579
| 44>    C      -11.03819        -3.81200        -5.80604
| 45>    C      -10.04239        -4.35428        -4.97255
| 46>    C       -9.00636        -3.61525        -4.30449
| 47>    C       -8.81888        -2.28324        -4.38644
| 48>    C       -7.75156        -1.62937        -3.69024
| 49>    C       -7.46436        -0.31707        -3.68824
| 50>    C       -8.19666         0.74126        -4.44672
| 51>    C       -6.25982         0.18121        -2.92481
| 52>    N       -5.16868         0.45158        -3.83585
| 53>    C       -4.91820         1.67596        -4.34966
| 54>    C       -4.17965         1.90372        -5.46838
| 55>    C       -3.84436         3.19139        -5.92406
| 56>    C       -3.12746         3.45482        -7.06034
| 57>    C       -2.74537         4.72588        -7.55657
| 58>    C       -2.03389         4.68835        -8.71440
| 59>    C       -1.81350         3.38186        -9.21461
| 60>    S       -2.53788         2.19721        -8.14703
| 61>    C       -1.14906         3.02024       -10.36449
| 62>    C       -0.50492         3.87674       -11.29532
| 63>    C        0.05945         3.24050       -12.34848
| 64>    C       -0.10171         1.81909       -12.33870
| 65>    S       -0.99523         1.35193       -10.87878
| 66>    C        0.29725         0.89194       -13.23125
| 67>    C        1.03695         1.19211       -14.49179
| 68>    C        1.87251         0.04549       -15.03247
| 69>    C        2.72142         0.70301       -16.16973
| 70>    C        2.68074         2.23938       -16.24718
| 71>    C        3.80203         2.92526       -16.03693
| 72>    O        1.60395         2.99067       -16.68885
| 73>    C        0.25625         2.87602       -16.17770
| 74>    C        0.13672         1.43487       -15.74462
| 75>    C       -1.01680         0.50614       -15.55071
| 76>    C       -0.58389        -0.74286       -15.40438
| 77>    C        0.89515        -1.09419       -15.49729
| 78>    C        1.17519        -2.38807       -14.73066
| 79>    C       -0.70045         3.30257       -17.29144
| 80>    C       -0.66183         2.39322       -18.51774
| 81>    C       -1.51904         2.95162       -19.64648
| 82>    H       -5.40163       -13.10234        -0.05760
| 83>    H       -3.51124        -8.59402         0.75457
| 84>    H       -7.08865       -12.15577        -1.54203
| 85>    H       -5.22480        -7.59633        -0.75925
| 86>    H      -10.22643        -8.40499        -4.52997
| 87>    H       -8.59785        -6.12230        -3.61000
| 88>    H      -11.15002        -2.77057        -6.04337
| 89>    H       -8.32202        -4.18370        -3.68840
| 90>    H       -9.48120        -1.67992        -4.98657
| 91>    H       -7.12598        -2.28636        -3.09687
| 92>    H       -8.89305         0.32641        -5.16697
| 93>    H       -7.48751         1.37669        -4.97884
| 94>    H       -8.75297         1.37546        -3.75520
| 95>    H       -5.92957        -0.56806        -2.19912
| 96>    H       -6.49600         1.10614        -2.39314
| 97>    H       -4.87557        -0.33631        -4.39778
| 98>    H       -5.30101         2.50584        -3.76983
| 99>    H       -3.81823         1.06207        -6.04454
|100>    H       -4.17362         4.04019        -5.33842
|101>    H       -3.00978         5.62901        -7.03444
|102>    H       -1.66536         5.55913        -9.22627
|103>    H       -0.47761         4.94228       -11.15010
|104>    H        0.59772         3.73974       -13.13382
|105>    H        0.07319        -0.14116       -13.01741
|106>    H        1.67251         2.06096       -14.30416
|107>    H        2.54641        -0.35947       -14.27406
|108>    H        2.44495         0.30196       -17.14895
|109>    H        3.76949         0.44387       -16.01785
|110>    H        4.73352         2.44075       -15.81205
|111>    H        3.81427         3.99702       -16.12454
|112>    H        0.14944         3.58068       -15.33869
|113>    H        0.62893         0.96266       -16.59720
|114>    H       -2.04703         0.81337       -15.49778
|115>    H       -1.25669        -1.56701       -15.22333
|116>    H        1.09794        -1.30198       -16.55765
|117>    H        0.98483        -2.25757       -13.66766
|118>    H        2.21239        -2.68971       -14.85905
|119>    H        0.53982        -3.19202       -15.09581
|120>    H       -1.71011         3.32893       -16.87667
|121>    H       -0.42903         4.31583       -17.59383
|122>    H       -1.02409         1.39790       -18.25183
|123>    H        0.37220         2.30579       -18.85663
|124>    H       -2.55468         3.04810       -19.32728
|125>    H       -1.48681         2.29334       -20.51141
|126>    H       -1.16115         3.93315       -19.94899
|127> *
|128>
|129>                          ****END OF INPUT****

CARTESIAN COORDINATES (ANGSTROEM)
---------------------------------
  C     -5.002410  -12.113950    0.108430
  C     -3.928420  -11.949250    0.939110
  F     -3.375880  -13.010100    1.543480
  C     -3.391050  -10.668640    1.170220
  F     -2.337830  -10.534160    1.989560
  C     -3.934850   -9.568340    0.567060
  C     -5.041210   -9.705790   -0.291970
  C     -5.586410  -11.000810   -0.526840
  C     -6.700160  -11.162700   -1.385050
  C     -7.252350  -10.063970   -1.986750
  C     -6.699700   -8.772410   -1.745360
  C     -5.624890   -8.585070   -0.925250
  C     -7.473880   -7.780810   -2.500470
  O     -7.290040   -6.564090   -2.538950
  C     -8.518520   -8.522480   -3.204670
  C     -8.385590   -9.925850   -2.900150
  C     -9.163650  -10.954420   -3.371950
  C    -10.243220  -10.782390   -4.259960
  N    -11.128960  -10.687330   -4.984860
  C     -8.977720  -12.307630   -3.029120
  N     -8.874500  -13.425010   -2.784350
  C     -9.440250   -7.880490   -4.003720
  N     -9.376570   -6.551620   -4.144540
  C    -10.184740   -5.747990   -4.873250
  S    -11.520670   -6.376090   -5.789810
  C    -11.888760   -4.761080   -6.307780
  N    -12.982840   -4.576440   -7.158310
  O    -13.230520   -3.438690   -7.520840
  O    -13.610380   -5.573120   -7.475790
  C    -11.038190   -3.812000   -5.806040
  C    -10.042390   -4.354280   -4.972550
  C     -9.006360   -3.615250   -4.304490
  C     -8.818880   -2.283240   -4.386440
  C     -7.751560   -1.629370   -3.690240
  C     -7.464360   -0.317070   -3.688240
  C     -8.196660    0.741260   -4.446720
  C     -6.259820    0.181210   -2.924810
  N     -5.168680    0.451580   -3.835850
  C     -4.918200    1.675960   -4.349660
  C     -4.179650    1.903720   -5.468380
  C     -3.844360    3.191390   -5.924060
  C     -3.127460    3.454820   -7.060340
  C     -2.745370    4.725880   -7.556570
  C     -2.033890    4.688350   -8.714400
  C     -1.813500    3.381860   -9.214610
  S     -2.537880    2.197210   -8.147030
  C     -1.149060    3.020240  -10.364490
  C     -0.504920    3.876740  -11.295320
  C      0.059450    3.240500  -12.348480
  C     -0.101710    1.819090  -12.338700
  S     -0.995230    1.351930  -10.878780
  C      0.297250    0.891940  -13.231250
  C      1.036950    1.192110  -14.491790
  C      1.872510    0.045490  -15.032470
  C      2.721420    0.703010  -16.169730
  C      2.680740    2.239380  -16.247180
  C      3.802030    2.925260  -16.036930
  O      1.603950    2.990670  -16.688850
  C      0.256250    2.876020  -16.177700
  C      0.136720    1.434870  -15.744620
  C     -1.016800    0.506140  -15.550710
  C     -0.583890   -0.742860  -15.404380
  C      0.895150   -1.094190  -15.497290
  C      1.175190   -2.388070  -14.730660
  C     -0.700450    3.302570  -17.291440
  C     -0.661830    2.393220  -18.517740
  C     -1.519040    2.951620  -19.646480
  H     -5.401630  -13.102340   -0.057600
  H     -3.511240   -8.594020    0.754570
  H     -7.088650  -12.155770   -1.542030
  H     -5.224800   -7.596330   -0.759250
  H    -10.226430   -8.404990   -4.529970
  H     -8.597850   -6.122300   -3.610000
  H    -11.150020   -2.770570   -6.043370
  H     -8.322020   -4.183700   -3.688400
  H     -9.481200   -1.679920   -4.986570
  H     -7.125980   -2.286360   -3.096870
  H     -8.893050    0.326410   -5.166970
  H     -7.487510    1.376690   -4.978840
  H     -8.752970    1.375460   -3.755200
  H     -5.929570   -0.568060   -2.199120
  H     -6.496000    1.106140   -2.393140
  H     -4.875570   -0.336310   -4.397780
  H     -5.301010    2.505840   -3.769830
  H     -3.818230    1.062070   -6.044540
  H     -4.173620    4.040190   -5.338420
  H     -3.009780    5.629010   -7.034440
  H     -1.665360    5.559130   -9.226270
  H     -0.477610    4.942280  -11.150100
  H      0.597720    3.739740  -13.133820
  H      0.073190   -0.141160  -13.017410
  H      1.672510    2.060960  -14.304160
  H      2.546410   -0.359470  -14.274060
  H      2.444950    0.301960  -17.148950
  H      3.769490    0.443870  -16.017850
  H      4.733520    2.440750  -15.812050
  H      3.814270    3.997020  -16.124540
  H      0.149440    3.580680  -15.338690
  H      0.628930    0.962660  -16.597200
  H     -2.047030    0.813370  -15.497780
  H     -1.256690   -1.567010  -15.223330
  H      1.097940   -1.301980  -16.557650
  H      0.984830   -2.257570  -13.667660
  H      2.212390   -2.689710  -14.859050
  H      0.539820   -3.192020  -15.095810
  H     -1.710110    3.328930  -16.876670
  H     -0.429030    4.315830  -17.593830
  H     -1.024090    1.397900  -18.251830
  H      0.372200    2.305790  -18.856630
  H     -2.554680    3.048100  -19.327280
  H     -1.486810    2.293340  -20.511410
  H     -1.161150    3.933150  -19.948990

 Total Charge           Charge          ....    0
 Multiplicity           Mult            ....    1
 Number of Electrons    NEL             ....  496
 Basis Dimension        Dim             .... 1175

ORBITAL ENERGIES
----------------

  NO   OCC          E(Eh)            E(eV)
   0   2.0000     -88.996413     -2421.7155
   1   2.0000     -88.921699     -2419.6824
   2   2.0000     -88.916449     -2419.5396
   3   2.0000     -24.805340      -674.9876
   4   2.0000     -24.804363      -674.9610
   5   2.0000     -19.244488      -523.6691
   6   2.0000     -19.243455      -523.6410
   7   2.0000     -19.242156      -523.6057
   8   2.0000     -19.213468      -522.8250
   9   2.0000     -14.655558      -398.7980
  10   2.0000     -14.505081      -394.7033
  11   2.0000     -14.437673      -392.8691
  12   2.0000     -14.426043      -392.5526
  13   2.0000     -14.421356      -392.4251
  14   2.0000     -10.389520      -282.7132
  15   2.0000     -10.388942      -282.6975
  16   2.0000     -10.388929      -282.6971
  17   2.0000     -10.379914      -282.4518
  18   2.0000     -10.377978      -282.3991
  19   2.0000     -10.354633      -281.7639
  20   2.0000     -10.353913      -281.7443
  21   2.0000     -10.349025      -281.6113
  22   2.0000     -10.328219      -281.0451
  23   2.0000     -10.324449      -280.9426
  24   2.0000     -10.319769      -280.8152
  25   2.0000     -10.319593      -280.8104
  26   2.0000     -10.319277      -280.8018
  27   2.0000     -10.317951      -280.7657
  28   2.0000     -10.317541      -280.7546
  29   2.0000     -10.314675      -280.6766
  30   2.0000     -10.314311      -280.6667
  31   2.0000     -10.314252      -280.6651
  32   2.0000     -10.312376      -280.6140
  33   2.0000     -10.311805      -280.5985
  34   2.0000     -10.311766      -280.5974
  35   2.0000     -10.309863      -280.5456
  36   2.0000     -10.308519      -280.5091
  37   2.0000     -10.308500      -280.5085
  38   2.0000     -10.306080      -280.4427
  39   2.0000     -10.297772      -280.2166
  40   2.0000     -10.293979      -280.1134
  41   2.0000     -10.293825      -280.1092
  42   2.0000     -10.288963      -279.9769
  43   2.0000     -10.284332      -279.8509
  44   2.0000     -10.283042      -279.8158
  45   2.0000     -10.282094      -279.7900
  46   2.0000     -10.280328      -279.7419
  47   2.0000     -10.278023      -279.6792
  48   2.0000     -10.270416      -279.4722
  49   2.0000     -10.267620      -279.3961
  50   2.0000     -10.267148      -279.3833
  51   2.0000     -10.266730      -279.3719
  52   2.0000     -10.265286      -279.3326
  53   2.0000     -10.264075      -279.2997
  54   2.0000     -10.263589      -279.2865
  55   2.0000     -10.263425      -279.2820
  56   2.0000     -10.258271      -279.1417
  57   2.0000     -10.256361      -279.0898
  58   2.0000     -10.254804      -279.0474
  59   2.0000     -10.253821      -279.0207
  60   2.0000     -10.252608      -278.9876
  61   2.0000     -10.251029      -278.9447
  62   2.0000     -10.250926      -278.9419
  63   2.0000     -10.250016      -278.9171
  64   2.0000     -10.245493      -278.7940
  65   2.0000     -10.241940      -278.6974
  66   2.0000     -10.231507      -278.4135
  67   2.0000      -8.091544      -220.1821
  68   2.0000      -8.018030      -218.1817
  69   2.0000      -8.012979      -218.0443
  70   2.0000      -6.061190      -164.9334
  71   2.0000      -6.056837      -164.8149
  72   2.0000      -6.053021      -164.7111
  73   2.0000      -5.987805      -162.9365
  74   2.0000      -5.983926      -162.8309
  75   2.0000      -5.982867      -162.8021
  76   2.0000      -5.978975      -162.6962
  77   2.0000      -5.978754      -162.6902
  78   2.0000      -5.973442      -162.5456
  79   2.0000      -1.327393       -36.1202
  80   2.0000      -1.323933       -36.0260
  81   2.0000      -1.312568       -35.7168
  82   2.0000      -1.156199       -31.4618
  83   2.0000      -1.142911       -31.1002
  84   2.0000      -1.112199       -30.2645
  85   2.0000      -1.111927       -30.2571
  86   2.0000      -1.040745       -28.3201
  87   2.0000      -1.029515       -28.0145
  88   2.0000      -1.016764       -27.6676
  89   2.0000      -1.013886       -27.5892
  90   2.0000      -1.002075       -27.2679
  91   2.0000      -0.990834       -26.9620
  92   2.0000      -0.971194       -26.4275
  93   2.0000      -0.954144       -25.9636
  94   2.0000      -0.944456       -25.6999
  95   2.0000      -0.941858       -25.6293
  96   2.0000      -0.936912       -25.4947
  97   2.0000      -0.921186       -25.0667
  98   2.0000      -0.909601       -24.7515
  99   2.0000      -0.901689       -24.5362
 100   2.0000      -0.895138       -24.3579
 101   2.0000      -0.892619       -24.2894
 102   2.0000      -0.883245       -24.0343
 103   2.0000      -0.870078       -23.6760
 104   2.0000      -0.863012       -23.4837
 105   2.0000      -0.856949       -23.3188
 106   2.0000      -0.854800       -23.2603
 107   2.0000      -0.850305       -23.1380
 108   2.0000      -0.842896       -22.9364
 109   2.0000      -0.828672       -22.5493
 110   2.0000      -0.824796       -22.4439
 111   2.0000      -0.824298       -22.4303
 112   2.0000      -0.819661       -22.3041
 113   2.0000      -0.799962       -21.7681
 114   2.0000      -0.795586       -21.6490
 115   2.0000      -0.791760       -21.5449
 116   2.0000      -0.781005       -21.2522
 117   2.0000      -0.779399       -21.2085
 118   2.0000      -0.769705       -20.9447
 119   2.0000      -0.760467       -20.6934
 120   2.0000      -0.748159       -20.3585
 121   2.0000      -0.746676       -20.3181
 122   2.0000      -0.738852       -20.1052
 123   2.0000      -0.729143       -19.8410
 124   2.0000      -0.725401       -19.7392
 125   2.0000      -0.713997       -19.4288
 126   2.0000      -0.707914       -19.2633
 127   2.0000      -0.698825       -19.0160
 128   2.0000      -0.696611       -18.9557
 129   2.0000      -0.687675       -18.7126
 130   2.0000      -0.681459       -18.5434
 131   2.0000      -0.673504       -18.3270
 132   2.0000      -0.667172       -18.1547
 133   2.0000      -0.665195       -18.1009
 134   2.0000      -0.664446       -18.0805
 135   2.0000      -0.656345       -17.8601
 136   2.0000      -0.652735       -17.7618
 137   2.0000      -0.650232       -17.6937
 138   2.0000      -0.650051       -17.6888
 139   2.0000      -0.639804       -17.4100
 140   2.0000      -0.636385       -17.3169
 141   2.0000      -0.633570       -17.2403
 142   2.0000      -0.622388       -16.9360
 143   2.0000      -0.616985       -16.7890
 144   2.0000      -0.614337       -16.7170
 145   2.0000      -0.607511       -16.5312
 146   2.0000      -0.605870       -16.4866
 147   2.0000      -0.605172       -16.4676
 148   2.0000      -0.600621       -16.3437
 149   2.0000      -0.593807       -16.1583
 150   2.0000      -0.593678       -16.1548
 151   2.0000      -0.592323       -16.1179
 152   2.0000      -0.587755       -15.9936
 153   2.0000      -0.581900       -15.8343
 154   2.0000      -0.580241       -15.7892
 155   2.0000      -0.576521       -15.6879
 156   2.0000      -0.569420       -15.4947
 157   2.0000      -0.567660       -15.4468
 158   2.0000      -0.567097       -15.4315
 159   2.0000      -0.563534       -15.3345
 160   2.0000      -0.562058       -15.2944
 161   2.0000      -0.558475       -15.1969
 162   2.0000      -0.553552       -15.0629
 163   2.0000      -0.553420       -15.0593
 164   2.0000      -0.547737       -14.9047
 165   2.0000      -0.543245       -14.7825
 166   2.0000      -0.541655       -14.7392
 167   2.0000      -0.539483       -14.6801
 168   2.0000      -0.535615       -14.5748
 169   2.0000      -0.533739       -14.5238
 170   2.0000      -0.533493       -14.5171
 171   2.0000      -0.529551       -14.4098
 172   2.0000      -0.527138       -14.3442
 173   2.0000      -0.524911       -14.2836
 174   2.0000      -0.524532       -14.2732
 175   2.0000      -0.516110       -14.0441
 176   2.0000      -0.513955       -13.9854
 177   2.0000      -0.512470       -13.9450
 178   2.0000      -0.507773       -13.8172
 179   2.0000      -0.506989       -13.7959
 180   2.0000      -0.502186       -13.6652
 181   2.0000      -0.499023       -13.5791
 182   2.0000      -0.496292       -13.5048
 183   2.0000      -0.492637       -13.4053
 184   2.0000      -0.485225       -13.2036
 185   2.0000      -0.484216       -13.1762
 186   2.0000      -0.480810       -13.0835
 187   2.0000      -0.479773       -13.0553
 188   2.0000      -0.475108       -12.9283
 189   2.0000      -0.474726       -12.9179
 190   2.0000      -0.473797       -12.8927
 191   2.0000      -0.472952       -12.8697
 192   2.0000      -0.472880       -12.8677
 193   2.0000      -0.469161       -12.7665
 194   2.0000      -0.466215       -12.6864
 195   2.0000      -0.463587       -12.6148
 196   2.0000      -0.460048       -12.5186
 197   2.0000      -0.458156       -12.4670
 198   2.0000      -0.457419       -12.4470
 199   2.0000      -0.456767       -12.4293
 200   2.0000      -0.455577       -12.3969
 201   2.0000      -0.453315       -12.3353
 202   2.0000      -0.451249       -12.2791
 203   2.0000      -0.451160       -12.2767
 204   2.0000      -0.444225       -12.0880
 205   2.0000      -0.441918       -12.0252
 206   2.0000      -0.441823       -12.0226
 207   2.0000      -0.439942       -11.9714
 208   2.0000      -0.438907       -11.9433
 209   2.0000      -0.435216       -11.8428
 210   2.0000      -0.435075       -11.8390
 211   2.0000      -0.430455       -11.7133
 212   2.0000      -0.427257       -11.6262
 213   2.0000      -0.425957       -11.5909
 214   2.0000      -0.421935       -11.4814
 215   2.0000      -0.417943       -11.3728
 216   2.0000      -0.416363       -11.3298
 217   2.0000      -0.415583       -11.3086
 218   2.0000      -0.406326       -11.0567
 219   2.0000      -0.404511       -11.0073
 220   2.0000      -0.403719       -10.9858
 221   2.0000      -0.396983       -10.8025
 222   2.0000      -0.392940       -10.6924
 223   2.0000      -0.392008       -10.6671
 224   2.0000      -0.391510       -10.6535
 225   2.0000      -0.389200       -10.5907
 226   2.0000      -0.383662       -10.4400
 227   2.0000      -0.379211       -10.3188
 228   2.0000      -0.375481       -10.2174
 229   2.0000      -0.372599       -10.1389
 230   2.0000      -0.371779       -10.1166
 231   2.0000      -0.369203       -10.0465
 232   2.0000      -0.366932        -9.9847
 233   2.0000      -0.365269        -9.9395
 234   2.0000      -0.353430        -9.6173
 235   2.0000      -0.352633        -9.5956
 236   2.0000      -0.344201        -9.3662
 237   2.0000      -0.328709        -8.9446
 238   2.0000      -0.324255        -8.8234
 239   2.0000      -0.317443        -8.6381
 240   2.0000      -0.316458        -8.6113
 241   2.0000      -0.305515        -8.3135
 242   2.0000      -0.301487        -8.2039
 243   2.0000      -0.299844        -8.1592
 244   2.0000      -0.283549        -7.7158
 245   2.0000      -0.272724        -7.4212
 246   2.0000      -0.258649        -7.0382
 247   2.0000      -0.189657        -5.1608
 248   0.0000      -0.099079        -2.6961
 249   0.0000      -0.077144        -2.0992
 250   0.0000      -0.054552        -1.4844
 251   0.0000      -0.043398        -1.1809
 252   0.0000      -0.033649        -0.9156

MULLIKEN ATOMIC CHARGES
-----------------------
   0 C :   -0.105927
   1 C :    0.243438
   2 F :   -0.169647
   3 C :    0.239381
   4 F :   -0.171679
   5 C :   -0.102696
   6 C :    0.113630
   7 C :    0.112543
   8 C :   -0.080693
   9 C :    0.042741
  10 C :    0.007336
  11 C :   -0.077673
  12 C :    0.169073
  13 O :   -0.229773
  14 C :   -0.135370
  15 C :    0.331531
  16 C :   -0.343692
  17 C :   -0.197726
  18 N :    0.147358
  19 C :   -0.182521
  20 N :    0.150216
  21 C :    0.034765
  22 N :   -0.002323
  23 C :   -0.125587
  24 S :    0.180717
  25 C :    0.000907
  26 N :    0.276644
  27 O :   -0.246685
  28 O :   -0.255253
  29 C :    0.005612
  30 C :    0.151009
  31 C :   -0.056136
  32 C :    0.018650
  33 C :    0.002424
  34 C :   -0.184865
  35 C :    0.090658
  36 C :    0.203001
  37 N :   -0.142428
  38 C :    0.043162
  39 C :   -0.025198
  40 C :   -0.016938
  41 C :   -0.034226
  42 C :    0.038599
  43 C :    0.015119
  44 C :   -0.047099
  45 S :    0.045164
  46 C :   -0.055827
  47 C :    0.021431
  48 C :    0.016782
  49 C :   -0.041183
  50 S :    0.056093
  51 C :    0.050333
  52 C :   -0.084268
  53 C :   -0.073185
  54 C :    0.200281
  55 C :    0.031924
  56 C :   -0.060846
  57 O :   -0.356519
  58 C :    0.262606
  59 C :   -0.097035
  60 C :    0.036566
  61 C :   -0.065747
  62 C :   -0.000208
  63 C :    0.054250
  64 C :    0.064333
  65 C :   -0.071602
  66 C :    0.040331
  67 H :    0.010116
  68 H :   -0.000334
  69 H :   -0.003614
  70 H :   -0.011711
  71 H :    0.047222
  72 H :    0.186973
  73 H :    0.013521
  74 H :   -0.010364
  75 H :   -0.014505
  76 H :   -0.024940
  77 H :    0.013465
  78 H :    0.037397
  79 H :    0.029568
  80 H :    0.011228
  81 H :    0.012046
  82 H :    0.117051
  83 H :   -0.002646
  84 H :   -0.016446
  85 H :   -0.029339
  86 H :   -0.025024
  87 H :   -0.024368
  88 H :   -0.021315
  89 H :   -0.015622
  90 H :   -0.033592
  91 H :    0.032534
  92 H :   -0.015193
  93 H :    0.002229
  94 H :   -0.004753
  95 H :   -0.000141
  96 H :    0.009627
  97 H :   -0.014632
  98 H :    0.039917
  99 H :   -0.020436
 100 H :   -0.019550
 101 H :    0.011615
 102 H :    0.014759
 103 H :    0.008000
 104 H :    0.009127
 105 H :   -0.001920
 106 H :    0.001936
 107 H :    0.011883
 108 H :    0.017209
 109 H :    0.001025
 110 H :    0.007937
 111 H :    0.006011
Sum of atomic charges:    0.0000000

LOEWDIN ATOMIC CHARGES
----------------------
   0 C :   -0.027645
   1 C :    0.069194
   2 F :   -0.047617
   3 C :    0.069390
   4 F :   -0.049182
   5 C :   -0.032082
   6 C :   -0.010228
   7 C :   -0.005913
   8 C :    0.020737
   9 C :   -0.020156
  10 C :   -0.052343
  11 C :    0.032070
  12 C :    0.096806
  13 O :   -0.182644
  14 C :   -0.146453
  15 C :    0.078028
  16 C :   -0.147968
  17 C :   -0.020969
  18 N :   -0.052032
  19 C :   -0.019220
  20 N :   -0.053373
  21 C :    0.116083
  22 N :    0.084682
  23 C :   -0.117773
  24 S :    0.471811
  25 C :   -0.197493
  26 N :    0.274594
  27 O :   -0.214180
  28 O :   -0.221519
  29 C :    0.003651
  30 C :   -0.080326
  31 C :   -0.037075
  32 C :   -0.007915
  33 C :   -0.055073
  34 C :   -0.030970
  35 C :   -0.049900
  36 C :    0.047801
  37 N :   -0.002861
  38 C :    0.032150
  39 C :   -0.121285
  40 C :   -0.046544
  41 C :   -0.172669
  42 C :   -0.034466
  43 C :   -0.049551
  44 C :   -0.177480
  45 S :    0.343597
  46 C :   -0.195161
  47 C :   -0.026165
  48 C :   -0.053907
  49 C :   -0.146079
  50 S :    0.334623
  51 C :   -0.052171
  52 C :   -0.024840
  53 C :   -0.009361
  54 C :   -0.030801
  55 C :    0.052511
  56 C :   -0.109179
  57 O :   -0.137008
  58 C :    0.093497
  59 C :   -0.046524
  60 C :   -0.013714
  61 C :   -0.029957
  62 C :   -0.031837
  63 C :   -0.046390
  64 C :   -0.034725
  65 C :   -0.042287
  66 C :   -0.054637
  67 H :    0.048801
  68 H :    0.044852
  69 H :    0.041322
  70 H :    0.040091
  71 H :    0.037209
  72 H :    0.084078
  73 H :    0.045128
  74 H :    0.029580
  75 H :    0.025058
  76 H :    0.026379
  77 H :    0.029218
  78 H :    0.039813
  79 H :    0.039731
  80 H :    0.025553
  81 H :    0.029747
  82 H :    0.078798
  83 H :    0.024497
  84 H :    0.017793
  85 H :    0.027524
  86 H :    0.028630
  87 H :    0.027082
  88 H :    0.029273
  89 H :    0.026151
  90 H :    0.018493
  91 H :    0.029365
  92 H :    0.015650
  93 H :    0.026303
  94 H :    0.033349
  95 H :    0.017702
  96 H :    0.020619
  97 H :    0.009827
  98 H :    0.038171
  99 H :    0.021282
 100 H :    0.018543
 101 H :    0.031579
 102 H :    0.021940
 103 H :    0.022847
 104 H :    0.022131
 105 H :    0.024225
 106 H :    0.025305
 107 H :    0.019604
 108 H :    0.021860
 109 H :    0.019688
 110 H :    0.022593
 111 H :    0.021037

  Mayer bond orders larger than 0.100000
B(  0-C ,  1-C ) :   1.4352 B(  0-C ,  5-C ) :   0.1077 B(  0-C ,  7-C ) :   1.1938
B(  0-C , 67-H ) :   1.0069 B(  1-C ,  2-F ) :   1.1367 B(  1-C ,  3-C ) :   1.1954
B(  3-C ,  4-F ) :   1.1338 B(  3-C ,  5-C ) :   1.4377 B(  5-C ,  6-C ) :   1.1957
B(  5-C , 68-H ) :   1.0070 B(  6-C ,  7-C ) :   1.2596 B(  6-C , 11-C ) :   1.1820
B(  7-C ,  8-C ) :   1.2065 B(  8-C ,  9-C ) :   1.4667 B(  8-C , 69-H ) :   0.9893
B(  9-C , 10-C ) :   1.2194 B(  9-C , 15-C ) :   0.9873 B( 10-C , 11-C ) :   1.4721
B( 10-C , 12-C ) :   0.9802 B( 11-C , 70-H ) :   1.0181 B( 12-C , 13-O ) :   2.0221
B( 12-C , 14-C ) :   1.0159 B( 13-O , 72-H ) :   0.1435 B( 14-C , 15-C ) :   1.1006
B( 14-C , 21-C ) :   1.4323 B( 15-C , 16-C ) :   1.6257 B( 16-C , 17-C ) :   1.1500
B( 16-C , 19-C ) :   1.1492 B( 17-C , 18-N ) :   2.9531 B( 19-C , 20-N ) :   2.9594
B( 21-C , 22-N ) :   1.3527 B( 21-C , 71-H ) :   0.9322 B( 22-N , 23-C ) :   1.1937
B( 22-N , 72-H ) :   0.8203 B( 23-C , 24-S ) :   1.1314 B( 23-C , 30-C ) :   1.3752
B( 24-S , 25-C ) :   1.0853 B( 25-C , 26-N ) :   0.9669 B( 25-C , 29-C ) :   1.5037
B( 26-N , 27-O ) :   1.5302 B( 26-N , 28-O ) :   1.5138 B( 27-O , 28-O ) :   0.2643
B( 29-C , 30-C ) :   1.2209 B( 29-C , 73-H ) :   0.9988 B( 30-C , 31-C ) :   1.0416
B( 31-C , 32-C ) :   1.7417 B( 31-C , 74-H ) :   0.9803 B( 32-C , 33-C ) :   1.0948
B( 32-C , 75-H ) :   0.9733 B( 33-C , 34-C ) :   1.7563 B( 33-C , 76-H ) :   0.9773
B( 34-C , 35-C ) :   1.0737 B( 34-C , 36-C ) :   1.0363 B( 35-C , 77-H ) :   0.9521
B( 35-C , 78-H ) :   0.9437 B( 35-C , 79-H ) :   0.9441 B( 36-C , 37-N ) :   1.0175
B( 36-C , 80-H ) :   0.9412 B( 36-C , 81-H ) :   0.9309 B( 37-N , 38-C ) :   1.2105
B( 37-N , 82-H ) :   0.9369 B( 38-C , 39-C ) :   1.6076 B( 38-C , 83-H ) :   0.9651
B( 39-C , 40-C ) :   1.1597 B( 39-C , 84-H ) :   0.9630 B( 40-C , 41-C ) :   1.6027
B( 40-C , 85-H ) :   0.9777 B( 41-C , 42-C ) :   1.1366 B( 41-C , 45-S ) :   1.0067
B( 42-C , 43-C ) :   1.6038 B( 42-C , 86-H ) :   0.9973 B( 43-C , 44-C ) :   1.1760
B( 43-C , 87-H ) :   0.9924 B( 44-C , 45-S ) :   1.0400 B( 44-C , 46-C ) :   1.5398
B( 46-C , 47-C ) :   1.1676 B( 46-C , 50-S ) :   1.0281 B( 47-C , 48-C ) :   1.6393
B( 47-C , 88-H ) :   0.9916 B( 48-C , 49-C ) :   1.1001 B( 48-C , 89-H ) :   0.9829
B( 49-C , 50-S ) :   1.0106 B( 49-C , 51-C ) :   1.7561 B( 51-C , 52-C ) :   1.0268
B( 51-C , 90-H ) :   0.9413 B( 52-C , 53-C ) :   1.0607 B( 52-C , 59-C ) :   0.9662
B( 52-C , 91-H ) :   0.8844 B( 53-C , 54-C ) :   1.0024 B( 53-C , 62-C ) :   0.9612
B( 53-C , 92-H ) :   0.9281 B( 54-C , 55-C ) :   1.0167 B( 54-C , 93-H ) :   0.8827
B( 54-C , 94-H ) :   0.9095 B( 55-C , 56-C ) :   1.9577 B( 55-C , 57-O ) :   1.0656
B( 56-C , 95-H ) :   0.9479 B( 56-C , 96-H ) :   0.9412 B( 57-O , 58-C ) :   0.9346
B( 58-C , 59-C ) :   0.9867 B( 58-C , 64-C ) :   1.0654 B( 58-C , 97-H ) :   0.9227
B( 59-C , 60-C ) :   0.9729 B( 59-C , 98-H ) :   0.9009 B( 60-C , 61-C ) :   1.8537
B( 60-C , 99-H ) :   0.9956 B( 61-C , 62-C ) :   1.0277 B( 61-C ,100-H ) :   0.9792
B( 62-C , 63-C ) :   1.0736 B( 62-C ,101-H ) :   0.8995 B( 63-C ,102-H ) :   0.9691
B( 63-C ,103-H ) :   0.9622 B( 63-C ,104-H ) :   0.9612 B( 64-C , 65-C ) :   1.0780
B( 64-C ,105-H ) :   0.9310 B( 64-C ,106-H ) :   0.9358 B( 65-C , 66-C ) :   1.1027
B( 65-C ,107-H ) :   0.9396 B( 65-C ,108-H ) :   0.9468 B( 66-C ,109-H ) :   0.9671
B( 66-C ,110-H ) :   0.9669 B( 66-C ,111-H ) :   0.9705

-----------------------------------------------------------------------------
         ABSORPTION SPECTRUM VIA TRANSITION ELECTRIC DIPOLE MOMENTS
-----------------------------------------------------------------------------
State   Energy  Wavelength   fosc         T2         TX        TY        TZ
        (cm-1)    (nm)                  (au**2)     (au)      (au)      (au)
-----------------------------------------------------------------------------
   0   11528.3    867.4   0.042275603   1.20726   0.46666   0.80138  -0.58931
   1   16652.4    600.5   0.006260900   0.12378   0.13239   0.13998  -0.29437
   2   18627.6    536.8   1.210940981  21.40142   2.47002   0.94921  -3.79465
   3   20716.6    482.7   0.232706215   3.69799  -0.46691  -0.23704   1.85035
   4   21164.5    472.5   0.866408752  13.47691   1.74675  -3.17226   0.60211
   5   23213.4    430.8   0.122910747   1.74312   0.19956  -0.42620  -1.23355
   6   25449.0    392.9   0.082797892   1.07108  -0.80553  -0.23597  -0.60541
   7   26561.2    376.5   0.056189686   0.69644   0.55278  -0.37970   0.49669
   8   28766.6    347.6   0.082084012   0.93939   0.46501   0.77588   0.34810
   9   29211.3    342.3   0.029365154   0.33095   0.16831  -0.54983   0.01745
  10   29816.3    335.4   0.062351773   0.68845  -0.64246  -0.11112  -0.51317
  11   30128.0    331.9   0.158378490   1.73062   0.07130  -1.29414   0.22525
  12   30707.3    325.7   0.036980151   0.39646   0.07848  -0.60506   0.15560
  13   31174.5    320.8   0.395083848   4.17221  -1.56824   0.27866  -1.27874
  14   31750.2    315.0   0.168815558   1.75042   1.06108   0.10033   0.78387
  15   32260.4    310.0   0.009023861   0.09209  -0.02737  -0.24315   0.17949
  16   33272.6    300.5   0.000101039   0.00100  -0.00783  -0.02926  -0.00907
  17   33474.9    298.7   0.419977265   4.13031   0.25832   1.98839  -0.33150
  18   33893.0    295.0   0.000194459   0.00189  -0.00154  -0.02906  -0.03228
  19   34138.5    292.9   0.792688768   7.64424  -2.19875  -0.42374  -1.62178
  20   34889.8    286.6   0.000505350   0.00477   0.04860   0.03989   0.02855
  21   34991.0    285.8   0.003015062   0.02837   0.09030   0.13099   0.05526
  22   35526.3    281.5   0.001883458   0.01745  -0.05608   0.11930   0.00874
  23   35946.7    278.2   0.469498951   4.29982  -1.28911  -1.41884  -0.79053
  24   36393.4    274.8   0.229500957   2.07605  -0.81878  -1.03511  -0.57810
  25   36664.4    272.7   0.000034335   0.00031   0.00109   0.01119   0.01349
  26   37283.6    268.2   0.181280981   1.60070   0.40922  -1.10631   0.45751
  27   37401.2    267.4   0.000184014   0.00162  -0.03348   0.00891  -0.02047
  28   37502.6    266.6   0.001357477   0.01192  -0.08157  -0.03601  -0.06297
  29   37838.2    264.3   0.024176335   0.21035   0.15294   0.10949   0.41829
  30   38082.7    262.6   0.033802180   0.29221  -0.11023  -0.52467  -0.06913
  31   39141.2    255.5   0.009454024   0.07952  -0.15484   0.06814  -0.22560
  32   39195.1    255.1   0.001619589   0.01360  -0.07866   0.00771  -0.08577
  33   39577.5    252.7   0.000959140   0.00798   0.06379   0.06062  -0.01532
  34   39801.1    251.2   0.000028417   0.00024  -0.00865   0.00942   0.00846
  35   39979.6    250.1   0.019182038   0.15795  -0.20073   0.33460   0.07552
  36   40256.4    248.4   0.026709779   0.21843   0.03332   0.41046  -0.22101

FINAL SINGLE POINT ENERGY     -4011.461327259249

DIPOLE MOMENT
-------------
                                X             Y             Z
Electronic contribution:    -81.46972    -135.21454     148.47824
Nuclear contribution   :     82.57437     136.55621    -145.77085
                        -----------------------------------------
Total Dipole Moment    :      1.10465       1.34167       2.70739
                        -----------------------------------------
Magnitude (a.u.)       :      3.21719
Magnitude (Debye)      :      8.17744

Rotational constants in cm-1:     0.000952     0.000238     0.000229
Rotational constants in MHz :    28.548654     7.131945     6.873793

                             ****ORCA TERMINATED NORMALLY****
TOTAL RUN TIME: 0 days 0 hours 10 minutes 0 seconds 59 msec
