                         Program Version 4.2.0 -  RELEASE  -
|  1> # ORCA input file
|  2> # SCF done       -214.109525364666          0.000601109300
|  3> ! CAM-B3LYP def2-SVP def2/J RIJCOSX Grid4 TightSCF
|  4> %maxcore 5000
|  5> %tddft
|  6>     Mode sTDDFT
|  7>     Ethresh 5.0
|  8>     maxcore 5000
|  9> end
| 10>
| 11> %pal
| 12>   nprocs 6
| 13>   end
| 14> * xyz 0 1
| 15>    C       -7.90677       -14.53211        -7.74795
| 16>    C       -8.81806       -14.46515        -8.76494
| 17>    F       -9.04121       -15.53264        -9.53967
| 18>    C       -9.53353       -13.27537        -9.00965
| 19>    F      -10.42047       -13.23846       -10.01127
| 20>    C       -9.32876       -12.16925        -8.23281
| 21>    C       -8.40001       -12.20859        -7.17486
| 22>    C       -7.67447       -13.41020        -6.92804
| 23>    C       -6.73775       -13.47392        -5.87038
| 24>    C       -6.53893       -12.37416        -5.07971
| 25>    C       -7.27446       -11.17813        -5.32909
| 26>    C       -8.17878       -11.08461        -6.34859
| 27>    C       -6.89483       -10.17197        -4.33211
| 28>    O       -7.31959        -9.02594        -4.21852
| 29>    C       -5.89986       -10.81167        -3.46309
| 30>    C       -5.66174       -12.15938        -3.92992
| 31>    C       -4.78157       -13.07028        -3.40967
| 32>    C       -3.94567       -12.81397        -2.30299
| 33>    N       -3.25141       -12.63838        -1.40596
| 34>    C       -4.59615       -14.37332        -3.91709
| 35>    N       -4.40518       -15.44295        -4.28594
| 36>    C       -5.36675       -10.15483        -2.38320
| 37>    N       -5.73945        -8.89758        -2.11027
| 38>    C       -5.34128        -8.14395        -1.05646
| 39>    S       -4.22805        -8.75261         0.12637
| 40>    C       -4.36791        -7.25672         0.99158
| 41>    N       -3.60564        -7.11697         2.16599
| 42>    O       -3.69169        -6.07003         2.77256
| 43>    O       -2.91510        -8.06911         2.47667
| 44>    C       -5.21684        -6.35728         0.41229
| 45>    C       -5.79183        -6.84472        -0.78189
| 46>    C       -6.69079        -6.10983        -1.62628
| 47>    C       -7.29370        -4.95922        -1.25935
| 48>    C       -8.13315        -4.17815        -2.09385
| 49>    S       -8.44545        -4.49097        -3.79066
| 50>    C       -9.45006        -3.06615        -3.98207
| 51>    C       -9.53853        -2.41014        -2.76631
| 52>    C       -8.80480        -3.03237        -1.73178
| 53>    C       -8.98047        -2.24371        -0.51439
| 54>    O       -8.54308        -2.39569         0.58615
| 55>    O       -9.81182        -1.19193        -0.85434
| 56>    C      -10.17974        -1.23406        -2.18110
| 57>    O      -10.90391        -0.41128        -2.66627
| 58>    C       -9.97686        -2.75642        -5.26270
| 59>    C      -10.68680        -1.62536        -5.49515
| 60>    N      -11.22189        -1.20353        -6.67086
| 61>    C      -11.03071        -1.65530        -7.92983
| 62>    S       -9.78610        -2.77692        -8.38350
| 63>    C      -10.15294        -2.50794       -10.06046
| 64>    N       -9.41507        -3.23178       -11.00319
| 65>    O       -9.66068        -3.04883       -12.17987
| 66>    O       -8.57586        -3.99906       -10.56150
| 67>    C      -11.16858        -1.61405       -10.25660
| 68>    C      -11.71306        -1.13827        -9.04949
| 69>    C      -12.85618        -0.26966        -9.00244
| 70>    C      -13.81714        -0.29473        -8.05047
| 71>    C      -14.98523         0.51827        -8.05163
| 72>    C      -15.17477         1.78851        -8.50249
| 73>    C      -16.57181         2.25441        -8.75800
| 74>    O      -17.58713         1.68625        -8.43553
| 75>    C      -16.43154         3.51177        -9.51726
| 76>    C      -17.40288         4.28642       -10.08245
| 77>    C      -17.02853         5.45852       -10.77755
| 78>    C      -15.64825         5.80031       -10.88057
| 79>    C      -15.28130         6.96954       -11.57678
| 80>    C      -16.23968         7.76457       -12.14047
| 81>    C      -17.60467         7.42606       -12.03712
| 82>    C      -17.99208         6.29714       -11.37038
| 83>    F      -18.52078         8.22213       -12.59997
| 84>    F      -15.89027         8.87571       -12.79804
| 85>    C      -14.66468         4.97969       -10.28303
| 86>    C      -15.05173         3.85518        -9.60298
| 87>    C      -14.27805         2.86471        -8.86053
| 88>    C      -13.00173         3.05975        -8.38774
| 89>    C      -12.39696         2.17897        -7.48516
| 90>    N      -11.90506         1.45918        -6.73483
| 91>    C      -12.19986         4.17631        -8.70312
| 92>    N      -11.50219         5.05391        -8.94587
| 93>    H       -7.36714       -15.45009        -7.57484
| 94>    H       -9.88374       -11.26644        -8.43408
| 95>    H       -6.20405       -14.39664        -5.71030
| 96>    H       -8.72058       -10.16701        -6.52011
| 97>    H       -4.64928       -10.61630        -1.71699
| 98>    H       -6.43179        -8.51584        -2.78137
| 99>    H       -5.39412        -5.38434         0.83243
|100>    H       -6.88406        -6.50224        -2.61683
|101>    H       -7.16775        -4.55359        -0.26497
|102>    H       -9.76756        -3.47492        -6.04022
|103>    H      -10.89739        -0.95347        -4.67370
|104>    H      -11.67132        -0.27316        -6.62209
|105>    H      -11.52486        -1.34358       -11.23417
|106>    H      -12.98809         0.37203        -9.86490
|107>    H      -13.78263        -1.06074        -7.28644
|108>    H      -15.88976         0.03906        -7.68630
|109>    H      -18.44311         4.01179        -9.99681
|110>    H      -14.24184         7.24553       -11.66188
|111>    H      -19.04039         6.05260       -11.30015
|112>    H      -13.62773         5.25767       -10.38449
|113> *
|114>
|115>                          ****END OF INPUT****

CARTESIAN COORDINATES (ANGSTROEM)
---------------------------------
  C     -7.906770  -14.532110   -7.747950
  C     -8.818060  -14.465150   -8.764940
  F     -9.041210  -15.532640   -9.539670
  C     -9.533530  -13.275370   -9.009650
  F    -10.420470  -13.238460  -10.011270
  C     -9.328760  -12.169250   -8.232810
  C     -8.400010  -12.208590   -7.174860
  C     -7.674470  -13.410200   -6.928040
  C     -6.737750  -13.473920   -5.870380
  C     -6.538930  -12.374160   -5.079710
  C     -7.274460  -11.178130   -5.329090
  C     -8.178780  -11.084610   -6.348590
  C     -6.894830  -10.171970   -4.332110
  O     -7.319590   -9.025940   -4.218520
  C     -5.899860  -10.811670   -3.463090
  C     -5.661740  -12.159380   -3.929920
  C     -4.781570  -13.070280   -3.409670
  C     -3.945670  -12.813970   -2.302990
  N     -3.251410  -12.638380   -1.405960
  C     -4.596150  -14.373320   -3.917090
  N     -4.405180  -15.442950   -4.285940
  C     -5.366750  -10.154830   -2.383200
  N     -5.739450   -8.897580   -2.110270
  C     -5.341280   -8.143950   -1.056460
  S     -4.228050   -8.752610    0.126370
  C     -4.367910   -7.256720    0.991580
  N     -3.605640   -7.116970    2.165990
  O     -3.691690   -6.070030    2.772560
  O     -2.915100   -8.069110    2.476670
  C     -5.216840   -6.357280    0.412290
  C     -5.791830   -6.844720   -0.781890
  C     -6.690790   -6.109830   -1.626280
  C     -7.293700   -4.959220   -1.259350
  C     -8.133150   -4.178150   -2.093850
  S     -8.445450   -4.490970   -3.790660
  C     -9.450060   -3.066150   -3.982070
  C     -9.538530   -2.410140   -2.766310
  C     -8.804800   -3.032370   -1.731780
  C     -8.980470   -2.243710   -0.514390
  O     -8.543080   -2.395690    0.586150
  O     -9.811820   -1.191930   -0.854340
  C    -10.179740   -1.234060   -2.181100
  O    -10.903910   -0.411280   -2.666270
  C     -9.976860   -2.756420   -5.262700
  C    -10.686800   -1.625360   -5.495150
  N    -11.221890   -1.203530   -6.670860
  C    -11.030710   -1.655300   -7.929830
  S     -9.786100   -2.776920   -8.383500
  C    -10.152940   -2.507940  -10.060460
  N     -9.415070   -3.231780  -11.003190
  O     -9.660680   -3.048830  -12.179870
  O     -8.575860   -3.999060  -10.561500
  C    -11.168580   -1.614050  -10.256600
  C    -11.713060   -1.138270   -9.049490
  C    -12.856180   -0.269660   -9.002440
  C    -13.817140   -0.294730   -8.050470
  C    -14.985230    0.518270   -8.051630
  C    -15.174770    1.788510   -8.502490
  C    -16.571810    2.254410   -8.758000
  O    -17.587130    1.686250   -8.435530
  C    -16.431540    3.511770   -9.517260
  C    -17.402880    4.286420  -10.082450
  C    -17.028530    5.458520  -10.777550
  C    -15.648250    5.800310  -10.880570
  C    -15.281300    6.969540  -11.576780
  C    -16.239680    7.764570  -12.140470
  C    -17.604670    7.426060  -12.037120
  C    -17.992080    6.297140  -11.370380
  F    -18.520780    8.222130  -12.599970
  F    -15.890270    8.875710  -12.798040
  C    -14.664680    4.979690  -10.283030
  C    -15.051730    3.855180   -9.602980
  C    -14.278050    2.864710   -8.860530
  C    -13.001730    3.059750   -8.387740
  C    -12.396960    2.178970   -7.485160
  N    -11.905060    1.459180   -6.734830
  C    -12.199860    4.176310   -8.703120
  N    -11.502190    5.053910   -8.945870
  H     -7.367140  -15.450090   -7.574840
  H     -9.883740  -11.266440   -8.434080
  H     -6.204050  -14.396640   -5.710300
  H     -8.720580  -10.167010   -6.520110
  H     -4.649280  -10.616300   -1.716990
  H     -6.431790   -8.515840   -2.781370
  H     -5.394120   -5.384340    0.832430
  H     -6.884060   -6.502240   -2.616830
  H     -7.167750   -4.553590   -0.264970
  H     -9.767560   -3.474920   -6.040220
  H    -10.897390   -0.953470   -4.673700
  H    -11.671320   -0.273160   -6.622090
  H    -11.524860   -1.343580  -11.234170
  H    -12.988090    0.372030   -9.864900
  H    -13.782630   -1.060740   -7.286440
  H    -15.889760    0.039060   -7.686300
  H    -18.443110    4.011790   -9.996810
  H    -14.241840    7.245530  -11.661880
  H    -19.040390    6.052600  -11.300150
  H    -13.627730    5.257670  -10.384490

 Total Charge           Charge          ....    0
 Multiplicity           Mult            ....    1
 Number of Electrons    NEL             ....  556
 Basis Dimension        Dim             .... 1204

ORBITAL ENERGIES
----------------

  NO   OCC          E(Eh)            E(eV)
   0   2.0000     -89.001504     -2421.8540
   1   2.0000     -88.998940     -2421.7843
   2   2.0000     -88.990047     -2421.5423
   3   2.0000     -24.809606      -675.1037
   4   2.0000     -24.808641      -675.0774
   5   2.0000     -24.806191      -675.0108
   6   2.0000     -24.805525      -674.9927
   7   2.0000     -19.285338      -524.7807
   8   2.0000     -19.247020      -523.7380
   9   2.0000     -19.246923      -523.7354
  10   2.0000     -19.246308      -523.7187
  11   2.0000     -19.246156      -523.7145
  12   2.0000     -19.244191      -523.6611
  13   2.0000     -19.232822      -523.3517
  14   2.0000     -19.232061      -523.3310
  15   2.0000     -19.231729      -523.3220
  16   2.0000     -14.659170      -398.8963
  17   2.0000     -14.658109      -398.8674
  18   2.0000     -14.507315      -394.7641
  19   2.0000     -14.488667      -394.2567
  20   2.0000     -14.451674      -393.2500
  21   2.0000     -14.434098      -392.7718
  22   2.0000     -14.427997      -392.6058
  23   2.0000     -14.423171      -392.4744
  24   2.0000     -10.429563      -283.8028
  25   2.0000     -10.427100      -283.7358
  26   2.0000     -10.393872      -282.8316
  27   2.0000     -10.393127      -282.8114
  28   2.0000     -10.391055      -282.7550
  29   2.0000     -10.390254      -282.7332
  30   2.0000     -10.389678      -282.7175
  31   2.0000     -10.387690      -282.6634
  32   2.0000     -10.382863      -282.5321
  33   2.0000     -10.382702      -282.5277
  34   2.0000     -10.380530      -282.4686
  35   2.0000     -10.366128      -282.0767
  36   2.0000     -10.362740      -281.9845
  37   2.0000     -10.359417      -281.8941
  38   2.0000     -10.356388      -281.8116
  39   2.0000     -10.355439      -281.7858
  40   2.0000     -10.353851      -281.7426
  41   2.0000     -10.351605      -281.6815
  42   2.0000     -10.351590      -281.6811
  43   2.0000     -10.346324      -281.5378
  44   2.0000     -10.341256      -281.3999
  45   2.0000     -10.337005      -281.2842
  46   2.0000     -10.335667      -281.2478
  47   2.0000     -10.330518      -281.1077
  48   2.0000     -10.330140      -281.0974
  49   2.0000     -10.326165      -280.9892
  50   2.0000     -10.325041      -280.9586
  51   2.0000     -10.324446      -280.9424
  52   2.0000     -10.324159      -280.9347
  53   2.0000     -10.323926      -280.9283
  54   2.0000     -10.320566      -280.8369
  55   2.0000     -10.320556      -280.8366
  56   2.0000     -10.320262      -280.8286
  57   2.0000     -10.318989      -280.7940
  58   2.0000     -10.318803      -280.7889
  59   2.0000     -10.318680      -280.7856
  60   2.0000     -10.317239      -280.7464
  61   2.0000     -10.317120      -280.7431
  62   2.0000     -10.316529      -280.7270
  63   2.0000     -10.315917      -280.7104
  64   2.0000     -10.314187      -280.6633
  65   2.0000     -10.313136      -280.6347
  66   2.0000     -10.312813      -280.6259
  67   2.0000     -10.312787      -280.6252
  68   2.0000     -10.312665      -280.6219
  69   2.0000     -10.310450      -280.5616
  70   2.0000     -10.310356      -280.5590
  71   2.0000     -10.309018      -280.5226
  72   2.0000     -10.309002      -280.5222
  73   2.0000     -10.308793      -280.5165
  74   2.0000     -10.307557      -280.4829
  75   2.0000     -10.307217      -280.4736
  76   2.0000     -10.303962      -280.3851
  77   2.0000     -10.302954      -280.3576
  78   2.0000      -8.096488      -220.3166
  79   2.0000      -8.094171      -220.2536
  80   2.0000      -8.085313      -220.0125
  81   2.0000      -6.066066      -165.0661
  82   2.0000      -6.063807      -165.0046
  83   2.0000      -6.061606      -164.9447
  84   2.0000      -6.059420      -164.8852
  85   2.0000      -6.058177      -164.8514
  86   2.0000      -6.055658      -164.7828
  87   2.0000      -6.054615      -164.7545
  88   2.0000      -6.050465      -164.6415
  89   2.0000      -6.047360      -164.5570
  90   2.0000      -1.332725       -36.2653
  91   2.0000      -1.329357       -36.1736
  92   2.0000      -1.329157       -36.1682
  93   2.0000      -1.328503       -36.1504
  94   2.0000      -1.317787       -35.8588
  95   2.0000      -1.314440       -35.7677
  96   2.0000      -1.231772       -33.5182
  97   2.0000      -1.159206       -31.5436
  98   2.0000      -1.158870       -31.5345
  99   2.0000      -1.148872       -31.2624
 100   2.0000      -1.148083       -31.2409
 101   2.0000      -1.147897       -31.2359
 102   2.0000      -1.121137       -30.5077
 103   2.0000      -1.114678       -30.3319
 104   2.0000      -1.100253       -29.9394
 105   2.0000      -1.047054       -28.4918
 106   2.0000      -1.031245       -28.0616
 107   2.0000      -1.026404       -27.9299
 108   2.0000      -1.021262       -27.7900
 109   2.0000      -1.019245       -27.7351
 110   2.0000      -1.016934       -27.6722
 111   2.0000      -1.016422       -27.6583
 112   2.0000      -1.015286       -27.6273
 113   2.0000      -1.004342       -27.3295
 114   2.0000      -0.997913       -27.1546
 115   2.0000      -0.991769       -26.9874
 116   2.0000      -0.955881       -26.0109
 117   2.0000      -0.944976       -25.7141
 118   2.0000      -0.943430       -25.6720
 119   2.0000      -0.940046       -25.5799
 120   2.0000      -0.924650       -25.1610
 121   2.0000      -0.919241       -25.0138
 122   2.0000      -0.912580       -24.8326
 123   2.0000      -0.907445       -24.6928
 124   2.0000      -0.904692       -24.6179
 125   2.0000      -0.901385       -24.5279
 126   2.0000      -0.898742       -24.4560
 127   2.0000      -0.888505       -24.1774
 128   2.0000      -0.886245       -24.1159
 129   2.0000      -0.871264       -23.7083
 130   2.0000      -0.866186       -23.5701
 131   2.0000      -0.855745       -23.2860
 132   2.0000      -0.854562       -23.2538
 133   2.0000      -0.851468       -23.1696
 134   2.0000      -0.832822       -22.6623
 135   2.0000      -0.823980       -22.4216
 136   2.0000      -0.816165       -22.2090
 137   2.0000      -0.796904       -21.6849
 138   2.0000      -0.784723       -21.3534
 139   2.0000      -0.783619       -21.3234
 140   2.0000      -0.780905       -21.2495
 141   2.0000      -0.769214       -20.9314
 142   2.0000      -0.763150       -20.7664
 143   2.0000      -0.750052       -20.4099
 144   2.0000      -0.746821       -20.3220
 145   2.0000      -0.740729       -20.1563
 146   2.0000      -0.735462       -20.0129
 147   2.0000      -0.733311       -19.9544
 148   2.0000      -0.727737       -19.8027
 149   2.0000      -0.721402       -19.6303
 150   2.0000      -0.718917       -19.5627
 151   2.0000      -0.713330       -19.4107
 152   2.0000      -0.704186       -19.1619
 153   2.0000      -0.701231       -19.0815
 154   2.0000      -0.698297       -19.0016
 155   2.0000      -0.694578       -18.9004
 156   2.0000      -0.673717       -18.3328
 157   2.0000      -0.670742       -18.2518
 158   2.0000      -0.669319       -18.2131
 159   2.0000      -0.665659       -18.1135
 160   2.0000      -0.658940       -17.9307
 161   2.0000      -0.656682       -17.8692
 162   2.0000      -0.653158       -17.7733
 163   2.0000      -0.650701       -17.7065
 164   2.0000      -0.644113       -17.5272
 165   2.0000      -0.642640       -17.4871
 166   2.0000      -0.640874       -17.4391
 167   2.0000      -0.639719       -17.4076
 168   2.0000      -0.638363       -17.3707
 169   2.0000      -0.635286       -17.2870
 170   2.0000      -0.630056       -17.1447
 171   2.0000      -0.625822       -17.0295
 172   2.0000      -0.617064       -16.7912
 173   2.0000      -0.615013       -16.7354
 174   2.0000      -0.611624       -16.6431
 175   2.0000      -0.608564       -16.5599
 176   2.0000      -0.607631       -16.5345
 177   2.0000      -0.598307       -16.2808
 178   2.0000      -0.596979       -16.2446
 179   2.0000      -0.594982       -16.1903
 180   2.0000      -0.593728       -16.1562
 181   2.0000      -0.593669       -16.1546
 182   2.0000      -0.591339       -16.0912
 183   2.0000      -0.589833       -16.0502
 184   2.0000      -0.586410       -15.9570
 185   2.0000      -0.584364       -15.9013
 186   2.0000      -0.574044       -15.6205
 187   2.0000      -0.570847       -15.5335
 188   2.0000      -0.569186       -15.4883
 189   2.0000      -0.567842       -15.4518
 190   2.0000      -0.566837       -15.4244
 191   2.0000      -0.563125       -15.3234
 192   2.0000      -0.560917       -15.2633
 193   2.0000      -0.558290       -15.1919
 194   2.0000      -0.556970       -15.1559
 195   2.0000      -0.555096       -15.1049
 196   2.0000      -0.553920       -15.0729
 197   2.0000      -0.550966       -14.9926
 198   2.0000      -0.547393       -14.8953
 199   2.0000      -0.546282       -14.8651
 200   2.0000      -0.543989       -14.8027
 201   2.0000      -0.541946       -14.7471
 202   2.0000      -0.540961       -14.7203
 203   2.0000      -0.540398       -14.7050
 204   2.0000      -0.537346       -14.6219
 205   2.0000      -0.534917       -14.5558
 206   2.0000      -0.531135       -14.4529
 207   2.0000      -0.527001       -14.3404
 208   2.0000      -0.525340       -14.2952
 209   2.0000      -0.523954       -14.2575
 210   2.0000      -0.519994       -14.1498
 211   2.0000      -0.517616       -14.0850
 212   2.0000      -0.516179       -14.0460
 213   2.0000      -0.513181       -13.9644
 214   2.0000      -0.509863       -13.8741
 215   2.0000      -0.507590       -13.8122
 216   2.0000      -0.505296       -13.7498
 217   2.0000      -0.504047       -13.7158
 218   2.0000      -0.502310       -13.6686
 219   2.0000      -0.499886       -13.6026
 220   2.0000      -0.499701       -13.5976
 221   2.0000      -0.498454       -13.5636
 222   2.0000      -0.497703       -13.5432
 223   2.0000      -0.493229       -13.4214
 224   2.0000      -0.484631       -13.1875
 225   2.0000      -0.482657       -13.1338
 226   2.0000      -0.481303       -13.0969
 227   2.0000      -0.477800       -13.0016
 228   2.0000      -0.477117       -12.9830
 229   2.0000      -0.473908       -12.8957
 230   2.0000      -0.473795       -12.8926
 231   2.0000      -0.471061       -12.8182
 232   2.0000      -0.467733       -12.7277
 233   2.0000      -0.462109       -12.5746
 234   2.0000      -0.460820       -12.5396
 235   2.0000      -0.460384       -12.5277
 236   2.0000      -0.458497       -12.4763
 237   2.0000      -0.456763       -12.4291
 238   2.0000      -0.455507       -12.3950
 239   2.0000      -0.455035       -12.3821
 240   2.0000      -0.452850       -12.3227
 241   2.0000      -0.445154       -12.1133
 242   2.0000      -0.444089       -12.0843
 243   2.0000      -0.443354       -12.0643
 244   2.0000      -0.437214       -11.8972
 245   2.0000      -0.437037       -11.8924
 246   2.0000      -0.435700       -11.8560
 247   2.0000      -0.431772       -11.7491
 248   2.0000      -0.423316       -11.5190
 249   2.0000      -0.420034       -11.4297
 250   2.0000      -0.409070       -11.1314
 251   2.0000      -0.405690       -11.0394
 252   2.0000      -0.403585       -10.9821
 253   2.0000      -0.395188       -10.7536
 254   2.0000      -0.394283       -10.7290
 255   2.0000      -0.393842       -10.7170
 256   2.0000      -0.392842       -10.6898
 257   2.0000      -0.391897       -10.6641
 258   2.0000      -0.386925       -10.5288
 259   2.0000      -0.384459       -10.4617
 260   2.0000      -0.384187       -10.4543
 261   2.0000      -0.375967       -10.2306
 262   2.0000      -0.375428       -10.2159
 263   2.0000      -0.369704       -10.0602
 264   2.0000      -0.369172       -10.0457
 265   2.0000      -0.366815        -9.9815
 266   2.0000      -0.358376        -9.7519
 267   2.0000      -0.355307        -9.6684
 268   2.0000      -0.353069        -9.6075
 269   2.0000      -0.350203        -9.5295
 270   2.0000      -0.333988        -9.0883
 271   2.0000      -0.331577        -9.0227
 272   2.0000      -0.329563        -8.9679
 273   2.0000      -0.317584        -8.6419
 274   2.0000      -0.314806        -8.5663
 275   2.0000      -0.307229        -8.3601
 276   2.0000      -0.287595        -7.8259
 277   2.0000      -0.260841        -7.0978
 278   0.0000      -0.114464        -3.1147
 279   0.0000      -0.101252        -2.7552
 280   0.0000      -0.081073        -2.2061
 281   0.0000      -0.077796        -2.1169
 282   0.0000      -0.073766        -2.0073

MULLIKEN ATOMIC CHARGES
-----------------------
   0 C :   -0.105388
   1 C :    0.243131
   2 F :   -0.167010
   3 C :    0.239415
   4 F :   -0.169086
   5 C :   -0.103100
   6 C :    0.113524
   7 C :    0.112362
   8 C :   -0.079949
   9 C :    0.042663
  10 C :    0.003588
  11 C :   -0.074096
  12 C :    0.176722
  13 O :   -0.222953
  14 C :   -0.135855
  15 C :    0.333624
  16 C :   -0.338106
  17 C :   -0.198825
  18 N :    0.145692
  19 C :   -0.182463
  20 N :    0.154432
  21 C :    0.026910
  22 N :   -0.008547
  23 C :   -0.113102
  24 S :    0.180408
  25 C :    0.010057
  26 N :    0.273564
  27 O :   -0.236653
  28 O :   -0.252379
  29 C :    0.009233
  30 C :    0.124716
  31 C :   -0.040808
  32 C :    0.000733
  33 C :   -0.112702
  34 S :    0.157096
  35 C :   -0.127077
  36 C :   -0.042467
  37 C :   -0.031400
  38 C :    0.234397
  39 O :   -0.118056
  40 O :   -0.244469
  41 C :    0.257661
  42 O :   -0.141605
  43 C :    0.009583
  44 C :    0.045945
  45 N :   -0.027854
  46 C :   -0.077480
  47 S :    0.161817
  48 C :   -0.006867
  49 N :    0.278792
  50 O :   -0.247686
  51 O :   -0.266460
  52 C :    0.024241
  53 C :    0.080074
  54 C :    0.005345
  55 C :   -0.037426
  56 C :    0.044460
  57 C :   -0.131986
  58 C :    0.137583
  59 O :   -0.133032
  60 C :    0.019249
  61 C :   -0.082683
  62 C :    0.115691
  63 C :    0.113171
  64 C :   -0.107718
  65 C :    0.244617
  66 C :    0.243474
  67 C :   -0.107206
  68 F :   -0.166590
  69 F :   -0.166940
  70 C :   -0.079302
  71 C :    0.028194
  72 C :    0.277014
  73 C :   -0.350999
  74 C :   -0.091753
  75 N :    0.105408
  76 C :   -0.168299
  77 N :    0.161845
  78 H :    0.010045
  79 H :    0.000389
  80 H :   -0.003768
  81 H :   -0.010307
  82 H :    0.050834
  83 H :    0.181086
  84 H :    0.023432
  85 H :    0.002636
  86 H :    0.014909
  87 H :   -0.007894
  88 H :    0.042795
  89 H :    0.154821
  90 H :    0.011717
  91 H :    0.018167
  92 H :    0.024767
  93 H :    0.037987
  94 H :   -0.004586
  95 H :    0.009455
  96 H :    0.003743
  97 H :   -0.000284
Sum of atomic charges:   -0.0000000

LOEWDIN ATOMIC CHARGES
----------------------
   0 C :   -0.027983
   1 C :    0.068853
   2 F :   -0.045245
   3 C :    0.068979
   4 F :   -0.046471
   5 C :   -0.031790
   6 C :   -0.009778
   7 C :   -0.005228
   8 C :    0.020881
   9 C :   -0.020163
  10 C :   -0.053647
  11 C :    0.033846
  12 C :    0.097128
  13 O :   -0.178293
  14 C :   -0.143185
  15 C :    0.077691
  16 C :   -0.144944
  17 C :   -0.020575
  18 N :   -0.050055
  19 C :   -0.019590
  20 N :   -0.050471
  21 C :    0.113166
  22 N :    0.079496
  23 C :   -0.111535
  24 S :    0.478424
  25 C :   -0.195575
  26 N :    0.272227
  27 O :   -0.203097
  28 O :   -0.218950
  29 C :    0.006237
  30 C :   -0.087001
  31 C :   -0.020780
  32 C :   -0.028715
  33 C :   -0.138920
  34 S :    0.460077
  35 C :   -0.106530
  36 C :   -0.131498
  37 C :   -0.101862
  38 C :    0.106598
  39 O :   -0.116124
  40 O :   -0.063752
  41 C :    0.110626
  42 O :   -0.127911
  43 C :   -0.128577
  44 C :    0.064148
  45 N :    0.055986
  46 C :   -0.083277
  47 S :    0.482624
  48 C :   -0.215300
  49 N :    0.273525
  50 O :   -0.213770
  51 O :   -0.232541
  52 C :    0.006766
  53 C :   -0.109897
  54 C :    0.032599
  55 C :   -0.049944
  56 C :    0.073154
  57 C :   -0.097005
  58 C :    0.084241
  59 O :   -0.133646
  60 C :   -0.054383
  61 C :    0.033937
  62 C :   -0.007004
  63 C :   -0.005897
  64 C :   -0.028491
  65 C :    0.068964
  66 C :    0.070312
  67 C :   -0.031867
  68 F :   -0.044799
  69 F :   -0.044792
  70 C :    0.019401
  71 C :   -0.025177
  72 C :    0.078820
  73 C :   -0.151995
  74 C :    0.047533
  75 N :   -0.054641
  76 C :   -0.023245
  77 N :   -0.043756
  78 H :    0.048906
  79 H :    0.045283
  80 H :    0.041478
  81 H :    0.040793
  82 H :    0.036648
  83 H :    0.085095
  84 H :    0.049906
  85 H :    0.026545
  86 H :    0.043361
  87 H :    0.013249
  88 H :    0.038751
  89 H :    0.070128
  90 H :    0.047680
  91 H :    0.037805
  92 H :    0.038270
  93 H :    0.051315
  94 H :    0.042561
  95 H :    0.048503
  96 H :    0.046381
  97 H :    0.040774

  Mayer bond orders larger than 0.100000
B(  0-C ,  1-C ) :   1.4362 B(  0-C ,  5-C ) :   0.1076 B(  0-C ,  7-C ) :   1.1934
B(  0-C , 78-H ) :   1.0066 B(  1-C ,  2-F ) :   1.1390 B(  1-C ,  3-C ) :   1.1937
B(  3-C ,  4-F ) :   1.1359 B(  3-C ,  5-C ) :   1.4419 B(  5-C ,  6-C ) :   1.1915
B(  5-C , 79-H ) :   1.0065 B(  6-C ,  7-C ) :   1.2577 B(  6-C , 11-C ) :   1.1886
B(  7-C ,  8-C ) :   1.2083 B(  8-C ,  9-C ) :   1.4658 B(  8-C , 80-H ) :   0.9888
B(  9-C , 10-C ) :   1.2198 B(  9-C , 15-C ) :   0.9876 B( 10-C , 11-C ) :   1.4663
B( 10-C , 12-C ) :   0.9811 B( 11-C , 81-H ) :   1.0176 B( 12-C , 13-O ) :   2.0353
B( 12-C , 14-C ) :   1.0024 B( 13-O , 83-H ) :   0.1451 B( 14-C , 15-C ) :   1.0955
B( 14-C , 21-C ) :   1.4580 B( 15-C , 16-C ) :   1.6341 B( 16-C , 17-C ) :   1.1450
B( 16-C , 19-C ) :   1.1445 B( 17-C , 18-N ) :   2.9545 B( 19-C , 20-N ) :   2.9629
B( 21-C , 22-N ) :   1.3361 B( 21-C , 82-H ) :   0.9292 B( 22-N , 23-C ) :   1.1942
B( 22-N , 83-H ) :   0.8243 B( 23-C , 24-S ) :   1.1379 B( 23-C , 30-C ) :   1.3780
B( 24-S , 25-C ) :   1.0836 B( 25-C , 26-N ) :   0.9542 B( 25-C , 29-C ) :   1.5182
B( 26-N , 27-O ) :   1.5445 B( 26-N , 28-O ) :   1.5183 B( 27-O , 28-O ) :   0.2662
B( 29-C , 30-C ) :   1.2122 B( 29-C , 84-H ) :   0.9995 B( 30-C , 31-C ) :   1.0791
B( 31-C , 32-C ) :   1.6820 B( 31-C , 85-H ) :   0.9705 B( 32-C , 33-C ) :   1.1635
B( 32-C , 86-H ) :   0.9670 B( 33-C , 34-S ) :   1.0951 B( 33-C , 37-C ) :   1.5028
B( 34-S , 35-C ) :   1.1448 B( 35-C , 36-C ) :   1.4640 B( 35-C , 43-C ) :   1.1912
B( 36-C , 37-C ) :   1.2341 B( 36-C , 41-C ) :   0.9422 B( 37-C , 38-C ) :   0.9272
B( 38-C , 39-O ) :   2.2439 B( 38-C , 40-O ) :   1.0413 B( 40-O , 41-C ) :   1.0622
B( 41-C , 42-O ) :   2.1371 B( 42-O , 88-H ) :   0.1130 B( 43-C , 44-C ) :   1.6213
B( 43-C , 87-H ) :   0.9304 B( 44-C , 45-N ) :   1.1952 B( 44-C , 88-H ) :   0.9299
B( 45-N , 46-C ) :   1.2276 B( 45-N , 89-H ) :   0.8341 B( 46-C , 47-S ) :   1.1510
B( 46-C , 53-C ) :   1.3397 B( 47-S , 48-C ) :   1.0714 B( 48-C , 49-N ) :   0.9732
B( 48-C , 52-C ) :   1.4889 B( 49-N , 50-O ) :   1.5369 B( 49-N , 51-O ) :   1.5073
B( 50-O , 51-O ) :   0.2578 B( 52-C , 53-C ) :   1.2343 B( 52-C , 90-H ) :   1.0083
B( 53-C , 54-C ) :   1.1182 B( 54-C , 55-C ) :   1.6734 B( 54-C , 91-H ) :   0.9609
B( 55-C , 56-C ) :   1.1533 B( 55-C , 92-H ) :   0.9517 B( 56-C , 57-C ) :   1.6601
B( 56-C , 93-H ) :   0.9242 B( 57-C , 58-C ) :   0.9340 B( 57-C , 72-C ) :   1.0514
B( 58-C , 59-O ) :   2.2780 B( 58-C , 60-C ) :   0.9170 B( 60-C , 61-C ) :   1.4728
B( 60-C , 71-C ) :   1.2188 B( 61-C , 62-C ) :   1.1919 B( 61-C , 94-H ) :   1.0178
B( 62-C , 63-C ) :   1.2560 B( 62-C , 67-C ) :   1.1929 B( 63-C , 64-C ) :   1.1885
B( 63-C , 70-C ) :   1.2168 B( 64-C , 65-C ) :   1.4408 B( 64-C , 67-C ) :   0.1080
B( 64-C , 95-H ) :   1.0075 B( 65-C , 66-C ) :   1.1893 B( 65-C , 69-F ) :   1.1388
B( 66-C , 67-C ) :   1.4415 B( 66-C , 68-F ) :   1.1390 B( 67-C , 96-H ) :   1.0081
B( 70-C , 71-C ) :   1.4496 B( 70-C , 97-H ) :   0.9939 B( 71-C , 72-C ) :   1.0046
B( 72-C , 73-C ) :   1.6189 B( 73-C , 74-C ) :   1.2191 B( 73-C , 76-C ) :   1.1101
B( 74-C , 75-N ) :   2.8576 B( 75-N , 89-H ) :   0.1688 B( 76-C , 77-N ) :   2.9877

-----------------------------------------------------------------------------
         ABSORPTION SPECTRUM VIA TRANSITION ELECTRIC DIPOLE MOMENTS
-----------------------------------------------------------------------------
State   Energy  Wavelength   fosc         T2         TX        TY        TZ
        (cm-1)    (nm)                  (au**2)     (au)      (au)      (au)
-----------------------------------------------------------------------------
   0   16917.1    591.1   0.838060481  16.30893   2.03410  -3.17361   1.44898
   1   20444.7    489.1   0.516832826   8.32235  -0.41344   2.80171   0.54940
   2   23593.0    423.9   0.945193496  13.18904   0.82375   0.68160   3.47072
   3   25069.8    398.9   0.057412458   0.75393   0.29727  -0.78715   0.21437
   4   25613.3    390.4   0.077853664   1.00067   0.53555  -0.16166   0.82929
   5   26483.6    377.6   0.380538099   4.73039   0.21001   1.60286   1.45504
   6   26766.5    373.6   0.258639903   3.18112  -1.12802   1.10103  -0.83453
   7   27045.9    369.7   0.165455042   2.01397   1.04142  -0.75147  -0.60391
   8   27537.8    363.1   0.189699885   2.26784  -1.09748   1.02002   0.15141
   9   28618.3    349.4   0.091075359   1.04769   0.93056  -0.16183   0.39442
  10   29606.2    337.8   0.107181611   1.19183  -0.62847   0.66815  -0.59197
  11   29819.6    335.3   0.007029493   0.07761  -0.14278   0.23761  -0.02757
  12   29878.7    334.7   0.344920514   3.80044  -0.60197  -1.06433  -1.51831
  13   30131.3    331.9   0.062134141   0.67887  -0.56505   0.28834  -0.52579
  14   31131.4    321.2   0.024867764   0.26297  -0.01482  -0.51099  -0.04056
  15   31717.4    315.3   0.078952574   0.81949   0.80292  -0.35791   0.21614
  16   31779.9    314.7   0.100049730   1.03643  -0.56301  -0.11035  -0.84099
  17   32073.7    311.8   0.053968699   0.55395   0.46112   0.35439   0.46446
  18   33059.4    302.5   0.163185348   1.62503   0.88468  -0.35556   0.84614
  19   33217.0    301.1   0.004945971   0.04902  -0.18381   0.08243   0.09185
  20   33705.4    296.7   0.123820532   1.20940   0.78986  -0.16410   0.74738
  21   33869.2    295.3   0.113913549   1.10725   0.59851  -0.52954   0.68456
  22   33907.6    294.9   0.012255080   0.11899   0.21497  -0.09987   0.25060
  23   34352.9    291.1   1.193471428  11.43730   2.42192  -1.88884   1.41559
  24   34634.2    288.7   0.632760433   6.01463   1.64378  -0.11990   1.81611
  25   34664.7    288.5   0.144634743   1.37360  -0.46098  -0.39503  -1.00252
  26   35509.2    281.6   0.046619922   0.43222  -0.07865   0.08327   0.64738
  27   36099.7    277.0   0.005671581   0.05172   0.10533  -0.20103   0.01461
  28   36748.6    272.1   0.017759749   0.15910   0.03664   0.06371  -0.39204
  29   36838.0    271.5   0.000196894   0.00176   0.01105  -0.01440  -0.03782
  30   37405.5    267.3   0.031519915   0.27741  -0.24481   0.45357   0.10844
  31   37801.5    264.5   0.037498253   0.32657  -0.22887  -0.32414  -0.41125
  32   37923.7    263.7   0.020527476   0.17820   0.09888  -0.40686   0.05368
  33   37941.4    263.6   0.000876596   0.00761   0.01172  -0.06390  -0.05818
  34   38275.8    261.3   0.235409566   2.02477  -0.62434   1.27085   0.14106
  35   38725.3    258.2   0.041924107   0.35641  -0.50604   0.30911  -0.06913
  36   38978.6    256.6   0.013769538   0.11630  -0.25743   0.20918   0.07921
  37   39483.1    253.3   0.131385451   1.09550  -1.03881  -0.00366   0.12792
  38   39677.4    252.0   0.006554728   0.05439   0.15923  -0.11580   0.12498
  39   39812.6    251.2   0.006245152   0.05164  -0.03918   0.22183  -0.02998
  40   39989.2    250.1   0.009801031   0.08069  -0.04377   0.22242   0.17117
  41   40055.9    249.7   0.010820832   0.08893  -0.21811  -0.19160  -0.06821
  42   40219.7    248.6   0.227002047   1.85809  -0.45285  -1.16354   0.54697

FINAL SINGLE POINT ENERGY     -4773.802567004487

DIPOLE MOMENT
-------------
                                X             Y             Z
Electronic contribution:     -0.82204      -3.48094     -11.79487
Nuclear contribution   :     -2.93358       4.63616       8.56980
                        -----------------------------------------
Total Dipole Moment    :     -3.75562       1.15522      -3.22507
                        -----------------------------------------
Magnitude (a.u.)       :      5.08334
Magnitude (Debye)      :     12.92081

Rotational constants in cm-1:     0.001028     0.000230     0.000196
Rotational constants in MHz :    30.827389     6.897907     5.863383

                             ****ORCA TERMINATED NORMALLY****
TOTAL RUN TIME: 0 days 0 hours 9 minutes 34 seconds 360 msec
