                         Program Version 4.2.0 -  RELEASE  -
|  1> # ORCA input file
|  2> # SCF done       -210.953181591750          0.000929327348
|  3> ! CAM-B3LYP def2-SVP def2/J RIJCOSX Grid4 TightSCF
|  4> %maxcore 5000
|  5> %tddft
|  6>     Mode sTDDFT
|  7>     Ethresh 5.0
|  8>     maxcore 5000
|  9> end
| 10>
| 11> %pal
| 12>   nprocs 6
| 13>   end
| 14> * xyz 0 1
| 15>    C       -7.32521         2.93866         6.12909
| 16>    C       -7.41243         4.27153         5.83636
| 17>    F       -7.46360         5.17495         6.82207
| 18>    C       -7.45031         4.71112         4.49781
| 19>    F       -7.53855         6.02201         4.23907
| 20>    C       -7.39862         3.81115         3.47026
| 21>    C       -7.30878         2.43200         3.74006
| 22>    C       -7.27274         1.98537         5.09308
| 23>    C       -7.18749         0.60408         5.38933
| 24>    C       -7.14020        -0.30193         4.36436
| 25>    C       -7.17138         0.15676         3.01522
| 26>    C       -7.25339         1.48205         2.69682
| 27>    C       -7.10367        -0.99996         2.12159
| 28>    O       -7.09484        -0.99134         0.89014
| 29>    C       -7.04333        -2.18537         2.97901
| 30>    C       -7.05876        -1.76351         4.36081
| 31>    C       -7.01003        -2.56613         5.46995
| 32>    C       -6.93156        -3.97307         5.41886
| 33>    N       -6.86494        -5.11889         5.41877
| 34>    C       -7.03464        -2.08560         6.79533
| 35>    N       -7.05239        -1.74431         7.89095
| 36>    C       -6.99266        -3.45452         2.44203
| 37>    N       -7.00284        -3.58786         1.11496
| 38>    C       -6.95252        -4.69997         0.34460
| 39>    S       -6.76069        -6.30098         0.97541
| 40>    C       -6.72703        -6.90471        -0.65092
| 41>    N       -6.59128        -8.29226        -0.82231
| 42>    O       -6.56972        -8.72029        -1.95861
| 43>    O       -6.50738        -8.95902         0.19257
| 44>    C       -6.85009        -5.93586        -1.61078
| 45>    C       -6.99304        -4.64978        -1.05768
| 46>    C       -7.17658        -3.41119        -1.76160
| 47>    C       -6.86776        -3.17489        -3.05189
| 48>    C       -6.98931        -1.89437        -3.66879
| 49>    S       -6.41009        -1.68339        -5.28813
| 50>    C       -6.77781         0.01635        -5.27202
| 51>    C       -7.36104         0.38278        -4.06263
| 52>    C       -7.47193        -0.69574        -3.15565
| 53>    O       -8.05372        -0.65370        -1.93127
| 54>    S       -7.97011         0.74074        -1.02379
| 55>    C       -8.84091         1.78752        -2.21298
| 56>    S       -7.84680         2.03581        -3.72524
| 57>    C       -6.48543         0.83113        -6.39684
| 58>    C       -5.85187         0.44736        -7.57594
| 59>    C       -5.31375        -0.82639        -7.80848
| 60>    N       -4.83132        -1.84777        -8.01185
| 61>    C       -5.72514         1.51847        -8.50145
| 62>    C       -6.24280         2.69902        -7.98635
| 63>    S       -6.91474         2.52985        -6.41089
| 64>    S       -6.06855         4.08928        -9.00983
| 65>    C       -5.27778         3.07181       -10.16572
| 66>    C       -5.16875         1.73172        -9.79584
| 67>    C       -4.50868         0.97674       -10.79655
| 68>    C       -4.38794        -0.42153       -10.83005
| 69>    N       -4.30913        -1.56092       -10.93598
| 70>    C       -4.09535         1.76117       -11.86938
| 71>    S       -4.58905         3.42747       -11.69612
| 72>    C       -3.39119         1.36028       -13.03778
| 73>    C       -2.51456         0.33688       -13.18465
| 74>    C       -2.20350        -0.15419       -14.56456
| 75>    O       -2.45058         0.41590       -15.59926
| 76>    C       -1.60127        -1.48496       -14.36868
| 77>    C       -1.26885        -2.42355       -15.30369
| 78>    C       -0.74286        -3.66229       -14.87436
| 79>    C       -0.58513        -3.91203       -13.47913
| 80>    C       -0.07658        -5.15774       -13.05895
| 81>    C        0.26656        -6.10755       -13.97966
| 82>    C        0.11546        -5.85746       -15.35915
| 83>    C       -0.37935        -4.66163       -15.79839
| 84>    F        0.46154        -6.80594       -16.23883
| 85>    F        0.75298        -7.28876       -13.58053
| 86>    C       -0.92936        -2.91914       -12.53448
| 87>    C       -1.41677        -1.71811       -12.97550
| 88>    C       -1.82339        -0.52508       -12.24276
| 89>    C       -1.40658        -0.19964       -10.98177
| 90>    C       -1.66495         1.03726       -10.35926
| 91>    N       -1.83998         2.03488        -9.81866
| 92>    C       -0.59917        -1.03853       -10.18282
| 93>    N        0.06934        -1.66796        -9.49604
| 94>    H       -7.29727         2.62035         7.15948
| 95>    H       -7.42624         4.16227         2.45070
| 96>    H       -7.16296         0.30031         6.42326
| 97>    H       -7.27671         1.79455         1.66349
| 98>    H       -6.94827        -4.35148         3.04617
| 99>    H       -7.03746        -2.67217         0.61975
|100>    H       -6.85688        -6.16071        -2.66144
|101>    H       -7.57628        -2.59012        -1.18751
|102>    H       -6.44919        -3.94996        -3.67807
|103>    H       -9.79427         1.33287        -2.47362
|104>    H       -8.98071         2.77081        -1.77512
|105>    H       -3.61163         1.91808       -13.94316
|106>    H       -1.40934        -2.22585       -16.35546
|107>    H        0.04693        -5.36355       -12.00729
|108>    H       -0.49048        -4.48716       -16.85713
|109>    H       -0.81895        -3.13572       -11.48418
|110> *
|111>
|112>                          ****END OF INPUT****

CARTESIAN COORDINATES (ANGSTROEM)
---------------------------------
  C     -7.325210    2.938660    6.129090
  C     -7.412430    4.271530    5.836360
  F     -7.463600    5.174950    6.822070
  C     -7.450310    4.711120    4.497810
  F     -7.538550    6.022010    4.239070
  C     -7.398620    3.811150    3.470260
  C     -7.308780    2.432000    3.740060
  C     -7.272740    1.985370    5.093080
  C     -7.187490    0.604080    5.389330
  C     -7.140200   -0.301930    4.364360
  C     -7.171380    0.156760    3.015220
  C     -7.253390    1.482050    2.696820
  C     -7.103670   -0.999960    2.121590
  O     -7.094840   -0.991340    0.890140
  C     -7.043330   -2.185370    2.979010
  C     -7.058760   -1.763510    4.360810
  C     -7.010030   -2.566130    5.469950
  C     -6.931560   -3.973070    5.418860
  N     -6.864940   -5.118890    5.418770
  C     -7.034640   -2.085600    6.795330
  N     -7.052390   -1.744310    7.890950
  C     -6.992660   -3.454520    2.442030
  N     -7.002840   -3.587860    1.114960
  C     -6.952520   -4.699970    0.344600
  S     -6.760690   -6.300980    0.975410
  C     -6.727030   -6.904710   -0.650920
  N     -6.591280   -8.292260   -0.822310
  O     -6.569720   -8.720290   -1.958610
  O     -6.507380   -8.959020    0.192570
  C     -6.850090   -5.935860   -1.610780
  C     -6.993040   -4.649780   -1.057680
  C     -7.176580   -3.411190   -1.761600
  C     -6.867760   -3.174890   -3.051890
  C     -6.989310   -1.894370   -3.668790
  S     -6.410090   -1.683390   -5.288130
  C     -6.777810    0.016350   -5.272020
  C     -7.361040    0.382780   -4.062630
  C     -7.471930   -0.695740   -3.155650
  O     -8.053720   -0.653700   -1.931270
  S     -7.970110    0.740740   -1.023790
  C     -8.840910    1.787520   -2.212980
  S     -7.846800    2.035810   -3.725240
  C     -6.485430    0.831130   -6.396840
  C     -5.851870    0.447360   -7.575940
  C     -5.313750   -0.826390   -7.808480
  N     -4.831320   -1.847770   -8.011850
  C     -5.725140    1.518470   -8.501450
  C     -6.242800    2.699020   -7.986350
  S     -6.914740    2.529850   -6.410890
  S     -6.068550    4.089280   -9.009830
  C     -5.277780    3.071810  -10.165720
  C     -5.168750    1.731720   -9.795840
  C     -4.508680    0.976740  -10.796550
  C     -4.387940   -0.421530  -10.830050
  N     -4.309130   -1.560920  -10.935980
  C     -4.095350    1.761170  -11.869380
  S     -4.589050    3.427470  -11.696120
  C     -3.391190    1.360280  -13.037780
  C     -2.514560    0.336880  -13.184650
  C     -2.203500   -0.154190  -14.564560
  O     -2.450580    0.415900  -15.599260
  C     -1.601270   -1.484960  -14.368680
  C     -1.268850   -2.423550  -15.303690
  C     -0.742860   -3.662290  -14.874360
  C     -0.585130   -3.912030  -13.479130
  C     -0.076580   -5.157740  -13.058950
  C      0.266560   -6.107550  -13.979660
  C      0.115460   -5.857460  -15.359150
  C     -0.379350   -4.661630  -15.798390
  F      0.461540   -6.805940  -16.238830
  F      0.752980   -7.288760  -13.580530
  C     -0.929360   -2.919140  -12.534480
  C     -1.416770   -1.718110  -12.975500
  C     -1.823390   -0.525080  -12.242760
  C     -1.406580   -0.199640  -10.981770
  C     -1.664950    1.037260  -10.359260
  N     -1.839980    2.034880   -9.818660
  C     -0.599170   -1.038530  -10.182820
  N      0.069340   -1.667960   -9.496040
  H     -7.297270    2.620350    7.159480
  H     -7.426240    4.162270    2.450700
  H     -7.162960    0.300310    6.423260
  H     -7.276710    1.794550    1.663490
  H     -6.948270   -4.351480    3.046170
  H     -7.037460   -2.672170    0.619750
  H     -6.856880   -6.160710   -2.661440
  H     -7.576280   -2.590120   -1.187510
  H     -6.449190   -3.949960   -3.678070
  H     -9.794270    1.332870   -2.473620
  H     -8.980710    2.770810   -1.775120
  H     -3.611630    1.918080  -13.943160
  H     -1.409340   -2.225850  -16.355460
  H      0.046930   -5.363550  -12.007290
  H     -0.490480   -4.487160  -16.857130
  H     -0.818950   -3.135720  -11.484180

 Total Charge           Charge          ....    0
 Multiplicity           Mult            ....    1
 Number of Electrons    NEL             ....  590
 Basis Dimension        Dim             .... 1214

ORBITAL ENERGIES
----------------

  NO   OCC          E(Eh)            E(eV)
   0   2.0000     -88.997482     -2421.7446
   1   2.0000     -88.996456     -2421.7167
   2   2.0000     -88.995913     -2421.7019
   3   2.0000     -88.994409     -2421.6610
   4   2.0000     -88.994108     -2421.6528
   5   2.0000     -88.975034     -2421.1338
   6   2.0000     -88.961951     -2420.7778
   7   2.0000     -24.808954      -675.0860
   8   2.0000     -24.807296      -675.0408
   9   2.0000     -24.797864      -674.7842
  10   2.0000     -24.796510      -674.7473
  11   2.0000     -19.290323      -524.9164
  12   2.0000     -19.246723      -523.7300
  13   2.0000     -19.243913      -523.6535
  14   2.0000     -19.243513      -523.6426
  15   2.0000     -19.224057      -523.1132
  16   2.0000     -14.655592      -398.7989
  17   2.0000     -14.503796      -394.6683
  18   2.0000     -14.427309      -392.5870
  19   2.0000     -14.422960      -392.4687
  20   2.0000     -14.422570      -392.4581
  21   2.0000     -14.419639      -392.3783
  22   2.0000     -14.416827      -392.3018
  23   2.0000     -14.412183      -392.1754
  24   2.0000     -10.392618      -282.7975
  25   2.0000     -10.392434      -282.7925
  26   2.0000     -10.391791      -282.7750
  27   2.0000     -10.380869      -282.4778
  28   2.0000     -10.380742      -282.4743
  29   2.0000     -10.380220      -282.4601
  30   2.0000     -10.376333      -282.3544
  31   2.0000     -10.374864      -282.3144
  32   2.0000     -10.360591      -281.9260
  33   2.0000     -10.355377      -281.7841
  34   2.0000     -10.353965      -281.7457
  35   2.0000     -10.350879      -281.6617
  36   2.0000     -10.350634      -281.6551
  37   2.0000     -10.349838      -281.6334
  38   2.0000     -10.348860      -281.6068
  39   2.0000     -10.348007      -281.5836
  40   2.0000     -10.346168      -281.5335
  41   2.0000     -10.345984      -281.5285
  42   2.0000     -10.342065      -281.4219
  43   2.0000     -10.339922      -281.3636
  44   2.0000     -10.332837      -281.1708
  45   2.0000     -10.331914      -281.1457
  46   2.0000     -10.330976      -281.1201
  47   2.0000     -10.329501      -281.0800
  48   2.0000     -10.327661      -281.0299
  49   2.0000     -10.326080      -280.9869
  50   2.0000     -10.323643      -280.9206
  51   2.0000     -10.322712      -280.8953
  52   2.0000     -10.322260      -280.8830
  53   2.0000     -10.320225      -280.8276
  54   2.0000     -10.320184      -280.8265
  55   2.0000     -10.319604      -280.8107
  56   2.0000     -10.318755      -280.7876
  57   2.0000     -10.318285      -280.7748
  58   2.0000     -10.318195      -280.7723
  59   2.0000     -10.317198      -280.7452
  60   2.0000     -10.316927      -280.7378
  61   2.0000     -10.314225      -280.6643
  62   2.0000     -10.313317      -280.6396
  63   2.0000     -10.313213      -280.6368
  64   2.0000     -10.312804      -280.6257
  65   2.0000     -10.311187      -280.5817
  66   2.0000     -10.311149      -280.5806
  67   2.0000     -10.310695      -280.5683
  68   2.0000     -10.310363      -280.5592
  69   2.0000     -10.309957      -280.5482
  70   2.0000     -10.309186      -280.5272
  71   2.0000     -10.308392      -280.5056
  72   2.0000     -10.304482      -280.3992
  73   2.0000     -10.303621      -280.3758
  74   2.0000     -10.301925      -280.3296
  75   2.0000     -10.300689      -280.2960
  76   2.0000     -10.299236      -280.2565
  77   2.0000     -10.296238      -280.1749
  78   2.0000     -10.295213      -280.1470
  79   2.0000      -8.092794      -220.2161
  80   2.0000      -8.091785      -220.1887
  81   2.0000      -8.090991      -220.1670
  82   2.0000      -8.088659      -220.1036
  83   2.0000      -8.084828      -219.9993
  84   2.0000      -8.069971      -219.5951
  85   2.0000      -8.057396      -219.2529
  86   2.0000      -6.062309      -164.9638
  87   2.0000      -6.061384      -164.9386
  88   2.0000      -6.061002      -164.9282
  89   2.0000      -6.058655      -164.8644
  90   2.0000      -6.058431      -164.8583
  91   2.0000      -6.058113      -164.8496
  92   2.0000      -6.057048      -164.8206
  93   2.0000      -6.056719      -164.8117
  94   2.0000      -6.054458      -164.7502
  95   2.0000      -6.053914      -164.7354
  96   2.0000      -6.053289      -164.7184
  97   2.0000      -6.051774      -164.6771
  98   2.0000      -6.051328      -164.6650
  99   2.0000      -6.050141      -164.6327
 100   2.0000      -6.041190      -164.3891
 101   2.0000      -6.039391      -164.3402
 102   2.0000      -6.035283      -164.2284
 103   2.0000      -6.031643      -164.1294
 104   2.0000      -6.027827      -164.0255
 105   2.0000      -6.023695      -163.9131
 106   2.0000      -6.016950      -163.7295
 107   2.0000      -1.331445       -36.2305
 108   2.0000      -1.326166       -36.0868
 109   2.0000      -1.320415       -35.9303
 110   2.0000      -1.316536       -35.8248
 111   2.0000      -1.305488       -35.5241
 112   2.0000      -1.187815       -32.3221
 113   2.0000      -1.162123       -31.6230
 114   2.0000      -1.145630       -31.1742
 115   2.0000      -1.139958       -31.0198
 116   2.0000      -1.111840       -30.2547
 117   2.0000      -1.052379       -28.6367
 118   2.0000      -1.031377       -28.0652
 119   2.0000      -1.028978       -27.9999
 120   2.0000      -1.021205       -27.7884
 121   2.0000      -1.017079       -27.6761
 122   2.0000      -1.016111       -27.6498
 123   2.0000      -1.007173       -27.4066
 124   2.0000      -1.006552       -27.3897
 125   2.0000      -1.003977       -27.3196
 126   2.0000      -1.001035       -27.2395
 127   2.0000      -0.997090       -27.1322
 128   2.0000      -0.992917       -27.0186
 129   2.0000      -0.991455       -26.9789
 130   2.0000      -0.983536       -26.7634
 131   2.0000      -0.960554       -26.1380
 132   2.0000      -0.947878       -25.7931
 133   2.0000      -0.943615       -25.6771
 134   2.0000      -0.933136       -25.3919
 135   2.0000      -0.929114       -25.2825
 136   2.0000      -0.914871       -24.8949
 137   2.0000      -0.911056       -24.7911
 138   2.0000      -0.906262       -24.6607
 139   2.0000      -0.904602       -24.6155
 140   2.0000      -0.899074       -24.4650
 141   2.0000      -0.893513       -24.3137
 142   2.0000      -0.891456       -24.2578
 143   2.0000      -0.884890       -24.0791
 144   2.0000      -0.876479       -23.8502
 145   2.0000      -0.871796       -23.7228
 146   2.0000      -0.869271       -23.6541
 147   2.0000      -0.853399       -23.2222
 148   2.0000      -0.845527       -23.0080
 149   2.0000      -0.841269       -22.8921
 150   2.0000      -0.831592       -22.6288
 151   2.0000      -0.825883       -22.4734
 152   2.0000      -0.813546       -22.1377
 153   2.0000      -0.795740       -21.6532
 154   2.0000      -0.787117       -21.4185
 155   2.0000      -0.781949       -21.2779
 156   2.0000      -0.778774       -21.1915
 157   2.0000      -0.770014       -20.9531
 158   2.0000      -0.761111       -20.7109
 159   2.0000      -0.753979       -20.5168
 160   2.0000      -0.747533       -20.3414
 161   2.0000      -0.740339       -20.1456
 162   2.0000      -0.732672       -19.9370
 163   2.0000      -0.724903       -19.7256
 164   2.0000      -0.722775       -19.6677
 165   2.0000      -0.718800       -19.5595
 166   2.0000      -0.711107       -19.3502
 167   2.0000      -0.700789       -19.0694
 168   2.0000      -0.700112       -19.0510
 169   2.0000      -0.695385       -18.9224
 170   2.0000      -0.686763       -18.6878
 171   2.0000      -0.678375       -18.4595
 172   2.0000      -0.671983       -18.2856
 173   2.0000      -0.670282       -18.2393
 174   2.0000      -0.667575       -18.1656
 175   2.0000      -0.664850       -18.0915
 176   2.0000      -0.656534       -17.8652
 177   2.0000      -0.654310       -17.8047
 178   2.0000      -0.652452       -17.7541
 179   2.0000      -0.647844       -17.6287
 180   2.0000      -0.643652       -17.5147
 181   2.0000      -0.639121       -17.3914
 182   2.0000      -0.637115       -17.3368
 183   2.0000      -0.635863       -17.3027
 184   2.0000      -0.634497       -17.2655
 185   2.0000      -0.621380       -16.9086
 186   2.0000      -0.618298       -16.8247
 187   2.0000      -0.616726       -16.7820
 188   2.0000      -0.607919       -16.5423
 189   2.0000      -0.602879       -16.4052
 190   2.0000      -0.597442       -16.2572
 191   2.0000      -0.595902       -16.2153
 192   2.0000      -0.595070       -16.1927
 193   2.0000      -0.591630       -16.0991
 194   2.0000      -0.586669       -15.9641
 195   2.0000      -0.584740       -15.9116
 196   2.0000      -0.581888       -15.8340
 197   2.0000      -0.580827       -15.8051
 198   2.0000      -0.577077       -15.7031
 199   2.0000      -0.570895       -15.5349
 200   2.0000      -0.568832       -15.4787
 201   2.0000      -0.566254       -15.4085
 202   2.0000      -0.564557       -15.3624
 203   2.0000      -0.557240       -15.1633
 204   2.0000      -0.555204       -15.1079
 205   2.0000      -0.553839       -15.0707
 206   2.0000      -0.551389       -15.0041
 207   2.0000      -0.549846       -14.9621
 208   2.0000      -0.548995       -14.9389
 209   2.0000      -0.546363       -14.8673
 210   2.0000      -0.545969       -14.8566
 211   2.0000      -0.544126       -14.8064
 212   2.0000      -0.543022       -14.7764
 213   2.0000      -0.540561       -14.7094
 214   2.0000      -0.538549       -14.6547
 215   2.0000      -0.537413       -14.6238
 216   2.0000      -0.533337       -14.5128
 217   2.0000      -0.530719       -14.4416
 218   2.0000      -0.530217       -14.4279
 219   2.0000      -0.528584       -14.3835
 220   2.0000      -0.525646       -14.3036
 221   2.0000      -0.521563       -14.1924
 222   2.0000      -0.518784       -14.1168
 223   2.0000      -0.516545       -14.0559
 224   2.0000      -0.513688       -13.9782
 225   2.0000      -0.510210       -13.8835
 226   2.0000      -0.509395       -13.8613
 227   2.0000      -0.503260       -13.6944
 228   2.0000      -0.502338       -13.6693
 229   2.0000      -0.501644       -13.6504
 230   2.0000      -0.497636       -13.5414
 231   2.0000      -0.494538       -13.4571
 232   2.0000      -0.490883       -13.3576
 233   2.0000      -0.488822       -13.3015
 234   2.0000      -0.484367       -13.1803
 235   2.0000      -0.483016       -13.1435
 236   2.0000      -0.480511       -13.0754
 237   2.0000      -0.476031       -12.9535
 238   2.0000      -0.474716       -12.9177
 239   2.0000      -0.472412       -12.8550
 240   2.0000      -0.469717       -12.7816
 241   2.0000      -0.466552       -12.6955
 242   2.0000      -0.464469       -12.6388
 243   2.0000      -0.462761       -12.5924
 244   2.0000      -0.460461       -12.5298
 245   2.0000      -0.459221       -12.4960
 246   2.0000      -0.457889       -12.4598
 247   2.0000      -0.455199       -12.3866
 248   2.0000      -0.454850       -12.3771
 249   2.0000      -0.452891       -12.3238
 250   2.0000      -0.452332       -12.3086
 251   2.0000      -0.449839       -12.2407
 252   2.0000      -0.449067       -12.2197
 253   2.0000      -0.444635       -12.0991
 254   2.0000      -0.444284       -12.0896
 255   2.0000      -0.443138       -12.0584
 256   2.0000      -0.440929       -11.9983
 257   2.0000      -0.438832       -11.9412
 258   2.0000      -0.437321       -11.9001
 259   2.0000      -0.436866       -11.8877
 260   2.0000      -0.434722       -11.8294
 261   2.0000      -0.432171       -11.7600
 262   2.0000      -0.428618       -11.6633
 263   2.0000      -0.426202       -11.5976
 264   2.0000      -0.420052       -11.4302
 265   2.0000      -0.419120       -11.4048
 266   2.0000      -0.418216       -11.3802
 267   2.0000      -0.410106       -11.1595
 268   2.0000      -0.406744       -11.0681
 269   2.0000      -0.405380       -11.0309
 270   2.0000      -0.396290       -10.7836
 271   2.0000      -0.395246       -10.7552
 272   2.0000      -0.390523       -10.6267
 273   2.0000      -0.388697       -10.5770
 274   2.0000      -0.385858       -10.4997
 275   2.0000      -0.384629       -10.4663
 276   2.0000      -0.382111       -10.3978
 277   2.0000      -0.377797       -10.2804
 278   2.0000      -0.372984       -10.1494
 279   2.0000      -0.367108        -9.9895
 280   2.0000      -0.358912        -9.7665
 281   2.0000      -0.354355        -9.6425
 282   2.0000      -0.352255        -9.5854
 283   2.0000      -0.341019        -9.2796
 284   2.0000      -0.334665        -9.1067
 285   2.0000      -0.332158        -9.0385
 286   2.0000      -0.326977        -8.8975
 287   2.0000      -0.320876        -8.7315
 288   2.0000      -0.316691        -8.6176
 289   2.0000      -0.312089        -8.4924
 290   2.0000      -0.302451        -8.2301
 291   2.0000      -0.298361        -8.1188
 292   2.0000      -0.292453        -7.9581
 293   2.0000      -0.286997        -7.8096
 294   2.0000      -0.255112        -6.9420
 295   0.0000      -0.102402        -2.7865
 296   0.0000      -0.099974        -2.7204
 297   0.0000      -0.080652        -2.1946
 298   0.0000      -0.066676        -1.8144
 299   0.0000      -0.060676        -1.6511

MULLIKEN ATOMIC CHARGES
-----------------------
   0 C :   -0.104483
   1 C :    0.241501
   2 F :   -0.168000
   3 C :    0.241542
   4 F :   -0.170160
   5 C :   -0.105664
   6 C :    0.115648
   7 C :    0.110550
   8 C :   -0.079550
   9 C :    0.044820
  10 C :    0.005348
  11 C :   -0.067109
  12 C :    0.192757
  13 O :   -0.242913
  14 C :   -0.139205
  15 C :    0.326779
  16 C :   -0.339108
  17 C :   -0.199849
  18 N :    0.149109
  19 C :   -0.182917
  20 N :    0.151251
  21 C :    0.043679
  22 N :   -0.003633
  23 C :   -0.122041
  24 S :    0.190211
  25 C :    0.000290
  26 N :    0.275148
  27 O :   -0.241651
  28 O :   -0.254651
  29 C :    0.007430
  30 C :    0.136350
  31 C :   -0.065058
  32 C :    0.057532
  33 C :   -0.121097
  34 S :    0.176124
  35 C :   -0.163751
  36 C :   -0.037282
  37 C :    0.218299
  38 O :   -0.410141
  39 S :    0.265796
  40 C :   -0.121408
  41 S :    0.023761
  42 C :   -0.064386
  43 C :   -0.008527
  44 C :   -0.353029
  45 N :    0.208817
  46 C :    0.145508
  47 C :   -0.218149
  48 S :    0.161180
  49 S :    0.198522
  50 C :   -0.210320
  51 C :    0.142463
  52 C :   -0.014428
  53 C :   -0.313978
  54 N :    0.229183
  55 C :   -0.135038
  56 S :    0.203084
  57 C :    0.054027
  58 C :   -0.112201
  59 C :    0.136091
  60 O :   -0.134775
  61 C :    0.022238
  62 C :   -0.088700
  63 C :    0.117203
  64 C :    0.112675
  65 C :   -0.108145
  66 C :    0.244242
  67 C :    0.242647
  68 C :   -0.109569
  69 F :   -0.170309
  70 F :   -0.169521
  71 C :   -0.068557
  72 C :    0.038323
  73 C :    0.256931
  74 C :   -0.297408
  75 C :   -0.194601
  76 N :    0.167035
  77 C :   -0.181489
  78 N :    0.169730
  79 H :    0.010542
  80 H :   -0.004736
  81 H :   -0.002299
  82 H :   -0.031420
  83 H :    0.043300
  84 H :    0.184905
  85 H :    0.018024
  86 H :    0.026566
  87 H :   -0.013233
  88 H :    0.110650
  89 H :    0.087314
  90 H :    0.028928
  91 H :   -0.007923
  92 H :    0.009850
  93 H :    0.000030
  94 H :    0.008478
Sum of atomic charges:   -0.0000000

LOEWDIN ATOMIC CHARGES
----------------------
   0 C :   -0.027145
   1 C :    0.068632
   2 F :   -0.045572
   3 C :    0.068603
   4 F :   -0.047671
   5 C :   -0.034150
   6 C :   -0.010492
   7 C :   -0.005386
   8 C :    0.021071
   9 C :   -0.018623
  10 C :   -0.050889
  11 C :    0.029308
  12 C :    0.102217
  13 O :   -0.181888
  14 C :   -0.147161
  15 C :    0.077356
  16 C :   -0.146418
  17 C :   -0.020732
  18 N :   -0.050648
  19 C :   -0.019259
  20 N :   -0.052288
  21 C :    0.117534
  22 N :    0.087461
  23 C :   -0.121483
  24 S :    0.474758
  25 C :   -0.196401
  26 N :    0.272572
  27 O :   -0.207377
  28 O :   -0.221417
  29 C :    0.002969
  30 C :   -0.078070
  31 C :   -0.030271
  32 C :   -0.026938
  33 C :   -0.189103
  34 S :    0.499761
  35 C :   -0.215592
  36 C :   -0.214444
  37 C :   -0.025419
  38 O :   -0.229934
  39 S :    0.408196
  40 C :   -0.265599
  41 S :    0.291339
  42 C :   -0.141369
  43 C :   -0.112726
  44 C :   -0.062032
  45 N :   -0.030597
  46 C :   -0.056932
  47 C :   -0.338191
  48 S :    0.456428
  49 S :    0.432743
  50 C :   -0.317520
  51 C :   -0.056588
  52 C :   -0.078550
  53 C :   -0.032869
  54 N :   -0.026523
  55 C :   -0.146961
  56 S :    0.479901
  57 C :    0.031211
  58 C :   -0.064340
  59 C :    0.087067
  60 O :   -0.134263
  61 C :   -0.055035
  62 C :    0.032233
  63 C :   -0.008247
  64 C :   -0.003061
  65 C :   -0.027547
  66 C :    0.068116
  67 C :    0.067762
  68 C :   -0.033214
  69 F :   -0.048479
  70 F :   -0.047108
  71 C :    0.025592
  72 C :   -0.014619
  73 C :    0.071190
  74 C :   -0.121665
  75 C :   -0.015770
  76 N :   -0.045465
  77 C :   -0.016085
  78 N :   -0.040900
  79 H :    0.049153
  80 H :    0.042840
  81 H :    0.041773
  82 H :    0.030485
  83 H :    0.039238
  84 H :    0.082231
  85 H :    0.048098
  86 H :    0.027506
  87 H :    0.031143
  88 H :    0.029206
  89 H :    0.034183
  90 H :    0.048620
  91 H :    0.040904
  92 H :    0.048966
  93 H :    0.044820
  94 H :    0.043843

  Mayer bond orders larger than 0.100000
B(  0-C ,  1-C ) :   1.4370 B(  0-C ,  5-C ) :   0.1071 B(  0-C ,  7-C ) :   1.1925
B(  0-C , 79-H ) :   1.0074 B(  1-C ,  2-F ) :   1.1382 B(  1-C ,  3-C ) :   1.1926
B(  3-C ,  4-F ) :   1.1357 B(  3-C ,  5-C ) :   1.4395 B(  5-C ,  6-C ) :   1.1940
B(  5-C , 80-H ) :   1.0071 B(  6-C ,  7-C ) :   1.2580 B(  6-C , 11-C ) :   1.1871
B(  7-C ,  8-C ) :   1.2065 B(  8-C ,  9-C ) :   1.4671 B(  8-C , 81-H ) :   0.9906
B(  9-C , 10-C ) :   1.2184 B(  9-C , 15-C ) :   0.9864 B( 10-C , 11-C ) :   1.4739
B( 10-C , 12-C ) :   0.9872 B( 11-C , 82-H ) :   1.0143 B( 12-C , 13-O ) :   1.9371
B( 12-C , 14-C ) :   1.0345 B( 13-O , 84-H ) :   0.1578 B( 14-C , 15-C ) :   1.1015
B( 14-C , 21-C ) :   1.4165 B( 15-C , 16-C ) :   1.6314 B( 16-C , 17-C ) :   1.1469
B( 16-C , 19-C ) :   1.1455 B( 17-C , 18-N ) :   2.9573 B( 19-C , 20-N ) :   2.9617
B( 21-C , 22-N ) :   1.3679 B( 21-C , 83-H ) :   0.9363 B( 22-N , 23-C ) :   1.1880
B( 22-N , 84-H ) :   0.8073 B( 23-C , 24-S ) :   1.1308 B( 23-C , 30-C ) :   1.3752
B( 24-S , 25-C ) :   1.0896 B( 25-C , 26-N ) :   0.9589 B( 25-C , 29-C ) :   1.4989
B( 26-N , 27-O ) :   1.5420 B( 26-N , 28-O ) :   1.5184 B( 27-O , 28-O ) :   0.2643
B( 29-C , 30-C ) :   1.2246 B( 29-C , 85-H ) :   1.0032 B( 30-C , 31-C ) :   1.0660
B( 31-C , 32-C ) :   1.7324 B( 31-C , 86-H ) :   0.9429 B( 32-C , 33-C ) :   1.1263
B( 32-C , 87-H ) :   0.9564 B( 33-C , 34-S ) :   1.1095 B( 33-C , 35-C ) :   0.1179
B( 33-C , 37-C ) :   1.5060 B( 34-S , 35-C ) :   1.1380 B( 35-C , 36-C ) :   1.4964
B( 35-C , 42-C ) :   1.2061 B( 36-C , 37-C ) :   1.2688 B( 36-C , 41-S ) :   1.0054
B( 37-C , 38-O ) :   1.0396 B( 38-O , 39-S ) :   0.8737 B( 39-S , 40-C ) :   0.9824
B( 40-C , 41-S ) :   0.9660 B( 40-C , 88-H ) :   0.9393 B( 40-C , 89-H ) :   0.9509
B( 42-C , 43-C ) :   1.4687 B( 42-C , 48-S ) :   1.1385 B( 43-C , 44-C ) :   1.1499
B( 43-C , 46-C ) :   1.2683 B( 44-C , 45-N ) :   2.9622 B( 46-C , 47-C ) :   1.4244
B( 46-C , 51-C ) :   1.0759 B( 47-C , 48-S ) :   1.0791 B( 47-C , 49-S ) :   1.0742
B( 49-S , 50-C ) :   1.0942 B( 50-C , 51-C ) :   1.3953 B( 50-C , 56-S ) :   1.1068
B( 51-C , 52-C ) :   1.2810 B( 52-C , 53-C ) :   1.1828 B( 52-C , 55-C ) :   1.4676
B( 53-C , 54-N ) :   2.9674 B( 55-C , 56-S ) :   1.1348 B( 55-C , 57-C ) :   1.0963
B( 57-C , 58-C ) :   1.7325 B( 57-C , 90-H ) :   0.9250 B( 58-C , 59-C ) :   0.9307
B( 58-C , 73-C ) :   1.0126 B( 59-C , 60-O ) :   2.2782 B( 59-C , 61-C ) :   0.9212
B( 61-C , 62-C ) :   1.4627 B( 61-C , 72-C ) :   1.2197 B( 62-C , 63-C ) :   1.1987
B( 62-C , 91-H ) :   1.0176 B( 63-C , 64-C ) :   1.2536 B( 63-C , 68-C ) :   1.1903
B( 64-C , 65-C ) :   1.1867 B( 64-C , 71-C ) :   1.2167 B( 65-C , 66-C ) :   1.4422
B( 65-C , 68-C ) :   0.1087 B( 65-C , 92-H ) :   1.0083 B( 66-C , 67-C ) :   1.1894
B( 66-C , 70-F ) :   1.1349 B( 67-C , 68-C ) :   1.4443 B( 67-C , 69-F ) :   1.1349
B( 68-C , 93-H ) :   1.0079 B( 71-C , 72-C ) :   1.4590 B( 71-C , 94-H ) :   0.9941
B( 72-C , 73-C ) :   1.0021 B( 73-C , 74-C ) :   1.6679 B( 74-C , 75-C ) :   1.1714
B( 74-C , 77-C ) :   1.1353 B( 75-C , 76-N ) :   2.9938 B( 77-C , 78-N ) :   2.9993

-----------------------------------------------------------------------------
         ABSORPTION SPECTRUM VIA TRANSITION ELECTRIC DIPOLE MOMENTS
-----------------------------------------------------------------------------
State   Energy  Wavelength   fosc         T2         TX        TY        TZ
        (cm-1)    (nm)                  (au**2)     (au)      (au)      (au)
-----------------------------------------------------------------------------
   0   18954.4    527.6   0.798764600  13.87343  -0.41856   0.79585   3.61453
   1   20594.6    485.6   0.025501834   0.40766  -0.43600  -0.18925   0.42631
   2   23151.3    431.9   0.492963668   7.00995   1.95908  -0.21421  -1.76807
   3   23248.6    430.1   0.030839845   0.43671  -0.03147  -0.33893   0.56643
   4   24932.3    401.1   0.750445440   9.90904  -0.03830   1.95034  -2.47058
   5   25730.8    388.6   0.041306009   0.52849   0.30885  -0.62167  -0.21595
   6   26041.8    384.0   0.548888551   6.93886   0.01046  -2.61614  -0.30751
   7   27631.8    361.9   0.022090057   0.26319   0.06211   0.12518   0.49362
   8   27848.8    359.1   0.193185754   2.28373  -0.25632   0.99258   1.11032
   9   28957.5    345.3   0.015519579   0.17644   0.15713  -0.36539  -0.13506
  10   29022.5    344.6   0.074216113   0.84186   0.11865  -0.88542   0.20929
  11   29565.1    338.2   0.138476709   1.54196   0.30291  -0.31863  -1.16133
  12   29728.4    336.4   0.020940842   0.23190  -0.10936  -0.45778   0.10185
  13   30507.4    327.8   0.116152461   1.25343   0.06370   1.09996   0.19862
  14   30535.5    327.5   0.024171057   0.26060  -0.02347   0.45740  -0.22545
  15   30823.0    324.4   0.249776792   2.66780   0.11666   1.62913  -0.01052
  16   31366.9    318.8   0.248480048   2.60793  -0.60044   1.28930   0.76492
  17   31447.9    318.0   0.022685854   0.23749  -0.12123   0.41700   0.22113
  18   31802.6    314.4   0.038877490   0.40245  -0.10083   0.36382   0.50982
  19   32642.0    306.4   0.030901717   0.31166   0.05739  -0.55522  -0.00979
  20   33024.5    302.8   0.333830505   3.32787   0.53916  -1.23964  -1.22494
  21   33282.7    300.5   0.157118171   1.55412  -0.40452   0.88501   0.77925
  22   33375.8    299.6   0.430821580   4.24954   0.45244  -1.50392  -1.33531
  23   33724.9    296.5   0.150133840   1.46556  -0.17539  -0.92544  -0.76050
  24   33914.6    294.9   0.005955711   0.05781  -0.15939  -0.05412   0.17169
  25   34234.6    292.1   0.017947134   0.17259  -0.08021  -0.38022   0.14693
  26   34907.9    286.5   0.737872407   6.95877  -0.23717   2.56170  -0.58327
  27   35067.5    285.2   0.053596493   0.50316   0.23166  -0.66786   0.05878
  28   35298.9    283.3   0.268307330   2.50234  -0.12522   1.55101  -0.28467
  29   35638.2    280.6   0.042763185   0.39503  -0.10047   0.60840  -0.12160
  30   36084.9    277.1   0.012797237   0.11675  -0.01473   0.34124   0.00938
  31   36375.6    274.9   0.162899656   1.47430  -0.59045   0.96547   0.43992
  32   36616.0    273.1   0.020981009   0.18864  -0.12972   0.41324   0.03229
  33   36819.8    271.6   0.098169885   0.87775   0.05415  -0.01988   0.93511
  34   36964.1    270.5   0.043533632   0.38772  -0.02067   0.13011  -0.60858
  35   37058.9    269.8   0.029643678   0.26334   0.08999  -0.44884   0.23192
  36   37280.6    268.2   0.031268317   0.27612  -0.08299   0.12858   0.50269
  37   37314.2    268.0   0.013020522   0.11488   0.13045  -0.09178  -0.29906
  38   37330.8    267.9   0.010401386   0.09173   0.18993   0.03976   0.23253
  39   37454.9    267.0   0.162117034   1.42494  -0.04210   0.69752   0.96780
  40   38397.5    260.4   0.001733899   0.01487   0.03188   0.11768  -0.00039
  41   38615.6    259.0   0.016724432   0.14258   0.11077  -0.31717  -0.17238
  42   38675.7    258.6   0.024806749   0.21116  -0.11544   0.36872   0.24875
  43   39427.7    253.6   0.137033876   1.14420  -0.53568   0.60268  -0.70287
  44   39471.8    253.3   0.036094166   0.30104   0.25151  -0.24629   0.42086
  45   39557.2    252.8   0.011981308   0.09971   0.16425  -0.26790   0.03110
  46   39774.3    251.4   0.036573178   0.30272  -0.07457   0.47063  -0.27507
  47   39851.9    250.9   0.055304469   0.45686  -0.49668   0.35843  -0.28583
  48   39927.1    250.5   0.022131377   0.18248  -0.19651   0.16096   0.34344
  49   40117.8    249.3   0.011877193   0.09747  -0.19300   0.23901  -0.05558

FINAL SINGLE POINT ENERGY     -6101.179023914732

DIPOLE MOMENT
-------------
                                X             Y             Z
Electronic contribution:      8.75220      10.17551     -14.25754
Nuclear contribution   :    -10.92419      -5.89307      13.17757
                        -----------------------------------------
Total Dipole Moment    :     -2.17199       4.28244      -1.07997
                        -----------------------------------------
Magnitude (a.u.)       :      4.92170
Magnitude (Debye)      :     12.50998

Rotational constants in cm-1:     0.000983     0.000254     0.000213
Rotational constants in MHz :    29.467481     7.625131     6.385140

                             ****ORCA TERMINATED NORMALLY****
TOTAL RUN TIME: 0 days 0 hours 9 minutes 36 seconds 116 msec
