                         Program Version 4.2.0 -  RELEASE  -
|  1> # ORCA input file
|  2> # SCF done       -197.270404004164          0.000215786768
|  3> ! CAM-B3LYP def2-SVP def2/J RIJCOSX Grid4 TightSCF
|  4> %maxcore 5000
|  5> %tddft
|  6>     Mode sTDDFT
|  7>     Ethresh 5.0
|  8>     maxcore 5000
|  9> end
| 10>
| 11> %pal
| 12>   nprocs 6
| 13>   end
| 14> * xyz 0 1
| 15>    C      -12.61523        -9.73546        10.32312
| 16>    C      -13.71896       -10.53771        10.40017
| 17>    F      -14.43463       -10.59186        11.53129
| 18>    C      -14.11801       -11.31638         9.29545
| 19>    F      -15.20402       -12.09443         9.39947
| 20>    C      -13.40737       -11.28213         8.12839
| 21>    C      -12.26457       -10.46663         8.01809
| 22>    C      -11.86086        -9.67756         9.13405
| 23>    C      -10.71698        -8.85141         9.04655
| 24>    C      -10.00065        -8.81843         7.87948
| 25>    C      -10.40642        -9.61432         6.77239
| 26>    C      -11.50633       -10.42030         6.82665
| 27>    C       -9.45401        -9.43227         5.65892
| 28>    O       -9.47572       -10.01074         4.59080
| 29>    C       -8.42651        -8.49954         6.16074
| 30>    C       -8.80285        -8.07912         7.49834
| 31>    C       -8.20435        -7.08742         8.22939
| 32>    C       -7.13133        -6.29335         7.77083
| 33>    N       -6.28532        -5.58886         7.44488
| 34>    C       -8.62312        -6.69747         9.51864
| 35>    N       -8.91677        -6.34563        10.57093
| 36>    C       -7.20522        -8.26658         5.58963
| 37>    C       -6.75926        -8.48737         4.26735
| 38>    S       -5.05698        -8.85779         4.09565
| 39>    C       -5.18665        -8.87203         2.36716
| 40>    C       -6.46374        -8.53760         1.95055
| 41>    C       -7.35945        -8.33436         3.01993
| 42>    C       -8.75873        -7.86532         2.81359
| 43>    C       -9.10912        -7.56329         1.35121
| 44>    C       -7.89920        -7.11109         0.53004
| 45>    O       -7.36568        -5.88542         0.96823
| 46>    C       -6.85388        -8.23875         0.54193
| 47>    C       -4.01982        -9.16943         1.59586
| 48>    C       -3.91616        -9.89668         0.41947
| 49>    C       -5.02555       -10.54967        -0.13985
| 50>    N       -5.96323       -11.07341        -0.54155
| 51>    C       -2.57654        -9.97723        -0.05354
| 52>    C       -1.70316        -9.30836         0.79851
| 53>    S       -2.46700        -8.59444         2.16181
| 54>    S       -0.03904        -9.32639         0.31395
| 55>    C       -0.50959       -10.24674        -1.07648
| 56>    C       -1.86781       -10.53838        -1.15764
| 57>    C       -2.15749       -11.30636        -2.31805
| 58>    C       -3.39348       -11.93204        -2.54598
| 59>    N       -4.37264       -12.52410        -2.63643
| 60>    C       -1.02085       -11.54820        -3.08396
| 61>    S        0.43622       -10.92671        -2.34711
| 62>    C       -0.93585       -12.22268        -4.33623
| 63>    C        0.28415       -12.77290        -4.77622
| 64>    C        0.38796       -13.56578        -5.97202
| 65>    N        1.56274       -14.09377        -6.31212
| 66>    C        2.62217       -13.86579        -5.56093
| 67>    C        2.52784       -13.05181        -4.39116
| 68>    N        1.37612       -12.54055        -4.03069
| 69>    C        3.67848       -12.78698        -3.60654
| 70>    N        4.62618       -12.59326        -2.99352
| 71>    C        3.86118       -14.43760        -5.93518
| 72>    N        4.87530       -14.89082        -6.21747
| 73>    C       -0.74181       -13.80710        -6.82183
| 74>    C       -1.93014       -13.13532        -6.43760
| 75>    C       -2.02005       -12.34969        -5.22935
| 76>    N       -3.20143       -11.74850        -5.11772
| 77>    S       -4.13150       -12.15969        -6.35502
| 78>    N       -3.06848       -13.09928        -7.12102
| 79>    C       -0.57095       -14.64658        -7.92740
| 80>    C       -1.43963       -15.06005        -8.91793
| 81>    C       -1.03548       -15.96295        -9.93702
| 82>    C       -2.00561       -16.27421       -10.83854
| 83>    C       -3.23150       -15.62348       -10.57648
| 84>    S       -3.10788       -14.61104        -9.14800
| 85>    C       -4.40459       -15.71078       -11.29970
| 86>    C       -4.64037       -16.48541       -12.47070
| 87>    C       -5.89033       -16.36761       -12.97167
| 88>    C       -6.74137       -15.48376       -12.22779
| 89>    S       -5.83747       -14.82444       -10.85294
| 90>    C       -8.01859       -15.16697       -12.48252
| 91>    H      -12.32391        -9.14490        11.17766
| 92>    H      -13.72523       -11.88520         7.29233
| 93>    H      -10.43088        -8.27179         9.90941
| 94>    H      -11.79311       -11.01600         5.97341
| 95>    H       -6.42404        -7.90901         6.25291
| 96>    H       -8.93208        -6.98993         3.44824
| 97>    H       -9.43253        -8.64903         3.17295
| 98>    H       -9.87819        -6.79070         1.31983
| 99>    H       -9.51148        -8.45898         0.87761
|100>    H       -8.20817        -6.92312        -0.50322
|101>    H       -7.09660        -5.97692         1.88985
|102>    H       -5.97667        -7.94060        -0.03602
|103>    H       -7.28251        -9.12256         0.06453
|104>    H        0.43288       -15.04835        -8.00854
|105>    H       -0.03383       -16.35451        -9.96488
|106>    H       -1.86697       -16.94208       -11.66954
|107>    H       -3.87085       -17.10280       -12.89823
|108>    H       -6.25425       -16.87363       -13.84794
|109>    H       -8.53138       -15.58882       -13.32901
|110>    H       -8.56825       -14.48818       -11.85640
|111> *
|112>
|113>                          ****END OF INPUT****

CARTESIAN COORDINATES (ANGSTROEM)
---------------------------------
  C    -12.615230   -9.735460   10.323120
  C    -13.718960  -10.537710   10.400170
  F    -14.434630  -10.591860   11.531290
  C    -14.118010  -11.316380    9.295450
  F    -15.204020  -12.094430    9.399470
  C    -13.407370  -11.282130    8.128390
  C    -12.264570  -10.466630    8.018090
  C    -11.860860   -9.677560    9.134050
  C    -10.716980   -8.851410    9.046550
  C    -10.000650   -8.818430    7.879480
  C    -10.406420   -9.614320    6.772390
  C    -11.506330  -10.420300    6.826650
  C     -9.454010   -9.432270    5.658920
  O     -9.475720  -10.010740    4.590800
  C     -8.426510   -8.499540    6.160740
  C     -8.802850   -8.079120    7.498340
  C     -8.204350   -7.087420    8.229390
  C     -7.131330   -6.293350    7.770830
  N     -6.285320   -5.588860    7.444880
  C     -8.623120   -6.697470    9.518640
  N     -8.916770   -6.345630   10.570930
  C     -7.205220   -8.266580    5.589630
  C     -6.759260   -8.487370    4.267350
  S     -5.056980   -8.857790    4.095650
  C     -5.186650   -8.872030    2.367160
  C     -6.463740   -8.537600    1.950550
  C     -7.359450   -8.334360    3.019930
  C     -8.758730   -7.865320    2.813590
  C     -9.109120   -7.563290    1.351210
  C     -7.899200   -7.111090    0.530040
  O     -7.365680   -5.885420    0.968230
  C     -6.853880   -8.238750    0.541930
  C     -4.019820   -9.169430    1.595860
  C     -3.916160   -9.896680    0.419470
  C     -5.025550  -10.549670   -0.139850
  N     -5.963230  -11.073410   -0.541550
  C     -2.576540   -9.977230   -0.053540
  C     -1.703160   -9.308360    0.798510
  S     -2.467000   -8.594440    2.161810
  S     -0.039040   -9.326390    0.313950
  C     -0.509590  -10.246740   -1.076480
  C     -1.867810  -10.538380   -1.157640
  C     -2.157490  -11.306360   -2.318050
  C     -3.393480  -11.932040   -2.545980
  N     -4.372640  -12.524100   -2.636430
  C     -1.020850  -11.548200   -3.083960
  S      0.436220  -10.926710   -2.347110
  C     -0.935850  -12.222680   -4.336230
  C      0.284150  -12.772900   -4.776220
  C      0.387960  -13.565780   -5.972020
  N      1.562740  -14.093770   -6.312120
  C      2.622170  -13.865790   -5.560930
  C      2.527840  -13.051810   -4.391160
  N      1.376120  -12.540550   -4.030690
  C      3.678480  -12.786980   -3.606540
  N      4.626180  -12.593260   -2.993520
  C      3.861180  -14.437600   -5.935180
  N      4.875300  -14.890820   -6.217470
  C     -0.741810  -13.807100   -6.821830
  C     -1.930140  -13.135320   -6.437600
  C     -2.020050  -12.349690   -5.229350
  N     -3.201430  -11.748500   -5.117720
  S     -4.131500  -12.159690   -6.355020
  N     -3.068480  -13.099280   -7.121020
  C     -0.570950  -14.646580   -7.927400
  C     -1.439630  -15.060050   -8.917930
  C     -1.035480  -15.962950   -9.937020
  C     -2.005610  -16.274210  -10.838540
  C     -3.231500  -15.623480  -10.576480
  S     -3.107880  -14.611040   -9.148000
  C     -4.404590  -15.710780  -11.299700
  C     -4.640370  -16.485410  -12.470700
  C     -5.890330  -16.367610  -12.971670
  C     -6.741370  -15.483760  -12.227790
  S     -5.837470  -14.824440  -10.852940
  C     -8.018590  -15.166970  -12.482520
  H    -12.323910   -9.144900   11.177660
  H    -13.725230  -11.885200    7.292330
  H    -10.430880   -8.271790    9.909410
  H    -11.793110  -11.016000    5.973410
  H     -6.424040   -7.909010    6.252910
  H     -8.932080   -6.989930    3.448240
  H     -9.432530   -8.649030    3.172950
  H     -9.878190   -6.790700    1.319830
  H     -9.511480   -8.458980    0.877610
  H     -8.208170   -6.923120   -0.503220
  H     -7.096600   -5.976920    1.889850
  H     -5.976670   -7.940600   -0.036020
  H     -7.282510   -9.122560    0.064530
  H      0.432880  -15.048350   -8.008540
  H     -0.033830  -16.354510   -9.964880
  H     -1.866970  -16.942080  -11.669540
  H     -3.870850  -17.102800  -12.898230
  H     -6.254250  -16.873630  -13.847940
  H     -8.531380  -15.588820  -13.329010
  H     -8.568250  -14.488180  -11.856400

 Total Charge           Charge          ....    0
 Multiplicity           Mult            ....    1
 Number of Electrons    NEL             ....  566
 Basis Dimension        Dim             .... 1192

ORBITAL ENERGIES
----------------

  NO   OCC          E(Eh)            E(eV)
   0   2.0000     -89.037814     -2422.8421
   1   2.0000     -88.985413     -2421.4162
   2   2.0000     -88.979858     -2421.2650
   3   2.0000     -88.971470     -2421.0368
   4   2.0000     -88.970031     -2420.9976
   5   2.0000     -88.969047     -2420.9708
   6   2.0000     -88.968536     -2420.9569
   7   2.0000     -24.797861      -674.7841
   8   2.0000     -24.796903      -674.7580
   9   2.0000     -19.218641      -522.9658
  10   2.0000     -19.200104      -522.4614
  11   2.0000     -14.462457      -393.5435
  12   2.0000     -14.459998      -393.4765
  13   2.0000     -14.454564      -393.3287
  14   2.0000     -14.442138      -392.9906
  15   2.0000     -14.431325      -392.6963
  16   2.0000     -14.423196      -392.4751
  17   2.0000     -14.416645      -392.2968
  18   2.0000     -14.416129      -392.2828
  19   2.0000     -14.402649      -391.9160
  20   2.0000     -14.386740      -391.4831
  21   2.0000     -10.384393      -282.5737
  22   2.0000     -10.381163      -282.4858
  23   2.0000     -10.380297      -282.4622
  24   2.0000     -10.373214      -282.2695
  25   2.0000     -10.369176      -282.1596
  26   2.0000     -10.347846      -281.5792
  27   2.0000     -10.347516      -281.5702
  28   2.0000     -10.346732      -281.5489
  29   2.0000     -10.344264      -281.4817
  30   2.0000     -10.344078      -281.4767
  31   2.0000     -10.341888      -281.4171
  32   2.0000     -10.339836      -281.3613
  33   2.0000     -10.338717      -281.3308
  34   2.0000     -10.338184      -281.3163
  35   2.0000     -10.335154      -281.2338
  36   2.0000     -10.334632      -281.2196
  37   2.0000     -10.326723      -281.0044
  38   2.0000     -10.326622      -281.0017
  39   2.0000     -10.326149      -280.9888
  40   2.0000     -10.325630      -280.9747
  41   2.0000     -10.325041      -280.9587
  42   2.0000     -10.324444      -280.9424
  43   2.0000     -10.322662      -280.8939
  44   2.0000     -10.321544      -280.8635
  45   2.0000     -10.319265      -280.8015
  46   2.0000     -10.318921      -280.7921
  47   2.0000     -10.318068      -280.7689
  48   2.0000     -10.317058      -280.7414
  49   2.0000     -10.316161      -280.7170
  50   2.0000     -10.316103      -280.7154
  51   2.0000     -10.310993      -280.5764
  52   2.0000     -10.310555      -280.5645
  53   2.0000     -10.310284      -280.5571
  54   2.0000     -10.309973      -280.5486
  55   2.0000     -10.307760      -280.4884
  56   2.0000     -10.307120      -280.4710
  57   2.0000     -10.306720      -280.4601
  58   2.0000     -10.305447      -280.4255
  59   2.0000     -10.304780      -280.4073
  60   2.0000     -10.302553      -280.3467
  61   2.0000     -10.302143      -280.3356
  62   2.0000     -10.302001      -280.3317
  63   2.0000     -10.301822      -280.3268
  64   2.0000     -10.301614      -280.3212
  65   2.0000     -10.300726      -280.2970
  66   2.0000     -10.300658      -280.2952
  67   2.0000     -10.299995      -280.2771
  68   2.0000     -10.299281      -280.2577
  69   2.0000     -10.298080      -280.2250
  70   2.0000     -10.293358      -280.0965
  71   2.0000     -10.292429      -280.0712
  72   2.0000     -10.290527      -280.0195
  73   2.0000     -10.267370      -279.3893
  74   2.0000     -10.262411      -279.2544
  75   2.0000     -10.258347      -279.1438
  76   2.0000      -8.128999      -221.2013
  77   2.0000      -8.080694      -219.8869
  78   2.0000      -8.075097      -219.7346
  79   2.0000      -8.066787      -219.5084
  80   2.0000      -8.064941      -219.4582
  81   2.0000      -8.064482      -219.4457
  82   2.0000      -8.063244      -219.4120
  83   2.0000      -6.100201      -165.9949
  84   2.0000      -6.092459      -165.7842
  85   2.0000      -6.091478      -165.7575
  86   2.0000      -6.050223      -164.6349
  87   2.0000      -6.045996      -164.5199
  88   2.0000      -6.045061      -164.4945
  89   2.0000      -6.042367      -164.4212
  90   2.0000      -6.040771      -164.3777
  91   2.0000      -6.036503      -164.2616
  92   2.0000      -6.035954      -164.2467
  93   2.0000      -6.034822      -164.2159
  94   2.0000      -6.033781      -164.1875
  95   2.0000      -6.032985      -164.1659
  96   2.0000      -6.032502      -164.1527
  97   2.0000      -6.030014      -164.0850
  98   2.0000      -6.029703      -164.0766
  99   2.0000      -6.028578      -164.0459
 100   2.0000      -6.027533      -164.0175
 101   2.0000      -6.026565      -163.9912
 102   2.0000      -6.026374      -163.9860
 103   2.0000      -6.024525      -163.9357
 104   2.0000      -1.320286       -35.9268
 105   2.0000      -1.305416       -35.5222
 106   2.0000      -1.138537       -30.9812
 107   2.0000      -1.133096       -30.8331
 108   2.0000      -1.120557       -30.4919
 109   2.0000      -1.093424       -29.7536
 110   2.0000      -1.048380       -28.5279
 111   2.0000      -1.036180       -28.1959
 112   2.0000      -1.020821       -27.7780
 113   2.0000      -1.019216       -27.7343
 114   2.0000      -1.014476       -27.6053
 115   2.0000      -1.010033       -27.4844
 116   2.0000      -1.004417       -27.3316
 117   2.0000      -1.002500       -27.2794
 118   2.0000      -0.999155       -27.1884
 119   2.0000      -0.996478       -27.1156
 120   2.0000      -0.994909       -27.0728
 121   2.0000      -0.989883       -26.9361
 122   2.0000      -0.984809       -26.7980
 123   2.0000      -0.981483       -26.7075
 124   2.0000      -0.974061       -26.5055
 125   2.0000      -0.968560       -26.3559
 126   2.0000      -0.941440       -25.6179
 127   2.0000      -0.932728       -25.3808
 128   2.0000      -0.916448       -24.9378
 129   2.0000      -0.911117       -24.7927
 130   2.0000      -0.905794       -24.6479
 131   2.0000      -0.903453       -24.5842
 132   2.0000      -0.896914       -24.4063
 133   2.0000      -0.893968       -24.3261
 134   2.0000      -0.888939       -24.1893
 135   2.0000      -0.884967       -24.0812
 136   2.0000      -0.872058       -23.7299
 137   2.0000      -0.864514       -23.5246
 138   2.0000      -0.862130       -23.4598
 139   2.0000      -0.851480       -23.1699
 140   2.0000      -0.845034       -22.9945
 141   2.0000      -0.840320       -22.8663
 142   2.0000      -0.834744       -22.7145
 143   2.0000      -0.829961       -22.5844
 144   2.0000      -0.822555       -22.3829
 145   2.0000      -0.817250       -22.2385
 146   2.0000      -0.810737       -22.0613
 147   2.0000      -0.806395       -21.9431
 148   2.0000      -0.786816       -21.4103
 149   2.0000      -0.774086       -21.0640
 150   2.0000      -0.767543       -20.8859
 151   2.0000      -0.755170       -20.5492
 152   2.0000      -0.739876       -20.1330
 153   2.0000      -0.734331       -19.9822
 154   2.0000      -0.726208       -19.7611
 155   2.0000      -0.722403       -19.6576
 156   2.0000      -0.717909       -19.5353
 157   2.0000      -0.711702       -19.3664
 158   2.0000      -0.706116       -19.2144
 159   2.0000      -0.705399       -19.1949
 160   2.0000      -0.698433       -19.0053
 161   2.0000      -0.696483       -18.9523
 162   2.0000      -0.687265       -18.7014
 163   2.0000      -0.683466       -18.5981
 164   2.0000      -0.676390       -18.4055
 165   2.0000      -0.666127       -18.1262
 166   2.0000      -0.662204       -18.0195
 167   2.0000      -0.659975       -17.9588
 168   2.0000      -0.656507       -17.8645
 169   2.0000      -0.649556       -17.6753
 170   2.0000      -0.643612       -17.5136
 171   2.0000      -0.642176       -17.4745
 172   2.0000      -0.639196       -17.3934
 173   2.0000      -0.632696       -17.2165
 174   2.0000      -0.629209       -17.1217
 175   2.0000      -0.625178       -17.0120
 176   2.0000      -0.623023       -16.9533
 177   2.0000      -0.620314       -16.8796
 178   2.0000      -0.616584       -16.7781
 179   2.0000      -0.609139       -16.5755
 180   2.0000      -0.598013       -16.2728
 181   2.0000      -0.590397       -16.0655
 182   2.0000      -0.588790       -16.0218
 183   2.0000      -0.584860       -15.9149
 184   2.0000      -0.579172       -15.7601
 185   2.0000      -0.577989       -15.7279
 186   2.0000      -0.574787       -15.6408
 187   2.0000      -0.560147       -15.2424
 188   2.0000      -0.558899       -15.2084
 189   2.0000      -0.555433       -15.1141
 190   2.0000      -0.555200       -15.1078
 191   2.0000      -0.554454       -15.0875
 192   2.0000      -0.549828       -14.9616
 193   2.0000      -0.546480       -14.8705
 194   2.0000      -0.544231       -14.8093
 195   2.0000      -0.542337       -14.7577
 196   2.0000      -0.537231       -14.6188
 197   2.0000      -0.535649       -14.5757
 198   2.0000      -0.532658       -14.4944
 199   2.0000      -0.531415       -14.4605
 200   2.0000      -0.530858       -14.4454
 201   2.0000      -0.528145       -14.3716
 202   2.0000      -0.523607       -14.2481
 203   2.0000      -0.520180       -14.1548
 204   2.0000      -0.519722       -14.1424
 205   2.0000      -0.517056       -14.0698
 206   2.0000      -0.514636       -14.0040
 207   2.0000      -0.513706       -13.9786
 208   2.0000      -0.507305       -13.8045
 209   2.0000      -0.505445       -13.7539
 210   2.0000      -0.504178       -13.7194
 211   2.0000      -0.502712       -13.6795
 212   2.0000      -0.501507       -13.6467
 213   2.0000      -0.499790       -13.6000
 214   2.0000      -0.495850       -13.4928
 215   2.0000      -0.493047       -13.4165
 216   2.0000      -0.491478       -13.3738
 217   2.0000      -0.490049       -13.3349
 218   2.0000      -0.488572       -13.2947
 219   2.0000      -0.482190       -13.1210
 220   2.0000      -0.480234       -13.0678
 221   2.0000      -0.478230       -13.0133
 222   2.0000      -0.476651       -12.9703
 223   2.0000      -0.472197       -12.8491
 224   2.0000      -0.469558       -12.7773
 225   2.0000      -0.466447       -12.6927
 226   2.0000      -0.464057       -12.6276
 227   2.0000      -0.463057       -12.6004
 228   2.0000      -0.462506       -12.5854
 229   2.0000      -0.458543       -12.4776
 230   2.0000      -0.455939       -12.4067
 231   2.0000      -0.452265       -12.3068
 232   2.0000      -0.451256       -12.2793
 233   2.0000      -0.450269       -12.2524
 234   2.0000      -0.449641       -12.2353
 235   2.0000      -0.448885       -12.2148
 236   2.0000      -0.446387       -12.1468
 237   2.0000      -0.445071       -12.1110
 238   2.0000      -0.444219       -12.0878
 239   2.0000      -0.442344       -12.0368
 240   2.0000      -0.438858       -11.9419
 241   2.0000      -0.435410       -11.8481
 242   2.0000      -0.433423       -11.7940
 243   2.0000      -0.429089       -11.6761
 244   2.0000      -0.428069       -11.6484
 245   2.0000      -0.427588       -11.6353
 246   2.0000      -0.425942       -11.5905
 247   2.0000      -0.425448       -11.5770
 248   2.0000      -0.424586       -11.5536
 249   2.0000      -0.422256       -11.4902
 250   2.0000      -0.421097       -11.4586
 251   2.0000      -0.418819       -11.3966
 252   2.0000      -0.415837       -11.3155
 253   2.0000      -0.412045       -11.2123
 254   2.0000      -0.411258       -11.1909
 255   2.0000      -0.408741       -11.1224
 256   2.0000      -0.404319       -11.0021
 257   2.0000      -0.400764       -10.9054
 258   2.0000      -0.398481       -10.8432
 259   2.0000      -0.396386       -10.7862
 260   2.0000      -0.391675       -10.6580
 261   2.0000      -0.384704       -10.4683
 262   2.0000      -0.379212       -10.3189
 263   2.0000      -0.375958       -10.2303
 264   2.0000      -0.367624       -10.0036
 265   2.0000      -0.364291        -9.9129
 266   2.0000      -0.359255        -9.7758
 267   2.0000      -0.356553        -9.7023
 268   2.0000      -0.353788        -9.6271
 269   2.0000      -0.351333        -9.5603
 270   2.0000      -0.347756        -9.4629
 271   2.0000      -0.345089        -9.3903
 272   2.0000      -0.341427        -9.2907
 273   2.0000      -0.336188        -9.1481
 274   2.0000      -0.329327        -8.9614
 275   2.0000      -0.319661        -8.6984
 276   2.0000      -0.315009        -8.5718
 277   2.0000      -0.312689        -8.5087
 278   2.0000      -0.305633        -8.3167
 279   2.0000      -0.297603        -8.0982
 280   2.0000      -0.282938        -7.6991
 281   2.0000      -0.269248        -7.3266
 282   2.0000      -0.230188        -6.2637
 283   0.0000      -0.130158        -3.5418
 284   0.0000      -0.097823        -2.6619
 285   0.0000      -0.073782        -2.0077
 286   0.0000      -0.062409        -1.6982
 287   0.0000      -0.050200        -1.3660

MULLIKEN ATOMIC CHARGES
-----------------------
   0 C :   -0.107616
   1 C :    0.242389
   2 F :   -0.171342
   3 C :    0.239689
   4 F :   -0.171928
   5 C :   -0.105980
   6 C :    0.116365
   7 C :    0.113550
   8 C :   -0.084621
   9 C :    0.053776
  10 C :   -0.006306
  11 C :   -0.082069
  12 C :    0.154309
  13 O :   -0.157199
  14 C :   -0.090052
  15 C :    0.293100
  16 C :   -0.333905
  17 C :   -0.215423
  18 N :    0.164077
  19 C :   -0.180300
  20 N :    0.153053
  21 C :   -0.000833
  22 C :   -0.118787
  23 S :    0.153516
  24 C :   -0.153542
  25 C :   -0.095448
  26 C :   -0.058054
  27 C :    0.066620
  28 C :    0.057790
  29 C :    0.095411
  30 O :   -0.297439
  31 C :    0.157436
  32 C :   -0.127282
  33 C :    0.014308
  34 C :   -0.297557
  35 N :    0.206989
  36 C :    0.122854
  37 C :   -0.227831
  38 S :    0.187851
  39 S :    0.190297
  40 C :   -0.208796
  41 C :    0.103690
  42 C :    0.034314
  43 C :   -0.334052
  44 N :    0.203639
  45 C :   -0.194249
  46 S :    0.196469
  47 C :    0.100066
  48 C :   -0.026399
  49 C :   -0.063608
  50 N :    0.056121
  51 C :   -0.155941
  52 C :   -0.086904
  53 N :   -0.012377
  54 C :   -0.231099
  55 N :    0.244795
  56 C :   -0.223579
  57 N :    0.231317
  58 C :    0.121089
  59 C :    0.051601
  60 C :   -0.005374
  61 N :   -0.285724
  62 S :    0.555056
  63 N :   -0.331964
  64 C :   -0.138178
  65 C :    0.026071
  66 C :    0.020354
  67 C :    0.048693
  68 C :   -0.041695
  69 S :    0.149619
  70 C :   -0.056852
  71 C :    0.028348
  72 C :    0.070785
  73 C :   -0.075451
  74 S :    0.116751
  75 C :   -0.005643
  76 H :    0.007232
  77 H :   -0.000845
  78 H :   -0.006051
  79 H :   -0.010356
  80 H :    0.039103
  81 H :    0.018488
  82 H :    0.057834
  83 H :    0.008624
  84 H :    0.008965
  85 H :   -0.001602
  86 H :    0.166546
  87 H :    0.016346
  88 H :    0.039839
  89 H :    0.004253
  90 H :    0.000968
  91 H :   -0.006975
  92 H :    0.000097
  93 H :    0.002694
  94 H :    0.035962
  95 H :    0.038119
Sum of atomic charges:   -0.0000000

LOEWDIN ATOMIC CHARGES
----------------------
   0 C :   -0.029212
   1 C :    0.066401
   2 F :   -0.049104
   3 C :    0.067825
   4 F :   -0.049552
   5 C :   -0.033257
   6 C :   -0.008421
   7 C :   -0.007063
   8 C :    0.017687
   9 C :   -0.023686
  10 C :   -0.050581
  11 C :    0.028879
  12 C :    0.084143
  13 O :   -0.139731
  14 C :   -0.097999
  15 C :    0.074653
  16 C :   -0.137760
  17 C :   -0.027426
  18 N :   -0.048914
  19 C :   -0.017874
  20 N :   -0.051472
  21 C :    0.050683
  22 C :   -0.178949
  23 S :    0.445354
  24 C :   -0.176586
  25 C :   -0.048165
  26 C :   -0.010087
  27 C :   -0.042080
  28 C :   -0.040414
  29 C :    0.061250
  30 O :   -0.126021
  31 C :   -0.040288
  32 C :   -0.157234
  33 C :   -0.088117
  34 C :   -0.027990
  35 N :   -0.032026
  36 C :   -0.062223
  37 C :   -0.332393
  38 S :    0.455331
  39 S :    0.425551
  40 C :   -0.340186
  41 C :   -0.067337
  42 C :   -0.096011
  43 C :   -0.040187
  44 N :   -0.057133
  45 C :   -0.125505
  46 S :    0.481987
  47 C :   -0.085680
  48 C :    0.000471
  49 C :   -0.010756
  50 N :    0.005008
  51 C :   -0.049277
  52 C :   -0.012976
  53 N :   -0.035541
  54 C :   -0.035138
  55 N :   -0.001886
  56 C :   -0.040069
  57 N :   -0.017618
  58 C :   -0.011667
  59 C :   -0.041876
  60 C :   -0.031894
  61 N :   -0.262339
  62 S :    0.674606
  63 N :   -0.293360
  64 C :   -0.050100
  65 C :   -0.116061
  66 C :   -0.034392
  67 C :   -0.013329
  68 C :   -0.203349
  69 S :    0.456241
  70 C :   -0.143610
  71 C :   -0.027380
  72 C :   -0.006744
  73 C :   -0.143743
  74 S :    0.383798
  75 C :   -0.036738
  76 H :    0.047679
  77 H :    0.044859
  78 H :    0.039883
  79 H :    0.040263
  80 H :    0.045820
  81 H :    0.033851
  82 H :    0.045868
  83 H :    0.028828
  84 H :    0.029921
  85 H :    0.023968
  86 H :    0.068637
  87 H :    0.033911
  88 H :    0.043308
  89 H :    0.041757
  90 H :    0.038256
  91 H :    0.033483
  92 H :    0.037088
  93 H :    0.039657
  94 H :    0.035967
  95 H :    0.033636

  Mayer bond orders larger than 0.100000
B(  0-C ,  1-C ) :   1.4391 B(  0-C ,  5-C ) :   0.1088 B(  0-C ,  7-C ) :   1.1888
B(  0-C , 76-H ) :   1.0070 B(  1-C ,  2-F ) :   1.1342 B(  1-C ,  3-C ) :   1.1931
B(  3-C ,  4-F ) :   1.1332 B(  3-C ,  5-C ) :   1.4420 B(  5-C ,  6-C ) :   1.1917
B(  5-C , 77-H ) :   1.0074 B(  6-C ,  7-C ) :   1.2583 B(  6-C , 11-C ) :   1.1882
B(  7-C ,  8-C ) :   1.2121 B(  8-C ,  9-C ) :   1.4508 B(  8-C , 78-H ) :   0.9917
B(  9-C , 10-C ) :   1.2180 B(  9-C , 15-C ) :   0.9904 B( 10-C , 11-C ) :   1.4738
B( 10-C , 12-C ) :   0.9351 B( 11-C , 79-H ) :   1.0162 B( 12-C , 13-O ) :   2.1595
B( 12-C , 14-C ) :   0.9676 B( 14-C , 15-C ) :   1.0600 B( 14-C , 21-C ) :   1.5924
B( 15-C , 16-C ) :   1.6502 B( 16-C , 17-C ) :   1.1381 B( 16-C , 19-C ) :   1.1397
B( 17-C , 18-N ) :   3.0038 B( 19-C , 20-N ) :   2.9696 B( 21-C , 22-C ) :   1.1776
B( 21-C , 80-H ) :   0.9278 B( 22-C , 23-S ) :   1.0844 B( 22-C , 24-C ) :   0.1106
B( 22-C , 26-C ) :   1.4595 B( 23-S , 24-C ) :   1.1530 B( 24-C , 25-C ) :   1.5099
B( 24-C , 32-C ) :   1.0962 B( 25-C , 26-C ) :   1.3048 B( 25-C , 31-C ) :   1.0460
B( 26-C , 27-C ) :   1.0796 B( 27-C , 28-C ) :   1.0708 B( 27-C , 81-H ) :   0.9115
B( 27-C , 82-H ) :   0.8695 B( 28-C , 29-C ) :   1.0504 B( 28-C , 83-H ) :   0.9263
B( 28-C , 84-H ) :   0.9317 B( 29-C , 30-O ) :   1.0466 B( 29-C , 31-C ) :   1.0210
B( 29-C , 85-H ) :   0.9218 B( 30-O , 86-H ) :   0.9844 B( 31-C , 87-H ) :   0.9093
B( 31-C , 88-H ) :   0.8888 B( 32-C , 33-C ) :   1.5207 B( 32-C , 38-S ) :   1.1452
B( 33-C , 34-C ) :   1.1974 B( 33-C , 36-C ) :   1.2485 B( 34-C , 35-N ) :   2.9135
B( 36-C , 37-C ) :   1.4124 B( 36-C , 41-C ) :   1.0702 B( 37-C , 38-S ) :   1.0872
B( 37-C , 39-S ) :   1.0882 B( 39-S , 40-C ) :   1.0841 B( 40-C , 41-C ) :   1.4197
B( 40-C , 46-S ) :   1.0470 B( 41-C , 42-C ) :   1.2576 B( 42-C , 43-C ) :   1.1624
B( 42-C , 45-C ) :   1.4750 B( 43-C , 44-N ) :   2.9901 B( 45-C , 46-S ) :   1.1537
B( 45-C , 47-C ) :   1.1583 B( 47-C , 48-C ) :   1.2826 B( 47-C , 58-C ) :   0.1062
B( 47-C , 60-C ) :   1.2026 B( 48-C , 49-C ) :   1.1224 B( 48-C , 53-N ) :   1.3860
B( 49-C , 50-N ) :   1.5151 B( 49-C , 58-C ) :   1.1606 B( 50-N , 51-C ) :   1.6704
B( 51-C , 52-C ) :   1.2451 B( 51-C , 56-C ) :   1.1675 B( 52-C , 53-N ) :   1.6925
B( 52-C , 54-C ) :   1.1553 B( 54-C , 55-N ) :   3.0437 B( 56-C , 57-N ) :   3.0449
B( 58-C , 59-C ) :   1.1333 B( 58-C , 64-C ) :   1.3381 B( 59-C , 60-C ) :   1.1090
B( 59-C , 63-N ) :   1.4882 B( 60-C , 61-N ) :   1.5203 B( 61-N , 62-S ) :   1.2638
B( 61-N , 63-N ) :   0.1370 B( 62-S , 63-N ) :   1.2550 B( 64-C , 65-C ) :   1.3963
B( 64-C , 89-H ) :   0.9442 B( 65-C , 66-C ) :   1.1742 B( 65-C , 69-S ) :   1.1037
B( 66-C , 67-C ) :   1.5554 B( 66-C , 90-H ) :   1.0034 B( 67-C , 68-C ) :   1.1953
B( 67-C , 91-H ) :   0.9932 B( 68-C , 69-S ) :   1.0059 B( 68-C , 70-C ) :   1.4985
B( 70-C , 71-C ) :   1.1586 B( 70-C , 74-S ) :   1.0864 B( 71-C , 72-C ) :   1.6504
B( 71-C , 92-H ) :   0.9933 B( 72-C , 73-C ) :   1.0809 B( 72-C , 93-H ) :   0.9938
B( 73-C , 74-S ) :   1.0034 B( 73-C , 75-C ) :   1.8569 B( 75-C , 94-H ) :   0.9518
B( 75-C , 95-H ) :   0.9424

-----------------------------------------------------------------------------
         ABSORPTION SPECTRUM VIA TRANSITION ELECTRIC DIPOLE MOMENTS
-----------------------------------------------------------------------------
State   Energy  Wavelength   fosc         T2         TX        TY        TZ
        (cm-1)    (nm)                  (au**2)     (au)      (au)      (au)
-----------------------------------------------------------------------------
   0    7534.3   1327.3   0.494192520  21.59373   1.70395   1.79882   3.93123
   1   18403.1    543.4   0.125150320   2.23881   1.47579  -0.15870  -0.18890
   2   18879.6    529.7   0.023724820   0.41370  -0.52568  -0.00804  -0.37053
   3   19329.1    517.4   0.527507213   8.98448  -2.09698  -0.56025  -2.06719
   4   20407.6    490.0   0.036048740   0.58153  -0.32064   0.23697   0.65005
   5   21222.5    471.2   1.341659137  20.81238   2.91665  -0.75842  -3.42496
   6   23325.9    428.7   0.087330632   1.23255   0.47985  -0.69311  -0.72242
   7   24020.4    416.3   0.033188022   0.45486   0.49326  -0.36502  -0.27984
   8   24612.8    406.3   0.006985274   0.09343  -0.26542  -0.12069  -0.09176
   9   25675.2    389.5   0.106697485   1.36809  -0.97720   0.03132  -0.64203
  10   26876.6    372.1   0.005795451   0.07099   0.22962  -0.11322  -0.07378
  11   27380.1    365.2   0.038891937   0.46763  -0.51852  -0.18553   0.40539
  12   27669.1    361.4   0.004494101   0.05347  -0.14710   0.16874  -0.05796
  13   27910.2    358.3   0.057539578   0.67870  -0.79178  -0.19146   0.12299
  14   28594.9    349.7   0.324652990   3.73772   1.71217   0.00397  -0.89787
  15   28942.1    345.5   0.071358665   0.81169   0.48530  -0.72464  -0.22601
  16   29047.8    344.3   0.065852851   0.74634   0.80304  -0.25918  -0.18519
  17   29294.0    341.4   0.030864347   0.34686   0.18275  -0.37523  -0.41553
  18   29456.2    339.5   0.110985821   1.24041  -0.62404  -0.88793   0.25014
  19   29931.8    334.1   0.074890468   0.82370   0.78059   0.15726   0.43548
  20   30311.1    329.9   0.002724337   0.02959  -0.04296  -0.13688  -0.09491
  21   30742.8    325.3   0.000795118   0.00851   0.03405  -0.04712  -0.07166
  22   31105.9    321.5   0.536207787   5.67500  -2.33194   0.42287  -0.24132
  23   31318.6    319.3   0.070024783   0.73608  -0.55299  -0.19779  -0.62542
  24   31395.0    318.5   0.176751320   1.85344  -0.83413  -0.52541   0.93894
  25   31680.2    315.7   0.005818149   0.06046   0.22932  -0.03373  -0.08206
  26   32230.8    310.3   0.020380577   0.20817   0.24251   0.01056  -0.38633
  27   32403.6    308.6   0.030144328   0.30626  -0.36763   0.25485   0.32583
  28   32521.7    307.5   0.087385678   0.88459  -0.29535   0.67196   0.58807
  29   32866.7    304.3   0.001423406   0.01426   0.07503  -0.08694   0.03270
  30   33472.3    298.8   0.021906824   0.21546   0.14838  -0.19922  -0.39211
  31   33616.5    297.5   0.076455068   0.74874  -0.50838   0.06101   0.69754
  32   33836.5    295.5   0.146950566   1.42975   0.94570   0.71196  -0.16890
  33   33896.3    295.0   0.487811808   4.73779   1.91539   0.98972  -0.29922
  34   34483.4    290.0   0.190102590   1.81490  -0.03287  -1.17848  -0.65192
  35   34850.3    286.9   0.078905811   0.74538  -0.56625  -0.14133  -0.63621
  36   34932.8    286.3   0.056723684   0.53457  -0.48679   0.27676   0.47011
  37   35109.6    284.8   0.016414971   0.15392  -0.14386  -0.23214  -0.28166
  38   35305.2    283.2   0.057170280   0.53310  -0.65079   0.20524  -0.25969
  39   35509.2    281.6   0.054281110   0.50325  -0.28828  -0.63364  -0.13652
  40   35669.2    280.4   0.009736249   0.08986   0.28016   0.10647  -0.00620
  41   36306.0    275.4   0.001666624   0.01511   0.00685  -0.00323   0.12270
  42   37036.2    270.0   0.161242848   1.43328   1.11485  -0.43616   0.01226
  43   37408.8    267.3   0.076964275   0.67731  -0.78123   0.25633  -0.03595
  44   37568.0    266.2   0.000672842   0.00590  -0.07510   0.01394   0.00789
  45   37777.5    264.7   0.146964823   1.28072  -0.06668  -0.42655  -1.04610
  46   38135.5    262.2   0.005458250   0.04712   0.13202  -0.07337  -0.15591
  47   38199.5    261.8   0.022888937   0.19726  -0.32671  -0.03536  -0.29879
  48   38547.8    259.4   0.013459003   0.11494   0.30228  -0.07393  -0.13457
  49   38663.8    258.6   0.018881308   0.16077  -0.10873   0.38463   0.03175
  50   38749.1    258.1   0.026370614   0.22404   0.45942   0.10069   0.05325
  51   38838.9    257.5   0.007249591   0.06145   0.20830   0.12567   0.04763
  52   38964.9    256.6   0.032485503   0.27447   0.28004   0.43350   0.09014
  53   39132.7    255.5   0.000706918   0.00595  -0.01913   0.01451  -0.07328
  54   39332.2    254.2   0.003093562   0.02589   0.10109  -0.04969  -0.11492
  55   39625.8    252.4   0.003163963   0.02629  -0.09519  -0.12864  -0.02603
  56   39774.6    251.4   0.016594032   0.13735  -0.16404  -0.15427  -0.29434
  57   40200.9    248.8   0.005997751   0.04912  -0.21363   0.02015  -0.05544

FINAL SINGLE POINT ENERGY     -5788.109950304542

DIPOLE MOMENT
-------------
                                X             Y             Z
Electronic contribution:     28.70936      -4.13827      31.36536
Nuclear contribution   :    -31.07547       1.69738     -37.09086
                        -----------------------------------------
Total Dipole Moment    :     -2.36610      -2.44090      -5.72551
                        -----------------------------------------
Magnitude (a.u.)       :      6.65867
Magnitude (Debye)      :     16.92499

Rotational constants in cm-1:     0.001124     0.000232     0.000203
Rotational constants in MHz :    33.682613     6.951895     6.083711

                             ****ORCA TERMINATED NORMALLY****
TOTAL RUN TIME: 0 days 0 hours 10 minutes 3 seconds 724 msec
