                         Program Version 4.2.0 -  RELEASE  -
|  1> # ORCA input file
|  2> # SCF done       -188.186762749482          0.000763002874
|  3> ! CAM-B3LYP def2-SVP def2/J RIJCOSX Grid4 TightSCF
|  4> %maxcore 5000
|  5> %tddft
|  6>     Mode sTDDFT
|  7>     Ethresh 5.0
|  8>     maxcore 5000
|  9> end
| 10>
| 11> %pal
| 12>   nprocs 6
| 13>   end
| 14> * xyz 0 1
| 15>    C       -6.12889         3.32473        -6.99409
| 16>    C       -6.82433         4.41246        -7.44131
| 17>    F       -6.52231         4.95749        -8.62961
| 18>    C       -7.86346         4.96777        -6.67022
| 19>    F       -8.52356         6.03347        -7.13715
| 20>    C       -8.18738         4.43091        -5.45475
| 21>    C       -7.47028         3.32801        -4.95209
| 22>    C       -6.43392         2.75319        -5.74367
| 23>    C       -5.69701         1.64980        -5.25839
| 24>    C       -5.93944         1.19240        -3.99153
| 25>    C       -6.93704         1.80258        -3.18214
| 26>    C       -7.71431         2.82074        -3.65434
| 27>    C       -6.87215         1.23499        -1.81393
| 28>    O       -7.60442         1.49821        -0.88738
| 29>    C       -5.66233         0.37290        -1.81514
| 30>    C       -5.24553         0.19807        -3.18752
| 31>    C       -4.44950        -0.81116        -3.66490
| 32>    C       -4.28046        -1.06172        -5.03953
| 33>    N       -4.16543        -1.32520        -6.15162
| 34>    C       -3.82612        -1.76110        -2.83286
| 35>    N       -3.30664        -2.55959        -2.19122
| 36>    C       -4.95426         0.02446        -0.70235
| 37>    C       -5.43163         0.08556         0.63706
| 38>    C       -4.73101         0.57489         1.73520
| 39>    C       -3.37004         1.16135         1.81112
| 40>    N       -5.56929         0.54381         2.79631
| 41>    C       -6.78488         0.01267         2.44675
| 42>    C       -7.85524        -0.18799         3.45615
| 43>    C       -6.73836        -0.29525         1.10939
| 44>    C       -7.70990        -1.00726         0.31397
| 45>    C       -7.33795        -1.91334        -0.60360
| 46>    C       -8.23482        -2.54571        -1.52577
| 47>    C       -7.89761        -3.42264        -2.48401
| 48>    C       -6.53395        -3.98967        -2.71325
| 49>    C       -8.93264        -3.81436        -3.51872
| 50>    N       -9.22317        -2.68863        -4.38423
| 51>    C       -8.37847        -2.25203        -5.33238
| 52>    C       -8.51231        -1.05407        -5.96942
| 53>    C       -7.70533        -0.64381        -7.03869
| 54>    C       -7.93774         0.49236        -7.77318
| 55>    C       -7.23219         0.95524        -8.90467
| 56>    C       -7.74798         2.08722        -9.46538
| 57>    C       -8.88451         2.58896        -8.79616
| 58>    S       -9.28729         1.57630        -7.43493
| 59>    C       -9.62366         3.72256        -9.09759
| 60>    C       -9.38258         4.67526       -10.10401
| 61>    C      -10.29406         5.69338       -10.12386
| 62>    C      -11.30369         5.58485        -9.14652
| 63>    S      -11.04901         4.15810        -8.17530
| 64>    C      -12.36774         6.45340        -8.96128
| 65>    C      -13.36774         6.24951        -8.02552
| 66>    C      -14.49612         7.01610        -7.79082
| 67>    C      -15.64576         6.39598        -7.10546
| 68>    O      -15.66266         5.33509        -6.51233
| 69>    C      -16.78349         7.31294        -7.33318
| 70>    C      -18.09552         7.15994        -6.99613
| 71>    C      -19.02417         8.16082        -7.36511
| 72>    C      -18.56671         9.30341        -8.08153
| 73>    C      -19.49674        10.29243        -8.45516
| 74>    C      -20.81313        10.13667        -8.12143
| 75>    C      -21.28277         9.02186        -7.41626
| 76>    C      -20.39236         8.05153        -7.04682
| 77>    F      -21.70526        11.08353        -8.47845
| 78>    C      -17.19572         9.43887        -8.40828
| 79>    C      -16.31691         8.46035        -8.03525
| 80>    C      -14.86721         8.33469        -8.21130
| 81>    C      -14.03073         9.38045        -8.53723
| 82>    C      -12.62881         9.35131        -8.41587
| 83>    N      -11.48824         9.41667        -8.29152
| 84>    C      -14.48110        10.65598        -8.92258
| 85>    N      -14.78342        11.71075        -9.26591
| 86>    H       -5.33875         2.90994        -7.59980
| 87>    H       -8.98578         4.86950        -4.87736
| 88>    H       -4.92312         1.22552        -5.87873
| 89>    H       -8.47686         3.26599        -3.03365
| 90>    H       -3.91397        -0.25897        -0.83027
| 91>    H       -2.70189         0.65481         1.11832
| 92>    H       -2.97039         1.06853         2.81913
| 93>    H       -3.38704         2.22002         1.54706
| 94>    H       -5.33769         0.87217         3.72079
| 95>    H       -8.01953         0.72516         4.02767
| 96>    H       -7.58908        -0.98307         4.15413
| 97>    H       -8.78167        -0.46212         2.96178
| 98>    H       -8.75422        -0.78143         0.47953
| 99>    H       -6.28796        -2.15356        -0.69302
|100>    H       -9.26935        -2.22858        -1.45778
|101>    H       -5.84241        -3.74998        -1.91318
|102>    H       -6.11647        -3.61394        -3.64947
|103>    H       -6.59718        -5.07481        -2.79576
|104>    H       -9.86837        -4.12256        -3.04635
|105>    H       -8.56321        -4.63659        -4.13548
|106>    H       -9.88802        -2.01349        -4.03328
|107>    H       -7.59767        -2.94136        -5.62420
|108>    H       -9.31549        -0.39241        -5.67023
|109>    H       -6.86578        -1.26362        -7.32372
|110>    H       -6.37159         0.42825        -9.27762
|111>    H       -7.34377         2.57284       -10.33499
|112>    H       -8.54399         4.60114       -10.77251
|113>    H      -10.26618         6.52149       -10.80891
|114>    H      -12.41192         7.30099        -9.62888
|115>    H      -13.33827         5.31857        -7.46560
|116>    H      -18.42549         6.28434        -6.45709
|117>    H      -19.16988        11.16625        -8.99708
|118>    H      -22.33300         8.95245        -7.18061
|119>    H      -20.73019         7.18193        -6.50285
|120>    H      -16.88081        10.31310        -8.95543
|121> *
|122>
|123>                          ****END OF INPUT****

CARTESIAN COORDINATES (ANGSTROEM)
---------------------------------
  C     -6.128890    3.324730   -6.994090
  C     -6.824330    4.412460   -7.441310
  F     -6.522310    4.957490   -8.629610
  C     -7.863460    4.967770   -6.670220
  F     -8.523560    6.033470   -7.137150
  C     -8.187380    4.430910   -5.454750
  C     -7.470280    3.328010   -4.952090
  C     -6.433920    2.753190   -5.743670
  C     -5.697010    1.649800   -5.258390
  C     -5.939440    1.192400   -3.991530
  C     -6.937040    1.802580   -3.182140
  C     -7.714310    2.820740   -3.654340
  C     -6.872150    1.234990   -1.813930
  O     -7.604420    1.498210   -0.887380
  C     -5.662330    0.372900   -1.815140
  C     -5.245530    0.198070   -3.187520
  C     -4.449500   -0.811160   -3.664900
  C     -4.280460   -1.061720   -5.039530
  N     -4.165430   -1.325200   -6.151620
  C     -3.826120   -1.761100   -2.832860
  N     -3.306640   -2.559590   -2.191220
  C     -4.954260    0.024460   -0.702350
  C     -5.431630    0.085560    0.637060
  C     -4.731010    0.574890    1.735200
  C     -3.370040    1.161350    1.811120
  N     -5.569290    0.543810    2.796310
  C     -6.784880    0.012670    2.446750
  C     -7.855240   -0.187990    3.456150
  C     -6.738360   -0.295250    1.109390
  C     -7.709900   -1.007260    0.313970
  C     -7.337950   -1.913340   -0.603600
  C     -8.234820   -2.545710   -1.525770
  C     -7.897610   -3.422640   -2.484010
  C     -6.533950   -3.989670   -2.713250
  C     -8.932640   -3.814360   -3.518720
  N     -9.223170   -2.688630   -4.384230
  C     -8.378470   -2.252030   -5.332380
  C     -8.512310   -1.054070   -5.969420
  C     -7.705330   -0.643810   -7.038690
  C     -7.937740    0.492360   -7.773180
  C     -7.232190    0.955240   -8.904670
  C     -7.747980    2.087220   -9.465380
  C     -8.884510    2.588960   -8.796160
  S     -9.287290    1.576300   -7.434930
  C     -9.623660    3.722560   -9.097590
  C     -9.382580    4.675260  -10.104010
  C    -10.294060    5.693380  -10.123860
  C    -11.303690    5.584850   -9.146520
  S    -11.049010    4.158100   -8.175300
  C    -12.367740    6.453400   -8.961280
  C    -13.367740    6.249510   -8.025520
  C    -14.496120    7.016100   -7.790820
  C    -15.645760    6.395980   -7.105460
  O    -15.662660    5.335090   -6.512330
  C    -16.783490    7.312940   -7.333180
  C    -18.095520    7.159940   -6.996130
  C    -19.024170    8.160820   -7.365110
  C    -18.566710    9.303410   -8.081530
  C    -19.496740   10.292430   -8.455160
  C    -20.813130   10.136670   -8.121430
  C    -21.282770    9.021860   -7.416260
  C    -20.392360    8.051530   -7.046820
  F    -21.705260   11.083530   -8.478450
  C    -17.195720    9.438870   -8.408280
  C    -16.316910    8.460350   -8.035250
  C    -14.867210    8.334690   -8.211300
  C    -14.030730    9.380450   -8.537230
  C    -12.628810    9.351310   -8.415870
  N    -11.488240    9.416670   -8.291520
  C    -14.481100   10.655980   -8.922580
  N    -14.783420   11.710750   -9.265910
  H     -5.338750    2.909940   -7.599800
  H     -8.985780    4.869500   -4.877360
  H     -4.923120    1.225520   -5.878730
  H     -8.476860    3.265990   -3.033650
  H     -3.913970   -0.258970   -0.830270
  H     -2.701890    0.654810    1.118320
  H     -2.970390    1.068530    2.819130
  H     -3.387040    2.220020    1.547060
  H     -5.337690    0.872170    3.720790
  H     -8.019530    0.725160    4.027670
  H     -7.589080   -0.983070    4.154130
  H     -8.781670   -0.462120    2.961780
  H     -8.754220   -0.781430    0.479530
  H     -6.287960   -2.153560   -0.693020
  H     -9.269350   -2.228580   -1.457780
  H     -5.842410   -3.749980   -1.913180
  H     -6.116470   -3.613940   -3.649470
  H     -6.597180   -5.074810   -2.795760
  H     -9.868370   -4.122560   -3.046350
  H     -8.563210   -4.636590   -4.135480
  H     -9.888020   -2.013490   -4.033280
  H     -7.597670   -2.941360   -5.624200
  H     -9.315490   -0.392410   -5.670230
  H     -6.865780   -1.263620   -7.323720
  H     -6.371590    0.428250   -9.277620
  H     -7.343770    2.572840  -10.334990
  H     -8.543990    4.601140  -10.772510
  H    -10.266180    6.521490  -10.808910
  H    -12.411920    7.300990   -9.628880
  H    -13.338270    5.318570   -7.465600
  H    -18.425490    6.284340   -6.457090
  H    -19.169880   11.166250   -8.997080
  H    -22.333000    8.952450   -7.180610
  H    -20.730190    7.181930   -6.502850
  H    -16.880810   10.313100   -8.955430

 Total Charge           Charge          ....    0
 Multiplicity           Mult            ....    1
 Number of Electrons    NEL             ....  500
 Basis Dimension        Dim             .... 1177

ORBITAL ENERGIES
----------------

  NO   OCC          E(Eh)            E(eV)
   0   2.0000     -88.956814     -2420.6380
   1   2.0000     -88.947839     -2420.3937
   2   2.0000     -24.798663      -674.8059
   3   2.0000     -24.790334      -674.5793
   4   2.0000     -24.765257      -673.8969
   5   2.0000     -19.214392      -522.8502
   6   2.0000     -19.178019      -521.8604
   7   2.0000     -14.477060      -393.9408
   8   2.0000     -14.463507      -393.5720
   9   2.0000     -14.423003      -392.4699
  10   2.0000     -14.420168      -392.3927
  11   2.0000     -14.382749      -391.3745
  12   2.0000     -14.380190      -391.3049
  13   2.0000     -10.375624      -282.3351
  14   2.0000     -10.374488      -282.3042
  15   2.0000     -10.366474      -282.0861
  16   2.0000     -10.346708      -281.5482
  17   2.0000     -10.346220      -281.5350
  18   2.0000     -10.343442      -281.4594
  19   2.0000     -10.342729      -281.4400
  20   2.0000     -10.329772      -281.0874
  21   2.0000     -10.328045      -281.0404
  22   2.0000     -10.327704      -281.0311
  23   2.0000     -10.327286      -281.0197
  24   2.0000     -10.325560      -280.9728
  25   2.0000     -10.324019      -280.9308
  26   2.0000     -10.321448      -280.8609
  27   2.0000     -10.312558      -280.6190
  28   2.0000     -10.307323      -280.4765
  29   2.0000     -10.306403      -280.4515
  30   2.0000     -10.306170      -280.4451
  31   2.0000     -10.305992      -280.4403
  32   2.0000     -10.305861      -280.4367
  33   2.0000     -10.305322      -280.4221
  34   2.0000     -10.304123      -280.3895
  35   2.0000     -10.303864      -280.3824
  36   2.0000     -10.303791      -280.3804
  37   2.0000     -10.302420      -280.3431
  38   2.0000     -10.298855      -280.2461
  39   2.0000     -10.298348      -280.2323
  40   2.0000     -10.296355      -280.1781
  41   2.0000     -10.295079      -280.1433
  42   2.0000     -10.294946      -280.1397
  43   2.0000     -10.293201      -280.0922
  44   2.0000     -10.291082      -280.0346
  45   2.0000     -10.289561      -279.9932
  46   2.0000     -10.287494      -279.9370
  47   2.0000     -10.286856      -279.9196
  48   2.0000     -10.285600      -279.8854
  49   2.0000     -10.285084      -279.8714
  50   2.0000     -10.284357      -279.8516
  51   2.0000     -10.280639      -279.7504
  52   2.0000     -10.280442      -279.7450
  53   2.0000     -10.278440      -279.6906
  54   2.0000     -10.276568      -279.6396
  55   2.0000     -10.275749      -279.6174
  56   2.0000     -10.275555      -279.6121
  57   2.0000     -10.275459      -279.6095
  58   2.0000     -10.275404      -279.6079
  59   2.0000     -10.274641      -279.5872
  60   2.0000     -10.272770      -279.5363
  61   2.0000     -10.272508      -279.5291
  62   2.0000     -10.272421      -279.5268
  63   2.0000     -10.271882      -279.5121
  64   2.0000     -10.269198      -279.4391
  65   2.0000     -10.269088      -279.4361
  66   2.0000     -10.267756      -279.3999
  67   2.0000     -10.266574      -279.3677
  68   2.0000     -10.260595      -279.2050
  69   2.0000     -10.259886      -279.1857
  70   2.0000     -10.254583      -279.0414
  71   2.0000      -8.052232      -219.1124
  72   2.0000      -8.043643      -218.8787
  73   2.0000      -6.021840      -163.8626
  74   2.0000      -6.017833      -163.7536
  75   2.0000      -6.013552      -163.6371
  76   2.0000      -6.013178      -163.6269
  77   2.0000      -6.009246      -163.5199
  78   2.0000      -6.004944      -163.4028
  79   2.0000      -1.316837       -35.8329
  80   2.0000      -1.300652       -35.3925
  81   2.0000      -1.278932       -34.8015
  82   2.0000      -1.129827       -30.7442
  83   2.0000      -1.094147       -29.7733
  84   2.0000      -1.091834       -29.7103
  85   2.0000      -1.063027       -28.9264
  86   2.0000      -1.023339       -27.8465
  87   2.0000      -1.004511       -27.3341
  88   2.0000      -1.000980       -27.2380
  89   2.0000      -0.999898       -27.2086
  90   2.0000      -0.985682       -26.8218
  91   2.0000      -0.979847       -26.6630
  92   2.0000      -0.975545       -26.5459
  93   2.0000      -0.971431       -26.4340
  94   2.0000      -0.960594       -26.1391
  95   2.0000      -0.947253       -25.7761
  96   2.0000      -0.935991       -25.4696
  97   2.0000      -0.927599       -25.2413
  98   2.0000      -0.920960       -25.0606
  99   2.0000      -0.910352       -24.7719
 100   2.0000      -0.901516       -24.5315
 101   2.0000      -0.897932       -24.4340
 102   2.0000      -0.893007       -24.3000
 103   2.0000      -0.888146       -24.1677
 104   2.0000      -0.885030       -24.0829
 105   2.0000      -0.868644       -23.6370
 106   2.0000      -0.864412       -23.5218
 107   2.0000      -0.858735       -23.3674
 108   2.0000      -0.853290       -23.2192
 109   2.0000      -0.850793       -23.1513
 110   2.0000      -0.842194       -22.9173
 111   2.0000      -0.836788       -22.7702
 112   2.0000      -0.831846       -22.6357
 113   2.0000      -0.827329       -22.5128
 114   2.0000      -0.820356       -22.3230
 115   2.0000      -0.808505       -22.0005
 116   2.0000      -0.801860       -21.8197
 117   2.0000      -0.798429       -21.7263
 118   2.0000      -0.786068       -21.3900
 119   2.0000      -0.777644       -21.1608
 120   2.0000      -0.764378       -20.7998
 121   2.0000      -0.753502       -20.5038
 122   2.0000      -0.747540       -20.3416
 123   2.0000      -0.733489       -19.9593
 124   2.0000      -0.731886       -19.9156
 125   2.0000      -0.725767       -19.7491
 126   2.0000      -0.716598       -19.4996
 127   2.0000      -0.708789       -19.2871
 128   2.0000      -0.704516       -19.1709
 129   2.0000      -0.700573       -19.0636
 130   2.0000      -0.692431       -18.8420
 131   2.0000      -0.688490       -18.7348
 132   2.0000      -0.683343       -18.5947
 133   2.0000      -0.680792       -18.5253
 134   2.0000      -0.668518       -18.1913
 135   2.0000      -0.659539       -17.9470
 136   2.0000      -0.652136       -17.7455
 137   2.0000      -0.648148       -17.6370
 138   2.0000      -0.645884       -17.5754
 139   2.0000      -0.641612       -17.4591
 140   2.0000      -0.640376       -17.4255
 141   2.0000      -0.633549       -17.2398
 142   2.0000      -0.628300       -17.0969
 143   2.0000      -0.624544       -16.9947
 144   2.0000      -0.617253       -16.7963
 145   2.0000      -0.610997       -16.6261
 146   2.0000      -0.609152       -16.5759
 147   2.0000      -0.606203       -16.4956
 148   2.0000      -0.602880       -16.4052
 149   2.0000      -0.600021       -16.3274
 150   2.0000      -0.596155       -16.2222
 151   2.0000      -0.592593       -16.1253
 152   2.0000      -0.587137       -15.9768
 153   2.0000      -0.586284       -15.9536
 154   2.0000      -0.584351       -15.9010
 155   2.0000      -0.575408       -15.6576
 156   2.0000      -0.565630       -15.3916
 157   2.0000      -0.564936       -15.3727
 158   2.0000      -0.562245       -15.2995
 159   2.0000      -0.556795       -15.1512
 160   2.0000      -0.554027       -15.0758
 161   2.0000      -0.550758       -14.9869
 162   2.0000      -0.548300       -14.9200
 163   2.0000      -0.546397       -14.8682
 164   2.0000      -0.543192       -14.7810
 165   2.0000      -0.542886       -14.7727
 166   2.0000      -0.537168       -14.6171
 167   2.0000      -0.536682       -14.6039
 168   2.0000      -0.535453       -14.5704
 169   2.0000      -0.530139       -14.4258
 170   2.0000      -0.528604       -14.3840
 171   2.0000      -0.525686       -14.3047
 172   2.0000      -0.521692       -14.1960
 173   2.0000      -0.519551       -14.1377
 174   2.0000      -0.517997       -14.0954
 175   2.0000      -0.517078       -14.0704
 176   2.0000      -0.513203       -13.9650
 177   2.0000      -0.512468       -13.9450
 178   2.0000      -0.508847       -13.8464
 179   2.0000      -0.507014       -13.7965
 180   2.0000      -0.505710       -13.7611
 181   2.0000      -0.502551       -13.6751
 182   2.0000      -0.501194       -13.6382
 183   2.0000      -0.499268       -13.5858
 184   2.0000      -0.499103       -13.5813
 185   2.0000      -0.494860       -13.4658
 186   2.0000      -0.494393       -13.4531
 187   2.0000      -0.491564       -13.3761
 188   2.0000      -0.491156       -13.3650
 189   2.0000      -0.485785       -13.2189
 190   2.0000      -0.484564       -13.1857
 191   2.0000      -0.482733       -13.1358
 192   2.0000      -0.479795       -13.0559
 193   2.0000      -0.476639       -12.9700
 194   2.0000      -0.473749       -12.8914
 195   2.0000      -0.470713       -12.8087
 196   2.0000      -0.470032       -12.7902
 197   2.0000      -0.469059       -12.7637
 198   2.0000      -0.466683       -12.6991
 199   2.0000      -0.465992       -12.6803
 200   2.0000      -0.463693       -12.6177
 201   2.0000      -0.462028       -12.5724
 202   2.0000      -0.460210       -12.5230
 203   2.0000      -0.457997       -12.4627
 204   2.0000      -0.456921       -12.4334
 205   2.0000      -0.455513       -12.3951
 206   2.0000      -0.451965       -12.2986
 207   2.0000      -0.451097       -12.2750
 208   2.0000      -0.449581       -12.2337
 209   2.0000      -0.447827       -12.1860
 210   2.0000      -0.443448       -12.0668
 211   2.0000      -0.440795       -11.9947
 212   2.0000      -0.436194       -11.8694
 213   2.0000      -0.434051       -11.8111
 214   2.0000      -0.431278       -11.7357
 215   2.0000      -0.429960       -11.6998
 216   2.0000      -0.426886       -11.6162
 217   2.0000      -0.423707       -11.5297
 218   2.0000      -0.420184       -11.4338
 219   2.0000      -0.419049       -11.4029
 220   2.0000      -0.417344       -11.3565
 221   2.0000      -0.413179       -11.2432
 222   2.0000      -0.411862       -11.2073
 223   2.0000      -0.406663       -11.0659
 224   2.0000      -0.402987       -10.9658
 225   2.0000      -0.400964       -10.9108
 226   2.0000      -0.398925       -10.8553
 227   2.0000      -0.394949       -10.7471
 228   2.0000      -0.392562       -10.6822
 229   2.0000      -0.388091       -10.5605
 230   2.0000      -0.381651       -10.3853
 231   2.0000      -0.377986       -10.2855
 232   2.0000      -0.371955       -10.1214
 233   2.0000      -0.359153        -9.7731
 234   2.0000      -0.356969        -9.7136
 235   2.0000      -0.348999        -9.4967
 236   2.0000      -0.343704        -9.3527
 237   2.0000      -0.340376        -9.2621
 238   2.0000      -0.325818        -8.8660
 239   2.0000      -0.319948        -8.7062
 240   2.0000      -0.319293        -8.6884
 241   2.0000      -0.308493        -8.3945
 242   2.0000      -0.303607        -8.2616
 243   2.0000      -0.297079        -8.0839
 244   2.0000      -0.287325        -7.8185
 245   2.0000      -0.281883        -7.6704
 246   2.0000      -0.275707        -7.5024
 247   2.0000      -0.266913        -7.2631
 248   2.0000      -0.260196        -7.0803
 249   2.0000      -0.209151        -5.6913
 250   0.0000      -0.093319        -2.5393
 251   0.0000      -0.084113        -2.2888
 252   0.0000      -0.055963        -1.5228
 253   0.0000      -0.041213        -1.1215
 254   0.0000      -0.023917        -0.6508

MULLIKEN ATOMIC CHARGES
-----------------------
   0 C :   -0.105651
   1 C :    0.252546
   2 F :   -0.178042
   3 C :    0.258869
   4 F :   -0.162071
   5 C :   -0.116892
   6 C :    0.137358
   7 C :    0.115110
   8 C :   -0.082653
   9 C :    0.052069
  10 C :    0.013473
  11 C :   -0.103827
  12 C :    0.155249
  13 O :   -0.144284
  14 C :   -0.106915
  15 C :    0.274901
  16 C :   -0.349946
  17 C :   -0.184661
  18 N :    0.132325
  19 C :   -0.196073
  20 N :    0.150154
  21 C :   -0.090800
  22 C :    0.038013
  23 C :   -0.131892
  24 C :    0.127531
  25 N :   -0.033489
  26 C :   -0.160107
  27 C :    0.137646
  28 C :    0.102101
  29 C :   -0.042131
  30 C :    0.007722
  31 C :    0.002344
  32 C :   -0.194648
  33 C :    0.093296
  34 C :    0.191468
  35 N :   -0.128707
  36 C :    0.077278
  37 C :   -0.046518
  38 C :    0.044096
  39 C :   -0.073401
  40 C :    0.050765
  41 C :    0.011433
  42 C :   -0.030658
  43 S :    0.086701
  44 C :   -0.097106
  45 C :    0.050757
  46 C :    0.023130
  47 C :   -0.005433
  48 S :    0.093044
  49 C :   -0.007332
  50 C :    0.023685
  51 C :   -0.143087
  52 C :    0.135174
  53 O :   -0.172564
  54 C :    0.009930
  55 C :   -0.095163
  56 C :    0.105317
  57 C :    0.104159
  58 C :   -0.100641
  59 C :    0.299583
  60 C :   -0.034447
  61 C :   -0.014954
  62 F :   -0.199224
  63 C :   -0.097838
  64 C :    0.042152
  65 C :    0.297856
  66 C :   -0.359870
  67 C :   -0.225189
  68 N :    0.150858
  69 C :   -0.178211
  70 N :    0.125356
  71 H :   -0.007583
  72 H :    0.001724
  73 H :   -0.012087
  74 H :   -0.012226
  75 H :    0.029142
  76 H :    0.031764
  77 H :    0.013114
  78 H :    0.047958
  79 H :    0.117616
  80 H :    0.018748
  81 H :    0.029628
  82 H :    0.017428
  83 H :   -0.009821
  84 H :   -0.000332
  85 H :   -0.038686
  86 H :    0.033722
  87 H :    0.023604
  88 H :    0.023617
  89 H :    0.030438
  90 H :    0.012210
  91 H :    0.129327
  92 H :    0.021726
  93 H :   -0.004258
  94 H :    0.005810
  95 H :   -0.002038
  96 H :   -0.011724
  97 H :   -0.008150
  98 H :   -0.002779
  99 H :    0.002749
 100 H :    0.004013
 101 H :   -0.022865
 102 H :   -0.007822
 103 H :   -0.005329
 104 H :   -0.017030
 105 H :   -0.010635
Sum of atomic charges:   -0.0000000

LOEWDIN ATOMIC CHARGES
----------------------
   0 C :   -0.030123
   1 C :    0.065537
   2 F :   -0.048965
   3 C :    0.067211
   4 F :   -0.037430
   5 C :   -0.035669
   6 C :   -0.008306
   7 C :   -0.009905
   8 C :    0.018386
   9 C :   -0.028997
  10 C :   -0.052085
  11 C :    0.024446
  12 C :    0.085165
  13 O :   -0.131509
  14 C :   -0.099659
  15 C :    0.084800
  16 C :   -0.160525
  17 C :   -0.015647
  18 N :   -0.075244
  19 C :   -0.022443
  20 N :   -0.064799
  21 C :    0.081905
  22 C :   -0.089677
  23 C :    0.018927
  24 C :   -0.050894
  25 N :    0.097562
  26 C :   -0.015149
  27 C :   -0.051117
  28 C :   -0.052090
  29 C :   -0.006295
  30 C :   -0.038733
  31 C :   -0.041648
  32 C :   -0.051773
  33 C :   -0.048798
  34 C :    0.045484
  35 N :    0.028605
  36 C :    0.080510
  37 C :   -0.126710
  38 C :    0.015318
  39 C :   -0.191823
  40 C :   -0.004333
  41 C :   -0.062691
  42 C :   -0.140156
  43 S :    0.396328
  44 C :   -0.218337
  45 C :   -0.003761
  46 C :   -0.052097
  47 C :   -0.094755
  48 S :    0.398396
  49 C :   -0.081611
  50 C :    0.048866
  51 C :   -0.122710
  52 C :    0.074656
  53 O :   -0.174199
  54 C :   -0.053597
  55 C :    0.022013
  56 C :   -0.021875
  57 C :    0.000873
  58 C :   -0.044205
  59 C :    0.087944
  60 C :   -0.045715
  61 C :    0.000015
  62 F :   -0.073363
  63 C :    0.001783
  64 C :   -0.011848
  65 C :    0.067121
  66 C :   -0.165203
  67 C :   -0.025132
  68 N :   -0.071503
  69 C :   -0.019355
  70 N :   -0.078426
  71 H :    0.040737
  72 H :    0.045529
  73 H :    0.036093
  74 H :    0.039214
  75 H :    0.041465
  76 H :    0.043663
  77 H :    0.035128
  78 H :    0.045035
  79 H :    0.090105
  80 H :    0.034369
  81 H :    0.036512
  82 H :    0.042019
  83 H :    0.026123
  84 H :    0.025560
  85 H :    0.018985
  86 H :    0.034174
  87 H :    0.031045
  88 H :    0.036314
  89 H :    0.036381
  90 H :    0.029121
  91 H :    0.083714
  92 H :    0.035252
  93 H :    0.019559
  94 H :    0.040910
  95 H :    0.037838
  96 H :    0.031799
  97 H :    0.033948
  98 H :    0.037941
  99 H :    0.036592
 100 H :    0.030146
 101 H :    0.035066
 102 H :    0.041142
 103 H :    0.038013
 104 H :    0.032396
 105 H :    0.037147

  Mayer bond orders larger than 0.100000
B(  0-C ,  1-C ) :   1.4387 B(  0-C ,  5-C ) :   0.1041 B(  0-C ,  7-C ) :   1.1930
B(  0-C , 71-H ) :   0.9958 B(  1-C ,  2-F ) :   1.1075 B(  1-C ,  3-C ) :   1.1972
B(  3-C ,  4-F ) :   1.1305 B(  3-C ,  5-C ) :   1.4380 B(  5-C ,  6-C ) :   1.1891
B(  5-C , 72-H ) :   1.0080 B(  6-C ,  7-C ) :   1.2656 B(  6-C , 11-C ) :   1.1789
B(  7-C ,  8-C ) :   1.2131 B(  8-C ,  9-C ) :   1.4405 B(  8-C , 73-H ) :   1.0010
B(  9-C , 10-C ) :   1.2198 B(  9-C , 15-C ) :   0.9920 B( 10-C , 11-C ) :   1.4689
B( 10-C , 12-C ) :   0.9340 B( 11-C , 74-H ) :   1.0192 B( 12-C , 13-O ) :   2.2123
B( 12-C , 14-C ) :   0.9458 B( 14-C , 15-C ) :   1.0665 B( 14-C , 21-C ) :   1.6064
B( 15-C , 16-C ) :   1.6330 B( 16-C , 17-C ) :   1.1532 B( 16-C , 19-C ) :   1.1509
B( 17-C , 18-N ) :   2.9548 B( 19-C , 20-N ) :   2.9473 B( 21-C , 22-C ) :   1.1296
B( 21-C , 75-H ) :   0.9500 B( 22-C , 23-C ) :   1.3794 B( 22-C , 28-C ) :   1.2222
B( 23-C , 24-C ) :   1.1183 B( 23-C , 25-N ) :   1.2755 B( 24-C , 76-H ) :   0.9381
B( 24-C , 77-H ) :   0.9369 B( 24-C , 78-H ) :   0.9429 B( 25-N , 26-C ) :   1.1683
B( 25-N , 79-H ) :   0.9375 B( 26-C , 27-C ) :   1.1123 B( 26-C , 28-C ) :   1.5340
B( 27-C , 80-H ) :   0.9410 B( 27-C , 81-H ) :   0.9452 B( 27-C , 82-H ) :   0.9385
B( 28-C , 29-C ) :   1.0288 B( 29-C , 30-C ) :   1.7754 B( 29-C , 83-H ) :   0.9661
B( 30-C , 31-C ) :   1.1076 B( 30-C , 84-H ) :   0.9594 B( 31-C , 32-C ) :   1.7709
B( 31-C , 85-H ) :   0.9759 B( 32-C , 33-C ) :   1.0864 B( 32-C , 34-C ) :   1.0100
B( 33-C , 86-H ) :   0.9505 B( 33-C , 87-H ) :   0.9460 B( 33-C , 88-H ) :   0.9392
B( 34-C , 35-N ) :   1.0108 B( 34-C , 89-H ) :   0.9455 B( 34-C , 90-H ) :   0.9393
B( 35-N , 36-C ) :   1.2943 B( 35-N , 91-H ) :   0.9344 B( 36-C , 37-C ) :   1.5180
B( 36-C , 92-H ) :   0.9690 B( 37-C , 38-C ) :   1.2320 B( 37-C , 93-H ) :   0.9611
B( 38-C , 39-C ) :   1.5133 B( 38-C , 94-H ) :   0.9794 B( 39-C , 40-C ) :   1.1864
B( 39-C , 43-S ) :   1.0096 B( 40-C , 41-C ) :   1.5182 B( 40-C , 95-H ) :   1.0036
B( 41-C , 42-C ) :   1.2209 B( 41-C , 96-H ) :   1.0001 B( 42-C , 43-S ) :   1.1101
B( 42-C , 44-C ) :   1.4152 B( 44-C , 45-C ) :   1.2515 B( 44-C , 48-S ) :   1.0375
B( 45-C , 46-C ) :   1.5006 B( 45-C , 97-H ) :   0.9943 B( 46-C , 47-C ) :   1.2183
B( 46-C , 98-H ) :   1.0011 B( 47-C , 48-S ) :   1.0931 B( 47-C , 49-C ) :   1.4380
B( 49-C , 50-C ) :   1.2868 B( 49-C , 99-H ) :   0.9635 B( 50-C , 51-C ) :   1.4601
B( 50-C ,100-H ) :   0.9385 B( 51-C , 52-C ) :   0.9829 B( 51-C , 65-C ) :   1.1167
B( 52-C , 53-O ) :   2.2295 B( 52-C , 54-C ) :   0.9157 B( 54-C , 55-C ) :   1.4854
B( 54-C , 64-C ) :   1.2188 B( 55-C , 56-C ) :   1.1769 B( 55-C ,101-H ) :   1.0144
B( 56-C , 57-C ) :   1.2650 B( 56-C , 61-C ) :   1.2398 B( 57-C , 58-C ) :   1.2063
B( 57-C , 63-C ) :   1.1890 B( 58-C , 59-C ) :   1.4366 B( 58-C ,102-H ) :   1.0065
B( 59-C , 60-C ) :   1.2627 B( 59-C , 62-F ) :   1.0796 B( 60-C , 61-C ) :   1.4527
B( 60-C ,103-H ) :   0.9925 B( 61-C ,104-H ) :   0.9959 B( 63-C , 64-C ) :   1.4751
B( 63-C ,105-H ) :   0.9920 B( 64-C , 65-C ) :   0.9845 B( 65-C , 66-C ) :   1.5726
B( 66-C , 67-C ) :   1.1709 B( 66-C , 69-C ) :   1.1415 B( 67-C , 68-N ) :   3.0098
B( 69-C , 70-N ) :   2.9663

-----------------------------------------------------------------------------
         ABSORPTION SPECTRUM VIA TRANSITION ELECTRIC DIPOLE MOMENTS
-----------------------------------------------------------------------------
State   Energy  Wavelength   fosc         T2         TX        TY        TZ
        (cm-1)    (nm)                  (au**2)     (au)      (au)      (au)
-----------------------------------------------------------------------------
   0   11488.4    870.4   1.246484294  35.71940   3.71724  -4.47360   1.37419
   1   13987.8    714.9   0.177102882   4.16822  -0.76459   1.88783   0.14042
   2   19186.7    521.2   0.023558818   0.40423   0.25411  -0.57285  -0.10723
   3   19490.8    513.1   0.017525313   0.29601   0.17034   0.45044  -0.25318
   4   22014.0    454.3   0.013746751   0.20558   0.05280  -0.09841   0.43944
   5   23113.8    432.6   0.039000930   0.55549   0.65362  -0.12391  -0.33603
   6   24164.1    413.8   0.377765468   5.14669  -0.16671  -0.07292  -2.26132
   7   25034.2    399.5   0.147962247   1.94578  -0.82220  -0.22005   1.10515
   8   25136.5    397.8   0.130183405   1.70500   0.71801   0.30705  -1.04651
   9   26057.5    383.8   0.047237053   0.59679  -0.65999   0.34589   0.20389
  10   26252.1    380.9   0.021788100   0.27323   0.33145   0.38305  -0.12900
  11   26989.0    370.5   0.095247090   1.16183  -1.04824  -0.20107   0.15031
  12   27330.2    365.9   0.055186182   0.66476  -0.51242   0.03558   0.63318
  13   27483.3    363.9   0.004010622   0.04804  -0.11591  -0.18600   0.00351
  14   27640.8    361.8   0.071277551   0.84894  -0.84007   0.03704   0.37664
  15   28266.7    353.8   0.010154339   0.11826  -0.26813  -0.17720   0.12235
  16   28701.4    348.4   0.086341288   0.99035   0.11753   0.76606  -0.62426
  17   28858.3    346.5   0.066529596   0.75896  -0.74385   0.25885  -0.37234
  18   29414.1    340.0   0.138019067   1.54475  -0.10066   0.85401  -0.89738
  19   29697.5    336.7   0.014663905   0.16256   0.34443   0.02984   0.20744
  20   30759.7    325.1   0.142367836   1.52372  -0.90677   0.81548  -0.19098
  21   31049.2    322.1   0.128968986   1.36745   0.25437  -0.68524   0.91279
  22   31424.2    318.2   0.040949792   0.42901   0.31001   0.49975  -0.28836
  23   31571.1    316.7   0.050394247   0.52549  -0.39923   0.00117   0.60506
  24   32261.6    310.0   0.023550236   0.24032  -0.03751  -0.14008  -0.46828
  25   32311.9    309.5   0.018867250   0.19223   0.17406   0.36437  -0.17079
  26   32630.6    306.5   0.040367610   0.40727   0.56919   0.15292   0.24477
  27   32735.4    305.5   0.195497087   1.96607  -1.20989   0.00957   0.70861
  28   33279.0    300.5   0.006658065   0.06586  -0.03297  -0.25440   0.00765
  29   33410.3    299.3   0.022404209   0.22076  -0.35483   0.30405  -0.04912
  30   33540.0    298.2   0.231512767   2.27241  -1.41921   0.17803   0.47598
  31   34268.3    291.8   0.492734551   4.73365   1.77585  -1.20626   0.35344
  32   34492.8    289.9   0.141531245   1.35083  -0.51808  -0.95153   0.42073
  33   35040.3    285.4   0.346606312   3.25645  -0.09308   1.29514  -1.25316
  34   35756.0    279.7   0.165579232   1.52452   0.40247  -1.00146   0.59967
  35   36118.9    276.9   0.070084554   0.63880   0.40986   0.30060  -0.61681
  36   36555.0    273.6   0.150998689   1.35989   0.77458   0.34508   0.80052
  37   36679.3    272.6   0.038235361   0.34318  -0.51835   0.23444  -0.13976
  38   37278.3    268.3   0.072228678   0.63787  -0.51581   0.28510  -0.53900
  39   37451.9    267.0   0.041544506   0.36519   0.33030   0.37433  -0.34054
  40   37635.4    265.7   0.098574668   0.86227   0.89262   0.07193  -0.24563
  41   37785.4    264.7   0.011220622   0.09776   0.11921   0.14514  -0.24997
  42   38170.9    262.0   0.028537208   0.24612   0.26267   0.41200  -0.08594
  43   38434.6    260.2   0.087163140   0.74660   0.59854   0.47312  -0.40559
  44   38660.6    258.7   0.021428162   0.18247  -0.41679  -0.08419   0.04087
  45   38727.6    258.2   0.106506425   0.90538   0.11933  -0.01474  -0.94389
  46   38866.7    257.3   0.025858834   0.21903  -0.38203  -0.02734  -0.26896
  47   39020.9    256.3   0.043358124   0.36580   0.45382   0.39946  -0.01695
  48   39231.5    254.9   0.019496181   0.16360  -0.11026   0.38739  -0.03705
  49   39551.8    252.8   0.195506821   1.62731   0.19866   1.07014  -0.66532
  50   39678.1    252.0   0.048419001   0.40174   0.04649  -0.59289  -0.21923
  51   39936.8    250.4   0.038261125   0.31540  -0.46011  -0.30391   0.10648
  52   40152.1    249.1   0.162438500   1.33185   0.42213   0.02243  -1.07385
  53   40196.9    248.8   0.030486031   0.24968   0.09441   0.29906   0.38901

FINAL SINGLE POINT ENERGY     -3801.973683809322

DIPOLE MOMENT
-------------
                                X             Y             Z
Electronic contribution:    -31.32611      64.30243     -52.86758
Nuclear contribution   :     34.42615     -69.83952      57.10570
                        -----------------------------------------
Total Dipole Moment    :      3.10003      -5.53709       4.23812
                        -----------------------------------------
Magnitude (a.u.)       :      7.63094
Magnitude (Debye)      :     19.39630

Rotational constants in cm-1:     0.001637     0.000372     0.000344
Rotational constants in MHz :    49.078417    11.141715    10.316304

                             ****ORCA TERMINATED NORMALLY****
TOTAL RUN TIME: 0 days 0 hours 11 minutes 42 seconds 714 msec
