                         Program Version 4.2.0 -  RELEASE  -
|  1> # ORCA input file
|  2> # SCF done       -179.738812195166          0.012798924225
|  3> ! CAM-B3LYP def2-SVP def2/J RIJCOSX Grid4 TightSCF
|  4> %maxcore 5000
|  5> %tddft
|  6>     Mode sTDDFT
|  7>     Ethresh 5.0
|  8>     maxcore 5000
|  9> end
| 10>
| 11> %pal
| 12>   nprocs 6
| 13>   end
| 14> * xyz 0 1
| 15>    C      -13.71572         0.00812       -10.57985
| 16>    C      -14.01351        -0.32915       -11.87213
| 17>    F      -14.86578         0.42375       -12.58678
| 18>    C      -13.44165        -1.47075       -12.46650
| 19>    F      -13.76420        -1.78823       -13.73258
| 20>    C      -12.56887        -2.25380       -11.76304
| 21>    C      -12.24822        -1.93633       -10.42791
| 22>    C      -12.83810        -0.79083        -9.81929
| 23>    C      -12.57376        -0.48521        -8.46176
| 24>    C      -11.76225        -1.31266        -7.73267
| 25>    C      -11.14929        -2.43304        -8.35999
| 26>    C      -11.37090        -2.74498        -9.66931
| 27>    C      -10.33776        -3.16388        -7.36347
| 28>    O       -9.64428        -4.14026        -7.57714
| 29>    C      -10.57378        -2.47443        -6.08125
| 30>    C      -11.40599        -1.32381        -6.31239
| 31>    C      -11.84215        -0.40288        -5.38521
| 32>    C      -12.63382         0.72463        -5.68895
| 33>    N      -13.30717         1.64615        -5.82552
| 34>    C      -11.61336        -0.43417        -3.99671
| 35>    N      -11.51799        -0.36106        -2.85061
| 36>    C      -10.10767        -2.92867        -4.86074
| 37>    C       -9.29528        -4.04158        -4.67836
| 38>    C       -8.94886        -4.51212        -3.42373
| 39>    C       -8.12833        -5.61632        -3.10946
| 40>    C       -8.00237        -5.86062        -1.76906
| 41>    C       -8.72708        -4.96231        -0.96386
| 42>    S       -9.55294        -3.77855        -1.95561
| 43>    C       -8.88578        -4.93314         0.41219
| 44>    C       -8.35060        -5.77038         1.41077
| 45>    C       -8.76943        -5.47125         2.67702
| 46>    C       -9.65846        -4.37507         2.74621
| 47>    S       -9.92820        -3.72842         1.12429
| 48>    C      -10.27827        -3.81285         3.83128
| 49>    N      -11.07686        -2.73337         3.68119
| 50>    C      -11.78910        -2.05610         4.60934
| 51>    S      -11.91830        -2.61285         6.24844
| 52>    C      -12.91025        -1.23344         6.60924
| 53>    N      -13.38332        -1.08958         7.91270
| 54>    O      -14.06013        -0.10453         8.16421
| 55>    O      -13.08070        -1.96426         8.71187
| 56>    C      -13.12057        -0.41083         5.53360
| 57>    C      -12.48385        -0.85662         4.35916
| 58>    C      -12.48490        -0.18499         3.09374
| 59>    C      -13.01613         1.04758         2.89275
| 60>    C      -12.98687         1.80743         1.70317
| 61>    N      -12.48250         1.42319         0.47450
| 62>    C      -12.53294         2.42605        -0.43253
| 63>    C      -13.08133         3.53634         0.19127
| 64>    C      -13.38079         3.13677         1.52272
| 65>    N      -13.91331         4.19591         2.18963
| 66>    C      -13.95850         5.26042         1.32867
| 67>    C      -13.45888         4.92068         0.08763
| 68>    C      -13.30074         5.81724        -1.01537
| 69>    C      -12.76878         5.46620        -2.20037
| 70>    N      -12.56966         6.36209        -3.22177
| 71>    C      -12.00892         6.08571        -4.42382
| 72>    S      -11.53457         4.46381        -4.84528
| 73>    C      -10.95386         5.04414        -6.38175
| 74>    N      -10.40579         4.10277        -7.25048
| 75>    O       -9.98658         4.48723        -8.33310
| 76>    O      -10.37127         2.93877        -6.86148
| 77>    C      -11.12478         6.40187        -6.54165
| 78>    C      -11.73353         7.02216        -5.43475
| 79>    C      -12.06195         8.43679        -5.31931
| 80>    C      -11.67328         9.40376        -6.14722
| 81>    H      -14.16407         0.88598       -10.14069
| 82>    H      -12.13563        -3.12387       -12.23247
| 83>    H      -13.03724         0.38708        -8.02877
| 84>    H      -10.89880        -3.60698       -10.11680
| 85>    H      -10.41075        -2.39194        -3.96777
| 86>    H       -8.92948        -4.57606        -5.54339
| 87>    H       -7.65818        -6.20054        -3.88122
| 88>    H       -7.41944        -6.66172        -1.35003
| 89>    H       -7.67290        -6.57048         1.17066
| 90>    H       -8.46530        -6.00357         3.56007
| 91>    H      -10.15174        -4.20685         4.82756
| 92>    H      -11.14248        -2.37335         2.73325
| 93>    H      -13.72108         0.47577         5.61845
| 94>    H      -11.99795        -0.68380         2.26570
| 95>    H      -13.48479         1.55505         3.72452
| 96>    H      -12.14385         0.49892         0.25567
| 97>    H      -12.18424         2.26784        -1.43453
| 98>    H      -14.22373         4.21021         3.14683
| 99>    H      -14.34448         6.20858         1.65495
|100>    H      -13.60704         6.84305        -0.84193
|101>    H      -12.46023         4.45254        -2.41068
|102>    H      -12.83520         7.32526        -3.03907
|103>    H      -10.82140         6.90998        -7.43859
|104>    H      -12.68401         8.71279        -4.46991
|105>    H      -11.04436         9.21445        -7.00495
|106>    H      -11.96933        10.43393        -5.98211
|107> *
|108>
|109>                          ****END OF INPUT****

CARTESIAN COORDINATES (ANGSTROEM)
---------------------------------
  C    -13.715720    0.008120  -10.579850
  C    -14.013510   -0.329150  -11.872130
  F    -14.865780    0.423750  -12.586780
  C    -13.441650   -1.470750  -12.466500
  F    -13.764200   -1.788230  -13.732580
  C    -12.568870   -2.253800  -11.763040
  C    -12.248220   -1.936330  -10.427910
  C    -12.838100   -0.790830   -9.819290
  C    -12.573760   -0.485210   -8.461760
  C    -11.762250   -1.312660   -7.732670
  C    -11.149290   -2.433040   -8.359990
  C    -11.370900   -2.744980   -9.669310
  C    -10.337760   -3.163880   -7.363470
  O     -9.644280   -4.140260   -7.577140
  C    -10.573780   -2.474430   -6.081250
  C    -11.405990   -1.323810   -6.312390
  C    -11.842150   -0.402880   -5.385210
  C    -12.633820    0.724630   -5.688950
  N    -13.307170    1.646150   -5.825520
  C    -11.613360   -0.434170   -3.996710
  N    -11.517990   -0.361060   -2.850610
  C    -10.107670   -2.928670   -4.860740
  C     -9.295280   -4.041580   -4.678360
  C     -8.948860   -4.512120   -3.423730
  C     -8.128330   -5.616320   -3.109460
  C     -8.002370   -5.860620   -1.769060
  C     -8.727080   -4.962310   -0.963860
  S     -9.552940   -3.778550   -1.955610
  C     -8.885780   -4.933140    0.412190
  C     -8.350600   -5.770380    1.410770
  C     -8.769430   -5.471250    2.677020
  C     -9.658460   -4.375070    2.746210
  S     -9.928200   -3.728420    1.124290
  C    -10.278270   -3.812850    3.831280
  N    -11.076860   -2.733370    3.681190
  C    -11.789100   -2.056100    4.609340
  S    -11.918300   -2.612850    6.248440
  C    -12.910250   -1.233440    6.609240
  N    -13.383320   -1.089580    7.912700
  O    -14.060130   -0.104530    8.164210
  O    -13.080700   -1.964260    8.711870
  C    -13.120570   -0.410830    5.533600
  C    -12.483850   -0.856620    4.359160
  C    -12.484900   -0.184990    3.093740
  C    -13.016130    1.047580    2.892750
  C    -12.986870    1.807430    1.703170
  N    -12.482500    1.423190    0.474500
  C    -12.532940    2.426050   -0.432530
  C    -13.081330    3.536340    0.191270
  C    -13.380790    3.136770    1.522720
  N    -13.913310    4.195910    2.189630
  C    -13.958500    5.260420    1.328670
  C    -13.458880    4.920680    0.087630
  C    -13.300740    5.817240   -1.015370
  C    -12.768780    5.466200   -2.200370
  N    -12.569660    6.362090   -3.221770
  C    -12.008920    6.085710   -4.423820
  S    -11.534570    4.463810   -4.845280
  C    -10.953860    5.044140   -6.381750
  N    -10.405790    4.102770   -7.250480
  O     -9.986580    4.487230   -8.333100
  O    -10.371270    2.938770   -6.861480
  C    -11.124780    6.401870   -6.541650
  C    -11.733530    7.022160   -5.434750
  C    -12.061950    8.436790   -5.319310
  C    -11.673280    9.403760   -6.147220
  H    -14.164070    0.885980  -10.140690
  H    -12.135630   -3.123870  -12.232470
  H    -13.037240    0.387080   -8.028770
  H    -10.898800   -3.606980  -10.116800
  H    -10.410750   -2.391940   -3.967770
  H     -8.929480   -4.576060   -5.543390
  H     -7.658180   -6.200540   -3.881220
  H     -7.419440   -6.661720   -1.350030
  H     -7.672900   -6.570480    1.170660
  H     -8.465300   -6.003570    3.560070
  H    -10.151740   -4.206850    4.827560
  H    -11.142480   -2.373350    2.733250
  H    -13.721080    0.475770    5.618450
  H    -11.997950   -0.683800    2.265700
  H    -13.484790    1.555050    3.724520
  H    -12.143850    0.498920    0.255670
  H    -12.184240    2.267840   -1.434530
  H    -14.223730    4.210210    3.146830
  H    -14.344480    6.208580    1.654950
  H    -13.607040    6.843050   -0.841930
  H    -12.460230    4.452540   -2.410680
  H    -12.835200    7.325260   -3.039070
  H    -10.821400    6.909980   -7.438590
  H    -12.684010    8.712790   -4.469910
  H    -11.044360    9.214450   -7.004950
  H    -11.969330   10.433930   -5.982110

 Total Charge           Charge          ....    0
 Multiplicity           Mult            ....    1
 Number of Electrons    NEL             ....  486
 Basis Dimension        Dim             .... 1070

ORBITAL ENERGIES
----------------

  NO   OCC          E(Eh)            E(eV)
   0   2.0000     -88.990195     -2421.5463
   1   2.0000     -88.975719     -2421.1524
   2   2.0000     -88.962912     -2420.8039
   3   2.0000     -88.960136     -2420.7284
   4   2.0000     -24.783311      -674.3882
   5   2.0000     -24.781919      -674.3503
   6   2.0000     -19.238314      -523.5011
   7   2.0000     -19.237448      -523.4776
   8   2.0000     -19.213096      -522.8149
   9   2.0000     -19.212429      -522.7968
  10   2.0000     -19.196030      -522.3505
  11   2.0000     -14.649565      -398.6349
  12   2.0000     -14.624792      -397.9608
  13   2.0000     -14.507521      -394.7697
  14   2.0000     -14.465238      -393.6191
  15   2.0000     -14.463063      -393.5599
  16   2.0000     -14.458029      -393.4230
  17   2.0000     -14.408149      -392.0657
  18   2.0000     -14.394315      -391.6892
  19   2.0000     -10.370635      -282.1993
  20   2.0000     -10.367463      -282.1130
  21   2.0000     -10.365356      -282.0557
  22   2.0000     -10.364347      -282.0282
  23   2.0000     -10.352862      -281.7157
  24   2.0000     -10.346640      -281.5464
  25   2.0000     -10.346618      -281.5458
  26   2.0000     -10.344800      -281.4963
  27   2.0000     -10.330635      -281.1109
  28   2.0000     -10.327031      -281.0128
  29   2.0000     -10.321903      -280.8733
  30   2.0000     -10.321315      -280.8573
  31   2.0000     -10.318703      -280.7862
  32   2.0000     -10.318527      -280.7814
  33   2.0000     -10.318155      -280.7713
  34   2.0000     -10.313830      -280.6536
  35   2.0000     -10.311490      -280.5899
  36   2.0000     -10.310934      -280.5748
  37   2.0000     -10.307375      -280.4779
  38   2.0000     -10.307067      -280.4696
  39   2.0000     -10.307036      -280.4687
  40   2.0000     -10.301636      -280.3218
  41   2.0000     -10.299886      -280.2741
  42   2.0000     -10.299368      -280.2600
  43   2.0000     -10.298544      -280.2376
  44   2.0000     -10.297140      -280.1994
  45   2.0000     -10.295718      -280.1607
  46   2.0000     -10.294428      -280.1256
  47   2.0000     -10.292815      -280.0817
  48   2.0000     -10.292393      -280.0702
  49   2.0000     -10.291829      -280.0549
  50   2.0000     -10.290760      -280.0258
  51   2.0000     -10.287557      -279.9386
  52   2.0000     -10.285486      -279.8823
  53   2.0000     -10.284862      -279.8653
  54   2.0000     -10.284364      -279.8518
  55   2.0000     -10.283109      -279.8176
  56   2.0000     -10.282957      -279.8135
  57   2.0000     -10.282587      -279.8034
  58   2.0000     -10.278267      -279.6859
  59   2.0000     -10.273468      -279.5553
  60   2.0000     -10.273360      -279.5523
  61   2.0000     -10.271339      -279.4973
  62   2.0000     -10.270538      -279.4756
  63   2.0000     -10.266949      -279.3779
  64   2.0000     -10.263988      -279.2973
  65   2.0000     -10.254027      -279.0263
  66   2.0000      -8.085591      -220.0201
  67   2.0000      -8.072118      -219.6535
  68   2.0000      -8.057724      -219.2618
  69   2.0000      -8.056202      -219.2204
  70   2.0000      -6.055321      -164.7737
  71   2.0000      -6.051013      -164.6564
  72   2.0000      -6.046859      -164.5434
  73   2.0000      -6.041862      -164.4074
  74   2.0000      -6.037873      -164.2989
  75   2.0000      -6.033002      -164.1663
  76   2.0000      -6.027538      -164.0177
  77   2.0000      -6.025793      -163.9702
  78   2.0000      -6.023087      -163.8965
  79   2.0000      -6.021792      -163.8613
  80   2.0000      -6.019040      -163.7864
  81   2.0000      -6.017403      -163.7419
  82   2.0000      -1.316542       -35.8249
  83   2.0000      -1.304010       -35.4839
  84   2.0000      -1.289318       -35.0841
  85   2.0000      -1.289292       -35.0834
  86   2.0000      -1.135750       -30.9053
  87   2.0000      -1.113574       -30.3019
  88   2.0000      -1.109422       -30.1889
  89   2.0000      -1.107725       -30.1427
  90   2.0000      -1.086507       -29.5654
  91   2.0000      -1.070027       -29.1169
  92   2.0000      -1.055993       -28.7350
  93   2.0000      -1.019971       -27.7548
  94   2.0000      -1.008396       -27.4399
  95   2.0000      -1.002927       -27.2910
  96   2.0000      -0.990260       -26.9463
  97   2.0000      -0.988055       -26.8864
  98   2.0000      -0.979812       -26.6620
  99   2.0000      -0.977084       -26.5878
 100   2.0000      -0.962511       -26.1913
 101   2.0000      -0.926749       -25.2181
 102   2.0000      -0.917761       -24.9735
 103   2.0000      -0.909895       -24.7595
 104   2.0000      -0.903415       -24.5832
 105   2.0000      -0.897636       -24.4259
 106   2.0000      -0.890698       -24.2371
 107   2.0000      -0.883106       -24.0305
 108   2.0000      -0.876221       -23.8432
 109   2.0000      -0.870395       -23.6847
 110   2.0000      -0.868743       -23.6397
 111   2.0000      -0.864177       -23.5154
 112   2.0000      -0.862308       -23.4646
 113   2.0000      -0.850472       -23.1425
 114   2.0000      -0.843568       -22.9547
 115   2.0000      -0.839774       -22.8514
 116   2.0000      -0.824263       -22.4293
 117   2.0000      -0.822449       -22.3800
 118   2.0000      -0.817680       -22.2502
 119   2.0000      -0.814191       -22.1553
 120   2.0000      -0.799370       -21.7520
 121   2.0000      -0.787083       -21.4176
 122   2.0000      -0.761901       -20.7324
 123   2.0000      -0.758301       -20.6344
 124   2.0000      -0.748823       -20.3765
 125   2.0000      -0.740805       -20.1583
 126   2.0000      -0.738958       -20.1081
 127   2.0000      -0.724294       -19.7090
 128   2.0000      -0.718119       -19.5410
 129   2.0000      -0.708921       -19.2907
 130   2.0000      -0.704294       -19.1648
 131   2.0000      -0.702856       -19.1257
 132   2.0000      -0.695967       -18.9382
 133   2.0000      -0.693412       -18.8687
 134   2.0000      -0.676329       -18.4038
 135   2.0000      -0.673021       -18.3138
 136   2.0000      -0.664894       -18.0927
 137   2.0000      -0.660153       -17.9637
 138   2.0000      -0.651945       -17.7403
 139   2.0000      -0.647228       -17.6120
 140   2.0000      -0.642992       -17.4967
 141   2.0000      -0.637993       -17.3607
 142   2.0000      -0.636787       -17.3278
 143   2.0000      -0.633046       -17.2260
 144   2.0000      -0.630098       -17.1458
 145   2.0000      -0.629064       -17.1177
 146   2.0000      -0.626169       -17.0389
 147   2.0000      -0.620177       -16.8759
 148   2.0000      -0.617187       -16.7945
 149   2.0000      -0.614634       -16.7251
 150   2.0000      -0.607103       -16.5201
 151   2.0000      -0.606423       -16.5016
 152   2.0000      -0.603677       -16.4269
 153   2.0000      -0.600988       -16.3537
 154   2.0000      -0.596005       -16.2181
 155   2.0000      -0.588735       -16.0203
 156   2.0000      -0.586057       -15.9474
 157   2.0000      -0.582959       -15.8631
 158   2.0000      -0.572835       -15.5876
 159   2.0000      -0.570485       -15.5237
 160   2.0000      -0.569192       -15.4885
 161   2.0000      -0.566357       -15.4114
 162   2.0000      -0.564534       -15.3618
 163   2.0000      -0.558288       -15.1918
 164   2.0000      -0.555924       -15.1275
 165   2.0000      -0.553639       -15.0653
 166   2.0000      -0.549827       -14.9616
 167   2.0000      -0.546673       -14.8757
 168   2.0000      -0.538170       -14.6444
 169   2.0000      -0.535827       -14.5806
 170   2.0000      -0.531406       -14.4603
 171   2.0000      -0.531312       -14.4577
 172   2.0000      -0.527338       -14.3496
 173   2.0000      -0.525255       -14.2929
 174   2.0000      -0.519393       -14.1334
 175   2.0000      -0.518960       -14.1216
 176   2.0000      -0.516760       -14.0618
 177   2.0000      -0.516406       -14.0521
 178   2.0000      -0.515453       -14.0262
 179   2.0000      -0.515340       -14.0231
 180   2.0000      -0.513791       -13.9810
 181   2.0000      -0.513368       -13.9695
 182   2.0000      -0.508507       -13.8372
 183   2.0000      -0.502132       -13.6637
 184   2.0000      -0.501256       -13.6399
 185   2.0000      -0.495553       -13.4847
 186   2.0000      -0.494805       -13.4643
 187   2.0000      -0.489477       -13.3193
 188   2.0000      -0.488719       -13.2987
 189   2.0000      -0.487801       -13.2737
 190   2.0000      -0.480297       -13.0696
 191   2.0000      -0.478813       -13.0292
 192   2.0000      -0.472745       -12.8640
 193   2.0000      -0.472069       -12.8457
 194   2.0000      -0.470751       -12.8098
 195   2.0000      -0.467033       -12.7086
 196   2.0000      -0.466872       -12.7042
 197   2.0000      -0.461228       -12.5507
 198   2.0000      -0.458736       -12.4828
 199   2.0000      -0.456590       -12.4244
 200   2.0000      -0.451880       -12.2963
 201   2.0000      -0.450832       -12.2678
 202   2.0000      -0.447899       -12.1880
 203   2.0000      -0.446991       -12.1633
 204   2.0000      -0.444586       -12.0978
 205   2.0000      -0.443684       -12.0732
 206   2.0000      -0.441950       -12.0261
 207   2.0000      -0.431955       -11.7541
 208   2.0000      -0.427411       -11.6304
 209   2.0000      -0.425868       -11.5885
 210   2.0000      -0.419317       -11.4102
 211   2.0000      -0.415867       -11.3163
 212   2.0000      -0.415545       -11.3076
 213   2.0000      -0.413314       -11.2469
 214   2.0000      -0.411198       -11.1893
 215   2.0000      -0.409567       -11.1449
 216   2.0000      -0.406400       -11.0587
 217   2.0000      -0.391502       -10.6533
 218   2.0000      -0.386370       -10.5136
 219   2.0000      -0.383491       -10.4353
 220   2.0000      -0.381328       -10.3765
 221   2.0000      -0.379089       -10.3155
 222   2.0000      -0.377100       -10.2614
 223   2.0000      -0.368705       -10.0330
 224   2.0000      -0.366600        -9.9757
 225   2.0000      -0.362614        -9.8672
 226   2.0000      -0.361173        -9.8280
 227   2.0000      -0.354640        -9.6503
 228   2.0000      -0.352144        -9.5823
 229   2.0000      -0.344691        -9.3795
 230   2.0000      -0.340925        -9.2770
 231   2.0000      -0.337966        -9.1965
 232   2.0000      -0.322990        -8.7890
 233   2.0000      -0.316725        -8.6185
 234   2.0000      -0.312782        -8.5112
 235   2.0000      -0.302847        -8.2409
 236   2.0000      -0.300378        -8.1737
 237   2.0000      -0.294480        -8.0132
 238   2.0000      -0.285611        -7.7719
 239   2.0000      -0.279757        -7.6126
 240   2.0000      -0.249798        -6.7973
 241   2.0000      -0.228554        -6.2193
 242   2.0000      -0.214758        -5.8439
 243   0.0000      -0.108958        -2.9649
 244   0.0000      -0.062941        -1.7127
 245   0.0000      -0.047383        -1.2894
 246   0.0000      -0.037948        -1.0326
 247   0.0000      -0.034208        -0.9309

MULLIKEN ATOMIC CHARGES
-----------------------
   0 C :   -0.107431
   1 C :    0.240091
   2 F :   -0.178486
   3 C :    0.236396
   4 F :   -0.179399
   5 C :   -0.107178
   6 C :    0.116245
   7 C :    0.113263
   8 C :   -0.079404
   9 C :    0.051854
  10 C :    0.000181
  11 C :   -0.088224
  12 C :    0.141844
  13 O :   -0.167508
  14 C :   -0.096945
  15 C :    0.345906
  16 C :   -0.366948
  17 C :   -0.180460
  18 N :    0.125276
  19 C :   -0.177901
  20 N :    0.094850
  21 C :   -0.043815
  22 C :   -0.019851
  23 C :    0.007376
  24 C :    0.023152
  25 C :    0.044391
  26 C :   -0.053697
  27 S :    0.081861
  28 C :   -0.014684
  29 C :    0.015398
  30 C :    0.062131
  31 C :   -0.064773
  32 S :    0.039344
  33 C :    0.068087
  34 N :   -0.022969
  35 C :   -0.143095
  36 S :    0.153671
  37 C :   -0.005389
  38 N :    0.280205
  39 O :   -0.257063
  40 O :   -0.269234
  41 C :   -0.000323
  42 C :    0.155058
  43 C :   -0.088562
  44 C :    0.026810
  45 C :   -0.038671
  46 N :   -0.040901
  47 C :   -0.054857
  48 C :    0.055702
  49 C :    0.052693
  50 N :   -0.036236
  51 C :    0.001043
  52 C :    0.039872
  53 C :   -0.003752
  54 C :    0.053111
  55 N :   -0.034440
  56 C :   -0.103997
  57 S :    0.157361
  58 C :   -0.012928
  59 N :    0.278776
  60 O :   -0.269065
  61 O :   -0.283372
  62 C :    0.012689
  63 C :    0.095373
  64 C :   -0.032727
  65 C :   -0.029769
  66 H :    0.003807
  67 H :   -0.005546
  68 H :   -0.007748
  69 H :   -0.017054
  70 H :    0.012733
  71 H :    0.017048
  72 H :   -0.000422
  73 H :   -0.005874
  74 H :   -0.003853
  75 H :    0.000563
  76 H :    0.035348
  77 H :    0.161501
  78 H :    0.009375
  79 H :   -0.061787
  80 H :   -0.038005
  81 H :    0.136204
  82 H :    0.018197
  83 H :    0.121403
  84 H :   -0.013548
  85 H :   -0.041667
  86 H :    0.017507
  87 H :    0.131780
  88 H :    0.000330
  89 H :   -0.029174
  90 H :    0.018685
  91 H :    0.024240
Sum of atomic charges:   -0.0000000

LOEWDIN ATOMIC CHARGES
----------------------
   0 C :   -0.028967
   1 C :    0.063709
   2 F :   -0.055740
   3 C :    0.065320
   4 F :   -0.056954
   5 C :   -0.035581
   6 C :   -0.009556
   7 C :   -0.007417
   8 C :    0.018205
   9 C :   -0.017439
  10 C :   -0.047407
  11 C :    0.022050
  12 C :    0.081779
  13 O :   -0.160649
  14 C :   -0.110955
  15 C :    0.078923
  16 C :   -0.160877
  17 C :   -0.015508
  18 N :   -0.078297
  19 C :   -0.004367
  20 N :   -0.104414
  21 C :    0.046889
  22 C :   -0.077015
  23 C :   -0.100642
  24 C :   -0.048276
  25 C :   -0.006297
  26 C :   -0.204711
  27 S :    0.398888
  28 C :   -0.137357
  29 C :   -0.052863
  30 C :   -0.004994
  31 C :   -0.200005
  32 S :    0.367277
  33 C :    0.030562
  34 N :    0.063048
  35 C :   -0.127675
  36 S :    0.444836
  37 C :   -0.205155
  38 N :    0.275263
  39 O :   -0.223234
  40 O :   -0.235370
  41 C :    0.000182
  42 C :   -0.079151
  43 C :   -0.094938
  44 C :   -0.003685
  45 C :   -0.074299
  46 N :    0.106704
  47 C :    0.009829
  48 C :   -0.083734
  49 C :   -0.004513
  50 N :    0.059837
  51 C :    0.003931
  52 C :   -0.071986
  53 C :   -0.062941
  54 C :    0.003925
  55 N :    0.034510
  56 C :   -0.088284
  57 S :    0.459248
  58 C :   -0.219329
  59 N :    0.276708
  60 O :   -0.235628
  61 O :   -0.251328
  62 C :    0.008142
  63 C :   -0.121387
  64 C :   -0.029181
  65 C :   -0.051822
  66 H :    0.046383
  67 H :    0.042761
  68 H :    0.039931
  69 H :    0.037310
  70 H :    0.028514
  71 H :    0.039156
  72 H :    0.038658
  73 H :    0.035441
  74 H :    0.036409
  75 H :    0.039164
  76 H :    0.037910
  77 H :    0.083030
  78 H :    0.042051
  79 H :    0.011374
  80 H :    0.030155
  81 H :    0.094025
  82 H :    0.025973
  83 H :    0.087979
  84 H :    0.019461
  85 H :    0.023783
  86 H :    0.023828
  87 H :    0.093059
  88 H :    0.041729
  89 H :    0.021252
  90 H :    0.023219
  91 H :    0.027608

  Mayer bond orders larger than 0.100000
B(  0-C ,  1-C ) :   1.4367 B(  0-C ,  5-C ) :   0.1094 B(  0-C ,  7-C ) :   1.1929
B(  0-C , 66-H ) :   1.0067 B(  1-C ,  2-F ) :   1.1259 B(  1-C ,  3-C ) :   1.1984
B(  3-C ,  4-F ) :   1.1257 B(  3-C ,  5-C ) :   1.4386 B(  5-C ,  6-C ) :   1.1935
B(  5-C , 67-H ) :   1.0072 B(  6-C ,  7-C ) :   1.2638 B(  6-C , 11-C ) :   1.1790
B(  7-C ,  8-C ) :   1.2062 B(  8-C ,  9-C ) :   1.4670 B(  8-C , 68-H ) :   0.9876
B(  9-C , 10-C ) :   1.2213 B(  9-C , 15-C ) :   0.9739 B( 10-C , 11-C ) :   1.4818
B( 10-C , 12-C ) :   0.9331 B( 11-C , 69-H ) :   1.0161 B( 12-C , 13-O ) :   2.1851
B( 12-C , 14-C ) :   0.9705 B( 14-C , 15-C ) :   1.1293 B( 14-C , 21-C ) :   1.4518
B( 15-C , 16-C ) :   1.5563 B( 16-C , 17-C ) :   1.1555 B( 16-C , 19-C ) :   1.1685
B( 17-C , 18-N ) :   2.9264 B( 19-C , 20-N ) :   2.9222 B( 21-C , 22-C ) :   1.2884
B( 21-C , 70-H ) :   0.9413 B( 22-C , 23-C ) :   1.3905 B( 22-C , 71-H ) :   0.9783
B( 23-C , 24-C ) :   1.1989 B( 23-C , 27-S ) :   1.0910 B( 24-C , 25-C ) :   1.5198
B( 24-C , 72-H ) :   1.0011 B( 25-C , 26-C ) :   1.2382 B( 25-C , 73-H ) :   0.9951
B( 26-C , 27-S ) :   1.0392 B( 26-C , 28-C ) :   1.4456 B( 28-C , 29-C ) :   1.2196
B( 28-C , 32-S ) :   1.0881 B( 29-C , 30-C ) :   1.5647 B( 29-C , 74-H ) :   0.9940
B( 30-C , 31-C ) :   1.1902 B( 30-C , 75-H ) :   0.9949 B( 31-C , 32-S ) :   1.0092
B( 31-C , 33-C ) :   1.5327 B( 33-C , 34-N ) :   1.2101 B( 33-C , 76-H ) :   0.9649
B( 34-N , 35-C ) :   1.2040 B( 34-N , 77-H ) :   0.8966 B( 35-C , 36-S ) :   1.1125
B( 35-C , 42-C ) :   1.3534 B( 36-S , 37-C ) :   1.0756 B( 37-C , 38-N ) :   0.9817
B( 37-C , 41-C ) :   1.4866 B( 38-N , 39-O ) :   1.5219 B( 38-N , 40-O ) :   1.5022
B( 39-O , 40-O ) :   0.2556 B( 41-C , 42-C ) :   1.2269 B( 41-C , 78-H ) :   0.9953
B( 42-C , 43-C ) :   1.0797 B( 43-C , 44-C ) :   1.6296 B( 43-C , 79-H ) :   0.9709
B( 44-C , 45-C ) :   1.1900 B( 44-C , 80-H ) :   0.9594 B( 45-C , 46-N ) :   1.1945
B( 45-C , 47-C ) :   0.1114 B( 45-C , 49-C ) :   1.2366 B( 46-N , 47-C ) :   1.2879
B( 46-N , 81-H ) :   0.9243 B( 47-C , 48-C ) :   1.3400 B( 47-C , 82-H ) :   0.9888
B( 48-C , 49-C ) :   1.3230 B( 48-C , 52-C ) :   1.0831 B( 49-C , 50-N ) :   1.1933
B( 50-N , 51-C ) :   1.1539 B( 50-N , 83-H ) :   0.9400 B( 51-C , 52-C ) :   1.5261
B( 51-C , 84-H ) :   0.9881 B( 52-C , 53-C ) :   1.1375 B( 53-C , 54-C ) :   1.7056
B( 53-C , 85-H ) :   0.9613 B( 54-C , 55-N ) :   1.0830 B( 54-C , 86-H ) :   0.9594
B( 55-N , 56-C ) :   1.2537 B( 55-N , 87-H ) :   0.9163 B( 56-C , 57-S ) :   1.1474
B( 56-C , 63-C ) :   1.3402 B( 57-S , 58-C ) :   1.0652 B( 58-C , 59-N ) :   0.9968
B( 58-C , 62-C ) :   1.4694 B( 59-N , 60-O ) :   1.5147 B( 59-N , 61-O ) :   1.4864
B( 60-O , 61-O ) :   0.2437 B( 62-C , 63-C ) :   1.2616 B( 62-C , 88-H ) :   0.9990
B( 63-C , 64-C ) :   1.0555 B( 64-C , 65-C ) :   1.9763 B( 64-C , 89-H ) :   0.9590
B( 65-C , 90-H ) :   0.9538 B( 65-C , 91-H ) :   0.9469

-----------------------------------------------------------------------------
         ABSORPTION SPECTRUM VIA TRANSITION ELECTRIC DIPOLE MOMENTS
-----------------------------------------------------------------------------
State   Energy  Wavelength   fosc         T2         TX        TY        TZ
        (cm-1)    (nm)                  (au**2)     (au)      (au)      (au)
-----------------------------------------------------------------------------
   0    9688.4   1032.2   0.481921936  16.37567   0.38567  -0.75157  -3.95753
   1   13560.9    737.4   0.605776594  14.70621   0.66604  -1.37888   3.51586
   2   18848.7    530.5   0.214185694   3.74097   1.20918  -1.47206   0.33449
   3   19899.7    502.5   0.092104223   1.52373   0.71307  -0.58825  -0.81806
   4   22345.1    447.5   0.311766240   4.59327  -0.72548   1.74443  -1.01189
   5   23471.7    426.0   0.403381799   5.65779  -0.51436  -0.68881   2.21783
   6   23876.9    418.8   0.436230913   6.01471  -0.02561  -0.87237   2.29195
   7   24236.4    412.6   0.817226232  11.10070  -1.55888   1.52646   2.51804
   8   24986.0    400.2   0.089089329   1.17383   0.59120  -0.55722  -0.71681
   9   26034.7    384.1   0.346680854   4.38382   1.32771  -1.44303   0.73395
  10   26414.1    378.6   0.000250883   0.00313   0.02780  -0.04415  -0.02012
  11   27055.5    369.6   0.061781640   0.75176  -0.22290   0.70394  -0.45447
  12   27456.6    364.2   0.125174269   1.50087   0.38238  -1.16271   0.05257
  13   27975.9    357.5   0.029597230   0.34829   0.39227   0.04478   0.43864
  14   28211.3    354.5   0.190544017   2.22355  -0.33974  -0.66231   1.29208
  15   28863.9    346.5   0.053510362   0.61032   0.32692  -0.59572  -0.38544
  16   29130.9    343.3   0.041170908   0.46528  -0.37641   0.56236  -0.08575
  17   29696.6    336.7   0.000774286   0.00858   0.02654  -0.08739   0.01558
  18   29970.3    333.7   0.071136246   0.78140  -0.06213  -0.24167   0.84802
  19   30683.4    325.9   0.010366000   0.11122   0.02214  -0.23823   0.23233
  20   30998.0    322.6   0.036502008   0.38767  -0.08879   0.16455   0.59389
  21   31470.0    317.8   0.209492101   2.19153   0.74484  -0.94838   0.85867
  22   31792.4    314.5   0.067094821   0.69477   0.10394   0.82569   0.04689
  23   32034.6    312.2   0.027300089   0.28056   0.21806   0.35137   0.33098
  24   32235.8    310.2   0.079461033   0.81151  -0.45774   0.31604   0.70859
  25   32902.9    303.9   0.005636694   0.05640   0.06608  -0.00117   0.22810
  26   33187.9    301.3   0.211901969   2.10199  -0.74508   0.11903  -1.23802
  27   33345.3    299.9   0.315358796   3.11348  -0.22349  -0.03702  -1.74990
  28   33918.2    294.8   0.068292329   0.66285  -0.00646   0.09685   0.80835
  29   34377.9    290.9   0.088096553   0.84364  -0.35639  -0.50849   0.67681
  30   34455.7    290.2   0.209046672   1.99736   0.16570   0.54034  -1.29535
  31   34741.2    287.8   0.003545848   0.03360   0.16374  -0.08083  -0.01604
  32   34829.3    287.1   0.055774578   0.52719  -0.22591  -0.34900   0.59527
  33   36006.1    277.7   0.107968166   0.98718  -0.05522   0.18583  -0.97447
  34   36441.1    274.4   0.134720403   1.21708  -0.28926   0.99703   0.37326
  35   36928.1    270.8   0.017246479   0.15375  -0.11053   0.03373   0.37470
  36   37294.9    268.1   0.116951260   1.03236  -0.02734   0.04682   1.01460
  37   37399.6    267.4   0.078905726   0.69457   0.10126  -0.27251  -0.78106
  38   37690.1    265.3   0.022833405   0.19944  -0.15406   0.25455   0.33303
  39   37892.6    263.9   0.069740563   0.60591   0.20964  -0.34205  -0.66705
  40   37947.6    263.5   0.054608524   0.47375   0.14616  -0.53192  -0.41165
  41   38380.0    260.6   0.000313502   0.00269  -0.04266   0.02947   0.00028
  42   38610.1    259.0   0.224711220   1.91601   0.46703  -1.24890  -0.37168
  43   38888.1    257.1   0.040740248   0.34489   0.35462  -0.37788   0.27630
  44   39212.5    255.0   0.049766791   0.41782   0.01456  -0.32489   0.55862
  45   39457.0    253.4   0.031078339   0.25930   0.05991   0.22205  -0.45432
  46   39524.5    253.0   0.001731349   0.01442  -0.11813  -0.00543  -0.02091
  47   40279.8    248.3   0.074753907   0.61097   0.08052  -0.34080   0.69882

FINAL SINGLE POINT ENERGY     -4408.966852160553

DIPOLE MOMENT
-------------
                                X             Y             Z
Electronic contribution:     -6.92271     -24.75659     -25.28991
Nuclear contribution   :      7.84427      23.98045      28.39367
                        -----------------------------------------
Total Dipole Moment    :      0.92156      -0.77614       3.10376
                        -----------------------------------------
Magnitude (a.u.)       :      3.32941
Magnitude (Debye)      :      8.46270

Rotational constants in cm-1:     0.001058     0.000503     0.000369
Rotational constants in MHz :    31.717288    15.065663    11.064911

                             ****ORCA TERMINATED NORMALLY****
TOTAL RUN TIME: 0 days 0 hours 9 minutes 21 seconds 914 msec
