                         Program Version 4.2.0 -  RELEASE  -
|  1> # ORCA input file
|  2> # SCF done       -171.306887552449          0.000518824610
|  3> ! CAM-B3LYP def2-SVP def2/J RIJCOSX Grid4 TightSCF
|  4> %maxcore 5000
|  5> %tddft
|  6>     Mode sTDDFT
|  7>     Ethresh 5.0
|  8>     maxcore 5000
|  9> end
| 10>
| 11> %pal
| 12>   nprocs 6
| 13>   end
| 14> * xyz 0 1
| 15>    C        0.41773       -10.01185       -10.26943
| 16>    C       -0.02070        -9.82302       -11.55104
| 17>    F        0.46657       -10.57555       -12.54680
| 18>    C       -0.98605        -8.83971       -11.84014
| 19>    F       -1.39974        -8.67536       -13.10482
| 20>    C       -1.49973        -8.05627       -10.84376
| 21>    C       -1.06753        -8.22624        -9.51507
| 22>    C       -0.09250        -9.22226        -9.22074
| 23>    C        0.35339        -9.41469        -7.89169
| 24>    C       -0.15932        -8.63558        -6.88976
| 25>    C       -1.13164        -7.63826        -7.19398
| 26>    C       -1.58122        -7.43011        -8.46607
| 27>    C       -1.50872        -6.95484        -5.95143
| 28>    O       -2.31327        -6.03127        -5.82183
| 29>    C       -0.73499        -7.58576        -4.88366
| 30>    C        0.10305        -8.61291        -5.45214
| 31>    C        0.98917        -9.42349        -4.78663
| 32>    C        1.78100       -10.40874        -5.40807
| 33>    N        2.45042       -11.22573        -5.85923
| 34>    C        1.21983        -9.36765        -3.39818
| 35>    N        1.43826        -9.35159        -2.27083
| 36>    C       -0.86282        -7.18920        -3.57026
| 37>    N       -1.70955        -6.20222        -3.25818
| 38>    C       -1.96351        -5.67776        -2.03589
| 39>    S       -1.16934        -6.26014        -0.60505
| 40>    C       -2.04217        -5.08344         0.32388
| 41>    N       -1.81559        -5.03631         1.70216
| 42>    O       -2.42942        -4.20327         2.34759
| 43>    O       -1.01539        -5.83687         2.15769
| 44>    C       -2.88408        -4.30236        -0.42377
| 45>    C       -2.86000        -4.62636        -1.79214
| 46>    C       -3.61836        -3.98366        -2.83576
| 47>    C       -4.47099        -2.96214        -2.64389
| 48>    C       -5.22582        -2.26761        -3.65723
| 49>    C       -4.92014        -2.08089        -4.94904
| 50>    C       -3.68016        -2.57718        -5.62206
| 51>    C       -5.82223        -1.27238        -5.85969
| 52>    N       -6.90836        -0.60282        -5.19799
| 53>    C       -8.20918        -0.96794        -5.20977
| 54>    C       -8.80056        -1.90188        -6.00291
| 55>    C      -10.18309        -2.15487        -5.95710
| 56>    C      -10.85145        -3.00766        -6.79674
| 57>    C      -12.23693        -3.29310        -6.79981
| 58>    C      -12.63316        -4.14782        -7.78382
| 59>    C      -11.58426        -4.58593        -8.62178
| 60>    S      -10.06561        -3.89497        -8.10197
| 61>    C      -11.67845        -5.41440        -9.72630
| 62>    C      -12.83987        -6.01989       -10.25316
| 63>    C      -12.62569        -6.75828       -11.37878
| 64>    C      -11.28277        -6.77886       -11.80773
| 65>    S      -10.29011        -5.82702       -10.70838
| 66>    C      -10.69548        -7.37607       -12.89825
| 67>    C      -11.25147        -8.16309       -13.91784
| 68>    C      -12.52290        -8.70080       -14.20261
| 69>    C      -12.53433        -9.45944       -15.42976
| 70>    N      -13.66329       -10.05780       -15.88016
| 71>    C      -14.71700        -9.91703       -15.13385
| 72>    C      -14.72301        -9.18653       -13.91149
| 73>    C      -16.00060        -9.11907       -13.12684
| 74>    C      -15.91654        -8.29338       -11.85166
| 75>    N      -13.64300        -8.58834       -13.46619
| 76>    C      -11.31329        -9.50392       -16.06155
| 77>    S      -10.13654        -8.63755       -15.18423
| 78>    H        1.15728       -10.77012       -10.06480
| 79>    H       -2.23925        -7.30807       -11.08258
| 80>    H        1.09058       -10.17755        -7.70130
| 81>    H       -2.32004        -6.67058        -8.67222
| 82>    H       -0.30330        -7.64475        -2.76445
| 83>    H       -2.20900        -5.81735        -4.08104
| 84>    H       -3.48526        -3.53298         0.02348
| 85>    H       -3.50256        -4.38727        -3.82822
| 86>    H       -4.65305        -2.61243        -1.63634
| 87>    H       -6.13410        -1.81233        -3.28102
| 88>    H       -2.83439        -2.55175        -4.93801
| 89>    H       -3.44667        -1.96642        -6.49172
| 90>    H       -3.80524        -3.60388        -5.96532
| 91>    H       -6.22595        -1.93254        -6.63057
| 92>    H       -5.20959        -0.51533        -6.36719
| 93>    H       -6.63093         0.09610        -4.52713
| 94>    H       -8.83234        -0.39871        -4.53144
| 95>    H       -8.22609        -2.47578        -6.71464
| 96>    H      -10.77349        -1.63076        -5.21642
| 97>    H      -12.89884        -2.85232        -6.07498
| 98>    H      -13.64869        -4.46701        -7.93407
| 99>    H      -13.80302        -5.89365        -9.79145
|100>    H      -13.37046        -7.29770       -11.93382
|101>    H       -9.63108        -7.20441       -13.00895
|102>    H      -15.62380       -10.39282       -15.48519
|103>    H      -16.29537       -10.14491       -12.88260
|104>    H      -16.77872        -8.71310       -13.78108
|105>    H      -15.14593        -8.68792       -11.19474
|106>    H      -16.86953        -8.32277       -11.32823
|107>    H      -15.68136        -7.25807       -12.08438
|108>    H      -11.06694        -9.99796       -16.97856
|109> *
|110>
|111>                          ****END OF INPUT****

CARTESIAN COORDINATES (ANGSTROEM)
---------------------------------
  C      0.417730  -10.011850  -10.269430
  C     -0.020700   -9.823020  -11.551040
  F      0.466570  -10.575550  -12.546800
  C     -0.986050   -8.839710  -11.840140
  F     -1.399740   -8.675360  -13.104820
  C     -1.499730   -8.056270  -10.843760
  C     -1.067530   -8.226240   -9.515070
  C     -0.092500   -9.222260   -9.220740
  C      0.353390   -9.414690   -7.891690
  C     -0.159320   -8.635580   -6.889760
  C     -1.131640   -7.638260   -7.193980
  C     -1.581220   -7.430110   -8.466070
  C     -1.508720   -6.954840   -5.951430
  O     -2.313270   -6.031270   -5.821830
  C     -0.734990   -7.585760   -4.883660
  C      0.103050   -8.612910   -5.452140
  C      0.989170   -9.423490   -4.786630
  C      1.781000  -10.408740   -5.408070
  N      2.450420  -11.225730   -5.859230
  C      1.219830   -9.367650   -3.398180
  N      1.438260   -9.351590   -2.270830
  C     -0.862820   -7.189200   -3.570260
  N     -1.709550   -6.202220   -3.258180
  C     -1.963510   -5.677760   -2.035890
  S     -1.169340   -6.260140   -0.605050
  C     -2.042170   -5.083440    0.323880
  N     -1.815590   -5.036310    1.702160
  O     -2.429420   -4.203270    2.347590
  O     -1.015390   -5.836870    2.157690
  C     -2.884080   -4.302360   -0.423770
  C     -2.860000   -4.626360   -1.792140
  C     -3.618360   -3.983660   -2.835760
  C     -4.470990   -2.962140   -2.643890
  C     -5.225820   -2.267610   -3.657230
  C     -4.920140   -2.080890   -4.949040
  C     -3.680160   -2.577180   -5.622060
  C     -5.822230   -1.272380   -5.859690
  N     -6.908360   -0.602820   -5.197990
  C     -8.209180   -0.967940   -5.209770
  C     -8.800560   -1.901880   -6.002910
  C    -10.183090   -2.154870   -5.957100
  C    -10.851450   -3.007660   -6.796740
  C    -12.236930   -3.293100   -6.799810
  C    -12.633160   -4.147820   -7.783820
  C    -11.584260   -4.585930   -8.621780
  S    -10.065610   -3.894970   -8.101970
  C    -11.678450   -5.414400   -9.726300
  C    -12.839870   -6.019890  -10.253160
  C    -12.625690   -6.758280  -11.378780
  C    -11.282770   -6.778860  -11.807730
  S    -10.290110   -5.827020  -10.708380
  C    -10.695480   -7.376070  -12.898250
  C    -11.251470   -8.163090  -13.917840
  C    -12.522900   -8.700800  -14.202610
  C    -12.534330   -9.459440  -15.429760
  N    -13.663290  -10.057800  -15.880160
  C    -14.717000   -9.917030  -15.133850
  C    -14.723010   -9.186530  -13.911490
  C    -16.000600   -9.119070  -13.126840
  C    -15.916540   -8.293380  -11.851660
  N    -13.643000   -8.588340  -13.466190
  C    -11.313290   -9.503920  -16.061550
  S    -10.136540   -8.637550  -15.184230
  H      1.157280  -10.770120  -10.064800
  H     -2.239250   -7.308070  -11.082580
  H      1.090580  -10.177550   -7.701300
  H     -2.320040   -6.670580   -8.672220
  H     -0.303300   -7.644750   -2.764450
  H     -2.209000   -5.817350   -4.081040
  H     -3.485260   -3.532980    0.023480
  H     -3.502560   -4.387270   -3.828220
  H     -4.653050   -2.612430   -1.636340
  H     -6.134100   -1.812330   -3.281020
  H     -2.834390   -2.551750   -4.938010
  H     -3.446670   -1.966420   -6.491720
  H     -3.805240   -3.603880   -5.965320
  H     -6.225950   -1.932540   -6.630570
  H     -5.209590   -0.515330   -6.367190
  H     -6.630930    0.096100   -4.527130
  H     -8.832340   -0.398710   -4.531440
  H     -8.226090   -2.475780   -6.714640
  H    -10.773490   -1.630760   -5.216420
  H    -12.898840   -2.852320   -6.074980
  H    -13.648690   -4.467010   -7.934070
  H    -13.803020   -5.893650   -9.791450
  H    -13.370460   -7.297700  -11.933820
  H     -9.631080   -7.204410  -13.008950
  H    -15.623800  -10.392820  -15.485190
  H    -16.295370  -10.144910  -12.882600
  H    -16.778720   -8.713100  -13.781080
  H    -15.145930   -8.687920  -11.194740
  H    -16.869530   -8.322770  -11.328230
  H    -15.681360   -7.258070  -12.084380
  H    -11.066940   -9.997960  -16.978560

 Total Charge           Charge          ....    0
 Multiplicity           Mult            ....    1
 Number of Electrons    NEL             ....  468
 Basis Dimension        Dim             .... 1053

ORBITAL ENERGIES
----------------

  NO   OCC          E(Eh)            E(eV)
   0   2.0000     -88.996387     -2421.7148
   1   2.0000     -88.953927     -2420.5594
   2   2.0000     -88.928358     -2419.8636
   3   2.0000     -88.923283     -2419.7256
   4   2.0000     -24.803978      -674.9506
   5   2.0000     -24.803435      -674.9358
   6   2.0000     -19.244470      -523.6687
   7   2.0000     -19.243535      -523.6432
   8   2.0000     -19.243292      -523.6366
   9   2.0000     -14.655590      -398.7989
  10   2.0000     -14.505277      -394.7086
  11   2.0000     -14.447170      -393.1275
  12   2.0000     -14.425959      -392.5503
  13   2.0000     -14.421113      -392.4184
  14   2.0000     -14.407796      -392.0561
  15   2.0000     -14.406609      -392.0238
  16   2.0000     -10.389643      -282.7166
  17   2.0000     -10.388442      -282.6839
  18   2.0000     -10.387951      -282.6705
  19   2.0000     -10.379930      -282.4523
  20   2.0000     -10.377674      -282.3909
  21   2.0000     -10.354395      -281.7574
  22   2.0000     -10.353537      -281.7341
  23   2.0000     -10.348857      -281.6067
  24   2.0000     -10.328197      -281.0445
  25   2.0000     -10.324691      -280.9491
  26   2.0000     -10.324189      -280.9355
  27   2.0000     -10.323339      -280.9123
  28   2.0000     -10.318767      -280.7879
  29   2.0000     -10.318432      -280.7788
  30   2.0000     -10.317701      -280.7589
  31   2.0000     -10.316920      -280.7377
  32   2.0000     -10.314282      -280.6659
  33   2.0000     -10.313945      -280.6567
  34   2.0000     -10.311132      -280.5802
  35   2.0000     -10.308709      -280.5142
  36   2.0000     -10.308512      -280.5089
  37   2.0000     -10.307523      -280.4820
  38   2.0000     -10.306211      -280.4463
  39   2.0000     -10.305800      -280.4351
  40   2.0000     -10.300452      -280.2895
  41   2.0000     -10.296515      -280.1824
  42   2.0000     -10.296466      -280.1811
  43   2.0000     -10.296139      -280.1722
  44   2.0000     -10.295781      -280.1624
  45   2.0000     -10.294624      -280.1310
  46   2.0000     -10.293868      -280.1104
  47   2.0000     -10.291725      -280.0521
  48   2.0000     -10.289779      -279.9991
  49   2.0000     -10.285851      -279.8922
  50   2.0000     -10.284517      -279.8559
  51   2.0000     -10.278188      -279.6837
  52   2.0000     -10.277577      -279.6671
  53   2.0000     -10.277334      -279.6605
  54   2.0000     -10.275202      -279.6025
  55   2.0000     -10.271967      -279.5144
  56   2.0000     -10.268362      -279.4163
  57   2.0000     -10.266791      -279.3736
  58   2.0000     -10.266501      -279.3657
  59   2.0000     -10.265743      -279.3451
  60   2.0000     -10.258009      -279.1346
  61   2.0000     -10.249989      -278.9164
  62   2.0000     -10.247012      -278.8354
  63   2.0000      -8.091495      -220.1808
  64   2.0000      -8.049285      -219.0322
  65   2.0000      -8.024581      -218.3600
  66   2.0000      -8.019807      -218.2300
  67   2.0000      -6.061156      -164.9324
  68   2.0000      -6.056772      -164.8131
  69   2.0000      -6.052983      -164.7100
  70   2.0000      -6.018219      -163.7641
  71   2.0000      -6.014096      -163.6519
  72   2.0000      -6.012223      -163.6009
  73   2.0000      -5.994274      -163.1125
  74   2.0000      -5.990448      -163.0084
  75   2.0000      -5.989525      -162.9833
  76   2.0000      -5.985639      -162.8775
  77   2.0000      -5.985454      -162.8725
  78   2.0000      -5.980629      -162.7412
  79   2.0000      -1.326331       -36.0913
  80   2.0000      -1.323894       -36.0250
  81   2.0000      -1.311509       -35.6880
  82   2.0000      -1.156495       -31.4698
  83   2.0000      -1.142923       -31.1005
  84   2.0000      -1.112424       -30.2706
  85   2.0000      -1.061614       -28.8880
  86   2.0000      -1.046109       -28.4661
  87   2.0000      -1.029295       -28.0085
  88   2.0000      -1.016862       -27.6702
  89   2.0000      -1.013478       -27.5781
  90   2.0000      -1.001887       -27.2627
  91   2.0000      -0.990263       -26.9464
  92   2.0000      -0.986955       -26.8564
  93   2.0000      -0.975702       -26.5502
  94   2.0000      -0.963316       -26.2131
  95   2.0000      -0.951167       -25.8826
  96   2.0000      -0.941421       -25.6174
  97   2.0000      -0.936631       -25.4870
  98   2.0000      -0.920829       -25.0570
  99   2.0000      -0.909026       -24.7359
 100   2.0000      -0.900913       -24.5151
 101   2.0000      -0.894913       -24.3518
 102   2.0000      -0.887555       -24.1516
 103   2.0000      -0.872331       -23.7373
 104   2.0000      -0.869906       -23.6713
 105   2.0000      -0.866380       -23.5754
 106   2.0000      -0.855914       -23.2906
 107   2.0000      -0.849608       -23.1190
 108   2.0000      -0.834564       -22.7096
 109   2.0000      -0.824214       -22.4280
 110   2.0000      -0.823230       -22.4012
 111   2.0000      -0.814714       -22.1695
 112   2.0000      -0.807370       -21.9697
 113   2.0000      -0.799324       -21.7507
 114   2.0000      -0.798612       -21.7313
 115   2.0000      -0.782143       -21.2832
 116   2.0000      -0.779210       -21.2034
 117   2.0000      -0.769728       -20.9454
 118   2.0000      -0.753215       -20.4960
 119   2.0000      -0.748712       -20.3735
 120   2.0000      -0.747960       -20.3530
 121   2.0000      -0.739125       -20.1126
 122   2.0000      -0.725350       -19.7378
 123   2.0000      -0.719349       -19.5745
 124   2.0000      -0.714261       -19.4360
 125   2.0000      -0.696568       -18.9546
 126   2.0000      -0.692045       -18.8315
 127   2.0000      -0.687199       -18.6996
 128   2.0000      -0.674307       -18.3488
 129   2.0000      -0.668411       -18.1884
 130   2.0000      -0.664677       -18.0868
 131   2.0000      -0.663782       -18.0624
 132   2.0000      -0.654977       -17.8228
 133   2.0000      -0.654050       -17.7976
 134   2.0000      -0.649921       -17.6852
 135   2.0000      -0.644833       -17.5468
 136   2.0000      -0.640873       -17.4391
 137   2.0000      -0.639676       -17.4065
 138   2.0000      -0.636429       -17.3181
 139   2.0000      -0.633349       -17.2343
 140   2.0000      -0.618578       -16.8324
 141   2.0000      -0.614937       -16.7333
 142   2.0000      -0.612964       -16.6796
 143   2.0000      -0.606047       -16.4914
 144   2.0000      -0.605596       -16.4791
 145   2.0000      -0.600625       -16.3438
 146   2.0000      -0.592586       -16.1251
 147   2.0000      -0.591241       -16.0885
 148   2.0000      -0.589904       -16.0521
 149   2.0000      -0.583444       -15.8763
 150   2.0000      -0.581640       -15.8272
 151   2.0000      -0.578842       -15.7511
 152   2.0000      -0.569355       -15.4929
 153   2.0000      -0.567885       -15.4529
 154   2.0000      -0.566921       -15.4267
 155   2.0000      -0.561934       -15.2910
 156   2.0000      -0.561328       -15.2745
 157   2.0000      -0.559093       -15.2137
 158   2.0000      -0.552460       -15.0332
 159   2.0000      -0.547681       -14.9032
 160   2.0000      -0.544331       -14.8120
 161   2.0000      -0.541765       -14.7422
 162   2.0000      -0.540942       -14.7198
 163   2.0000      -0.539922       -14.6920
 164   2.0000      -0.539095       -14.6695
 165   2.0000      -0.532732       -14.4964
 166   2.0000      -0.527228       -14.3466
 167   2.0000      -0.524364       -14.2687
 168   2.0000      -0.522577       -14.2200
 169   2.0000      -0.520090       -14.1524
 170   2.0000      -0.512017       -13.9327
 171   2.0000      -0.509148       -13.8546
 172   2.0000      -0.507693       -13.8150
 173   2.0000      -0.503299       -13.6955
 174   2.0000      -0.500318       -13.6143
 175   2.0000      -0.498468       -13.5640
 176   2.0000      -0.498022       -13.5519
 177   2.0000      -0.493335       -13.4243
 178   2.0000      -0.492089       -13.3904
 179   2.0000      -0.487918       -13.2769
 180   2.0000      -0.483138       -13.1469
 181   2.0000      -0.479515       -13.0483
 182   2.0000      -0.478632       -13.0242
 183   2.0000      -0.474775       -12.9193
 184   2.0000      -0.473761       -12.8917
 185   2.0000      -0.472177       -12.8486
 186   2.0000      -0.467982       -12.7344
 187   2.0000      -0.463026       -12.5996
 188   2.0000      -0.457614       -12.4523
 189   2.0000      -0.455713       -12.4006
 190   2.0000      -0.455066       -12.3830
 191   2.0000      -0.453965       -12.3530
 192   2.0000      -0.450873       -12.2689
 193   2.0000      -0.448787       -12.2121
 194   2.0000      -0.447962       -12.1897
 195   2.0000      -0.443556       -12.0698
 196   2.0000      -0.442055       -12.0289
 197   2.0000      -0.441596       -12.0165
 198   2.0000      -0.436587       -11.8801
 199   2.0000      -0.435103       -11.8397
 200   2.0000      -0.434835       -11.8325
 201   2.0000      -0.434827       -11.8322
 202   2.0000      -0.427754       -11.6398
 203   2.0000      -0.422910       -11.5080
 204   2.0000      -0.417606       -11.3637
 205   2.0000      -0.415933       -11.3181
 206   2.0000      -0.414835       -11.2882
 207   2.0000      -0.413573       -11.2539
 208   2.0000      -0.409861       -11.1529
 209   2.0000      -0.406215       -11.0537
 210   2.0000      -0.403850       -10.9893
 211   2.0000      -0.401955       -10.9377
 212   2.0000      -0.392189       -10.6720
 213   2.0000      -0.391491       -10.6530
 214   2.0000      -0.383649       -10.4396
 215   2.0000      -0.383294       -10.4300
 216   2.0000      -0.377762       -10.2794
 217   2.0000      -0.372703       -10.1418
 218   2.0000      -0.366719        -9.9789
 219   2.0000      -0.366072        -9.9613
 220   2.0000      -0.361172        -9.8280
 221   2.0000      -0.352245        -9.5851
 222   2.0000      -0.341238        -9.2856
 223   2.0000      -0.328072        -8.9273
 224   2.0000      -0.319944        -8.7061
 225   2.0000      -0.316861        -8.6222
 226   2.0000      -0.305244        -8.3061
 227   2.0000      -0.305044        -8.3007
 228   2.0000      -0.304633        -8.2895
 229   2.0000      -0.302963        -8.2440
 230   2.0000      -0.293506        -7.9867
 231   2.0000      -0.272958        -7.4276
 232   2.0000      -0.248001        -6.7485
 233   2.0000      -0.184239        -5.0134
 234   0.0000      -0.098479        -2.6797
 235   0.0000      -0.077205        -2.1008
 236   0.0000      -0.062914        -1.7120
 237   0.0000      -0.054242        -1.4760
 238   0.0000      -0.033457        -0.9104

MULLIKEN ATOMIC CHARGES
-----------------------
   0 C :   -0.109856
   1 C :    0.246996
   2 F :   -0.169122
   3 C :    0.241224
   4 F :   -0.170246
   5 C :   -0.107323
   6 C :    0.115146
   7 C :    0.115594
   8 C :   -0.084231
   9 C :    0.042119
  10 C :    0.007791
  11 C :   -0.079965
  12 C :    0.175391
  13 O :   -0.230098
  14 C :   -0.135913
  15 C :    0.333866
  16 C :   -0.342230
  17 C :   -0.180866
  18 N :    0.149000
  19 C :   -0.199708
  20 N :    0.148261
  21 C :    0.034632
  22 N :   -0.003656
  23 C :   -0.126305
  24 S :    0.180962
  25 C :    0.002895
  26 N :    0.276548
  27 O :   -0.247443
  28 O :   -0.255605
  29 C :    0.003119
  30 C :    0.134331
  31 C :   -0.040671
  32 C :    0.017490
  33 C :    0.012493
  34 C :   -0.218876
  35 C :    0.074866
  36 C :    0.207094
  37 N :   -0.148857
  38 C :    0.066508
  39 C :   -0.055685
  40 C :   -0.004722
  41 C :   -0.041950
  42 C :    0.040412
  43 C :    0.013514
  44 C :   -0.039484
  45 S :    0.047894
  46 C :   -0.047384
  47 C :    0.011646
  48 C :    0.052933
  49 C :   -0.065153
  50 S :    0.060723
  51 C :    0.052487
  52 C :   -0.196132
  53 C :    0.084532
  54 C :    0.021607
  55 N :    0.003832
  56 C :    0.004542
  57 C :   -0.114734
  58 C :    0.024130
  59 C :    0.045670
  60 N :   -0.021327
  61 C :   -0.143511
  62 S :    0.137777
  63 H :    0.009996
  64 H :    0.002452
  65 H :   -0.003241
  66 H :   -0.010481
  67 H :    0.046800
  68 H :    0.183917
  69 H :    0.013242
  70 H :   -0.016626
  71 H :   -0.012598
  72 H :   -0.028304
  73 H :    0.029548
  74 H :    0.007316
  75 H :    0.058721
  76 H :    0.042613
  77 H :    0.025760
  78 H :    0.126569
  79 H :    0.003039
  80 H :   -0.006992
  81 H :   -0.024420
  82 H :   -0.022063
  83 H :   -0.021644
  84 H :   -0.025638
  85 H :   -0.054192
  86 H :   -0.032218
  87 H :   -0.008026
  88 H :    0.022038
  89 H :    0.020595
  90 H :    0.028511
  91 H :    0.001654
  92 H :    0.028560
  93 H :    0.008142
Sum of atomic charges:   -0.0000000

LOEWDIN ATOMIC CHARGES
----------------------
   0 C :   -0.027755
   1 C :    0.069627
   2 F :   -0.047216
   3 C :    0.069753
   4 F :   -0.048238
   5 C :   -0.031594
   6 C :   -0.010005
   7 C :   -0.005684
   8 C :    0.020920
   9 C :   -0.020512
  10 C :   -0.052911
  11 C :    0.032905
  12 C :    0.098805
  13 O :   -0.184376
  14 C :   -0.146490
  15 C :    0.078376
  16 C :   -0.147748
  17 C :   -0.019166
  18 N :   -0.052998
  19 C :   -0.021086
  20 N :   -0.051882
  21 C :    0.116400
  22 N :    0.084426
  23 C :   -0.118103
  24 S :    0.472685
  25 C :   -0.198003
  26 N :    0.274683
  27 O :   -0.214711
  28 O :   -0.221997
  29 C :    0.003291
  30 C :   -0.078908
  31 C :   -0.037178
  32 C :   -0.010130
  33 C :   -0.066896
  34 C :   -0.019380
  35 C :   -0.052537
  36 C :    0.043709
  37 N :    0.004920
  38 C :    0.043953
  39 C :   -0.128416
  40 C :   -0.033322
  41 C :   -0.177502
  42 C :   -0.029525
  43 C :   -0.051680
  44 C :   -0.169398
  45 S :    0.350454
  46 C :   -0.198042
  47 C :   -0.029975
  48 C :   -0.050153
  49 C :   -0.131229
  50 S :    0.352585
  51 C :   -0.106275
  52 C :   -0.168096
  53 C :   -0.058426
  54 C :   -0.059126
  55 N :   -0.037711
  56 C :    0.000115
  57 C :   -0.013389
  58 C :   -0.041952
  59 C :   -0.051283
  60 N :   -0.041110
  61 C :   -0.213969
  62 S :    0.476738
  63 H :    0.048779
  64 H :    0.045670
  65 H :    0.041440
  66 H :    0.040403
  67 H :    0.037125
  68 H :    0.084068
  69 H :    0.045008
  70 H :    0.028697
  71 H :    0.027687
  72 H :    0.021358
  73 H :    0.036866
  74 H :    0.028287
  75 H :    0.042837
  76 H :    0.042165
  77 H :    0.032379
  78 H :    0.078824
  79 H :    0.028675
  80 H :    0.016780
  81 H :    0.028907
  82 H :    0.029745
  83 H :    0.028387
  84 H :    0.027184
  85 H :    0.021764
  86 H :    0.021942
  87 H :    0.020899
  88 H :    0.035768
  89 H :    0.034724
  90 H :    0.028872
  91 H :    0.024488
  92 H :    0.026972
  93 H :    0.025040

  Mayer bond orders larger than 0.100000
B(  0-C ,  1-C ) :   1.4335 B(  0-C ,  5-C ) :   0.1078 B(  0-C ,  7-C ) :   1.1936
B(  0-C , 63-H ) :   1.0080 B(  1-C ,  2-F ) :   1.1379 B(  1-C ,  3-C ) :   1.1935
B(  3-C ,  4-F ) :   1.1358 B(  3-C ,  5-C ) :   1.4388 B(  5-C ,  6-C ) :   1.1939
B(  5-C , 64-H ) :   1.0075 B(  6-C ,  7-C ) :   1.2592 B(  6-C , 11-C ) :   1.1832
B(  7-C ,  8-C ) :   1.2059 B(  8-C ,  9-C ) :   1.4661 B(  8-C , 65-H ) :   0.9900
B(  9-C , 10-C ) :   1.2195 B(  9-C , 15-C ) :   0.9872 B( 10-C , 11-C ) :   1.4678
B( 10-C , 12-C ) :   0.9815 B( 11-C , 66-H ) :   1.0190 B( 12-C , 13-O ) :   2.0058
B( 12-C , 14-C ) :   1.0160 B( 13-O , 68-H ) :   0.1462 B( 14-C , 15-C ) :   1.1011
B( 14-C , 21-C ) :   1.4320 B( 15-C , 16-C ) :   1.6277 B( 16-C , 17-C ) :   1.1476
B( 16-C , 19-C ) :   1.1483 B( 17-C , 18-N ) :   2.9592 B( 19-C , 20-N ) :   2.9536
B( 21-C , 22-N ) :   1.3533 B( 21-C , 67-H ) :   0.9321 B( 22-N , 23-C ) :   1.1899
B( 22-N , 68-H ) :   0.8229 B( 23-C , 24-S ) :   1.1327 B( 23-C , 30-C ) :   1.3776
B( 24-S , 25-C ) :   1.0858 B( 25-C , 26-N ) :   0.9673 B( 25-C , 29-C ) :   1.5019
B( 26-N , 27-O ) :   1.5304 B( 26-N , 28-O ) :   1.5144 B( 27-O , 28-O ) :   0.2641
B( 29-C , 30-C ) :   1.2207 B( 29-C , 69-H ) :   0.9993 B( 30-C , 31-C ) :   1.0697
B( 31-C , 32-C ) :   1.7667 B( 31-C , 70-H ) :   0.9645 B( 32-C , 33-C ) :   1.0878
B( 32-C , 71-H ) :   0.9601 B( 33-C , 34-C ) :   1.8462 B( 33-C , 72-H ) :   0.9329
B( 34-C , 35-C ) :   1.0852 B( 34-C , 36-C ) :   1.0101 B( 35-C , 73-H ) :   0.9417
B( 35-C , 74-H ) :   0.9472 B( 35-C , 75-H ) :   0.9371 B( 36-C , 37-N ) :   1.0228
B( 36-C , 76-H ) :   0.9238 B( 36-C , 77-H ) :   0.9319 B( 37-N , 38-C ) :   1.2108
B( 37-N , 78-H ) :   0.9375 B( 38-C , 39-C ) :   1.6242 B( 38-C , 79-H ) :   0.9648
B( 39-C , 40-C ) :   1.1676 B( 39-C , 80-H ) :   0.9615 B( 40-C , 41-C ) :   1.5839
B( 40-C , 81-H ) :   0.9793 B( 41-C , 42-C ) :   1.1485 B( 41-C , 45-S ) :   1.0069
B( 42-C , 43-C ) :   1.5836 B( 42-C , 82-H ) :   0.9970 B( 43-C , 44-C ) :   1.1955
B( 43-C , 83-H ) :   0.9933 B( 44-C , 45-S ) :   1.0521 B( 44-C , 46-C ) :   1.4863
B( 46-C , 47-C ) :   1.1986 B( 46-C , 50-S ) :   1.0338 B( 47-C , 48-C ) :   1.5588
B( 47-C , 84-H ) :   0.9945 B( 48-C , 49-C ) :   1.2037 B( 48-C , 85-H ) :   0.9544
B( 49-C , 50-S ) :   1.0401 B( 49-C , 51-C ) :   1.5602 B( 51-C , 52-C ) :   1.2323
B( 51-C , 86-H ) :   0.9177 B( 52-C , 53-C ) :   1.2823 B( 52-C , 61-C ) :   0.1136
B( 52-C , 62-S ) :   1.1912 B( 53-C , 54-C ) :   1.1868 B( 53-C , 60-N ) :   1.3749
B( 54-C , 55-N ) :   1.3474 B( 54-C , 61-C ) :   1.4262 B( 55-N , 56-C ) :   1.7635
B( 56-C , 57-C ) :   1.1551 B( 56-C , 87-H ) :   0.9780 B( 57-C , 58-C ) :   0.9999
B( 57-C , 60-N ) :   1.6956 B( 58-C , 59-C ) :   1.1366 B( 58-C , 88-H ) :   0.9303
B( 58-C , 89-H ) :   0.9310 B( 59-C , 90-H ) :   0.9611 B( 59-C , 91-H ) :   0.9543
B( 59-C , 92-H ) :   0.9609 B( 60-N , 85-H ) :   0.1009 B( 61-C , 62-S ) :   1.1636
B( 61-C , 93-H ) :   0.9774

-----------------------------------------------------------------------------
         ABSORPTION SPECTRUM VIA TRANSITION ELECTRIC DIPOLE MOMENTS
-----------------------------------------------------------------------------
State   Energy  Wavelength   fosc         T2         TX        TY        TZ
        (cm-1)    (nm)                  (au**2)     (au)      (au)      (au)
-----------------------------------------------------------------------------
   0    9900.0   1010.1   0.000428828   0.01426  -0.09898   0.01260  -0.06561
   1   13267.6    753.7   1.210620815  30.03930  -1.52835  -3.20193  -4.17745
   2   14073.6    710.5   0.000012947   0.00030  -0.00509  -0.00868  -0.01420
   3   19595.6    510.3   0.000878225   0.01475   0.06162   0.02736   0.10104
   4   20223.8    494.5   0.176814280   2.87827   0.92073   0.88877   1.11383
   5   21300.1    469.5   0.992115299  15.33403   1.30922  -2.43518  -2.77306
   6   21915.1    456.3   0.013961012   0.20972  -0.15110   0.19911   0.38373
   7   23952.1    417.5   0.009447437   0.12985   0.09750  -0.20689  -0.27847
   8   24700.4    404.9   0.037738457   0.50299   0.62814   0.27838   0.17587
   9   25450.5    392.9   0.080483951   1.04109  -0.43929   0.24812  -0.88688
  10   28034.8    356.7   0.001709035   0.02007   0.02260  -0.00212   0.13984
  11   28620.5    349.4   0.000963666   0.01108   0.08701  -0.05500   0.02211
  12   28682.0    348.7   0.022999024   0.26398  -0.36545   0.31726  -0.17255
  13   28762.7    347.7   0.004263296   0.04880  -0.04391   0.19484  -0.09438
  14   29255.9    341.8   0.071765105   0.80756   0.89194   0.09226  -0.05913
  15   29696.6    336.7   0.083808090   0.92908   0.17264   0.03506   0.94765
  16   30295.6    330.1   0.120185418   1.30601   0.44934  -0.84594  -0.62328
  17   30957.2    323.0   0.011393150   0.12116   0.12278   0.05280   0.32140
  18   31002.8    322.6   0.549326725   5.83317   0.31939   0.07181   2.39291
  19   33000.0    303.0   0.085281671   0.85078  -0.90652  -0.08464   0.14781
  20   33284.9    300.4   0.000675946   0.00669  -0.01968  -0.00578  -0.07915
  21   33313.2    300.2   0.026305511   0.25996  -0.33795   0.12536   0.36060
  22   33374.3    299.6   0.000535956   0.00529  -0.03345   0.03575  -0.05376
  23   33613.6    297.5   0.001009065   0.00988  -0.07152  -0.02575  -0.06406
  24   33843.9    295.5   0.028345770   0.27573  -0.17843   0.01248  -0.49370
  25   33929.9    294.7   0.687097478   6.66670  -0.76739   0.15076  -2.46071
  26   34282.8    291.7   0.005791665   0.05562   0.19536  -0.01720  -0.13098
  27   34484.9    290.0   0.067102870   0.64060   0.35033  -0.08149   0.71500
  28   35401.7    282.5   0.043657577   0.40599  -0.58513  -0.25069   0.02769
  29   35868.6    278.8   0.128307842   1.17764  -0.57537   0.56613  -0.72532
  30   36123.4    276.8   0.041874996   0.38163  -0.39032   0.29112  -0.38017
  31   36344.3    275.1   0.008757175   0.07932  -0.16405   0.14677  -0.17569
  32   36453.0    274.3   0.674808118   6.09428   1.46451  -1.37818   1.43183
  33   36719.2    272.3   0.004237795   0.03799  -0.11800   0.09468  -0.12291
  34   36926.1    270.8   0.001753709   0.01564  -0.07592   0.07868   0.06067
  35   37080.7    269.7   0.177341836   1.57449   0.47493  -0.70863  -0.92020
  36   37230.3    268.6   0.082004196   0.72513  -0.05639  -0.67432  -0.51695
  37   37856.6    264.2   0.000412254   0.00359   0.01005  -0.01228   0.05774
  38   37926.0    263.7   0.000855687   0.00743  -0.06347   0.05698  -0.01232
  39   38054.0    262.8   0.000004086   0.00004   0.00005  -0.00593   0.00047
  40   38080.4    262.6   0.000278946   0.00241  -0.03686   0.03071  -0.01048
  41   38144.6    262.2   0.000032417   0.00028   0.00335  -0.01088   0.01225
  42   38310.1    261.0   0.000022120   0.00019   0.00879  -0.00682  -0.00815
  43   38475.6    259.9   0.002530040   0.02165   0.08187  -0.10331   0.06535
  44   38935.9    256.8   0.011482304   0.09709   0.07416  -0.02482   0.30161
  45   39607.3    252.5   0.197512834   1.64171  -1.24065  -0.18933   0.25818
  46   39638.0    252.3   0.030889950   0.25656   0.49688   0.02721  -0.09448
  47   39734.0    251.7   0.000621724   0.00515   0.04669   0.04333  -0.03308
  48   40052.8    249.7   0.133233822   1.09511   0.52575  -0.87266  -0.23910
  49   40313.4    248.1   0.001512705   0.01235   0.08026  -0.02835  -0.07147

FINAL SINGLE POINT ENERGY     -4207.103004951104

DIPOLE MOMENT
-------------
                                X             Y             Z
Electronic contribution:     73.46088     -37.44913      -2.17858
Nuclear contribution   :    -74.56300      40.40271       1.65353
                        -----------------------------------------
Total Dipole Moment    :     -1.10212       2.95358      -0.52505
                        -----------------------------------------
Magnitude (a.u.)       :      3.19593
Magnitude (Debye)      :      8.12340

Rotational constants in cm-1:     0.000998     0.000411     0.000314
Rotational constants in MHz :    29.932709    12.336324     9.426931

                             ****ORCA TERMINATED NORMALLY****
TOTAL RUN TIME: 0 days 0 hours 8 minutes 0 seconds 568 msec
