                         Program Version 4.2.0 -  RELEASE  -
|  1> # ORCA input file
|  2> # SCF done       -194.363635340477          0.000711061798
|  3> ! CAM-B3LYP def2-SVP def2/J RIJCOSX Grid4 TightSCF
|  4> %maxcore 5000
|  5> %tddft
|  6>     Mode sTDDFT
|  7>     Ethresh 5.0
|  8>     maxcore 5000
|  9> end
| 10>
| 11> %pal
| 12>   nprocs 6
| 13>   end
| 14> * xyz 0 1
| 15>    C       -3.79195         2.52854         3.83443
| 16>    C       -2.92862         2.96093         4.80191
| 17>    F       -2.75502         4.27236         5.01590
| 18>    C       -2.21081         2.03713         5.58692
| 19>    F       -1.36947         2.48695         6.53015
| 20>    C       -2.36342         0.69340         5.39050
| 21>    C       -3.24158         0.21695         4.39889
| 22>    C       -3.97358         1.14930         3.60812
| 23>    C       -4.87021         0.69495         2.61373
| 24>    C       -5.01473        -0.65108         2.40772
| 25>    C       -4.24827        -1.57254         3.17349
| 26>    C       -3.39385        -1.16584         4.15582
| 27>    C       -4.52802        -2.94213         2.70500
| 28>    O       -4.03234        -3.96398         3.14775
| 29>    C       -5.52766        -2.80962         1.64063
| 30>    C       -5.85344        -1.40678         1.48153
| 31>    C       -6.78709        -0.85397         0.64174
| 32>    C       -7.61463        -1.55649        -0.25594
| 33>    N       -8.32763        -2.03991        -1.01771
| 34>    C       -7.09712         0.52185         0.58284
| 35>    N       -7.44234         1.61268         0.49164
| 36>    C       -6.09097        -3.83762         0.92530
| 37>    C       -5.78211        -5.20196         0.90017
| 38>    S       -4.51283        -5.97315         1.80635
| 39>    C       -4.78798        -7.47125         0.99415
| 40>    C       -5.81477        -7.38789         0.06505
| 41>    C       -6.38606        -6.11470         0.02084
| 42>    C       -7.47179        -5.73222        -0.93255
| 43>    C       -8.00202        -6.92868        -1.73632
| 44>    C       -8.95753        -7.67470        -0.95106
| 45>    N       -9.69174        -8.27797        -0.31576
| 46>    C       -6.84956        -7.86994        -2.14741
| 47>    C       -5.85772        -7.15511        -2.92151
| 48>    N       -5.05506        -6.62371        -3.53553
| 49>    C       -6.20734        -8.47420        -0.88881
| 50>    C       -3.85512        -8.52902         1.30173
| 51>    C       -4.05078        -9.83379         1.51516
| 52>    C       -5.38136       -10.51488         1.52561
| 53>    C       -2.87998       -10.75172         1.82811
| 54>    N       -1.59377       -10.10035         1.77854
| 55>    C       -1.14907        -9.36677         2.83245
| 56>    C       -0.54143        -8.15918         2.70665
| 57>    C       -0.09840        -7.35110         3.77260
| 58>    C       -0.01854        -5.98603         3.65648
| 59>    C        0.42534        -5.03360         4.60300
| 60>    C        0.25683        -3.73772         4.21026
| 61>    C       -0.36459        -3.60275         2.94993
| 62>    S       -0.65119        -5.15710         2.23608
| 63>    C       -0.80955        -2.44927         2.31702
| 64>    C       -0.61069        -1.10200         2.65741
| 65>    C       -1.28067        -0.22550         1.84422
| 66>    C       -2.05460        -0.84740         0.84650
| 67>    S       -1.85476        -2.57999         0.92103
| 68>    C       -2.94104        -0.25492        -0.04180
| 69>    C       -3.71441        -1.01235        -0.90559
| 70>    C       -4.71913        -0.53587        -1.72995
| 71>    C       -5.57101        -1.32167        -2.57505
| 72>    C       -5.57685        -2.69455        -2.71278
| 73>    C       -6.49378        -3.41238        -3.50181
| 74>    N       -7.22221        -4.08939        -4.07996
| 75>    C       -4.74601        -3.59069        -2.01697
| 76>    N       -4.15268        -4.39950        -1.45214
| 77>    C       -6.50459        -0.41052        -3.23264
| 78>    C       -6.24542         0.90715        -2.78275
| 79>    C       -5.11484         0.87885        -1.82965
| 80>    O       -4.63078         1.83161        -1.24795
| 81>    C       -6.98199         1.98790        -3.19597
| 82>    C       -8.01993         1.75829        -4.10703
| 83>    C       -8.26503         0.44065        -4.55547
| 84>    C       -7.52311        -0.65540        -4.13097
| 85>    S       -9.58856         0.38346        -5.68003
| 86>    C       -9.78967         2.10898        -5.53532
| 87>    C       -8.91509         2.69894        -4.68750
| 88>   Br      -11.13391         2.96871        -6.52124
| 89>    H       -4.33455         3.24797         3.24133
| 90>    H       -1.80798        -0.00180         6.00050
| 91>    H       -5.40991         1.42398         2.03122
| 92>    H       -2.83594        -1.88824         4.73261
| 93>    H       -6.87361        -3.55795         0.23257
| 94>    H       -7.07703        -5.00008        -1.64241
| 95>    H       -8.30158        -5.25586        -0.40171
| 96>    H       -8.51294        -6.55109        -2.63003
| 97>    H       -7.24365        -8.67575        -2.77988
| 98>    H       -5.32560        -9.06118        -1.15602
| 99>    H       -6.93646        -9.14640        -0.42689
|100>    H       -2.86082        -8.12834         1.44160
|101>    H       -5.42805       -11.22627         2.34844
|102>    H       -5.54290       -11.07236         0.60312
|103>    H       -6.18157        -9.79168         1.64616
|104>    H       -2.88114       -11.58042         1.11103
|105>    H       -3.01346       -11.17688         2.82781
|106>    H       -1.38435        -9.69951         0.87129
|107>    H       -1.34055        -9.79662         3.80643
|108>    H       -0.47933        -7.71834         1.71820
|109>    H        0.12112        -7.80379         4.72958
|110>    H        0.85337        -5.33289         5.54368
|111>    H        0.53089        -2.88268         4.80224
|112>    H        0.01970        -0.80322         3.47610
|113>    H       -1.25410         0.84449         1.94989
|114>    H       -3.05490         0.81856        -0.02099
|115>    H       -3.52898        -2.08009        -0.90719
|116>    H       -6.77006         2.97785        -2.82447
|117>    H       -7.75295        -1.64229        -4.49569
|118>    H       -8.89859         3.75301        -4.47832
|119> *
|120>
|121>                          ****END OF INPUT****

CARTESIAN COORDINATES (ANGSTROEM)
---------------------------------
  C     -3.791950    2.528540    3.834430
  C     -2.928620    2.960930    4.801910
  F     -2.755020    4.272360    5.015900
  C     -2.210810    2.037130    5.586920
  F     -1.369470    2.486950    6.530150
  C     -2.363420    0.693400    5.390500
  C     -3.241580    0.216950    4.398890
  C     -3.973580    1.149300    3.608120
  C     -4.870210    0.694950    2.613730
  C     -5.014730   -0.651080    2.407720
  C     -4.248270   -1.572540    3.173490
  C     -3.393850   -1.165840    4.155820
  C     -4.528020   -2.942130    2.705000
  O     -4.032340   -3.963980    3.147750
  C     -5.527660   -2.809620    1.640630
  C     -5.853440   -1.406780    1.481530
  C     -6.787090   -0.853970    0.641740
  C     -7.614630   -1.556490   -0.255940
  N     -8.327630   -2.039910   -1.017710
  C     -7.097120    0.521850    0.582840
  N     -7.442340    1.612680    0.491640
  C     -6.090970   -3.837620    0.925300
  C     -5.782110   -5.201960    0.900170
  S     -4.512830   -5.973150    1.806350
  C     -4.787980   -7.471250    0.994150
  C     -5.814770   -7.387890    0.065050
  C     -6.386060   -6.114700    0.020840
  C     -7.471790   -5.732220   -0.932550
  C     -8.002020   -6.928680   -1.736320
  C     -8.957530   -7.674700   -0.951060
  N     -9.691740   -8.277970   -0.315760
  C     -6.849560   -7.869940   -2.147410
  C     -5.857720   -7.155110   -2.921510
  N     -5.055060   -6.623710   -3.535530
  C     -6.207340   -8.474200   -0.888810
  C     -3.855120   -8.529020    1.301730
  C     -4.050780   -9.833790    1.515160
  C     -5.381360  -10.514880    1.525610
  C     -2.879980  -10.751720    1.828110
  N     -1.593770  -10.100350    1.778540
  C     -1.149070   -9.366770    2.832450
  C     -0.541430   -8.159180    2.706650
  C     -0.098400   -7.351100    3.772600
  C     -0.018540   -5.986030    3.656480
  C      0.425340   -5.033600    4.603000
  C      0.256830   -3.737720    4.210260
  C     -0.364590   -3.602750    2.949930
  S     -0.651190   -5.157100    2.236080
  C     -0.809550   -2.449270    2.317020
  C     -0.610690   -1.102000    2.657410
  C     -1.280670   -0.225500    1.844220
  C     -2.054600   -0.847400    0.846500
  S     -1.854760   -2.579990    0.921030
  C     -2.941040   -0.254920   -0.041800
  C     -3.714410   -1.012350   -0.905590
  C     -4.719130   -0.535870   -1.729950
  C     -5.571010   -1.321670   -2.575050
  C     -5.576850   -2.694550   -2.712780
  C     -6.493780   -3.412380   -3.501810
  N     -7.222210   -4.089390   -4.079960
  C     -4.746010   -3.590690   -2.016970
  N     -4.152680   -4.399500   -1.452140
  C     -6.504590   -0.410520   -3.232640
  C     -6.245420    0.907150   -2.782750
  C     -5.114840    0.878850   -1.829650
  O     -4.630780    1.831610   -1.247950
  C     -6.981990    1.987900   -3.195970
  C     -8.019930    1.758290   -4.107030
  C     -8.265030    0.440650   -4.555470
  C     -7.523110   -0.655400   -4.130970
  S     -9.588560    0.383460   -5.680030
  C     -9.789670    2.108980   -5.535320
  C     -8.915090    2.698940   -4.687500
  Br   -11.133910    2.968710   -6.521240
  H     -4.334550    3.247970    3.241330
  H     -1.807980   -0.001800    6.000500
  H     -5.409910    1.423980    2.031220
  H     -2.835940   -1.888240    4.732610
  H     -6.873610   -3.557950    0.232570
  H     -7.077030   -5.000080   -1.642410
  H     -8.301580   -5.255860   -0.401710
  H     -8.512940   -6.551090   -2.630030
  H     -7.243650   -8.675750   -2.779880
  H     -5.325600   -9.061180   -1.156020
  H     -6.936460   -9.146400   -0.426890
  H     -2.860820   -8.128340    1.441600
  H     -5.428050  -11.226270    2.348440
  H     -5.542900  -11.072360    0.603120
  H     -6.181570   -9.791680    1.646160
  H     -2.881140  -11.580420    1.111030
  H     -3.013460  -11.176880    2.827810
  H     -1.384350   -9.699510    0.871290
  H     -1.340550   -9.796620    3.806430
  H     -0.479330   -7.718340    1.718200
  H      0.121120   -7.803790    4.729580
  H      0.853370   -5.332890    5.543680
  H      0.530890   -2.882680    4.802240
  H      0.019700   -0.803220    3.476100
  H     -1.254100    0.844490    1.949890
  H     -3.054900    0.818560   -0.020990
  H     -3.528980   -2.080090   -0.907190
  H     -6.770060    2.977850   -2.824470
  H     -7.752950   -1.642290   -4.495690
  H     -8.898590    3.753010   -4.478320

 Total Charge           Charge          ....    0
 Multiplicity           Mult            ....    1
 Number of Electrons    NEL             ....  560
 Basis Dimension        Dim             .... 1220

ORBITAL ENERGIES
----------------

  NO   OCC          E(Eh)            E(eV)
   0   2.0000    -482.867806    -13139.5010
   1   2.0000     -88.963239     -2420.8128
   2   2.0000     -88.956960     -2420.6420
   3   2.0000     -88.954381     -2420.5718
   4   2.0000     -88.953991     -2420.5611
   5   2.0000     -62.545558     -1701.9512
   6   2.0000     -56.379478     -1534.1636
   7   2.0000     -56.376815     -1534.0911
   8   2.0000     -56.376769     -1534.0899
   9   2.0000     -24.796484      -674.7466
  10   2.0000     -24.793179      -674.6567
  11   2.0000     -19.211389      -522.7685
  12   2.0000     -19.188553      -522.1471
  13   2.0000     -14.460462      -393.4892
  14   2.0000     -14.411817      -392.1655
  15   2.0000     -14.407211      -392.0401
  16   2.0000     -14.404219      -391.9587
  17   2.0000     -14.398114      -391.7926
  18   2.0000     -14.395714      -391.7273
  19   2.0000     -14.392595      -391.6424
  20   2.0000     -10.378032      -282.4006
  21   2.0000     -10.376060      -282.3469
  22   2.0000     -10.361544      -281.9519
  23   2.0000     -10.348395      -281.5941
  24   2.0000     -10.338456      -281.3237
  25   2.0000     -10.338104      -281.3141
  26   2.0000     -10.337498      -281.2976
  27   2.0000     -10.337294      -281.2921
  28   2.0000     -10.331725      -281.1405
  29   2.0000     -10.331107      -281.1237
  30   2.0000     -10.330698      -281.1126
  31   2.0000     -10.328268      -281.0465
  32   2.0000     -10.320686      -280.8401
  33   2.0000     -10.318106      -280.7699
  34   2.0000     -10.316760      -280.7333
  35   2.0000     -10.315509      -280.6993
  36   2.0000     -10.315033      -280.6863
  37   2.0000     -10.313977      -280.6576
  38   2.0000     -10.313808      -280.6530
  39   2.0000     -10.310139      -280.5532
  40   2.0000     -10.309352      -280.5317
  41   2.0000     -10.308169      -280.4995
  42   2.0000     -10.307256      -280.4747
  43   2.0000     -10.306026      -280.4412
  44   2.0000     -10.305678      -280.4318
  45   2.0000     -10.303743      -280.3791
  46   2.0000     -10.303368      -280.3689
  47   2.0000     -10.302536      -280.3462
  48   2.0000     -10.301510      -280.3183
  49   2.0000     -10.301159      -280.3088
  50   2.0000     -10.301070      -280.3064
  51   2.0000     -10.299953      -280.2760
  52   2.0000     -10.298165      -280.2273
  53   2.0000     -10.298073      -280.2248
  54   2.0000     -10.297807      -280.2176
  55   2.0000     -10.296185      -280.1735
  56   2.0000     -10.296123      -280.1718
  57   2.0000     -10.295886      -280.1653
  58   2.0000     -10.295583      -280.1571
  59   2.0000     -10.294903      -280.1385
  60   2.0000     -10.292044      -280.0608
  61   2.0000     -10.290471      -280.0180
  62   2.0000     -10.289426      -279.9895
  63   2.0000     -10.288421      -279.9622
  64   2.0000     -10.288406      -279.9618
  65   2.0000     -10.286981      -279.9230
  66   2.0000     -10.286559      -279.9115
  67   2.0000     -10.284843      -279.8648
  68   2.0000     -10.284602      -279.8582
  69   2.0000     -10.284355      -279.8515
  70   2.0000     -10.282754      -279.8080
  71   2.0000     -10.280950      -279.7589
  72   2.0000     -10.279574      -279.7214
  73   2.0000     -10.275947      -279.6227
  74   2.0000     -10.274834      -279.5924
  75   2.0000     -10.265092      -279.3274
  76   2.0000     -10.264297      -279.3057
  77   2.0000     -10.263053      -279.2719
  78   2.0000      -8.775008      -238.7801
  79   2.0000      -8.059528      -219.3109
  80   2.0000      -8.051798      -219.1006
  81   2.0000      -8.049924      -219.0496
  82   2.0000      -8.048215      -219.0031
  83   2.0000      -6.611199      -179.8999
  84   2.0000      -6.596772      -179.5073
  85   2.0000      -6.596642      -179.5038
  86   2.0000      -6.029106      -164.0603
  87   2.0000      -6.025032      -163.9494
  88   2.0000      -6.021348      -163.8492
  89   2.0000      -6.020700      -163.8316
  90   2.0000      -6.019630      -163.8024
  91   2.0000      -6.017565      -163.7463
  92   2.0000      -6.017288      -163.7387
  93   2.0000      -6.015362      -163.6863
  94   2.0000      -6.013306      -163.6304
  95   2.0000      -6.013001      -163.6221
  96   2.0000      -6.011162      -163.5720
  97   2.0000      -6.010497      -163.5539
  98   2.0000      -2.727106       -74.2083
  99   2.0000      -2.723045       -74.0978
 100   2.0000      -2.722911       -74.0942
 101   2.0000      -2.711464       -73.7827
 102   2.0000      -2.711454       -73.7824
 103   2.0000      -1.317510       -35.8513
 104   2.0000      -1.302494       -35.4427
 105   2.0000      -1.126809       -30.6620
 106   2.0000      -1.101574       -29.9754
 107   2.0000      -1.065213       -28.9859
 108   2.0000      -1.013631       -27.5823
 109   2.0000      -1.011500       -27.5243
 110   2.0000      -1.010302       -27.4917
 111   2.0000      -1.000006       -27.2116
 112   2.0000      -0.997978       -27.1564
 113   2.0000      -0.993135       -27.0246
 114   2.0000      -0.991258       -26.9735
 115   2.0000      -0.986493       -26.8438
 116   2.0000      -0.985994       -26.8303
 117   2.0000      -0.984834       -26.7987
 118   2.0000      -0.974749       -26.5243
 119   2.0000      -0.973583       -26.4925
 120   2.0000      -0.964947       -26.2575
 121   2.0000      -0.946462       -25.7545
 122   2.0000      -0.934208       -25.4211
 123   2.0000      -0.925609       -25.1871
 124   2.0000      -0.921721       -25.0813
 125   2.0000      -0.916660       -24.9436
 126   2.0000      -0.899913       -24.4879
 127   2.0000      -0.896872       -24.4051
 128   2.0000      -0.888161       -24.1681
 129   2.0000      -0.885325       -24.0909
 130   2.0000      -0.883259       -24.0347
 131   2.0000      -0.871780       -23.7223
 132   2.0000      -0.865309       -23.5462
 133   2.0000      -0.861601       -23.4453
 134   2.0000      -0.858149       -23.3514
 135   2.0000      -0.856561       -23.3082
 136   2.0000      -0.851362       -23.1667
 137   2.0000      -0.834764       -22.7151
 138   2.0000      -0.832792       -22.6614
 139   2.0000      -0.830685       -22.6041
 140   2.0000      -0.822953       -22.3937
 141   2.0000      -0.805840       -21.9280
 142   2.0000      -0.804225       -21.8841
 143   2.0000      -0.798254       -21.7216
 144   2.0000      -0.778670       -21.1887
 145   2.0000      -0.773427       -21.0460
 146   2.0000      -0.761250       -20.7147
 147   2.0000      -0.751732       -20.4557
 148   2.0000      -0.746920       -20.3247
 149   2.0000      -0.745837       -20.2953
 150   2.0000      -0.734719       -19.9927
 151   2.0000      -0.728161       -19.8143
 152   2.0000      -0.726705       -19.7746
 153   2.0000      -0.710962       -19.3463
 154   2.0000      -0.708474       -19.2785
 155   2.0000      -0.703039       -19.1307
 156   2.0000      -0.692401       -18.8412
 157   2.0000      -0.680223       -18.5098
 158   2.0000      -0.673967       -18.3396
 159   2.0000      -0.669014       -18.2048
 160   2.0000      -0.666681       -18.1413
 161   2.0000      -0.655338       -17.8327
 162   2.0000      -0.652633       -17.7590
 163   2.0000      -0.651257       -17.7216
 164   2.0000      -0.645870       -17.5750
 165   2.0000      -0.639489       -17.4014
 166   2.0000      -0.636701       -17.3255
 167   2.0000      -0.633784       -17.2461
 168   2.0000      -0.629659       -17.1339
 169   2.0000      -0.627061       -17.0632
 170   2.0000      -0.622439       -16.9374
 171   2.0000      -0.613665       -16.6987
 172   2.0000      -0.610847       -16.6220
 173   2.0000      -0.604444       -16.4478
 174   2.0000      -0.599683       -16.3182
 175   2.0000      -0.596808       -16.2400
 176   2.0000      -0.595001       -16.1908
 177   2.0000      -0.592911       -16.1339
 178   2.0000      -0.585287       -15.9265
 179   2.0000      -0.582232       -15.8433
 180   2.0000      -0.576806       -15.6957
 181   2.0000      -0.575334       -15.6556
 182   2.0000      -0.571816       -15.5599
 183   2.0000      -0.569382       -15.4937
 184   2.0000      -0.565547       -15.3893
 185   2.0000      -0.557248       -15.1635
 186   2.0000      -0.552176       -15.0255
 187   2.0000      -0.550243       -14.9729
 188   2.0000      -0.547998       -14.9118
 189   2.0000      -0.545165       -14.8347
 190   2.0000      -0.543956       -14.8018
 191   2.0000      -0.541295       -14.7294
 192   2.0000      -0.539887       -14.6911
 193   2.0000      -0.534419       -14.5423
 194   2.0000      -0.529932       -14.4202
 195   2.0000      -0.526669       -14.3314
 196   2.0000      -0.524760       -14.2795
 197   2.0000      -0.522850       -14.2275
 198   2.0000      -0.521612       -14.1938
 199   2.0000      -0.520674       -14.1682
 200   2.0000      -0.519091       -14.1252
 201   2.0000      -0.513006       -13.9596
 202   2.0000      -0.510824       -13.9002
 203   2.0000      -0.510077       -13.8799
 204   2.0000      -0.509701       -13.8697
 205   2.0000      -0.505850       -13.7649
 206   2.0000      -0.504625       -13.7316
 207   2.0000      -0.503213       -13.6931
 208   2.0000      -0.497717       -13.5436
 209   2.0000      -0.496205       -13.5024
 210   2.0000      -0.493784       -13.4365
 211   2.0000      -0.491062       -13.3625
 212   2.0000      -0.489686       -13.3250
 213   2.0000      -0.488220       -13.2851
 214   2.0000      -0.487228       -13.2582
 215   2.0000      -0.484866       -13.1939
 216   2.0000      -0.483499       -13.1567
 217   2.0000      -0.477968       -13.0062
 218   2.0000      -0.476471       -12.9654
 219   2.0000      -0.474043       -12.8994
 220   2.0000      -0.471004       -12.8167
 221   2.0000      -0.469970       -12.7885
 222   2.0000      -0.468505       -12.7487
 223   2.0000      -0.467264       -12.7149
 224   2.0000      -0.464486       -12.6393
 225   2.0000      -0.463112       -12.6019
 226   2.0000      -0.458925       -12.4880
 227   2.0000      -0.456441       -12.4204
 228   2.0000      -0.448692       -12.2095
 229   2.0000      -0.446420       -12.1477
 230   2.0000      -0.444882       -12.1059
 231   2.0000      -0.444609       -12.0984
 232   2.0000      -0.442285       -12.0352
 233   2.0000      -0.440730       -11.9929
 234   2.0000      -0.439335       -11.9549
 235   2.0000      -0.437387       -11.9019
 236   2.0000      -0.436666       -11.8823
 237   2.0000      -0.434316       -11.8183
 238   2.0000      -0.433479       -11.7956
 239   2.0000      -0.432280       -11.7629
 240   2.0000      -0.430091       -11.7034
 241   2.0000      -0.426388       -11.6026
 242   2.0000      -0.425683       -11.5834
 243   2.0000      -0.422987       -11.5101
 244   2.0000      -0.422009       -11.4835
 245   2.0000      -0.420357       -11.4385
 246   2.0000      -0.416596       -11.3362
 247   2.0000      -0.414796       -11.2872
 248   2.0000      -0.411819       -11.2062
 249   2.0000      -0.407930       -11.1003
 250   2.0000      -0.407056       -11.0766
 251   2.0000      -0.404001       -10.9934
 252   2.0000      -0.401109       -10.9147
 253   2.0000      -0.400046       -10.8858
 254   2.0000      -0.396363       -10.7856
 255   2.0000      -0.396169       -10.7803
 256   2.0000      -0.394309       -10.7297
 257   2.0000      -0.390176       -10.6172
 258   2.0000      -0.384926       -10.4744
 259   2.0000      -0.382219       -10.4007
 260   2.0000      -0.380814       -10.3625
 261   2.0000      -0.371674       -10.1138
 262   2.0000      -0.363904        -9.9023
 263   2.0000      -0.361196        -9.8286
 264   2.0000      -0.357561        -9.7297
 265   2.0000      -0.351422        -9.5627
 266   2.0000      -0.343412        -9.3447
 267   2.0000      -0.337717        -9.1897
 268   2.0000      -0.331254        -9.0139
 269   2.0000      -0.325318        -8.8524
 270   2.0000      -0.316762        -8.6195
 271   2.0000      -0.313002        -8.5172
 272   2.0000      -0.309217        -8.4142
 273   2.0000      -0.307950        -8.3797
 274   2.0000      -0.297269        -8.0891
 275   2.0000      -0.291955        -7.9445
 276   2.0000      -0.279416        -7.6033
 277   2.0000      -0.272168        -7.4061
 278   2.0000      -0.263845        -7.1796
 279   2.0000      -0.218801        -5.9539
 280   0.0000      -0.104763        -2.8507
 281   0.0000      -0.087738        -2.3875
 282   0.0000      -0.052360        -1.4248
 283   0.0000      -0.050665        -1.3787
 284   0.0000      -0.031939        -0.8691

MULLIKEN ATOMIC CHARGES
-----------------------
   0 C :   -0.110257
   1 C :    0.238423
   2 F :   -0.173312
   3 C :    0.234849
   4 F :   -0.176305
   5 C :   -0.122464
   6 C :    0.125415
   7 C :    0.108921
   8 C :   -0.090827
   9 C :    0.058137
  10 C :   -0.005680
  11 C :   -0.079938
  12 C :    0.173288
  13 O :   -0.179673
  14 C :   -0.106328
  15 C :    0.351493
  16 C :   -0.366394
  17 C :   -0.184064
  18 N :    0.144957
  19 C :   -0.209106
  20 N :    0.171942
  21 C :   -0.036060
  22 C :   -0.064780
  23 S :    0.204061
  24 C :   -0.125620
  25 C :   -0.048931
  26 C :   -0.069291
  27 C :    0.133559
  28 C :   -0.032315
  29 C :   -0.257329
  30 N :    0.135076
  31 C :   -0.097814
  32 C :   -0.222868
  33 N :    0.155190
  34 C :    0.162102
  35 C :   -0.002278
  36 C :   -0.226045
  37 C :    0.095291
  38 C :    0.187172
  39 N :   -0.148367
  40 C :    0.067955
  41 C :   -0.035182
  42 C :    0.026510
  43 C :   -0.054007
  44 C :    0.059864
  45 C :    0.015386
  46 C :   -0.016360
  47 S :    0.117906
  48 C :   -0.063850
  49 C :    0.041382
  50 C :    0.030290
  51 C :   -0.014956
  52 S :    0.088698
  53 C :    0.000913
  54 C :   -0.071423
  55 C :   -0.090022
  56 C :    0.333742
  57 C :   -0.386254
  58 C :   -0.158141
  59 N :    0.103997
  60 C :   -0.201066
  61 N :    0.125107
  62 C :    0.015978
  63 C :   -0.008368
  64 C :    0.125730
  65 O :   -0.168680
  66 C :   -0.066431
  67 C :    0.114552
  68 C :   -0.090862
  69 C :   -0.016285
  70 S :    0.173211
  71 C :   -0.124274
  72 C :    0.038620
  73 Br:    0.007132
  74 H :    0.010062
  75 H :   -0.012160
  76 H :   -0.000131
  77 H :   -0.025165
  78 H :   -0.010522
  79 H :    0.061225
  80 H :    0.060919
  81 H :    0.065797
  82 H :    0.050359
  83 H :    0.025225
  84 H :    0.042236
  85 H :   -0.025095
  86 H :    0.021237
  87 H :    0.032636
  88 H :    0.045946
  89 H :    0.034570
  90 H :    0.031243
  91 H :    0.128914
  92 H :    0.014839
  93 H :    0.019604
  94 H :    0.001860
  95 H :   -0.004087
  96 H :   -0.012206
  97 H :   -0.011370
  98 H :   -0.006059
  99 H :    0.011864
 100 H :    0.021911
 101 H :   -0.016383
 102 H :   -0.014949
 103 H :   -0.006964
Sum of atomic charges:   -0.0000000

LOEWDIN ATOMIC CHARGES
----------------------
   0 C :   -0.027840
   1 C :    0.061706
   2 F :   -0.051196
   3 C :    0.063291
   4 F :   -0.054068
   5 C :   -0.041839
   6 C :   -0.011046
   7 C :   -0.009316
   8 C :    0.019891
   9 C :   -0.015356
  10 C :   -0.052132
  11 C :    0.024918
  12 C :    0.073072
  13 O :   -0.173164
  14 C :   -0.111829
  15 C :    0.077727
  16 C :   -0.145107
  17 C :   -0.017203
  18 N :   -0.060097
  19 C :   -0.020440
  20 N :   -0.052372
  21 C :    0.068541
  22 C :   -0.185167
  23 S :    0.527817
  24 C :   -0.151948
  25 C :   -0.070426
  26 C :   -0.006229
  27 C :   -0.008540
  28 C :   -0.030090
  29 C :   -0.032648
  30 N :   -0.063678
  31 C :   -0.032385
  32 C :   -0.036759
  33 N :   -0.040960
  34 C :   -0.008270
  35 C :   -0.079134
  36 C :   -0.029515
  37 C :   -0.047445
  38 C :    0.042408
  39 N :    0.001903
  40 C :    0.071268
  41 C :   -0.123257
  42 C :    0.007645
  43 C :   -0.175692
  44 C :   -0.000803
  45 C :   -0.054111
  46 C :   -0.132287
  47 S :    0.416191
  48 C :   -0.209573
  49 C :   -0.007546
  50 C :   -0.054467
  51 C :   -0.104552
  52 S :    0.435777
  53 C :   -0.083372
  54 C :    0.036091
  55 C :   -0.124065
  56 C :    0.075565
  57 C :   -0.176169
  58 C :   -0.010295
  59 N :   -0.088647
  60 C :   -0.020426
  61 N :   -0.077692
  62 C :   -0.017884
  63 C :   -0.048853
  64 C :    0.078183
  65 O :   -0.162537
  66 C :    0.023212
  67 C :   -0.035552
  68 C :   -0.145019
  69 C :   -0.008681
  70 S :    0.423481
  71 C :   -0.277158
  72 C :   -0.069372
  73 Br:    0.124435
  74 H :    0.049269
  75 H :    0.039480
  76 H :    0.041731
  77 H :    0.034439
  78 H :    0.045889
  79 H :    0.050804
  80 H :    0.051510
  81 H :    0.069427
  82 H :    0.059883
  83 H :    0.038839
  84 H :    0.038373
  85 H :    0.025993
  86 H :    0.035357
  87 H :    0.038607
  88 H :    0.041259
  89 H :    0.035448
  90 H :    0.036333
  91 H :    0.081412
  92 H :    0.031421
  93 H :    0.022968
  94 H :    0.038238
  95 H :    0.037273
  96 H :    0.032108
  97 H :    0.031982
  98 H :    0.035409
  99 H :    0.035377
 100 H :    0.026417
 101 H :    0.039564
 102 H :    0.038966
 103 H :    0.037308

  Mayer bond orders larger than 0.100000
B(  0-C ,  1-C ) :   1.4342 B(  0-C ,  5-C ) :   0.1094 B(  0-C ,  7-C ) :   1.1886
B(  0-C , 74-H ) :   1.0087 B(  1-C ,  2-F ) :   1.1319 B(  1-C ,  3-C ) :   1.1940
B(  3-C ,  4-F ) :   1.1299 B(  3-C ,  5-C ) :   1.4358 B(  5-C ,  6-C ) :   1.1891
B(  5-C , 75-H ) :   1.0087 B(  6-C ,  7-C ) :   1.2629 B(  6-C , 11-C ) :   1.1764
B(  7-C ,  8-C ) :   1.2024 B(  8-C ,  9-C ) :   1.4511 B(  8-C , 76-H ) :   0.9913
B(  9-C , 10-C ) :   1.2270 B(  9-C , 15-C ) :   0.9748 B( 10-C , 11-C ) :   1.4777
B( 10-C , 12-C ) :   0.9521 B( 11-C , 77-H ) :   1.0097 B( 12-C , 13-O ) :   2.1422
B( 12-C , 14-C ) :   0.9715 B( 14-C , 15-C ) :   1.1018 B( 14-C , 21-C ) :   1.4973
B( 15-C , 16-C ) :   1.6131 B( 16-C , 17-C ) :   1.1630 B( 16-C , 19-C ) :   1.1607
B( 17-C , 18-N ) :   2.9057 B( 19-C , 20-N ) :   2.9386 B( 21-C , 22-C ) :   1.2858
B( 21-C , 78-H ) :   0.9169 B( 22-C , 23-S ) :   1.0891 B( 22-C , 26-C ) :   1.3858
B( 23-S , 24-C ) :   1.1687 B( 24-C , 25-C ) :   1.4601 B( 24-C , 35-C ) :   1.0268
B( 25-C , 26-C ) :   1.3759 B( 25-C , 34-C ) :   1.0407 B( 26-C , 27-C ) :   1.0457
B( 27-C , 28-C ) :   1.0488 B( 27-C , 79-H ) :   0.8876 B( 27-C , 80-H ) :   0.8986
B( 28-C , 29-C ) :   1.1089 B( 28-C , 31-C ) :   1.0814 B( 28-C , 81-H ) :   0.8429
B( 29-C , 30-N ) :   3.0961 B( 31-C , 32-C ) :   1.1206 B( 31-C , 34-C ) :   1.0564
B( 31-C , 82-H ) :   0.8603 B( 32-C , 33-N ) :   3.0647 B( 34-C , 83-H ) :   0.9108
B( 34-C , 84-H ) :   0.8944 B( 35-C , 36-C ) :   1.8609 B( 35-C , 85-H ) :   0.9227
B( 36-C , 37-C ) :   1.0989 B( 36-C , 38-C ) :   0.9845 B( 37-C , 86-H ) :   0.9458
B( 37-C , 87-H ) :   0.9439 B( 37-C , 88-H ) :   0.9431 B( 38-C , 39-N ) :   1.0495
B( 38-C , 89-H ) :   0.9379 B( 38-C , 90-H ) :   0.9294 B( 39-N , 40-C ) :   1.2319
B( 39-N , 91-H ) :   0.9371 B( 40-C , 41-C ) :   1.5960 B( 40-C , 92-H ) :   0.9701
B( 41-C , 42-C ) :   1.1847 B( 41-C , 93-H ) :   0.9451 B( 42-C , 43-C ) :   1.5576
B( 42-C , 94-H ) :   0.9828 B( 43-C , 44-C ) :   1.1719 B( 43-C , 47-S ) :   1.0190
B( 44-C , 45-C ) :   1.5564 B( 44-C , 95-H ) :   0.9965 B( 45-C , 46-C ) :   1.2164
B( 45-C , 96-H ) :   0.9958 B( 46-C , 47-S ) :   1.1236 B( 46-C , 48-C ) :   1.4060
B( 48-C , 49-C ) :   1.2558 B( 48-C , 52-S ) :   1.0514 B( 49-C , 50-C ) :   1.4771
B( 49-C , 97-H ) :   1.0000 B( 50-C , 51-C ) :   1.2265 B( 50-C , 98-H ) :   0.9985
B( 51-C , 52-S ) :   1.1080 B( 51-C , 53-C ) :   1.3436 B( 53-C , 54-C ) :   1.3302
B( 53-C , 99-H ) :   0.9796 B( 54-C , 55-C ) :   1.4237 B( 54-C ,100-H ) :   0.9368
B( 55-C , 56-C ) :   1.1526 B( 55-C , 64-C ) :   0.9744 B( 56-C , 57-C ) :   1.5290
B( 56-C , 62-C ) :   0.9872 B( 57-C , 58-C ) :   1.1641 B( 57-C , 60-C ) :   1.1957
B( 58-C , 59-N ) :   2.8841 B( 60-C , 61-N ) :   2.8579 B( 62-C , 63-C ) :   1.2753
B( 62-C , 69-C ) :   1.4232 B( 63-C , 64-C ) :   0.9303 B( 63-C , 66-C ) :   1.4361
B( 64-C , 65-O ) :   2.1776 B( 66-C , 67-C ) :   1.2346 B( 66-C ,101-H ) :   1.0160
B( 67-C , 68-C ) :   1.3198 B( 67-C , 72-C ) :   1.1603 B( 68-C , 69-C ) :   1.3179
B( 68-C , 70-S ) :   1.0800 B( 69-C ,102-H ) :   0.9798 B( 70-S , 71-C ) :   1.0845
B( 71-C , 72-C ) :   1.6210 B( 71-C , 73-Br) :   1.0089 B( 72-C ,103-H ) :   0.9994

-----------------------------------------------------------------------------
         ABSORPTION SPECTRUM VIA TRANSITION ELECTRIC DIPOLE MOMENTS
-----------------------------------------------------------------------------
State   Energy  Wavelength   fosc         T2         TX        TY        TZ
        (cm-1)    (nm)                  (au**2)     (au)      (au)      (au)
-----------------------------------------------------------------------------
   0    9616.4   1039.9   0.350768526  12.00831   2.02304  -2.15208   1.81222
   1   12338.2    810.5   0.386555820  10.31418  -1.50416   2.02840  -1.98426
   2   18401.0    543.4   0.079270364   1.41822  -0.31572   0.30860  -1.10603
   3   18936.7    528.1   0.140303530   2.43915  -0.25464   1.45675  -0.50220
   4   21010.4    476.0   0.029850754   0.46773  -0.67421  -0.09170  -0.06902
   5   21619.8    462.5   0.319553280   4.86594   0.52509  -2.14224   0.03179
   6   22256.1    449.3   0.248200793   3.67138  -0.13232  -1.90861  -0.10528
   7   23219.3    430.7   0.041397206   0.58695   0.15402   0.70331   0.26189
   8   24468.2    408.7   0.015336103   0.20634   0.29742   0.28965   0.18436
   9   24953.2    400.7   0.377528089   4.98079  -0.39902   2.19449   0.07601
  10   25387.0    393.9   0.233802717   3.03189  -0.17699   1.73201   0.02674
  11   26094.2    383.2   0.094162076   1.18798   0.36152   0.95838   0.37254
  12   26354.4    379.4   0.000262129   0.00327  -0.04586  -0.00067  -0.03422
  13   26697.3    374.6   0.312819491   3.85747   1.04247   1.28543   1.05755
  14   27292.5    366.4   0.014142661   0.17059  -0.18103   0.34422  -0.13906
  15   27517.1    363.4   0.012717878   0.15216   0.34305   0.09027   0.16224
  16   27780.1    360.0   0.032438803   0.38442   0.28749   0.46127   0.29833
  17   28499.7    350.9   0.257416495   2.97353  -0.99523  -0.95319  -1.03656
  18   28715.7    348.2   0.021584117   0.24745  -0.36713  -0.17376  -0.28718
  19   29295.7    341.3   0.122176334   1.37296  -0.36395  -1.06666  -0.32053
  20   29452.9    339.5   0.005098573   0.05699   0.12618  -0.19200   0.06484
  21   29867.4    334.8   0.037133010   0.40930   0.25268  -0.54836   0.21154
  22   30012.9    333.2   0.057242355   0.62789  -0.56129  -0.04188  -0.55775
  23   30140.4    331.8   0.142633080   1.55793  -0.67958  -0.70229  -0.77646
  24   30289.9    330.1   0.069238397   0.75253  -0.48688  -0.41321  -0.58714
  25   30314.8    329.9   0.121306555   1.31736  -0.54986  -0.72164  -0.70303
  26   31264.3    319.9   0.058093948   0.61173   0.52758  -0.34213   0.46512
  27   31409.2    318.4   0.001577696   0.01654   0.00069   0.09046   0.09140
  28   31499.5    317.5   0.003023565   0.03160   0.13868  -0.05914   0.09419
  29   31689.6    315.6   0.479096518   4.97716   1.51739  -1.16964   1.14309
  30   31917.4    313.3   0.084642864   0.87305  -0.52024  -0.54923  -0.54840
  31   32766.8    305.2   0.139194665   1.39850   0.68946  -0.79185   0.54417
  32   33234.6    300.9   0.056826341   0.56291  -0.28649  -0.45925  -0.51953
  33   33439.6    299.0   0.004255114   0.04189  -0.16799  -0.09910  -0.06205
  34   33527.1    298.3   0.022330310   0.21927   0.30032  -0.11094   0.34172
  35   33918.9    294.8   0.040564527   0.39371  -0.37730  -0.41677  -0.27869
  36   34185.7    292.5   0.176659990   1.70126  -0.94295   0.13426  -0.89111
  37   34628.2    288.8   0.007307651   0.06947   0.14780  -0.19917   0.08923
  38   35000.2    285.7   0.194710134   1.83144   0.51967   1.01311   0.73143
  39   35076.0    285.1   0.127993526   1.20130  -0.47468  -0.89902  -0.40958
  40   35334.4    283.0   0.010617725   0.09893   0.16522   0.19571   0.18255
  41   35423.8    282.3   0.089128439   0.82832   0.03523  -0.89654  -0.15263
  42   35734.2    279.8   0.148621814   1.36922   0.37471   1.02375   0.42514
  43   35925.0    278.4   0.055965031   0.51286   0.52984  -0.45224   0.16613
  44   35987.4    277.9   0.215839001   1.97449  -0.92698  -0.04082  -1.05524
  45   37298.9    268.1   0.400596138   3.53579  -1.22242   1.28816  -0.61814
  46   37586.9    266.1   0.058656017   0.51375   0.10976   0.70692   0.04433
  47   38053.4    262.8   0.012405576   0.10732  -0.05257  -0.15991  -0.28105
  48   38181.3    261.9   0.032200328   0.27764  -0.01700  -0.46430   0.24855
  49   38417.8    260.3   0.045488064   0.38980  -0.05818  -0.53443  -0.31749
  50   38526.2    259.6   0.070450868   0.60201  -0.24843  -0.71976  -0.14913
  51   38642.9    258.8   0.100063000   0.85247   0.02461  -0.88605  -0.25843
  52   38767.0    258.0   0.004037795   0.03429   0.13076   0.13077  -0.00958
  53   39000.9    256.4   0.017398753   0.14687  -0.31634   0.16210  -0.14325
  54   39236.9    254.9   0.017621178   0.14785  -0.25662   0.27627  -0.07530
  55   39297.5    254.5   0.076444225   0.64041  -0.45040  -0.50453  -0.42778
  56   39663.0    252.1   0.002947732   0.02447  -0.10478   0.02780  -0.11276
  57   40140.1    249.1   0.000512747   0.00421   0.00862  -0.02441   0.05946
  58   40212.9    248.7   0.010111727   0.08278   0.09045   0.25198  -0.10539

FINAL SINGLE POINT ENERGY     -7123.984985029345

DIPOLE MOMENT
-------------
                                X             Y             Z
Electronic contribution:    -74.21672     125.75208     -75.93982
Nuclear contribution   :     77.63172    -129.57314      79.31057
                        -----------------------------------------
Total Dipole Moment    :      3.41500      -3.82106       3.37075
                        -----------------------------------------
Magnitude (a.u.)       :      6.13390
Magnitude (Debye)      :     15.59114

Rotational constants in cm-1:     0.001052     0.000613     0.000426
Rotational constants in MHz :    31.537639    18.380309    12.785218

                             ****ORCA TERMINATED NORMALLY****
TOTAL RUN TIME: 0 days 0 hours 14 minutes 26 seconds 565 msec
