                         Program Version 4.2.0 -  RELEASE  -
|  1> # ORCA input file
|  2> # SCF done       -200.753237416949          0.000940929910
|  3> ! CAM-B3LYP def2-SVP def2/J RIJCOSX Grid4 TightSCF
|  4> %maxcore 5000
|  5> %tddft
|  6>     Mode sTDDFT
|  7>     Ethresh 5.0
|  8>     maxcore 5000
|  9> end
| 10>
| 11> %pal
| 12>   nprocs 6
| 13>   end
| 14> * xyz 0 1
| 15>    C       -0.71944         4.47839         5.43024
| 16>    C        0.19837         4.66383         6.42632
| 17>    F        0.70992         5.87994         6.65188
| 18>    C        0.61673         3.58180         7.22680
| 19>    F        1.51633         3.79248         8.19579
| 20>    C        0.11149         2.32844         7.01972
| 21>    C       -0.83570         2.10597         6.00183
| 22>    C       -1.25971         3.19913         5.19196
| 23>    C       -2.21236         3.00015         4.16565
| 24>    C       -2.72546         1.74813         3.95667
| 25>    C       -2.29514         0.66041         4.77170
| 26>    C       -1.37679         0.82182         5.76875
| 27>    C       -3.00122        -0.55700         4.35001
| 28>    O       -2.90093        -1.68425         4.81779
| 29>    C       -3.88842        -0.15242         3.25398
| 30>    C       -3.71288         1.25716         2.99594
| 31>    C       -4.33051         2.00666         2.02830
| 32>    C       -5.27265         1.50485         1.10978
| 33>    N       -6.04209         1.14830         0.33486
| 34>    C       -4.09490         3.38148         1.81915
| 35>    N       -3.94533         4.49801         1.59955
| 36>    C       -4.75118        -1.03955         2.66007
| 37>    N       -4.77538        -2.32520         3.03337
| 38>    C       -5.59733        -3.30253         2.54899
| 39>    S       -5.96929        -4.65568         3.56917
| 40>    C       -7.04715        -5.25288         2.35228
| 41>    N       -7.70700        -6.46717         2.60772
| 42>    O       -8.45823        -6.89244         1.75483
| 43>    O       -7.46465        -7.00058         3.67498
| 44>    C       -7.11174        -4.45944         1.23865
| 45>    C       -6.26502        -3.33680         1.32372
| 46>    C       -6.04526        -2.39634         0.24791
| 47>    C       -6.99724        -1.98574        -0.60671
| 48>    C       -6.76522        -1.05346        -1.65950
| 49>    C       -7.74202        -0.39095        -2.38856
| 50>    C       -9.10418        -0.59336        -2.10933
| 51>    N      -10.19337        -0.78961        -1.81002
| 52>    C       -7.19668         0.51548        -3.33456
| 53>    C       -5.80596         0.51258        -3.28521
| 54>    S       -5.15128        -0.57629        -2.12966
| 55>    S       -5.02838         1.61464        -4.37417
| 56>    C       -6.59978         2.10655        -4.91781
| 57>    C       -7.66167         1.44802        -4.30745
| 58>    C       -8.90833         1.88743        -4.82797
| 59>    C      -10.11887         1.22045        -4.57916
| 60>    N      -11.04722         0.55698        -4.45463
| 61>    C       -8.75314         2.88377        -5.78557
| 62>    S       -7.07647         3.22361        -6.14173
| 63>    C       -9.77722         3.61240        -6.45804
| 64>    C       -9.52195         4.26485        -7.67650
| 65>    C      -10.55553         4.93292        -8.43455
| 66>    N      -10.24887         5.48777        -9.59971
| 67>    C       -9.00811         5.44919       -10.05551
| 68>    C       -7.98411         4.81971        -9.28780
| 69>    N       -8.26209         4.24812        -8.14173
| 70>    C       -6.64715         4.80420        -9.76056
| 71>    N       -5.57803         4.80405       -10.17047
| 72>    C       -8.70941         6.03514       -11.30496
| 73>    N       -8.42484         6.49599       -12.31619
| 74>    C      -11.89684         5.01477        -7.96164
| 75>    C      -12.11469         4.44266        -6.67445
| 76>    C      -11.07998         3.76909        -5.93495
| 77>    N      -11.49928         3.38766        -4.73187
| 78>    S      -13.04490         3.78130        -4.56177
| 79>    N      -13.25664         4.48711        -5.99396
| 80>    C      -12.98227         5.60663        -8.61494
| 81>    C      -13.10822         6.23161        -9.84162
| 82>    C      -14.35336         6.74255       -10.29239
| 83>    C      -14.32208         7.31498       -11.52750
| 84>    C      -13.03945         7.28334       -12.11298
| 85>    S      -11.87825         6.51172       -11.04290
| 86>    C      -12.65301         7.76198       -13.35016
| 87>    C      -13.47346         8.40226       -14.32339
| 88>    C      -12.81690         8.75821       -15.44948
| 89>    C      -11.42115         8.42283       -15.44404
| 90>    S      -11.01209         7.62803       -13.91379
| 91>    C      -10.51941         8.64505       -16.41063
| 92>    H       -1.02875         5.31751         4.82679
| 93>    H        0.44180         1.51096         7.64131
| 94>    H       -2.51471         3.84810         3.57271
| 95>    H       -1.06849        -0.01789         6.37280
| 96>    H       -5.45631        -0.72887         1.90182
| 97>    H       -4.15105        -2.54171         3.82813
| 98>    H       -7.71934        -4.69972         0.38528
| 99>    H       -5.03690        -2.01540         0.13901
|100>    H       -8.02286        -2.30784        -0.48436
|101>    H      -13.90033         5.55080        -8.04036
|102>    H      -15.23664         6.66546        -9.68278
|103>    H      -15.17769         7.74735       -12.01502
|104>    H      -14.52075         8.57333       -14.14897
|105>    H      -13.26313         9.25002       -16.29544
|106>    H      -10.80271         9.12696       -17.33017
|107>    H       -9.49303         8.34590       -16.29996
|108> *
|109>
|110>                          ****END OF INPUT****

CARTESIAN COORDINATES (ANGSTROEM)
---------------------------------
  C     -0.719440    4.478390    5.430240
  C      0.198370    4.663830    6.426320
  F      0.709920    5.879940    6.651880
  C      0.616730    3.581800    7.226800
  F      1.516330    3.792480    8.195790
  C      0.111490    2.328440    7.019720
  C     -0.835700    2.105970    6.001830
  C     -1.259710    3.199130    5.191960
  C     -2.212360    3.000150    4.165650
  C     -2.725460    1.748130    3.956670
  C     -2.295140    0.660410    4.771700
  C     -1.376790    0.821820    5.768750
  C     -3.001220   -0.557000    4.350010
  O     -2.900930   -1.684250    4.817790
  C     -3.888420   -0.152420    3.253980
  C     -3.712880    1.257160    2.995940
  C     -4.330510    2.006660    2.028300
  C     -5.272650    1.504850    1.109780
  N     -6.042090    1.148300    0.334860
  C     -4.094900    3.381480    1.819150
  N     -3.945330    4.498010    1.599550
  C     -4.751180   -1.039550    2.660070
  N     -4.775380   -2.325200    3.033370
  C     -5.597330   -3.302530    2.548990
  S     -5.969290   -4.655680    3.569170
  C     -7.047150   -5.252880    2.352280
  N     -7.707000   -6.467170    2.607720
  O     -8.458230   -6.892440    1.754830
  O     -7.464650   -7.000580    3.674980
  C     -7.111740   -4.459440    1.238650
  C     -6.265020   -3.336800    1.323720
  C     -6.045260   -2.396340    0.247910
  C     -6.997240   -1.985740   -0.606710
  C     -6.765220   -1.053460   -1.659500
  C     -7.742020   -0.390950   -2.388560
  C     -9.104180   -0.593360   -2.109330
  N    -10.193370   -0.789610   -1.810020
  C     -7.196680    0.515480   -3.334560
  C     -5.805960    0.512580   -3.285210
  S     -5.151280   -0.576290   -2.129660
  S     -5.028380    1.614640   -4.374170
  C     -6.599780    2.106550   -4.917810
  C     -7.661670    1.448020   -4.307450
  C     -8.908330    1.887430   -4.827970
  C    -10.118870    1.220450   -4.579160
  N    -11.047220    0.556980   -4.454630
  C     -8.753140    2.883770   -5.785570
  S     -7.076470    3.223610   -6.141730
  C     -9.777220    3.612400   -6.458040
  C     -9.521950    4.264850   -7.676500
  C    -10.555530    4.932920   -8.434550
  N    -10.248870    5.487770   -9.599710
  C     -9.008110    5.449190  -10.055510
  C     -7.984110    4.819710   -9.287800
  N     -8.262090    4.248120   -8.141730
  C     -6.647150    4.804200   -9.760560
  N     -5.578030    4.804050  -10.170470
  C     -8.709410    6.035140  -11.304960
  N     -8.424840    6.495990  -12.316190
  C    -11.896840    5.014770   -7.961640
  C    -12.114690    4.442660   -6.674450
  C    -11.079980    3.769090   -5.934950
  N    -11.499280    3.387660   -4.731870
  S    -13.044900    3.781300   -4.561770
  N    -13.256640    4.487110   -5.993960
  C    -12.982270    5.606630   -8.614940
  C    -13.108220    6.231610   -9.841620
  C    -14.353360    6.742550  -10.292390
  C    -14.322080    7.314980  -11.527500
  C    -13.039450    7.283340  -12.112980
  S    -11.878250    6.511720  -11.042900
  C    -12.653010    7.761980  -13.350160
  C    -13.473460    8.402260  -14.323390
  C    -12.816900    8.758210  -15.449480
  C    -11.421150    8.422830  -15.444040
  S    -11.012090    7.628030  -13.913790
  C    -10.519410    8.645050  -16.410630
  H     -1.028750    5.317510    4.826790
  H      0.441800    1.510960    7.641310
  H     -2.514710    3.848100    3.572710
  H     -1.068490   -0.017890    6.372800
  H     -5.456310   -0.728870    1.901820
  H     -4.151050   -2.541710    3.828130
  H     -7.719340   -4.699720    0.385280
  H     -5.036900   -2.015400    0.139010
  H     -8.022860   -2.307840   -0.484360
  H    -13.900330    5.550800   -8.040360
  H    -15.236640    6.665460   -9.682780
  H    -15.177690    7.747350  -12.015020
  H    -14.520750    8.573330  -14.148970
  H    -13.263130    9.250020  -16.295440
  H    -10.802710    9.126960  -17.330170
  H     -9.493030    8.345900  -16.299960

 Total Charge           Charge          ....    0
 Multiplicity           Mult            ....    1
 Number of Electrons    NEL             ....  572
 Basis Dimension        Dim             .... 1186

ORBITAL ENERGIES
----------------

  NO   OCC          E(Eh)            E(eV)
   0   2.0000     -89.026085     -2422.5229
   1   2.0000     -88.993479     -2421.6357
   2   2.0000     -88.972570     -2421.0667
   3   2.0000     -88.971561     -2421.0392
   4   2.0000     -88.967648     -2420.9328
   5   2.0000     -88.964068     -2420.8354
   6   2.0000     -88.962326     -2420.7880
   7   2.0000     -24.802934      -674.9222
   8   2.0000     -24.802032      -674.8976
   9   2.0000     -19.242401      -523.6123
  10   2.0000     -19.242355      -523.6111
  11   2.0000     -19.235684      -523.4296
  12   2.0000     -14.654250      -398.7624
  13   2.0000     -14.502141      -394.6233
  14   2.0000     -14.463363      -393.5681
  15   2.0000     -14.452454      -393.2713
  16   2.0000     -14.441902      -392.9841
  17   2.0000     -14.433289      -392.7498
  18   2.0000     -14.427665      -392.5967
  19   2.0000     -14.425464      -392.5368
  20   2.0000     -14.423534      -392.4843
  21   2.0000     -14.418707      -392.3530
  22   2.0000     -14.392158      -391.6305
  23   2.0000     -14.378448      -391.2575
  24   2.0000     -10.386545      -282.6323
  25   2.0000     -10.385860      -282.6136
  26   2.0000     -10.383204      -282.5413
  27   2.0000     -10.380310      -282.4626
  28   2.0000     -10.375130      -282.3216
  29   2.0000     -10.374019      -282.2914
  30   2.0000     -10.367335      -282.1095
  31   2.0000     -10.351412      -281.6762
  32   2.0000     -10.351037      -281.6660
  33   2.0000     -10.346804      -281.5509
  34   2.0000     -10.346104      -281.5318
  35   2.0000     -10.341670      -281.4111
  36   2.0000     -10.341597      -281.4091
  37   2.0000     -10.333186      -281.1803
  38   2.0000     -10.330295      -281.1016
  39   2.0000     -10.329838      -281.0892
  40   2.0000     -10.328319      -281.0478
  41   2.0000     -10.327727      -281.0317
  42   2.0000     -10.324755      -280.9509
  43   2.0000     -10.322118      -280.8791
  44   2.0000     -10.320946      -280.8472
  45   2.0000     -10.320317      -280.8301
  46   2.0000     -10.319594      -280.8104
  47   2.0000     -10.317988      -280.7667
  48   2.0000     -10.317918      -280.7648
  49   2.0000     -10.316300      -280.7208
  50   2.0000     -10.315983      -280.7122
  51   2.0000     -10.314710      -280.6775
  52   2.0000     -10.314278      -280.6658
  53   2.0000     -10.313564      -280.6463
  54   2.0000     -10.312988      -280.6307
  55   2.0000     -10.312872      -280.6275
  56   2.0000     -10.312617      -280.6206
  57   2.0000     -10.311709      -280.5959
  58   2.0000     -10.310862      -280.5728
  59   2.0000     -10.310534      -280.5639
  60   2.0000     -10.308583      -280.5108
  61   2.0000     -10.306473      -280.4534
  62   2.0000     -10.305468      -280.4260
  63   2.0000     -10.305377      -280.4236
  64   2.0000     -10.302780      -280.3529
  65   2.0000     -10.302494      -280.3451
  66   2.0000     -10.302076      -280.3338
  67   2.0000     -10.300586      -280.2932
  68   2.0000     -10.299678      -280.2685
  69   2.0000     -10.298971      -280.2493
  70   2.0000     -10.298941      -280.2484
  71   2.0000     -10.296228      -280.1746
  72   2.0000     -10.294907      -280.1387
  73   2.0000     -10.294601      -280.1303
  74   2.0000     -10.291924      -280.0575
  75   2.0000     -10.289999      -280.0051
  76   2.0000     -10.282870      -279.8111
  77   2.0000      -8.117488      -220.8881
  78   2.0000      -8.089192      -220.1181
  79   2.0000      -8.067532      -219.5287
  80   2.0000      -8.066623      -219.5040
  81   2.0000      -8.060505      -219.3375
  82   2.0000      -8.058785      -219.2907
  83   2.0000      -8.057607      -219.2586
  84   2.0000      -6.088659      -165.6808
  85   2.0000      -6.080908      -165.4699
  86   2.0000      -6.080003      -165.4453
  87   2.0000      -6.058779      -164.8678
  88   2.0000      -6.054397      -164.7485
  89   2.0000      -6.050716      -164.6483
  90   2.0000      -6.037064      -164.2769
  91   2.0000      -6.036576      -164.2636
  92   2.0000      -6.032965      -164.1653
  93   2.0000      -6.032329      -164.1480
  94   2.0000      -6.030363      -164.0945
  95   2.0000      -6.029191      -164.0626
  96   2.0000      -6.028448      -164.0424
  97   2.0000      -6.027549      -164.0180
  98   2.0000      -6.027460      -164.0155
  99   2.0000      -6.025749      -163.9690
 100   2.0000      -6.024339      -163.9306
 101   2.0000      -6.022695      -163.8859
 102   2.0000      -6.022037      -163.8680
 103   2.0000      -6.019637      -163.8027
 104   2.0000      -6.019259      -163.7924
 105   2.0000      -1.325740       -36.0752
 106   2.0000      -1.324918       -36.0529
 107   2.0000      -1.310836       -35.6696
 108   2.0000      -1.151269       -31.3276
 109   2.0000      -1.144400       -31.1407
 110   2.0000      -1.127255       -30.6742
 111   2.0000      -1.117073       -30.3971
 112   2.0000      -1.106409       -30.1069
 113   2.0000      -1.046132       -28.4667
 114   2.0000      -1.026938       -27.9444
 115   2.0000      -1.025068       -27.8935
 116   2.0000      -1.015102       -27.6223
 117   2.0000      -1.012873       -27.5617
 118   2.0000      -1.011445       -27.5228
 119   2.0000      -1.010715       -27.5029
 120   2.0000      -1.001028       -27.2393
 121   2.0000      -1.000522       -27.2256
 122   2.0000      -0.994708       -27.0674
 123   2.0000      -0.990362       -26.9491
 124   2.0000      -0.987184       -26.8626
 125   2.0000      -0.982362       -26.7314
 126   2.0000      -0.975247       -26.5378
 127   2.0000      -0.967391       -26.3240
 128   2.0000      -0.960530       -26.1374
 129   2.0000      -0.938293       -25.5322
 130   2.0000      -0.937206       -25.5027
 131   2.0000      -0.920498       -25.0480
 132   2.0000      -0.912332       -24.8258
 133   2.0000      -0.909646       -24.7527
 134   2.0000      -0.900409       -24.5014
 135   2.0000      -0.899683       -24.4816
 136   2.0000      -0.894142       -24.3308
 137   2.0000      -0.889189       -24.1961
 138   2.0000      -0.878616       -23.9083
 139   2.0000      -0.868059       -23.6211
 140   2.0000      -0.866155       -23.5693
 141   2.0000      -0.858782       -23.3687
 142   2.0000      -0.854828       -23.2610
 143   2.0000      -0.848896       -23.0996
 144   2.0000      -0.847094       -23.0506
 145   2.0000      -0.839277       -22.8379
 146   2.0000      -0.825720       -22.4690
 147   2.0000      -0.814370       -22.1601
 148   2.0000      -0.810593       -22.0573
 149   2.0000      -0.807429       -21.9713
 150   2.0000      -0.800006       -21.7693
 151   2.0000      -0.782714       -21.2987
 152   2.0000      -0.776182       -21.1210
 153   2.0000      -0.774381       -21.0720
 154   2.0000      -0.752554       -20.4780
 155   2.0000      -0.749249       -20.3881
 156   2.0000      -0.730953       -19.8903
 157   2.0000      -0.728612       -19.8265
 158   2.0000      -0.724988       -19.7279
 159   2.0000      -0.719904       -19.5896
 160   2.0000      -0.710325       -19.3289
 161   2.0000      -0.699035       -19.0217
 162   2.0000      -0.696377       -18.9494
 163   2.0000      -0.692509       -18.8441
 164   2.0000      -0.690091       -18.7783
 165   2.0000      -0.688312       -18.7299
 166   2.0000      -0.683179       -18.5903
 167   2.0000      -0.672297       -18.2941
 168   2.0000      -0.666997       -18.1499
 169   2.0000      -0.662428       -18.0256
 170   2.0000      -0.659572       -17.9479
 171   2.0000      -0.651959       -17.7407
 172   2.0000      -0.649254       -17.6671
 173   2.0000      -0.647356       -17.6154
 174   2.0000      -0.643865       -17.5205
 175   2.0000      -0.638162       -17.3653
 176   2.0000      -0.635742       -17.2994
 177   2.0000      -0.631068       -17.1722
 178   2.0000      -0.630124       -17.1465
 179   2.0000      -0.627772       -17.0825
 180   2.0000      -0.619609       -16.8604
 181   2.0000      -0.618969       -16.8430
 182   2.0000      -0.614034       -16.7087
 183   2.0000      -0.612796       -16.6750
 184   2.0000      -0.610381       -16.6093
 185   2.0000      -0.596812       -16.2401
 186   2.0000      -0.592728       -16.1289
 187   2.0000      -0.592132       -16.1127
 188   2.0000      -0.590163       -16.0592
 189   2.0000      -0.582626       -15.8541
 190   2.0000      -0.579173       -15.7601
 191   2.0000      -0.575043       -15.6477
 192   2.0000      -0.572329       -15.5739
 193   2.0000      -0.565341       -15.3837
 194   2.0000      -0.560506       -15.2521
 195   2.0000      -0.560151       -15.2425
 196   2.0000      -0.557531       -15.1712
 197   2.0000      -0.552304       -15.0290
 198   2.0000      -0.551615       -15.0102
 199   2.0000      -0.546330       -14.8664
 200   2.0000      -0.545512       -14.8441
 201   2.0000      -0.542345       -14.7580
 202   2.0000      -0.536862       -14.6087
 203   2.0000      -0.535607       -14.5746
 204   2.0000      -0.532572       -14.4920
 205   2.0000      -0.530565       -14.4374
 206   2.0000      -0.526236       -14.3196
 207   2.0000      -0.525861       -14.3094
 208   2.0000      -0.523232       -14.2379
 209   2.0000      -0.521551       -14.1921
 210   2.0000      -0.516893       -14.0654
 211   2.0000      -0.514795       -14.0083
 212   2.0000      -0.509376       -13.8608
 213   2.0000      -0.508529       -13.8378
 214   2.0000      -0.506010       -13.7692
 215   2.0000      -0.503621       -13.7042
 216   2.0000      -0.500877       -13.6296
 217   2.0000      -0.498642       -13.5687
 218   2.0000      -0.496629       -13.5140
 219   2.0000      -0.494350       -13.4519
 220   2.0000      -0.493483       -13.4283
 221   2.0000      -0.489841       -13.3292
 222   2.0000      -0.488727       -13.2989
 223   2.0000      -0.483511       -13.1570
 224   2.0000      -0.477072       -12.9818
 225   2.0000      -0.475352       -12.9350
 226   2.0000      -0.472728       -12.8636
 227   2.0000      -0.470627       -12.8064
 228   2.0000      -0.470384       -12.7998
 229   2.0000      -0.469595       -12.7783
 230   2.0000      -0.468909       -12.7597
 231   2.0000      -0.462872       -12.5954
 232   2.0000      -0.458161       -12.4672
 233   2.0000      -0.456683       -12.4270
 234   2.0000      -0.456118       -12.4116
 235   2.0000      -0.454362       -12.3638
 236   2.0000      -0.453598       -12.3430
 237   2.0000      -0.451489       -12.2857
 238   2.0000      -0.449879       -12.2418
 239   2.0000      -0.449075       -12.2200
 240   2.0000      -0.446320       -12.1450
 241   2.0000      -0.443375       -12.0648
 242   2.0000      -0.440051       -11.9744
 243   2.0000      -0.439056       -11.9473
 244   2.0000      -0.438405       -11.9296
 245   2.0000      -0.434425       -11.8213
 246   2.0000      -0.433579       -11.7983
 247   2.0000      -0.431021       -11.7287
 248   2.0000      -0.427122       -11.6226
 249   2.0000      -0.421517       -11.4701
 250   2.0000      -0.418970       -11.4007
 251   2.0000      -0.416388       -11.3305
 252   2.0000      -0.416233       -11.3263
 253   2.0000      -0.416011       -11.3202
 254   2.0000      -0.414051       -11.2669
 255   2.0000      -0.410379       -11.1670
 256   2.0000      -0.406703       -11.0670
 257   2.0000      -0.403963       -10.9924
 258   2.0000      -0.401297       -10.9199
 259   2.0000      -0.400404       -10.8956
 260   2.0000      -0.394724       -10.7410
 261   2.0000      -0.389355       -10.5949
 262   2.0000      -0.389203       -10.5907
 263   2.0000      -0.383087       -10.4243
 264   2.0000      -0.379137       -10.3168
 265   2.0000      -0.377728       -10.2785
 266   2.0000      -0.370901       -10.0927
 267   2.0000      -0.370401       -10.0791
 268   2.0000      -0.360143        -9.8000
 269   2.0000      -0.358144        -9.7456
 270   2.0000      -0.357035        -9.7154
 271   2.0000      -0.354712        -9.6522
 272   2.0000      -0.350077        -9.5261
 273   2.0000      -0.347881        -9.4663
 274   2.0000      -0.342597        -9.3225
 275   2.0000      -0.341311        -9.2875
 276   2.0000      -0.340041        -9.2530
 277   2.0000      -0.336089        -9.1455
 278   2.0000      -0.325161        -8.8481
 279   2.0000      -0.314028        -8.5451
 280   2.0000      -0.308940        -8.4067
 281   2.0000      -0.299749        -8.1566
 282   2.0000      -0.290422        -7.9028
 283   2.0000      -0.274743        -7.4762
 284   2.0000      -0.261191        -7.1074
 285   2.0000      -0.225596        -6.1388
 286   0.0000      -0.123079        -3.3491
 287   0.0000      -0.092654        -2.5212
 288   0.0000      -0.071443        -1.9441
 289   0.0000      -0.068462        -1.8629
 290   0.0000      -0.052369        -1.4250

MULLIKEN ATOMIC CHARGES
-----------------------
   0 C :   -0.104585
   1 C :    0.242210
   2 F :   -0.168532
   3 C :    0.238031
   4 F :   -0.170035
   5 C :   -0.103682
   6 C :    0.112373
   7 C :    0.110713
   8 C :   -0.079898
   9 C :    0.043142
  10 C :   -0.003348
  11 C :   -0.074835
  12 C :    0.177798
  13 O :   -0.211330
  14 C :   -0.143996
  15 C :    0.339349
  16 C :   -0.348557
  17 C :   -0.197646
  18 N :    0.149112
  19 C :   -0.185113
  20 N :    0.151344
  21 C :    0.010784
  22 N :    0.004064
  23 C :   -0.117363
  24 S :    0.202113
  25 C :   -0.003185
  26 N :    0.275217
  27 O :   -0.236967
  28 O :   -0.259109
  29 C :    0.006496
  30 C :    0.101049
  31 C :   -0.066411
  32 C :    0.012648
  33 C :   -0.081334
  34 C :    0.001425
  35 C :   -0.308284
  36 N :    0.196922
  37 C :    0.158581
  38 C :   -0.223571
  39 S :    0.145358
  40 S :    0.180100
  41 C :   -0.208170
  42 C :    0.092708
  43 C :    0.039423
  44 C :   -0.320077
  45 N :    0.191744
  46 C :   -0.195142
  47 S :    0.191803
  48 C :    0.092015
  49 C :   -0.023236
  50 C :   -0.018398
  51 N :   -0.018825
  52 C :   -0.102905
  53 C :   -0.096951
  54 N :   -0.007155
  55 C :   -0.241339
  56 N :    0.245944
  57 C :   -0.242520
  58 N :    0.219329
  59 C :    0.110777
  60 C :    0.006648
  61 C :   -0.010018
  62 N :   -0.278050
  63 S :    0.544439
  64 N :   -0.283564
  65 C :   -0.136671
  66 C :    0.039844
  67 C :    0.015268
  68 C :    0.048918
  69 C :   -0.038320
  70 S :    0.131472
  71 C :   -0.054719
  72 C :    0.024055
  73 C :    0.073074
  74 C :   -0.083529
  75 S :    0.155694
  76 C :    0.003020
  77 H :    0.009025
  78 H :    0.000468
  79 H :   -0.005018
  80 H :   -0.008991
  81 H :    0.063691
  82 H :    0.167924
  83 H :    0.021763
  84 H :    0.018199
  85 H :    0.023292
  86 H :    0.002901
  87 H :   -0.002296
  88 H :   -0.010880
  89 H :   -0.001441
  90 H :    0.002077
  91 H :    0.034412
  92 H :    0.047239
Sum of atomic charges:   -0.0000000

LOEWDIN ATOMIC CHARGES
----------------------
   0 C :   -0.028393
   1 C :    0.067620
   2 F :   -0.046756
   3 C :    0.068170
   4 F :   -0.047540
   5 C :   -0.032287
   6 C :   -0.009728
   7 C :   -0.006300
   8 C :    0.020155
   9 C :   -0.020745
  10 C :   -0.052596
  11 C :    0.032211
  12 C :    0.093050
  13 O :   -0.173018
  14 C :   -0.151602
  15 C :    0.080171
  16 C :   -0.151062
  17 C :   -0.017692
  18 N :   -0.056397
  19 C :   -0.019715
  20 N :   -0.054661
  21 C :    0.121718
  22 N :    0.075564
  23 C :   -0.120141
  24 S :    0.476490
  25 C :   -0.199958
  26 N :    0.272871
  27 O :   -0.203478
  28 O :   -0.224496
  29 C :    0.004460
  30 C :   -0.082721
  31 C :   -0.044271
  32 C :   -0.013572
  33 C :   -0.130907
  34 C :   -0.082280
  35 C :   -0.035603
  36 N :   -0.039086
  37 C :   -0.060424
  38 C :   -0.326046
  39 S :    0.450377
  40 S :    0.420100
  41 C :   -0.340563
  42 C :   -0.065193
  43 C :   -0.093584
  44 C :   -0.038708
  45 N :   -0.059127
  46 C :   -0.127633
  47 S :    0.478494
  48 C :   -0.082852
  49 C :   -0.001865
  50 C :   -0.005885
  51 N :   -0.021776
  52 C :   -0.060634
  53 C :   -0.011070
  54 N :   -0.039654
  55 C :   -0.033512
  56 N :   -0.005774
  57 C :   -0.046897
  58 N :   -0.034254
  59 C :   -0.014271
  60 C :   -0.048305
  61 C :   -0.036368
  62 N :   -0.260029
  63 S :    0.673192
  64 N :   -0.282589
  65 C :   -0.048426
  66 C :   -0.116064
  67 C :   -0.038949
  68 C :   -0.013455
  69 C :   -0.211960
  70 S :    0.472185
  71 C :   -0.139433
  72 C :   -0.029810
  73 C :   -0.003572
  74 C :   -0.146915
  75 S :    0.422564
  76 C :   -0.026840
  77 H :    0.048430
  78 H :    0.045252
  79 H :    0.041037
  80 H :    0.041107
  81 H :    0.046011
  82 H :    0.085493
  83 H :    0.050503
  84 H :    0.023342
  85 H :    0.045817
  86 H :    0.044330
  87 H :    0.036546
  88 H :    0.032062
  89 H :    0.036102
  90 H :    0.039033
  91 H :    0.035395
  92 H :    0.037590

  Mayer bond orders larger than 0.100000
B(  0-C ,  1-C ) :   1.4371 B(  0-C ,  5-C ) :   0.1078 B(  0-C ,  7-C ) :   1.1925
B(  0-C , 77-H ) :   1.0064 B(  1-C ,  2-F ) :   1.1379 B(  1-C ,  3-C ) :   1.1936
B(  3-C ,  4-F ) :   1.1351 B(  3-C ,  5-C ) :   1.4410 B(  5-C ,  6-C ) :   1.1940
B(  5-C , 78-H ) :   1.0064 B(  6-C ,  7-C ) :   1.2583 B(  6-C , 11-C ) :   1.1859
B(  7-C ,  8-C ) :   1.2092 B(  8-C ,  9-C ) :   1.4641 B(  8-C , 79-H ) :   0.9889
B(  9-C , 10-C ) :   1.2205 B(  9-C , 15-C ) :   0.9854 B( 10-C , 11-C ) :   1.4734
B( 10-C , 12-C ) :   0.9735 B( 11-C , 80-H ) :   1.0169 B( 12-C , 13-O ) :   2.0636
B( 12-C , 14-C ) :   0.9946 B( 13-O , 82-H ) :   0.1411 B( 14-C , 15-C ) :   1.1087
B( 14-C , 21-C ) :   1.4358 B( 15-C , 16-C ) :   1.6236 B( 16-C , 17-C ) :   1.1476
B( 16-C , 19-C ) :   1.1462 B( 17-C , 18-N ) :   2.9423 B( 19-C , 20-N ) :   2.9633
B( 21-C , 22-N ) :   1.3627 B( 21-C , 81-H ) :   0.9279 B( 22-N , 23-C ) :   1.1398
B( 22-N , 82-H ) :   0.8331 B( 23-C , 24-S ) :   1.1432 B( 23-C , 30-C ) :   1.4097
B( 24-S , 25-C ) :   1.1013 B( 25-C , 26-N ) :   0.9548 B( 25-C , 29-C ) :   1.4843
B( 26-N , 27-O ) :   1.5487 B( 26-N , 28-O ) :   1.5162 B( 27-O , 28-O ) :   0.2650
B( 29-C , 30-C ) :   1.2436 B( 29-C , 83-H ) :   1.0061 B( 30-C , 31-C ) :   1.0371
B( 31-C , 32-C ) :   1.7185 B( 31-C , 84-H ) :   0.9608 B( 32-C , 33-C ) :   1.1637
B( 32-C , 85-H ) :   0.9631 B( 33-C , 34-C ) :   1.4952 B( 33-C , 39-S ) :   1.1185
B( 34-C , 35-C ) :   1.1648 B( 34-C , 37-C ) :   1.2516 B( 35-C , 36-N ) :   2.9854
B( 37-C , 38-C ) :   1.4114 B( 37-C , 42-C ) :   1.0747 B( 38-C , 39-S ) :   1.0964
B( 38-C , 40-S ) :   1.0850 B( 40-S , 41-C ) :   1.0828 B( 41-C , 42-C ) :   1.4196
B( 41-C , 47-S ) :   1.0490 B( 42-C , 43-C ) :   1.2583 B( 43-C , 44-C ) :   1.1500
B( 43-C , 46-C ) :   1.4777 B( 44-C , 45-N ) :   2.9972 B( 46-C , 47-S ) :   1.1525
B( 46-C , 48-C ) :   1.1534 B( 48-C , 49-C ) :   1.3178 B( 48-C , 59-C ) :   0.1043
B( 48-C , 61-C ) :   1.1869 B( 49-C , 50-C ) :   1.1021 B( 49-C , 54-N ) :   1.3794
B( 50-C , 51-N ) :   1.4809 B( 50-C , 59-C ) :   1.1428 B( 51-N , 52-C ) :   1.5572
B( 51-N , 70-S ) :   0.1021 B( 52-C , 53-C ) :   1.2612 B( 52-C , 57-C ) :   1.1792
B( 53-C , 54-N ) :   1.6966 B( 53-C , 55-C ) :   1.1660 B( 55-C , 56-N ) :   3.0461
B( 57-C , 58-N ) :   2.9783 B( 59-C , 60-C ) :   1.1363 B( 59-C , 65-C ) :   1.3565
B( 60-C , 61-C ) :   1.1144 B( 60-C , 64-N ) :   1.5605 B( 61-C , 62-N ) :   1.5250
B( 62-N , 63-S ) :   1.2606 B( 62-N , 64-N ) :   0.1395 B( 63-S , 64-N ) :   1.2688
B( 65-C , 66-C ) :   1.3790 B( 65-C , 86-H ) :   0.9540 B( 66-C , 67-C ) :   1.1881
B( 66-C , 70-S ) :   1.1055 B( 67-C , 68-C ) :   1.5418 B( 67-C , 87-H ) :   1.0031
B( 68-C , 69-C ) :   1.2107 B( 68-C , 88-H ) :   0.9924 B( 69-C , 70-S ) :   0.9944
B( 69-C , 71-C ) :   1.4785 B( 71-C , 72-C ) :   1.1552 B( 71-C , 75-S ) :   1.1035
B( 72-C , 73-C ) :   1.6529 B( 72-C , 89-H ) :   0.9939 B( 73-C , 74-C ) :   1.0780
B( 73-C , 90-H ) :   0.9927 B( 74-C , 75-S ) :   1.0059 B( 74-C , 76-C ) :   1.8564
B( 76-C , 91-H ) :   0.9523 B( 76-C , 92-H ) :   0.9400

-----------------------------------------------------------------------------
         ABSORPTION SPECTRUM VIA TRANSITION ELECTRIC DIPOLE MOMENTS
-----------------------------------------------------------------------------
State   Energy  Wavelength   fosc         T2         TX        TY        TZ
        (cm-1)    (nm)                  (au**2)     (au)      (au)      (au)
-----------------------------------------------------------------------------
   0    7833.1   1276.6   0.507062187  21.31106   1.72358  -2.24811   3.64504
   1   18270.4    547.3   0.022579752   0.40686  -0.40264   0.36255  -0.33659
   2   18447.5    542.1   0.264814206   4.72584   0.21167   0.79475  -2.01231
   3   18497.2    540.6   0.013037868   0.23205   0.43373   0.00795  -0.20942
   4   20387.5    490.5   0.062927964   1.01614   0.56343   0.32387   0.77058
   5   20454.4    488.9   0.218699212   3.51995  -0.96730  -1.22554  -1.04035
   6   22246.1    449.5   0.500377062   7.40491  -0.06507   1.43992  -2.30809
   7   24156.9    414.0   0.042896438   0.58460   0.13467  -0.39051   0.64340
   8   24397.6    409.9   0.003661617   0.04941  -0.08525  -0.14581  -0.14451
   9   25469.0    392.6   0.079859677   1.03226  -0.18732  -0.44498   0.89396
  10   25897.5    386.1   0.032157444   0.40879   0.47488   0.30717   0.29820
  11   26010.8    384.5   0.283642230   3.58998  -1.18677  -1.18035  -0.88788
  12   26250.6    380.9   0.106793752   1.33931   0.40196   0.47703  -0.97477
  13   26670.8    374.9   0.219661843   2.71141   0.22621   1.60449  -0.29299
  14   27638.6    361.8   0.044810468   0.53375  -0.52054   0.30655  -0.41087
  15   28763.6    347.7   0.146131460   1.67254  -0.25087  -1.21285   0.37229
  16   28843.3    346.7   0.138135743   1.57666   0.25595   1.07273  -0.60033
  17   29078.1    343.9   0.024503131   0.27742   0.32804  -0.24625   0.33040
  18   29300.8    341.3   0.504670904   5.67028   0.54853  -1.38819   1.85535
  19   29712.5    336.6   0.011570565   0.12820   0.14453   0.08942  -0.31514
  20   29910.6    334.3   0.132848021   1.46220   0.47810  -0.71079   0.85346
  21   30024.9    333.1   0.184267918   2.02043   0.97056   0.89549   0.52586
  22   30217.3    330.9   0.066692315   0.72660   0.48298   0.04207  -0.70111
  23   30347.6    329.5   0.093680930   1.01626  -0.68605  -0.08508  -0.73373
  24   30526.1    327.6   0.010030757   0.10818  -0.04843  -0.31674   0.07422
  25   31051.6    322.0   0.071931902   0.76263   0.77817  -0.22695  -0.32492
  26   31261.5    319.9   0.336038262   3.53879   1.45809  -0.35126  -1.13551
  27   31415.5    318.3   0.419221244   4.39314   1.30808   1.27297  -1.03034
  28   32234.3    310.2   0.474748762   4.84866   1.49622   0.79626   1.40569
  29   32620.0    306.6   0.059146520   0.59693   0.41422   0.42109  -0.49802
  30   33044.4    302.6   0.038482344   0.38339   0.50925  -0.26818   0.22834
  31   33270.4    300.6   0.187765345   1.85795   0.34402  -0.74203   1.09041
  32   33426.7    299.2   0.045112186   0.44430   0.26106  -0.46923   0.39493
  33   33517.8    298.3   0.005944062   0.05838   0.20927   0.05514   0.10747
  34   33678.9    296.9   0.035387922   0.34592  -0.00224  -0.54782   0.21401
  35   33996.0    294.2   0.197768686   1.91516  -1.17069  -0.11254   0.72936
  36   34151.5    292.8   0.175199196   1.68887   1.15112  -0.06614  -0.59951
  37   34728.3    287.9   0.319819250   3.03177  -1.00380  -0.15274  -1.41450
  38   35239.1    283.8   0.352408722   3.29229   1.30654   0.18307   1.24569
  39   35673.0    280.3   0.024288511   0.22415   0.14474   0.27306  -0.35866
  40   35834.7    279.1   0.044431720   0.40819   0.41386  -0.15679   0.46079
  41   35928.4    278.3   0.000760876   0.00697  -0.04181  -0.01350  -0.07100
  42   36300.5    275.5   0.007426357   0.06735   0.00984  -0.07676   0.24771
  43   36799.2    271.7   0.087861783   0.78603  -0.46591  -0.32958   0.67847
  44   36805.6    271.7   0.042953814   0.38421   0.29346  -0.42344   0.34466
  45   36954.7    270.6   0.009916168   0.08834   0.28283  -0.04762   0.07796
  46   36986.6    270.4   0.027387434   0.24377   0.24102  -0.29267   0.31627
  47   37166.9    269.1   0.077606517   0.68741   0.33991   0.33885  -0.67606
  48   37295.2    268.1   0.043631550   0.38514   0.18267  -0.39267   0.44451
  49   37583.2    266.1   0.018955108   0.16604  -0.15863  -0.10489   0.36038
  50   37861.5    264.1   0.099140846   0.86205  -0.67818  -0.10578   0.62524
  51   37927.7    263.7   0.003258035   0.02828   0.03418  -0.01713   0.16376
  52   38307.5    261.0   0.009423429   0.08098  -0.11956   0.04240   0.25474
  53   38424.6    260.2   0.004867722   0.04171  -0.09460  -0.17395  -0.04995
  54   38506.5    259.7   0.000413098   0.00353   0.04856  -0.00351  -0.03407
  55   38662.8    258.6   0.005589562   0.04759  -0.19805  -0.00630   0.09127
  56   38754.5    258.0   0.266182386   2.26117   0.36620   1.44286  -0.21266
  57   39101.6    255.7   0.054360486   0.45768   0.36146  -0.57184  -0.00603
  58   39135.2    255.5   0.084615534   0.71180  -0.14583  -0.78373   0.27624
  59   39368.2    254.0   0.006916582   0.05784   0.20590  -0.12215   0.02291
  60   39563.7    252.8   0.028723379   0.23901   0.42835  -0.09888  -0.21388
  61   39694.0    251.9   0.008918047   0.07396  -0.22051  -0.12524   0.09824
  62   40014.7    249.9   0.006247379   0.05140  -0.15200  -0.06832   0.15371
  63   40085.3    249.5   0.024732349   0.20312   0.15608  -0.10578   0.40936

FINAL SINGLE POINT ENERGY     -5894.009028710710

DIPOLE MOMENT
-------------
                                X             Y             Z
Electronic contribution:     23.88185      -7.12785      31.18625
Nuclear contribution   :    -24.40703      10.40864     -33.25390
                        -----------------------------------------
Total Dipole Moment    :     -0.52518       3.28079      -2.06765
                        -----------------------------------------
Magnitude (a.u.)       :      3.91338
Magnitude (Debye)      :      9.94703

Rotational constants in cm-1:     0.001173     0.000232     0.000207
Rotational constants in MHz :    35.176098     6.941442     6.192974

                             ****ORCA TERMINATED NORMALLY****
TOTAL RUN TIME: 0 days 0 hours 9 minutes 37 seconds 188 msec
