                         Program Version 4.2.0 -  RELEASE  -
|  1> # ORCA input file
|  2> # SCF done       -210.500292319462          0.000853563207
|  3> ! CAM-B3LYP def2-SVP def2/J RIJCOSX Grid4 TightSCF
|  4> %maxcore 5000
|  5> %tddft
|  6>     Mode sTDDFT
|  7>     Ethresh 5.0
|  8>     maxcore 5000
|  9> end
| 10>
| 11> %pal
| 12>   nprocs 6
| 13>   end
| 14> * xyz 0 1
| 15>    C       -9.82684        -4.76289        12.10915
| 16>    C      -10.68258        -5.48761        12.88963
| 17>    F      -11.12804        -4.98502        14.04706
| 18>    C      -11.10774        -6.77119        12.48818
| 19>    F      -11.94722        -7.45776        13.27304
| 20>    C      -10.67059        -7.31154        11.31167
| 21>    C       -9.78662        -6.59014        10.48507
| 22>    C       -9.35571        -5.29251        10.89014
| 23>    C       -8.46485        -4.55318        10.08145
| 24>    C       -8.01857        -5.09485         8.90300
| 25>    C       -8.46145        -6.38572         8.50061
| 26>    C       -9.31797        -7.12548         9.26567
| 27>    C       -7.84517        -6.74465         7.20829
| 28>    O       -7.86548        -7.83008         6.68069
| 29>    C       -7.14133        -5.50199         6.75470
| 30>    C       -7.10091        -4.58203         7.89525
| 31>    C       -6.29080        -3.49304         8.02927
| 32>    C       -5.31690        -3.08398         7.08899
| 33>    N       -4.48671        -2.70794         6.39287
| 34>    C       -6.27892        -2.65977         9.17068
| 35>    N       -6.23175        -1.95031        10.07075
| 36>    C       -6.73093        -5.20040         5.51194
| 37>    C       -6.85283        -6.06595         4.30093
| 38>    C       -5.90988        -7.28398         4.39398
| 39>    N       -8.23949        -6.59799         4.22905
| 40>    N       -8.80133        -6.88862         3.21074
| 41>    C       -8.24523        -6.77079         1.84647
| 42>    C       -7.26423        -5.65955         1.84857
| 43>    C       -6.58448        -5.31085         3.05427
| 44>    N       -5.85377        -4.26131         2.80955
| 45>    O       -6.04590        -3.96486         1.51724
| 46>    N       -6.90936        -4.80656         0.93144
| 47>    C       -9.41560        -6.50982         0.89269
| 48>    C       -7.54299        -8.06187         1.50173
| 49>    C       -7.99261        -9.29262         1.81080
| 50>    C       -9.16567        -9.68514         2.53633
| 51>    C       -9.31243       -11.02088         2.66645
| 52>    C       -8.27607       -11.79125         2.06288
| 53>    S       -7.09329       -10.73252         1.31558
| 54>    C       -8.14837       -13.15278         2.03470
| 55>    C       -9.01479       -14.13582         2.58932
| 56>    C       -8.59663       -15.40769         2.41342
| 57>    C       -7.35454       -15.53833         1.70394
| 58>    S       -6.77912       -13.92714         1.25601
| 59>    C       -6.75177       -16.70970         1.42113
| 60>    C       -5.44365       -16.94285         0.72591
| 61>    C       -5.60972       -17.97522        -0.39385
| 62>    N       -4.62598       -17.58266         1.78557
| 63>    N       -3.79686       -17.03085         2.46332
| 64>    C       -3.41022       -15.62140         2.39019
| 65>    C       -3.76147       -15.08660         1.04793
| 66>    C       -4.75811       -15.72332         0.24892
| 67>    N       -4.78973       -15.11359        -0.90204
| 68>    O       -3.88197       -14.13236        -0.83295
| 69>    N       -3.24638       -14.11844         0.34613
| 70>    C       -4.17165       -14.84859         3.48744
| 71>    C       -1.93719       -15.46481         2.61450
| 72>    C       -0.99758       -16.37018         2.91107
| 73>    C        0.44099       -15.98601         2.70143
| 74>    O        0.88480       -14.86757         2.64377
| 75>    C        1.15132       -17.26453         2.52080
| 76>    C        2.45084       -17.47337         2.15386
| 77>    C        2.91798       -18.79715         2.00604
| 78>    C        2.02320       -19.88384         2.23400
| 79>    C        2.49504       -21.20313         2.07613
| 80>    C        3.79221       -21.43201         1.71324
| 81>    C        4.67658       -20.35629         1.49027
| 82>    C        4.24998       -19.06624         1.63324
| 83>    F        5.94207       -20.61187         1.13498
| 84>    F        4.23855       -22.68530         1.56477
| 85>    C        0.68643       -19.63787         2.61971
| 86>    C        0.25725       -18.34527         2.77152
| 87>    C       -1.02442       -17.80009         3.21049
| 88>    C       -1.93963       -18.46157         3.97253
| 89>    C       -2.99064       -17.83111         4.67801
| 90>    N       -3.75970       -17.37299         5.39633
| 91>    C       -1.85796       -19.84161         4.26021
| 92>    N       -1.83053       -20.96014         4.51329
| 93>    H       -9.50950        -3.78360        12.43183
| 94>    H      -11.00492        -8.29461        11.01936
| 95>    H       -8.15998        -3.57290        10.41056
| 96>    H       -9.63446        -8.10508         8.94140
| 97>    H       -6.30075        -4.22777         5.31070
| 98>    H       -6.22795        -7.91957         5.21536
| 99>    H       -4.89437        -6.93420         4.56247
|100>    H       -5.94516        -7.85622         3.46815
|101>    H       -9.93847        -5.60277         1.18661
|102>    H      -10.10754        -7.34594         0.92256
|103>    H       -9.03472        -6.38548        -0.11704
|104>    H       -6.62662        -7.95717         0.93916
|105>    H       -9.83160        -8.94602         2.94402
|106>    H      -10.13129       -11.49183         3.18019
|107>    H       -9.91881       -13.86104         3.10243
|108>    H       -9.11690       -16.28005         2.76604
|109>    H       -7.22552       -17.61974         1.76012
|110>    H       -6.02140       -18.89323         0.01494
|111>    H       -4.64550       -18.19275        -0.84726
|112>    H       -6.27449       -17.57585        -1.15457
|113>    H       -5.24379       -14.96245         3.34864
|114>    H       -3.91109       -13.79542         3.42317
|115>    H       -3.90544       -15.24052         4.46471
|116>    H       -1.58495       -14.46096         2.40085
|117>    H        3.11125       -16.63795         1.97805
|118>    H        1.83356       -22.03796         2.24720
|119>    H        4.93808       -18.25389         1.45925
|120>    H        0.02889       -20.47761         2.77839
|121> *
|122>
|123>                          ****END OF INPUT****

CARTESIAN COORDINATES (ANGSTROEM)
---------------------------------
  C     -9.826840   -4.762890   12.109150
  C    -10.682580   -5.487610   12.889630
  F    -11.128040   -4.985020   14.047060
  C    -11.107740   -6.771190   12.488180
  F    -11.947220   -7.457760   13.273040
  C    -10.670590   -7.311540   11.311670
  C     -9.786620   -6.590140   10.485070
  C     -9.355710   -5.292510   10.890140
  C     -8.464850   -4.553180   10.081450
  C     -8.018570   -5.094850    8.903000
  C     -8.461450   -6.385720    8.500610
  C     -9.317970   -7.125480    9.265670
  C     -7.845170   -6.744650    7.208290
  O     -7.865480   -7.830080    6.680690
  C     -7.141330   -5.501990    6.754700
  C     -7.100910   -4.582030    7.895250
  C     -6.290800   -3.493040    8.029270
  C     -5.316900   -3.083980    7.088990
  N     -4.486710   -2.707940    6.392870
  C     -6.278920   -2.659770    9.170680
  N     -6.231750   -1.950310   10.070750
  C     -6.730930   -5.200400    5.511940
  C     -6.852830   -6.065950    4.300930
  C     -5.909880   -7.283980    4.393980
  N     -8.239490   -6.597990    4.229050
  N     -8.801330   -6.888620    3.210740
  C     -8.245230   -6.770790    1.846470
  C     -7.264230   -5.659550    1.848570
  C     -6.584480   -5.310850    3.054270
  N     -5.853770   -4.261310    2.809550
  O     -6.045900   -3.964860    1.517240
  N     -6.909360   -4.806560    0.931440
  C     -9.415600   -6.509820    0.892690
  C     -7.542990   -8.061870    1.501730
  C     -7.992610   -9.292620    1.810800
  C     -9.165670   -9.685140    2.536330
  C     -9.312430  -11.020880    2.666450
  C     -8.276070  -11.791250    2.062880
  S     -7.093290  -10.732520    1.315580
  C     -8.148370  -13.152780    2.034700
  C     -9.014790  -14.135820    2.589320
  C     -8.596630  -15.407690    2.413420
  C     -7.354540  -15.538330    1.703940
  S     -6.779120  -13.927140    1.256010
  C     -6.751770  -16.709700    1.421130
  C     -5.443650  -16.942850    0.725910
  C     -5.609720  -17.975220   -0.393850
  N     -4.625980  -17.582660    1.785570
  N     -3.796860  -17.030850    2.463320
  C     -3.410220  -15.621400    2.390190
  C     -3.761470  -15.086600    1.047930
  C     -4.758110  -15.723320    0.248920
  N     -4.789730  -15.113590   -0.902040
  O     -3.881970  -14.132360   -0.832950
  N     -3.246380  -14.118440    0.346130
  C     -4.171650  -14.848590    3.487440
  C     -1.937190  -15.464810    2.614500
  C     -0.997580  -16.370180    2.911070
  C      0.440990  -15.986010    2.701430
  O      0.884800  -14.867570    2.643770
  C      1.151320  -17.264530    2.520800
  C      2.450840  -17.473370    2.153860
  C      2.917980  -18.797150    2.006040
  C      2.023200  -19.883840    2.234000
  C      2.495040  -21.203130    2.076130
  C      3.792210  -21.432010    1.713240
  C      4.676580  -20.356290    1.490270
  C      4.249980  -19.066240    1.633240
  F      5.942070  -20.611870    1.134980
  F      4.238550  -22.685300    1.564770
  C      0.686430  -19.637870    2.619710
  C      0.257250  -18.345270    2.771520
  C     -1.024420  -17.800090    3.210490
  C     -1.939630  -18.461570    3.972530
  C     -2.990640  -17.831110    4.678010
  N     -3.759700  -17.372990    5.396330
  C     -1.857960  -19.841610    4.260210
  N     -1.830530  -20.960140    4.513290
  H     -9.509500   -3.783600   12.431830
  H    -11.004920   -8.294610   11.019360
  H     -8.159980   -3.572900   10.410560
  H     -9.634460   -8.105080    8.941400
  H     -6.300750   -4.227770    5.310700
  H     -6.227950   -7.919570    5.215360
  H     -4.894370   -6.934200    4.562470
  H     -5.945160   -7.856220    3.468150
  H     -9.938470   -5.602770    1.186610
  H    -10.107540   -7.345940    0.922560
  H     -9.034720   -6.385480   -0.117040
  H     -6.626620   -7.957170    0.939160
  H     -9.831600   -8.946020    2.944020
  H    -10.131290  -11.491830    3.180190
  H     -9.918810  -13.861040    3.102430
  H     -9.116900  -16.280050    2.766040
  H     -7.225520  -17.619740    1.760120
  H     -6.021400  -18.893230    0.014940
  H     -4.645500  -18.192750   -0.847260
  H     -6.274490  -17.575850   -1.154570
  H     -5.243790  -14.962450    3.348640
  H     -3.911090  -13.795420    3.423170
  H     -3.905440  -15.240520    4.464710
  H     -1.584950  -14.460960    2.400850
  H      3.111250  -16.637950    1.978050
  H      1.833560  -22.037960    2.247200
  H      4.938080  -18.253890    1.459250
  H      0.028890  -20.477610    2.778390

 Total Charge           Charge          ....    0
 Multiplicity           Mult            ....    1
 Number of Electrons    NEL             ....  548
 Basis Dimension        Dim             .... 1240

ORBITAL ENERGIES
----------------

  NO   OCC          E(Eh)            E(eV)
   0   2.0000     -88.957236     -2420.6494
   1   2.0000     -88.951822     -2420.5021
   2   2.0000     -24.805448      -674.9906
   3   2.0000     -24.804423      -674.9627
   4   2.0000     -24.800576      -674.8580
   5   2.0000     -24.800334      -674.8514
   6   2.0000     -19.351717      -526.5870
   7   2.0000     -19.348176      -526.4906
   8   2.0000     -19.230272      -523.2823
   9   2.0000     -19.224063      -523.1134
  10   2.0000     -14.490113      -394.2960
  11   2.0000     -14.489098      -394.2684
  12   2.0000     -14.487854      -394.2345
  13   2.0000     -14.487399      -394.2222
  14   2.0000     -14.480884      -394.0449
  15   2.0000     -14.479046      -393.9949
  16   2.0000     -14.478745      -393.9867
  17   2.0000     -14.478262      -393.9735
  18   2.0000     -14.426969      -392.5778
  19   2.0000     -14.424528      -392.5114
  20   2.0000     -14.421103      -392.4182
  21   2.0000     -14.409467      -392.1015
  22   2.0000     -10.389372      -282.7092
  23   2.0000     -10.388511      -282.6858
  24   2.0000     -10.384167      -282.5676
  25   2.0000     -10.383836      -282.5585
  26   2.0000     -10.382080      -282.5108
  27   2.0000     -10.374829      -282.3134
  28   2.0000     -10.357621      -281.8452
  29   2.0000     -10.354287      -281.7545
  30   2.0000     -10.353426      -281.7311
  31   2.0000     -10.351569      -281.6805
  32   2.0000     -10.349319      -281.6193
  33   2.0000     -10.346537      -281.5436
  34   2.0000     -10.346482      -281.5421
  35   2.0000     -10.344513      -281.4885
  36   2.0000     -10.336799      -281.2786
  37   2.0000     -10.334783      -281.2237
  38   2.0000     -10.333414      -281.1865
  39   2.0000     -10.332139      -281.1518
  40   2.0000     -10.328727      -281.0589
  41   2.0000     -10.327553      -281.0270
  42   2.0000     -10.327104      -281.0148
  43   2.0000     -10.325491      -280.9709
  44   2.0000     -10.323477      -280.9161
  45   2.0000     -10.323065      -280.9049
  46   2.0000     -10.322481      -280.8890
  47   2.0000     -10.322384      -280.8864
  48   2.0000     -10.320842      -280.8444
  49   2.0000     -10.319435      -280.8061
  50   2.0000     -10.319166      -280.7988
  51   2.0000     -10.317803      -280.7617
  52   2.0000     -10.317743      -280.7601
  53   2.0000     -10.317669      -280.7580
  54   2.0000     -10.314357      -280.6679
  55   2.0000     -10.313634      -280.6482
  56   2.0000     -10.312827      -280.6263
  57   2.0000     -10.312046      -280.6050
  58   2.0000     -10.311692      -280.5954
  59   2.0000     -10.310115      -280.5525
  60   2.0000     -10.308733      -280.5149
  61   2.0000     -10.307896      -280.4921
  62   2.0000     -10.307367      -280.4777
  63   2.0000     -10.305299      -280.4215
  64   2.0000     -10.303935      -280.3843
  65   2.0000     -10.303305      -280.3672
  66   2.0000     -10.302943      -280.3573
  67   2.0000     -10.302422      -280.3432
  68   2.0000     -10.301039      -280.3055
  69   2.0000     -10.298675      -280.2412
  70   2.0000     -10.298067      -280.2247
  71   2.0000     -10.297993      -280.2226
  72   2.0000     -10.296886      -280.1925
  73   2.0000     -10.291716      -280.0518
  74   2.0000     -10.283121      -279.8179
  75   2.0000     -10.281782      -279.7815
  76   2.0000     -10.279916      -279.7307
  77   2.0000     -10.278035      -279.6796
  78   2.0000      -8.052454      -219.1184
  79   2.0000      -8.048394      -219.0079
  80   2.0000      -6.022380      -163.8773
  81   2.0000      -6.018301      -163.7663
  82   2.0000      -6.018271      -163.7655
  83   2.0000      -6.014299      -163.6574
  84   2.0000      -6.013148      -163.6261
  85   2.0000      -6.008833      -163.5087
  86   2.0000      -1.328287       -36.1445
  87   2.0000      -1.323683       -36.0192
  88   2.0000      -1.313346       -35.7380
  89   2.0000      -1.309218       -35.6256
  90   2.0000      -1.308797       -35.6142
  91   2.0000      -1.305670       -35.5291
  92   2.0000      -1.167277       -31.7632
  93   2.0000      -1.165587       -31.7172
  94   2.0000      -1.145957       -31.1831
  95   2.0000      -1.140797       -31.0427
  96   2.0000      -1.030569       -28.0432
  97   2.0000      -1.024558       -27.8796
  98   2.0000      -1.021208       -27.7885
  99   2.0000      -1.019883       -27.7524
 100   2.0000      -1.013487       -27.5784
 101   2.0000      -1.007143       -27.4057
 102   2.0000      -1.006598       -27.3909
 103   2.0000      -1.003938       -27.3185
 104   2.0000      -0.997018       -27.1302
 105   2.0000      -0.995172       -27.0800
 106   2.0000      -0.994736       -27.0681
 107   2.0000      -0.990351       -26.9488
 108   2.0000      -0.985033       -26.8041
 109   2.0000      -0.982214       -26.7274
 110   2.0000      -0.962300       -26.1855
 111   2.0000      -0.958980       -26.0952
 112   2.0000      -0.939541       -25.5662
 113   2.0000      -0.932914       -25.3859
 114   2.0000      -0.919949       -25.0331
 115   2.0000      -0.915314       -24.9070
 116   2.0000      -0.904842       -24.6220
 117   2.0000      -0.900475       -24.5032
 118   2.0000      -0.898999       -24.4630
 119   2.0000      -0.894060       -24.3286
 120   2.0000      -0.882347       -24.0099
 121   2.0000      -0.863457       -23.4959
 122   2.0000      -0.860265       -23.4090
 123   2.0000      -0.856591       -23.3090
 124   2.0000      -0.850816       -23.1519
 125   2.0000      -0.849287       -23.1103
 126   2.0000      -0.843953       -22.9651
 127   2.0000      -0.828697       -22.5500
 128   2.0000      -0.806667       -21.9505
 129   2.0000      -0.801587       -21.8123
 130   2.0000      -0.794525       -21.6201
 131   2.0000      -0.785359       -21.3707
 132   2.0000      -0.781890       -21.2763
 133   2.0000      -0.780391       -21.2355
 134   2.0000      -0.777646       -21.1608
 135   2.0000      -0.777244       -21.1499
 136   2.0000      -0.769506       -20.9393
 137   2.0000      -0.767133       -20.8747
 138   2.0000      -0.766213       -20.8497
 139   2.0000      -0.745047       -20.2738
 140   2.0000      -0.741057       -20.1652
 141   2.0000      -0.735077       -20.0025
 142   2.0000      -0.726867       -19.7791
 143   2.0000      -0.720831       -19.6148
 144   2.0000      -0.714166       -19.4335
 145   2.0000      -0.711283       -19.3550
 146   2.0000      -0.699576       -19.0364
 147   2.0000      -0.696457       -18.9516
 148   2.0000      -0.688754       -18.7420
 149   2.0000      -0.684225       -18.6187
 150   2.0000      -0.680653       -18.5215
 151   2.0000      -0.674091       -18.3430
 152   2.0000      -0.669938       -18.2300
 153   2.0000      -0.663530       -18.0556
 154   2.0000      -0.662361       -18.0238
 155   2.0000      -0.658860       -17.9285
 156   2.0000      -0.651943       -17.7403
 157   2.0000      -0.651180       -17.7195
 158   2.0000      -0.645841       -17.5742
 159   2.0000      -0.644546       -17.5390
 160   2.0000      -0.635180       -17.2841
 161   2.0000      -0.633965       -17.2511
 162   2.0000      -0.629975       -17.1425
 163   2.0000      -0.622925       -16.9507
 164   2.0000      -0.620928       -16.8963
 165   2.0000      -0.618711       -16.8360
 166   2.0000      -0.615013       -16.7353
 167   2.0000      -0.609020       -16.5723
 168   2.0000      -0.601517       -16.3681
 169   2.0000      -0.600741       -16.3470
 170   2.0000      -0.598898       -16.2968
 171   2.0000      -0.594004       -16.1637
 172   2.0000      -0.592642       -16.1266
 173   2.0000      -0.588078       -16.0024
 174   2.0000      -0.585513       -15.9326
 175   2.0000      -0.583356       -15.8739
 176   2.0000      -0.580116       -15.7858
 177   2.0000      -0.574435       -15.6312
 178   2.0000      -0.564725       -15.3669
 179   2.0000      -0.563275       -15.3275
 180   2.0000      -0.558287       -15.1918
 181   2.0000      -0.557770       -15.1777
 182   2.0000      -0.555628       -15.1194
 183   2.0000      -0.554067       -15.0769
 184   2.0000      -0.551617       -15.0103
 185   2.0000      -0.549639       -14.9564
 186   2.0000      -0.549127       -14.9425
 187   2.0000      -0.545074       -14.8322
 188   2.0000      -0.544526       -14.8173
 189   2.0000      -0.541217       -14.7273
 190   2.0000      -0.540172       -14.6988
 191   2.0000      -0.538311       -14.6482
 192   2.0000      -0.537291       -14.6204
 193   2.0000      -0.535069       -14.5600
 194   2.0000      -0.531804       -14.4711
 195   2.0000      -0.529163       -14.3993
 196   2.0000      -0.526495       -14.3267
 197   2.0000      -0.523593       -14.2477
 198   2.0000      -0.523023       -14.2322
 199   2.0000      -0.521359       -14.1869
 200   2.0000      -0.517426       -14.0799
 201   2.0000      -0.516113       -14.0441
 202   2.0000      -0.512779       -13.9534
 203   2.0000      -0.512321       -13.9410
 204   2.0000      -0.509389       -13.8612
 205   2.0000      -0.506754       -13.7895
 206   2.0000      -0.505034       -13.7427
 207   2.0000      -0.500683       -13.6243
 208   2.0000      -0.498070       -13.5532
 209   2.0000      -0.496944       -13.5225
 210   2.0000      -0.494143       -13.4463
 211   2.0000      -0.493100       -13.4179
 212   2.0000      -0.489688       -13.3251
 213   2.0000      -0.488158       -13.2835
 214   2.0000      -0.487427       -13.2636
 215   2.0000      -0.482179       -13.1207
 216   2.0000      -0.478471       -13.0199
 217   2.0000      -0.477765       -13.0006
 218   2.0000      -0.477420       -12.9913
 219   2.0000      -0.474456       -12.9106
 220   2.0000      -0.472224       -12.8499
 221   2.0000      -0.470705       -12.8085
 222   2.0000      -0.470057       -12.7909
 223   2.0000      -0.467464       -12.7203
 224   2.0000      -0.466020       -12.6810
 225   2.0000      -0.460963       -12.5434
 226   2.0000      -0.458749       -12.4832
 227   2.0000      -0.455866       -12.4048
 228   2.0000      -0.454804       -12.3759
 229   2.0000      -0.454364       -12.3639
 230   2.0000      -0.451310       -12.2808
 231   2.0000      -0.449752       -12.2384
 232   2.0000      -0.448714       -12.2101
 233   2.0000      -0.446382       -12.1467
 234   2.0000      -0.444110       -12.0848
 235   2.0000      -0.442491       -12.0408
 236   2.0000      -0.438622       -11.9355
 237   2.0000      -0.437160       -11.8957
 238   2.0000      -0.436505       -11.8779
 239   2.0000      -0.433019       -11.7830
 240   2.0000      -0.430685       -11.7195
 241   2.0000      -0.427643       -11.6368
 242   2.0000      -0.425691       -11.5837
 243   2.0000      -0.420866       -11.4523
 244   2.0000      -0.418949       -11.4002
 245   2.0000      -0.416886       -11.3440
 246   2.0000      -0.413990       -11.2652
 247   2.0000      -0.411640       -11.2013
 248   2.0000      -0.407952       -11.1009
 249   2.0000      -0.404775       -11.0145
 250   2.0000      -0.403119       -10.9694
 251   2.0000      -0.400901       -10.9091
 252   2.0000      -0.398487       -10.8434
 253   2.0000      -0.397785       -10.8243
 254   2.0000      -0.396951       -10.8016
 255   2.0000      -0.393462       -10.7066
 256   2.0000      -0.392335       -10.6760
 257   2.0000      -0.385480       -10.4894
 258   2.0000      -0.383423       -10.4335
 259   2.0000      -0.376968       -10.2578
 260   2.0000      -0.351853        -9.5744
 261   2.0000      -0.351028        -9.5520
 262   2.0000      -0.349535        -9.5113
 263   2.0000      -0.345357        -9.3976
 264   2.0000      -0.344171        -9.3654
 265   2.0000      -0.335473        -9.1287
 266   2.0000      -0.326162        -8.8753
 267   2.0000      -0.325498        -8.8573
 268   2.0000      -0.319843        -8.7034
 269   2.0000      -0.308370        -8.3912
 270   2.0000      -0.305532        -8.3139
 271   2.0000      -0.298994        -8.1360
 272   2.0000      -0.295963        -8.0536
 273   2.0000      -0.242387        -6.5957
 274   0.0000      -0.097034        -2.6404
 275   0.0000      -0.086325        -2.3490
 276   0.0000      -0.073333        -1.9955
 277   0.0000      -0.065581        -1.7846
 278   0.0000      -0.058344        -1.5876

MULLIKEN ATOMIC CHARGES
-----------------------
   0 C :   -0.104290
   1 C :    0.244215
   2 F :   -0.167499
   3 C :    0.238559
   4 F :   -0.169490
   5 C :   -0.100676
   6 C :    0.114694
   7 C :    0.110808
   8 C :   -0.077891
   9 C :    0.051321
  10 C :    0.004643
  11 C :   -0.074853
  12 C :    0.168599
  13 O :   -0.127413
  14 C :   -0.007250
  15 C :    0.285698
  16 C :   -0.327083
  17 C :   -0.208089
  18 N :    0.180994
  19 C :   -0.182393
  20 N :    0.160419
  21 C :   -0.078217
  22 C :   -0.070607
  23 C :    0.140499
  24 N :   -0.072888
  25 N :   -0.108454
  26 C :   -0.074107
  27 C :   -0.095896
  28 C :   -0.098541
  29 N :    0.056040
  30 O :   -0.120519
  31 N :    0.052668
  32 C :    0.157670
  33 C :   -0.027941
  34 C :   -0.033354
  35 C :    0.042406
  36 C :    0.033650
  37 C :   -0.049595
  38 S :    0.092054
  39 C :   -0.031798
  40 C :    0.040629
  41 C :    0.050300
  42 C :    0.008324
  43 S :    0.045666
  44 C :   -0.054561
  45 C :   -0.040373
  46 C :    0.120333
  47 N :   -0.099189
  48 N :   -0.109062
  49 C :   -0.056735
  50 C :   -0.067348
  51 C :   -0.142389
  52 N :    0.071932
  53 O :   -0.118511
  54 N :    0.051954
  55 C :    0.154037
  56 C :    0.003008
  57 C :   -0.092653
  58 C :    0.140099
  59 O :   -0.127465
  60 C :    0.007184
  61 C :   -0.077514
  62 C :    0.110732
  63 C :    0.113844
  64 C :   -0.107488
  65 C :    0.242920
  66 C :    0.238931
  67 C :   -0.102163
  68 F :   -0.170166
  69 F :   -0.170225
  70 C :   -0.081193
  71 C :    0.040148
  72 C :    0.258250
  73 C :   -0.264425
  74 C :   -0.123071
  75 N :    0.118232
  76 C :   -0.188970
  77 N :    0.153266
  78 H :    0.008685
  79 H :    0.000482
  80 H :   -0.001979
  81 H :   -0.008047
  82 H :    0.049388
  83 H :    0.055586
  84 H :    0.034667
  85 H :    0.023732
  86 H :    0.019235
  87 H :    0.021032
  88 H :    0.033947
  89 H :    0.012837
  90 H :    0.019212
  91 H :   -0.009767
  92 H :   -0.008403
  93 H :   -0.005798
  94 H :    0.005483
  95 H :    0.027387
  96 H :    0.019260
  97 H :    0.042658
  98 H :    0.033189
  99 H :    0.029435
 100 H :    0.053110
 101 H :    0.041321
 102 H :   -0.005683
 103 H :    0.007301
 104 H :    0.001292
 105 H :   -0.001939
Sum of atomic charges:   -0.0000000

LOEWDIN ATOMIC CHARGES
----------------------
   0 C :   -0.028428
   1 C :    0.068371
   2 F :   -0.045822
   3 C :    0.069549
   4 F :   -0.046652
   5 C :   -0.032382
   6 C :   -0.007146
   7 C :   -0.005160
   8 C :    0.020103
   9 C :   -0.024272
  10 C :   -0.051768
  11 C :    0.033040
  12 C :    0.088964
  13 O :   -0.115266
  14 C :   -0.062050
  15 C :    0.074321
  16 C :   -0.122139
  17 C :   -0.028494
  18 N :   -0.028118
  19 C :   -0.016721
  20 N :   -0.041907
  21 C :    0.076342
  22 C :   -0.039572
  23 C :   -0.020368
  24 N :    0.003745
  25 N :   -0.004667
  26 C :   -0.037116
  27 C :   -0.066273
  28 C :   -0.068408
  29 N :   -0.009455
  30 O :    0.050289
  31 N :   -0.009996
  32 C :   -0.024643
  33 C :   -0.066362
  34 C :   -0.130596
  35 C :   -0.034203
  36 C :   -0.017045
  37 C :   -0.172997
  38 S :    0.361164
  39 C :   -0.180186
  40 C :   -0.021107
  41 C :   -0.027561
  42 C :   -0.136762
  43 S :    0.375189
  44 C :   -0.056738
  45 C :   -0.038933
  46 C :   -0.024842
  47 N :   -0.001774
  48 N :    0.011840
  49 C :   -0.039376
  50 C :   -0.066666
  51 C :   -0.089911
  52 N :   -0.002974
  53 O :    0.054532
  54 N :   -0.011620
  55 C :   -0.018197
  56 C :    0.074404
  57 C :   -0.071773
  58 C :    0.088295
  59 O :   -0.127245
  60 C :   -0.057905
  61 C :    0.033889
  62 C :   -0.010097
  63 C :   -0.003699
  64 C :   -0.030766
  65 C :    0.068439
  66 C :    0.066912
  67 C :   -0.031985
  68 F :   -0.048136
  69 F :   -0.047490
  70 C :    0.012490
  71 C :   -0.017865
  72 C :    0.061213
  73 C :   -0.105662
  74 C :   -0.010701
  75 N :   -0.063528
  76 C :   -0.015616
  77 N :   -0.045487
  78 H :    0.048395
  79 H :    0.045405
  80 H :    0.040735
  81 H :    0.041085
  82 H :    0.046727
  83 H :    0.035658
  84 H :    0.037692
  85 H :    0.030636
  86 H :    0.030678
  87 H :    0.032115
  88 H :    0.037912
  89 H :    0.032619
  90 H :    0.035051
  91 H :    0.034472
  92 H :    0.034778
  93 H :    0.036588
  94 H :    0.037746
  95 H :    0.032817
  96 H :    0.031057
  97 H :    0.038746
  98 H :    0.029280
  99 H :    0.036825
 100 H :    0.036990
 101 H :    0.050641
 102 H :    0.041810
 103 H :    0.047669
 104 H :    0.045483
 105 H :    0.039928

  Mayer bond orders larger than 0.100000
B(  0-C ,  1-C ) :   1.4454 B(  0-C ,  5-C ) :   0.1082 B(  0-C ,  7-C ) :   1.1849
B(  0-C , 78-H ) :   1.0068 B(  1-C ,  2-F ) :   1.1385 B(  1-C ,  3-C ) :   1.1864
B(  3-C ,  4-F ) :   1.1352 B(  3-C ,  5-C ) :   1.4468 B(  5-C ,  6-C ) :   1.1900
B(  5-C , 79-H ) :   1.0067 B(  6-C ,  7-C ) :   1.2524 B(  6-C , 11-C ) :   1.1995
B(  7-C ,  8-C ) :   1.2271 B(  8-C ,  9-C ) :   1.4386 B(  8-C , 80-H ) :   0.9905
B(  9-C , 10-C ) :   1.2218 B(  9-C , 15-C ) :   0.9983 B( 10-C , 11-C ) :   1.4660
B( 10-C , 12-C ) :   0.9502 B( 11-C , 81-H ) :   1.0151 B( 12-C , 13-O ) :   2.2098
B( 12-C , 14-C ) :   0.8982 B( 14-C , 15-C ) :   1.0154 B( 14-C , 21-C ) :   1.7815
B( 15-C , 16-C ) :   1.6874 B( 16-C , 17-C ) :   1.1361 B( 16-C , 19-C ) :   1.1342
B( 17-C , 18-N ) :   3.0035 B( 19-C , 20-N ) :   2.9777 B( 21-C , 22-C ) :   0.9800
B( 21-C , 82-H ) :   0.9533 B( 22-C , 23-C ) :   1.0224 B( 22-C , 24-N ) :   0.9302
B( 22-C , 28-C ) :   0.9361 B( 23-C , 83-H ) :   0.9393 B( 23-C , 84-H ) :   0.9530
B( 23-C , 85-H ) :   0.9398 B( 24-N , 25-N ) :   1.8892 B( 25-N , 26-C ) :   0.9010
B( 26-C , 27-C ) :   0.9547 B( 26-C , 32-C ) :   1.0573 B( 26-C , 33-C ) :   0.9836
B( 27-C , 28-C ) :   1.1909 B( 27-C , 31-N ) :   1.7362 B( 28-C , 29-N ) :   1.7388
B( 29-N , 30-O ) :   1.0382 B( 29-N , 31-N ) :   0.1493 B( 30-O , 31-N ) :   1.0403
B( 32-C , 86-H ) :   0.9517 B( 32-C , 87-H ) :   0.9588 B( 32-C , 88-H ) :   0.9543
B( 33-C , 34-C ) :   1.7213 B( 33-C , 89-H ) :   0.9591 B( 34-C , 35-C ) :   1.0997
B( 34-C , 38-S ) :   1.0238 B( 35-C , 36-C ) :   1.6507 B( 35-C , 90-H ) :   0.9718
B( 36-C , 37-C ) :   1.1448 B( 36-C , 91-H ) :   0.9918 B( 37-C , 38-S ) :   1.0338
B( 37-C , 39-C ) :   1.5813 B( 39-C , 40-C ) :   1.1475 B( 39-C , 43-S ) :   1.0201
B( 40-C , 41-C ) :   1.6511 B( 40-C , 92-H ) :   0.9907 B( 41-C , 42-C ) :   1.0839
B( 41-C , 93-H ) :   1.0019 B( 42-C , 43-S ) :   1.0136 B( 42-C , 44-C ) :   1.7349
B( 44-C , 45-C ) :   0.9434 B( 44-C , 94-H ) :   0.9742 B( 45-C , 46-C ) :   1.0627
B( 45-C , 47-N ) :   0.9185 B( 45-C , 51-C ) :   0.9238 B( 46-C , 95-H ) :   0.9559
B( 46-C , 96-H ) :   0.9519 B( 46-C , 97-H ) :   0.9614 B( 47-N , 48-N ) :   1.8783
B( 48-N , 49-C ) :   0.9295 B( 49-C , 50-C ) :   0.9248 B( 49-C , 55-C ) :   1.0572
B( 49-C , 56-C ) :   0.9562 B( 50-C , 51-C ) :   1.2049 B( 50-C , 54-N ) :   1.7277
B( 51-C , 52-N ) :   1.7204 B( 52-N , 53-O ) :   1.0475 B( 52-N , 54-N ) :   0.1484
B( 53-O , 54-N ) :   1.0379 B( 55-C , 98-H ) :   0.9414 B( 55-C , 99-H ) :   0.9478
B( 55-C ,100-H ) :   0.9410 B( 56-C , 57-C ) :   1.8639 B( 56-C ,101-H ) :   0.9308
B( 57-C , 58-C ) :   0.9187 B( 57-C , 72-C ) :   0.9651 B( 58-C , 59-O ) :   2.2853
B( 58-C , 60-C ) :   0.9157 B( 60-C , 61-C ) :   1.4672 B( 60-C , 71-C ) :   1.2235
B( 61-C , 62-C ) :   1.2035 B( 61-C ,102-H ) :   1.0157 B( 62-C , 63-C ) :   1.2542
B( 62-C , 67-C ) :   1.1893 B( 63-C , 64-C ) :   1.1876 B( 63-C , 70-C ) :   1.2200
B( 64-C , 65-C ) :   1.4443 B( 64-C , 67-C ) :   0.1089 B( 64-C ,103-H ) :   1.0070
B( 65-C , 66-C ) :   1.1883 B( 65-C , 69-F ) :   1.1349 B( 66-C , 67-C ) :   1.4472
B( 66-C , 68-F ) :   1.1349 B( 67-C ,104-H ) :   1.0068 B( 70-C , 71-C ) :   1.4514
B( 70-C ,105-H ) :   0.9945 B( 71-C , 72-C ) :   0.9977 B( 72-C , 73-C ) :   1.7297
B( 73-C , 74-C ) :   1.1350 B( 73-C , 76-C ) :   1.1329 B( 74-C , 75-N ) :   2.9312
B( 76-C , 77-N ) :   2.9878

-----------------------------------------------------------------------------
         ABSORPTION SPECTRUM VIA TRANSITION ELECTRIC DIPOLE MOMENTS
-----------------------------------------------------------------------------
State   Energy  Wavelength   fosc         T2         TX        TY        TZ
        (cm-1)    (nm)                  (au**2)     (au)      (au)      (au)
-----------------------------------------------------------------------------
   0   20108.1    497.3   0.006845338   0.11207  -0.04441  -0.30283  -0.13563
   1   21254.6    470.5   0.009951175   0.15413  -0.19051   0.34297  -0.01450
   2   22130.3    451.9   1.137617247  16.92326   0.80711  -4.02085  -0.32337
   3   24301.8    411.5   0.030832198   0.41768   0.37488  -0.22369   0.47656
   4   25181.9    397.1   0.013620867   0.17807  -0.32315  -0.27099   0.01447
   5   26351.6    379.5   0.038712311   0.48364  -0.00525  -0.64533  -0.25915
   6   26495.8    377.4   0.069222719   0.86010   0.09634  -0.90972  -0.15242
   7   27447.6    364.3   0.021159814   0.25380   0.16849  -0.46331  -0.10368
   8   28521.4    350.6   0.104726269   1.20881   0.84194   0.43529  -0.55720
   9   28930.9    345.7   0.003226446   0.03671  -0.01397  -0.17278  -0.08164
  10   29274.5    341.6   0.002665525   0.02998   0.16625   0.03427   0.03411
  11   29312.2    341.2   0.009997041   0.11228  -0.18340  -0.27668  -0.04575
  12   29724.6    336.4   0.079137237   0.87648   0.75845  -0.11807  -0.53600
  13   29912.7    334.3   0.021494365   0.23656  -0.34361   0.24596   0.24082
  14   30111.5    332.1   0.067921640   0.74259  -0.52867  -0.28855   0.61632
  15   30685.0    325.9   0.010814594   0.11603   0.17614  -0.25654   0.13852
  16   31191.6    320.6   0.061372763   0.64776   0.62214  -0.42315  -0.28573
  17   31327.3    319.2   0.007604993   0.07992  -0.11600  -0.18036  -0.18421
  18   31453.4    317.9   0.012323582   0.12899  -0.14330  -0.32889   0.01675
  19   32304.6    309.6   0.005219965   0.05320   0.05473  -0.08136  -0.20876
  20   34002.2    294.1   0.296051035   2.86639   1.50066   0.13837  -0.77152
  21   34105.0    293.2   0.002697280   0.02604   0.05873   0.14238  -0.04812
  22   34326.2    291.3   0.325760330   3.12427  -1.17171  -1.13444   0.68146
  23   34530.6    289.6   0.097926073   0.93362  -0.93108  -0.08245   0.24477
  24   34741.6    287.8   0.013712464   0.12994  -0.26825   0.22800  -0.07747
  25   35150.2    284.5   0.047534068   0.44520  -0.16630  -0.19592   0.61576
  26   35180.9    284.2   0.647483823   6.05895  -1.73390  -1.24360   1.22719
  27   35692.5    280.2   0.007238228   0.06676   0.01891  -0.00261  -0.25768
  28   35758.1    279.7   0.039489694   0.36357   0.55180   0.11708  -0.21302
  29   36083.9    277.1   0.720183415   6.57061  -2.29600   0.50043   1.02400
  30   36808.3    271.7   0.002695459   0.02411  -0.03085  -0.11469   0.10001
  31   37160.6    269.1   0.087865186   0.77841  -0.30697   0.08487   0.82279
  32   37307.9    268.0   0.115883500   1.02258   0.25420   0.01743  -0.97860
  33   37528.1    266.5   0.003069261   0.02692  -0.14451  -0.07725  -0.00874
  34   37874.9    264.0   0.015471195   0.13448   0.19091  -0.29563   0.10313
  35   38061.2    262.7   0.109709491   0.94894   0.50946  -0.76496   0.32285
  36   38453.3    260.1   0.001101785   0.00943  -0.02621  -0.07250   0.05907
  37   38587.6    259.2   0.011298003   0.09639  -0.20815  -0.16748  -0.15816
  38   38753.5    258.0   0.019948722   0.16946   0.32933  -0.19926   0.14595
  39   38761.2    258.0   0.004215280   0.03580  -0.10257  -0.04736  -0.15178
  40   39261.8    254.7   0.001344740   0.01128   0.00845  -0.08525  -0.06275
  41   39946.4    250.3   0.001330028   0.01096   0.05636   0.08309  -0.02968
  42   40145.9    249.1   0.406362505   3.33233   0.12453  -1.28950  -1.28608

FINAL SINGLE POINT ENERGY     -4299.498472541452

DIPOLE MOMENT
-------------
                                X             Y             Z
Electronic contribution:     27.36746      -3.12413      29.34351
Nuclear contribution   :    -29.73269       1.61237     -29.84722
                        -----------------------------------------
Total Dipole Moment    :     -2.36523      -1.51177      -0.50371
                        -----------------------------------------
Magnitude (a.u.)       :      2.85192
Magnitude (Debye)      :      7.24902

Rotational constants in cm-1:     0.001095     0.000259     0.000249
Rotational constants in MHz :    32.839616     7.769576     7.477873

                             ****ORCA TERMINATED NORMALLY****
TOTAL RUN TIME: 0 days 0 hours 10 minutes 7 seconds 914 msec
