                         Program Version 4.2.0 -  RELEASE  -
|  1> # ORCA input file
|  2> # SCF done       -211.361657070437          0.000250691500
|  3> ! CAM-B3LYP def2-SVP def2/J RIJCOSX Grid4 TightSCF
|  4> %maxcore 5000
|  5> %tddft
|  6>     Mode sTDDFT
|  7>     Ethresh 5.0
|  8>     maxcore 5000
|  9> end
| 10>
| 11> %pal
| 12>   nprocs 6
| 13>   end
| 14> * xyz 0 1
| 15>    C       -0.21968       -10.41824        -7.57235
| 16>    C       -0.05312       -10.10176        -8.89205
| 17>    F        0.58861       -10.94398        -9.70983
| 18>    C       -0.55278        -8.88873        -9.40775
| 19>    F       -0.37494        -8.60449       -10.70355
| 20>    C       -1.21225        -8.00844        -8.59596
| 21>    C       -1.39869        -8.30611        -7.23216
| 22>    C       -0.89445        -9.53232        -6.70939
| 23>    C       -1.07092        -9.85319        -5.34287
| 24>    C       -1.73019        -8.97565        -4.52470
| 25>    C       -2.22999        -7.75101        -5.05672
| 26>    C       -2.07544        -7.41426        -6.37133
| 27>    C       -2.88935        -7.00313        -3.98289
| 28>    O       -3.43527        -5.90474        -4.06148
| 29>    C       -2.77472        -7.82708        -2.77518
| 30>    C       -2.05762        -9.03949        -3.10039
| 31>    C       -1.73589       -10.06233        -2.24840
| 32>    C       -2.07089       -10.07921        -0.87863
| 33>    N       -2.32642       -10.12518         0.23932
| 34>    C       -1.02954       -11.22098        -2.63268
| 35>    N       -0.45824       -12.18232        -2.89015
| 36>    C       -3.31023        -7.41627        -1.57759
| 37>    N       -3.94401        -6.24034        -1.51086
| 38>    C       -4.54759        -5.67235        -0.43957
| 39>    S       -4.59502        -6.44246         1.11249
| 40>    C       -5.50144        -5.09607         1.72308
| 41>    N       -5.87641        -5.13229         3.07780
| 42>    O       -6.50786        -4.19184         3.51313
| 43>    O       -5.53144        -6.11454         3.70770
| 44>    C       -5.75094        -4.12464         0.79423
| 45>    C       -5.20536        -4.43285        -0.46932
| 46>    C       -5.28080        -3.61630        -1.64593
| 47>    C       -6.00227        -2.48423        -1.77588
| 48>    C       -6.02944        -1.72069        -2.97746
| 49>    C       -6.79988        -0.59036        -3.21650
| 50>    C       -7.63438        -0.04701        -2.22628
| 51>    N       -8.28418         0.37723        -1.38235
| 52>    C       -6.60938        -0.06515        -4.52241
| 53>    C       -5.67265        -0.81228        -5.23083
| 54>    S       -5.04162        -2.15097        -4.35814
| 55>    S       -5.32952        -0.24474        -6.83173
| 56>    C       -6.47761         1.02510        -6.56158
| 57>    C       -7.09641         1.01342        -5.31621
| 58>    C       -8.05111         2.06425        -5.20841
| 59>    C       -8.92555         2.27139        -4.12625
| 60>    N       -9.67234         2.45843        -3.27711
| 61>    C       -8.13099         2.82838        -6.35709
| 62>    S       -7.01803         2.28763        -7.59434
| 63>    C       -8.99845         3.96389        -6.60278
| 64>    C       -9.04405         5.03239        -5.63880
| 65>    C       -8.38484         5.16492        -4.46579
| 66>    S       -8.72107         6.76138        -3.65764
| 67>    F       -9.31235         8.28503        -2.75155
| 68>    C       -9.90525         7.10127        -4.91232
| 69>    C       -9.92590         6.17057        -5.89101
| 70>    C      -10.68145         6.21190        -7.10361
| 71>    C      -10.57063         5.21064        -8.00104
| 72>    C       -9.75148         4.05554        -7.76042
| 73>    C       -9.77138         2.95982        -8.69473
| 74>    C       -9.96150         3.04513       -10.03241
| 75>    C       -9.84927         1.87961       -10.83051
| 76>    C       -9.88135         1.83798       -12.19186
| 77>    C       -9.68273         0.66176       -13.01950
| 78>    C       -9.20724        -0.55591       -12.60523
| 79>    C       -9.02514        -1.66507       -13.45817
| 80>    N       -8.86156        -2.60302       -14.09920
| 81>    C       -8.78556        -0.86190       -11.29432
| 82>    N       -8.39484        -1.17629       -10.26058
| 83>    C       -9.99103         1.03374       -14.39389
| 84>    C      -10.27647         2.42176       -14.43939
| 85>    C      -10.19555         2.98686       -13.07821
| 86>    O      -10.36737         4.14420       -12.76143
| 87>    C      -10.57745         3.07674       -15.60885
| 88>    C      -10.60466         2.32701       -16.78932
| 89>    C      -10.32922         0.93895       -16.73257
| 90>    C      -10.02073         0.27709       -15.55114
| 91>    S      -10.42365         0.20392       -18.30357
| 92>    C      -10.82167         1.74894       -19.00696
| 93>    C      -10.88345         2.76446       -18.11238
| 94>   Br      -11.11897         1.87505       -20.85379
| 95>    H        0.16887       -11.35109        -7.19465
| 96>    H       -1.58937        -7.08472        -9.00612
| 97>    H       -0.67861       -10.78908        -4.97944
| 98>    H       -2.46485        -6.48112        -6.74911
| 99>    H       -3.24708        -8.00620        -0.67236
|100>    H       -3.96467        -5.73951        -2.42120
|101>    H       -6.29729        -3.23034         1.03127
|102>    H       -4.70890        -3.94382        -2.50508
|103>    H       -6.61434        -2.10605        -0.96925
|104>    H       -7.62371         4.51657        -4.07655
|105>    H       -9.47079         6.13980        -2.72778
|106>    H      -10.43577         8.03012        -4.85659
|107>    H      -11.32811         7.05708        -7.27972
|108>    H      -11.14106         5.23296        -8.91622
|109>    H       -9.58473         1.97612        -8.27958
|110>    H      -10.11769         3.99087       -10.52794
|111>    H       -9.69938         0.95260       -10.29137
|112>    H      -10.78422         4.13545       -15.61311
|113>    H       -9.82029        -0.78128       -15.55862
|114>    H      -11.11571         3.78059       -18.37390
|115> *
|116>
|117>                          ****END OF INPUT****

CARTESIAN COORDINATES (ANGSTROEM)
---------------------------------
  C     -0.219680  -10.418240   -7.572350
  C     -0.053120  -10.101760   -8.892050
  F      0.588610  -10.943980   -9.709830
  C     -0.552780   -8.888730   -9.407750
  F     -0.374940   -8.604490  -10.703550
  C     -1.212250   -8.008440   -8.595960
  C     -1.398690   -8.306110   -7.232160
  C     -0.894450   -9.532320   -6.709390
  C     -1.070920   -9.853190   -5.342870
  C     -1.730190   -8.975650   -4.524700
  C     -2.229990   -7.751010   -5.056720
  C     -2.075440   -7.414260   -6.371330
  C     -2.889350   -7.003130   -3.982890
  O     -3.435270   -5.904740   -4.061480
  C     -2.774720   -7.827080   -2.775180
  C     -2.057620   -9.039490   -3.100390
  C     -1.735890  -10.062330   -2.248400
  C     -2.070890  -10.079210   -0.878630
  N     -2.326420  -10.125180    0.239320
  C     -1.029540  -11.220980   -2.632680
  N     -0.458240  -12.182320   -2.890150
  C     -3.310230   -7.416270   -1.577590
  N     -3.944010   -6.240340   -1.510860
  C     -4.547590   -5.672350   -0.439570
  S     -4.595020   -6.442460    1.112490
  C     -5.501440   -5.096070    1.723080
  N     -5.876410   -5.132290    3.077800
  O     -6.507860   -4.191840    3.513130
  O     -5.531440   -6.114540    3.707700
  C     -5.750940   -4.124640    0.794230
  C     -5.205360   -4.432850   -0.469320
  C     -5.280800   -3.616300   -1.645930
  C     -6.002270   -2.484230   -1.775880
  C     -6.029440   -1.720690   -2.977460
  C     -6.799880   -0.590360   -3.216500
  C     -7.634380   -0.047010   -2.226280
  N     -8.284180    0.377230   -1.382350
  C     -6.609380   -0.065150   -4.522410
  C     -5.672650   -0.812280   -5.230830
  S     -5.041620   -2.150970   -4.358140
  S     -5.329520   -0.244740   -6.831730
  C     -6.477610    1.025100   -6.561580
  C     -7.096410    1.013420   -5.316210
  C     -8.051110    2.064250   -5.208410
  C     -8.925550    2.271390   -4.126250
  N     -9.672340    2.458430   -3.277110
  C     -8.130990    2.828380   -6.357090
  S     -7.018030    2.287630   -7.594340
  C     -8.998450    3.963890   -6.602780
  C     -9.044050    5.032390   -5.638800
  C     -8.384840    5.164920   -4.465790
  S     -8.721070    6.761380   -3.657640
  F     -9.312350    8.285030   -2.751550
  C     -9.905250    7.101270   -4.912320
  C     -9.925900    6.170570   -5.891010
  C    -10.681450    6.211900   -7.103610
  C    -10.570630    5.210640   -8.001040
  C     -9.751480    4.055540   -7.760420
  C     -9.771380    2.959820   -8.694730
  C     -9.961500    3.045130  -10.032410
  C     -9.849270    1.879610  -10.830510
  C     -9.881350    1.837980  -12.191860
  C     -9.682730    0.661760  -13.019500
  C     -9.207240   -0.555910  -12.605230
  C     -9.025140   -1.665070  -13.458170
  N     -8.861560   -2.603020  -14.099200
  C     -8.785560   -0.861900  -11.294320
  N     -8.394840   -1.176290  -10.260580
  C     -9.991030    1.033740  -14.393890
  C    -10.276470    2.421760  -14.439390
  C    -10.195550    2.986860  -13.078210
  O    -10.367370    4.144200  -12.761430
  C    -10.577450    3.076740  -15.608850
  C    -10.604660    2.327010  -16.789320
  C    -10.329220    0.938950  -16.732570
  C    -10.020730    0.277090  -15.551140
  S    -10.423650    0.203920  -18.303570
  C    -10.821670    1.748940  -19.006960
  C    -10.883450    2.764460  -18.112380
  Br   -11.118970    1.875050  -20.853790
  H      0.168870  -11.351090   -7.194650
  H     -1.589370   -7.084720   -9.006120
  H     -0.678610  -10.789080   -4.979440
  H     -2.464850   -6.481120   -6.749110
  H     -3.247080   -8.006200   -0.672360
  H     -3.964670   -5.739510   -2.421200
  H     -6.297290   -3.230340    1.031270
  H     -4.708900   -3.943820   -2.505080
  H     -6.614340   -2.106050   -0.969250
  H     -7.623710    4.516570   -4.076550
  H     -9.470790    6.139800   -2.727780
  H    -10.435770    8.030120   -4.856590
  H    -11.328110    7.057080   -7.279720
  H    -11.141060    5.232960   -8.916220
  H     -9.584730    1.976120   -8.279580
  H    -10.117690    3.990870  -10.527940
  H     -9.699380    0.952600  -10.291370
  H    -10.784220    4.135450  -15.613110
  H     -9.820290   -0.781280  -15.558620
  H    -11.115710    3.780590  -18.373900

 Total Charge           Charge          ....    0
 Multiplicity           Mult            ....    1
 Number of Electrons    NEL             ....  614
 Basis Dimension        Dim             .... 1262

ORBITAL ENERGIES
----------------

  NO   OCC          E(Eh)            E(eV)
   0   2.0000    -482.893095    -13140.1892
   1   2.0000     -89.047160     -2423.0964
   2   2.0000     -89.001652     -2421.8581
   3   2.0000     -89.001164     -2421.8448
   4   2.0000     -88.999040     -2421.7870
   5   2.0000     -88.995569     -2421.6926
   6   2.0000     -88.984218     -2421.3837
   7   2.0000     -62.570775     -1702.6374
   8   2.0000     -56.404739     -1534.8510
   9   2.0000     -56.402002     -1534.7765
  10   2.0000     -56.401976     -1534.7758
  11   2.0000     -24.807421      -675.0443
  12   2.0000     -24.806686      -675.0243
  13   2.0000     -24.620590      -669.9603
  14   2.0000     -19.248121      -523.7680
  15   2.0000     -19.247789      -523.7590
  16   2.0000     -19.247047      -523.7388
  17   2.0000     -19.228520      -523.2346
  18   2.0000     -14.659837      -398.9144
  19   2.0000     -14.508651      -394.8005
  20   2.0000     -14.429603      -392.6495
  21   2.0000     -14.428564      -392.6212
  22   2.0000     -14.425220      -392.5302
  23   2.0000     -14.424674      -392.5153
  24   2.0000     -14.416508      -392.2931
  25   2.0000     -14.414733      -392.2448
  26   2.0000     -10.393460      -282.8204
  27   2.0000     -10.391548      -282.7684
  28   2.0000     -10.391073      -282.7555
  29   2.0000     -10.385253      -282.5971
  30   2.0000     -10.383250      -282.5426
  31   2.0000     -10.378938      -282.4253
  32   2.0000     -10.367514      -282.1144
  33   2.0000     -10.359025      -281.8834
  34   2.0000     -10.357216      -281.8342
  35   2.0000     -10.353234      -281.7258
  36   2.0000     -10.353212      -281.7252
  37   2.0000     -10.352179      -281.6971
  38   2.0000     -10.350901      -281.6623
  39   2.0000     -10.350000      -281.6378
  40   2.0000     -10.348666      -281.6015
  41   2.0000     -10.345107      -281.5047
  42   2.0000     -10.339052      -281.3399
  43   2.0000     -10.335032      -281.2305
  44   2.0000     -10.334218      -281.2084
  45   2.0000     -10.331879      -281.1447
  46   2.0000     -10.331684      -281.1394
  47   2.0000     -10.327974      -281.0385
  48   2.0000     -10.327590      -281.0280
  49   2.0000     -10.325860      -280.9809
  50   2.0000     -10.325539      -280.9722
  51   2.0000     -10.323642      -280.9206
  52   2.0000     -10.323333      -280.9122
  53   2.0000     -10.322049      -280.8772
  54   2.0000     -10.321783      -280.8700
  55   2.0000     -10.321565      -280.8641
  56   2.0000     -10.321249      -280.8555
  57   2.0000     -10.320617      -280.8383
  58   2.0000     -10.318624      -280.7840
  59   2.0000     -10.318331      -280.7761
  60   2.0000     -10.317710      -280.7592
  61   2.0000     -10.317166      -280.7444
  62   2.0000     -10.317061      -280.7415
  63   2.0000     -10.316632      -280.7298
  64   2.0000     -10.316171      -280.7173
  65   2.0000     -10.315532      -280.6999
  66   2.0000     -10.314467      -280.6709
  67   2.0000     -10.313996      -280.6581
  68   2.0000     -10.313014      -280.6314
  69   2.0000     -10.312674      -280.6221
  70   2.0000     -10.311787      -280.5980
  71   2.0000     -10.310762      -280.5701
  72   2.0000     -10.310497      -280.5629
  73   2.0000     -10.309191      -280.5274
  74   2.0000     -10.308903      -280.5195
  75   2.0000     -10.308505      -280.5087
  76   2.0000     -10.306854      -280.4638
  77   2.0000     -10.304871      -280.4098
  78   2.0000     -10.304825      -280.4085
  79   2.0000     -10.302713      -280.3511
  80   2.0000     -10.302537      -280.3463
  81   2.0000     -10.302055      -280.3332
  82   2.0000     -10.299611      -280.2667
  83   2.0000     -10.292561      -280.0748
  84   2.0000      -8.800181      -239.4651
  85   2.0000      -8.127589      -221.1629
  86   2.0000      -8.096918      -220.3283
  87   2.0000      -8.095989      -220.3031
  88   2.0000      -8.094112      -220.2520
  89   2.0000      -8.090760      -220.1608
  90   2.0000      -8.080240      -219.8745
  91   2.0000      -6.636525      -180.5890
  92   2.0000      -6.621908      -180.1913
  93   2.0000      -6.621668      -180.1848
  94   2.0000      -6.097730      -165.9277
  95   2.0000      -6.094237      -165.8326
  96   2.0000      -6.090716      -165.7368
  97   2.0000      -6.066553      -165.0793
  98   2.0000      -6.065526      -165.0514
  99   2.0000      -6.064097      -165.0125
 100   2.0000      -6.062163      -164.9598
 101   2.0000      -6.061225      -164.9343
 102   2.0000      -6.060289      -164.9089
 103   2.0000      -6.059815      -164.8960
 104   2.0000      -6.058400      -164.8574
 105   2.0000      -6.057744      -164.8396
 106   2.0000      -6.056144      -164.7960
 107   2.0000      -6.054943      -164.7634
 108   2.0000      -6.052339      -164.6925
 109   2.0000      -6.049908      -164.6264
 110   2.0000      -6.045652      -164.5106
 111   2.0000      -6.041470      -164.3967
 112   2.0000      -2.752382       -74.8961
 113   2.0000      -2.748273       -74.7843
 114   2.0000      -2.748145       -74.7808
 115   2.0000      -2.736498       -74.4639
 116   2.0000      -2.736488       -74.4636
 117   2.0000      -1.330669       -36.2094
 118   2.0000      -1.330522       -36.2053
 119   2.0000      -1.315589       -35.7990
 120   2.0000      -1.162206       -31.6252
 121   2.0000      -1.150286       -31.3009
 122   2.0000      -1.142967       -31.1017
 123   2.0000      -1.116677       -30.3863
 124   2.0000      -1.104296       -30.0494
 125   2.0000      -1.054927       -28.7060
 126   2.0000      -1.032976       -28.1087
 127   2.0000      -1.032966       -28.1084
 128   2.0000      -1.026078       -27.9210
 129   2.0000      -1.023817       -27.8595
 130   2.0000      -1.022274       -27.8175
 131   2.0000      -1.016906       -27.6714
 132   2.0000      -1.007228       -27.4081
 133   2.0000      -1.005808       -27.3694
 134   2.0000      -1.005562       -27.3627
 135   2.0000      -1.001505       -27.2523
 136   2.0000      -0.999839       -27.2070
 137   2.0000      -0.993411       -27.0321
 138   2.0000      -0.992770       -27.0147
 139   2.0000      -0.973090       -26.4791
 140   2.0000      -0.959076       -26.0978
 141   2.0000      -0.952425       -25.9168
 142   2.0000      -0.944581       -25.7034
 143   2.0000      -0.935747       -25.4630
 144   2.0000      -0.928501       -25.2658
 145   2.0000      -0.918767       -25.0009
 146   2.0000      -0.917938       -24.9783
 147   2.0000      -0.909190       -24.7403
 148   2.0000      -0.906050       -24.6549
 149   2.0000      -0.902070       -24.5466
 150   2.0000      -0.896696       -24.4003
 151   2.0000      -0.895505       -24.3679
 152   2.0000      -0.894509       -24.3408
 153   2.0000      -0.880534       -23.9605
 154   2.0000      -0.874286       -23.7905
 155   2.0000      -0.870576       -23.6896
 156   2.0000      -0.868364       -23.6294
 157   2.0000      -0.853007       -23.2115
 158   2.0000      -0.840089       -22.8600
 159   2.0000      -0.836418       -22.7601
 160   2.0000      -0.833461       -22.6796
 161   2.0000      -0.827647       -22.5214
 162   2.0000      -0.821830       -22.3631
 163   2.0000      -0.805879       -21.9291
 164   2.0000      -0.785978       -21.3876
 165   2.0000      -0.782581       -21.2951
 166   2.0000      -0.778228       -21.1767
 167   2.0000      -0.769444       -20.9376
 168   2.0000      -0.757600       -20.6154
 169   2.0000      -0.751433       -20.4475
 170   2.0000      -0.745821       -20.2948
 171   2.0000      -0.734613       -19.9898
 172   2.0000      -0.727180       -19.7876
 173   2.0000      -0.723554       -19.6889
 174   2.0000      -0.718267       -19.5450
 175   2.0000      -0.713638       -19.4191
 176   2.0000      -0.704636       -19.1741
 177   2.0000      -0.702442       -19.1144
 178   2.0000      -0.700762       -19.0687
 179   2.0000      -0.699514       -19.0347
 180   2.0000      -0.691332       -18.8121
 181   2.0000      -0.680031       -18.5046
 182   2.0000      -0.675326       -18.3766
 183   2.0000      -0.671942       -18.2845
 184   2.0000      -0.667032       -18.1509
 185   2.0000      -0.665805       -18.1175
 186   2.0000      -0.656970       -17.8771
 187   2.0000      -0.655631       -17.8406
 188   2.0000      -0.652574       -17.7575
 189   2.0000      -0.651405       -17.7256
 190   2.0000      -0.645400       -17.5622
 191   2.0000      -0.641420       -17.4539
 192   2.0000      -0.637198       -17.3390
 193   2.0000      -0.635748       -17.2996
 194   2.0000      -0.634652       -17.2698
 195   2.0000      -0.621762       -16.9190
 196   2.0000      -0.620850       -16.8942
 197   2.0000      -0.617909       -16.8142
 198   2.0000      -0.610240       -16.6055
 199   2.0000      -0.606952       -16.5160
 200   2.0000      -0.598360       -16.2822
 201   2.0000      -0.596734       -16.2380
 202   2.0000      -0.594939       -16.1891
 203   2.0000      -0.589246       -16.0342
 204   2.0000      -0.586510       -15.9598
 205   2.0000      -0.581263       -15.8170
 206   2.0000      -0.577842       -15.7239
 207   2.0000      -0.573658       -15.6100
 208   2.0000      -0.571594       -15.5539
 209   2.0000      -0.568643       -15.4736
 210   2.0000      -0.564763       -15.3680
 211   2.0000      -0.564015       -15.3476
 212   2.0000      -0.561935       -15.2910
 213   2.0000      -0.556218       -15.1355
 214   2.0000      -0.554755       -15.0956
 215   2.0000      -0.551330       -15.0025
 216   2.0000      -0.550465       -14.9789
 217   2.0000      -0.550297       -14.9744
 218   2.0000      -0.547877       -14.9085
 219   2.0000      -0.546066       -14.8592
 220   2.0000      -0.543079       -14.7779
 221   2.0000      -0.541724       -14.7411
 222   2.0000      -0.538481       -14.6528
 223   2.0000      -0.536866       -14.6089
 224   2.0000      -0.535870       -14.5818
 225   2.0000      -0.530974       -14.4485
 226   2.0000      -0.528457       -14.3800
 227   2.0000      -0.528075       -14.3697
 228   2.0000      -0.520565       -14.1653
 229   2.0000      -0.519212       -14.1285
 230   2.0000      -0.517622       -14.0852
 231   2.0000      -0.516008       -14.0413
 232   2.0000      -0.514579       -14.0024
 233   2.0000      -0.512175       -13.9370
 234   2.0000      -0.511539       -13.9197
 235   2.0000      -0.505120       -13.7450
 236   2.0000      -0.505008       -13.7420
 237   2.0000      -0.502821       -13.6825
 238   2.0000      -0.502324       -13.6689
 239   2.0000      -0.500872       -13.6294
 240   2.0000      -0.495445       -13.4818
 241   2.0000      -0.492002       -13.3881
 242   2.0000      -0.488336       -13.2883
 243   2.0000      -0.484410       -13.1815
 244   2.0000      -0.482788       -13.1373
 245   2.0000      -0.480587       -13.0774
 246   2.0000      -0.479042       -13.0354
 247   2.0000      -0.477339       -12.9890
 248   2.0000      -0.475274       -12.9329
 249   2.0000      -0.470398       -12.8002
 250   2.0000      -0.468525       -12.7492
 251   2.0000      -0.466774       -12.7016
 252   2.0000      -0.466502       -12.6942
 253   2.0000      -0.464720       -12.6457
 254   2.0000      -0.461154       -12.5486
 255   2.0000      -0.460883       -12.5413
 256   2.0000      -0.458272       -12.4702
 257   2.0000      -0.457603       -12.4520
 258   2.0000      -0.454476       -12.3669
 259   2.0000      -0.454324       -12.3628
 260   2.0000      -0.452352       -12.3091
 261   2.0000      -0.448659       -12.2086
 262   2.0000      -0.447101       -12.1662
 263   2.0000      -0.445487       -12.1223
 264   2.0000      -0.445137       -12.1128
 265   2.0000      -0.442867       -12.0510
 266   2.0000      -0.440670       -11.9912
 267   2.0000      -0.438912       -11.9434
 268   2.0000      -0.438697       -11.9376
 269   2.0000      -0.438606       -11.9351
 270   2.0000      -0.438237       -11.9250
 271   2.0000      -0.435320       -11.8457
 272   2.0000      -0.433091       -11.7850
 273   2.0000      -0.432986       -11.7822
 274   2.0000      -0.421572       -11.4716
 275   2.0000      -0.419304       -11.4099
 276   2.0000      -0.417356       -11.3568
 277   2.0000      -0.408159       -11.1066
 278   2.0000      -0.406974       -11.0743
 279   2.0000      -0.402840       -10.9618
 280   2.0000      -0.397568       -10.8184
 281   2.0000      -0.395736       -10.7685
 282   2.0000      -0.394533       -10.7358
 283   2.0000      -0.390965       -10.6387
 284   2.0000      -0.387808       -10.5528
 285   2.0000      -0.386333       -10.5127
 286   2.0000      -0.384283       -10.4569
 287   2.0000      -0.382324       -10.4036
 288   2.0000      -0.377180       -10.2636
 289   2.0000      -0.369529       -10.0554
 290   2.0000      -0.366318        -9.9680
 291   2.0000      -0.358657        -9.7596
 292   2.0000      -0.357822        -9.7368
 293   2.0000      -0.356061        -9.6889
 294   2.0000      -0.352706        -9.5976
 295   2.0000      -0.347453        -9.4547
 296   2.0000      -0.335370        -9.1259
 297   2.0000      -0.331236        -9.0134
 298   2.0000      -0.325003        -8.8438
 299   2.0000      -0.322664        -8.7801
 300   2.0000      -0.316069        -8.6007
 301   2.0000      -0.310173        -8.4402
 302   2.0000      -0.308491        -8.3945
 303   2.0000      -0.303991        -8.2720
 304   2.0000      -0.302297        -8.2259
 305   2.0000      -0.275464        -7.4957
 306   2.0000      -0.273243        -7.4353
 307   0.0000      -0.111443        -3.0325
 308   0.0000      -0.102888        -2.7997
 309   0.0000      -0.080660        -2.1949
 310   0.0000      -0.080145        -2.1809
 311   0.0000      -0.066267        -1.8032

MULLIKEN ATOMIC CHARGES
-----------------------
   0 C :   -0.107048
   1 C :    0.243366
   2 F :   -0.166976
   3 C :    0.239333
   4 F :   -0.168280
   5 C :   -0.103788
   6 C :    0.115982
   7 C :    0.116052
   8 C :   -0.084959
   9 C :    0.047566
  10 C :    0.005142
  11 C :   -0.077758
  12 C :    0.175944
  13 O :   -0.230108
  14 C :   -0.135071
  15 C :    0.334721
  16 C :   -0.343353
  17 C :   -0.196273
  18 N :    0.147691
  19 C :   -0.180373
  20 N :    0.152312
  21 C :    0.031658
  22 N :   -0.010774
  23 C :   -0.118128
  24 S :    0.188225
  25 C :    0.006601
  26 N :    0.273361
  27 O :   -0.235597
  28 O :   -0.252272
  29 C :    0.008543
  30 C :    0.137621
  31 C :   -0.056620
  32 C :   -0.000031
  33 C :   -0.086490
  34 C :   -0.019965
  35 C :   -0.325192
  36 N :    0.212662
  37 C :    0.155680
  38 C :   -0.225391
  39 S :    0.158721
  40 S :    0.209808
  41 C :   -0.225189
  42 C :    0.119289
  43 C :    0.039550
  44 C :   -0.346821
  45 N :    0.245247
  46 C :   -0.257264
  47 S :    0.204737
  48 C :    0.097772
  49 C :    0.103736
  50 C :   -0.231846
  51 S :    0.530131
  52 F :   -0.538762
  53 C :   -0.194333
  54 C :    0.130302
  55 C :    0.038952
  56 C :   -0.010570
  57 C :    0.073010
  58 C :   -0.037077
  59 C :    0.009840
  60 C :   -0.052783
  61 C :   -0.057558
  62 C :    0.319806
  63 C :   -0.347002
  64 C :   -0.185802
  65 N :    0.151905
  66 C :   -0.198589
  67 N :    0.147518
  68 C :    0.012576
  69 C :   -0.013470
  70 C :    0.146819
  71 O :   -0.148415
  72 C :   -0.069033
  73 C :    0.117279
  74 C :   -0.089223
  75 C :   -0.019504
  76 S :    0.189968
  77 C :   -0.123055
  78 C :    0.038965
  79 Br:    0.029683
  80 H :    0.009796
  81 H :    0.001104
  82 H :   -0.003388
  83 H :   -0.010788
  84 H :    0.048369
  85 H :    0.187899
  86 H :    0.022620
  87 H :    0.005690
  88 H :    0.018917
  89 H :    0.032139
  90 H :    0.129445
  91 H :    0.051849
  92 H :   -0.007144
  93 H :   -0.002084
  94 H :    0.045086
  95 H :    0.032156
  96 H :    0.014461
  97 H :   -0.007755
  98 H :   -0.004809
  99 H :   -0.000890
Sum of atomic charges:   -0.0000000

LOEWDIN ATOMIC CHARGES
----------------------
   0 C :   -0.027823
   1 C :    0.069259
   2 F :   -0.045005
   3 C :    0.069071
   4 F :   -0.046159
   5 C :   -0.031704
   6 C :   -0.009946
   7 C :   -0.005108
   8 C :    0.021125
   9 C :   -0.020089
  10 C :   -0.053778
  11 C :    0.033863
  12 C :    0.098481
  13 O :   -0.180149
  14 C :   -0.143780
  15 C :    0.077589
  16 C :   -0.144752
  17 C :   -0.020332
  18 N :   -0.049940
  19 C :   -0.019241
  20 N :   -0.050218
  21 C :    0.115156
  22 N :    0.079839
  23 C :   -0.112179
  24 S :    0.479495
  25 C :   -0.194699
  26 N :    0.272232
  27 O :   -0.202601
  28 O :   -0.218798
  29 C :    0.006337
  30 C :   -0.086343
  31 C :   -0.022157
  32 C :   -0.028967
  33 C :   -0.127559
  34 C :   -0.096301
  35 C :   -0.042886
  36 N :   -0.031823
  37 C :   -0.064471
  38 C :   -0.328018
  39 S :    0.457657
  40 S :    0.438775
  41 C :   -0.330353
  42 C :   -0.063358
  43 C :   -0.095242
  44 C :   -0.041171
  45 N :   -0.029592
  46 C :   -0.131425
  47 S :    0.484755
  48 C :   -0.021779
  49 C :   -0.049715
  50 C :   -0.172230
  51 S :    0.856688
  52 F :   -0.538928
  53 C :   -0.155155
  54 C :   -0.026380
  55 C :    0.007473
  56 C :   -0.004063
  57 C :   -0.022415
  58 C :    0.016817
  59 C :   -0.027806
  60 C :    0.068840
  61 C :   -0.091079
  62 C :    0.077020
  63 C :   -0.140809
  64 C :   -0.019170
  65 N :   -0.051173
  66 C :   -0.019440
  67 N :   -0.059116
  68 C :   -0.021795
  69 C :   -0.051151
  70 C :    0.085277
  71 O :   -0.143324
  72 C :    0.023494
  73 C :   -0.030857
  74 C :   -0.143051
  75 C :   -0.008465
  76 S :    0.436026
  77 C :   -0.269623
  78 C :   -0.070064
  79 Br:    0.141606
  80 H :    0.048864
  81 H :    0.045379
  82 H :    0.041520
  83 H :    0.040526
  84 H :    0.037853
  85 H :    0.082451
  86 H :    0.049803
  87 H :    0.022956
  88 H :    0.044073
  89 H :    0.021834
  90 H :    0.033279
  91 H :    0.037276
  92 H :    0.039139
  93 H :    0.038007
  94 H :    0.033751
  95 H :    0.034395
  96 H :    0.042333
  97 H :    0.041940
  98 H :    0.041544
  99 H :    0.039751

  Mayer bond orders larger than 0.100000
B(  0-C ,  1-C ) :   1.4374 B(  0-C ,  5-C ) :   0.1073 B(  0-C ,  7-C ) :   1.1928
B(  0-C , 80-H ) :   1.0066 B(  1-C ,  2-F ) :   1.1385 B(  1-C ,  3-C ) :   1.1934
B(  3-C ,  4-F ) :   1.1366 B(  3-C ,  5-C ) :   1.4413 B(  5-C ,  6-C ) :   1.1921
B(  5-C , 81-H ) :   1.0067 B(  6-C ,  7-C ) :   1.2567 B(  6-C , 11-C ) :   1.1864
B(  7-C ,  8-C ) :   1.2081 B(  8-C ,  9-C ) :   1.4652 B(  8-C , 82-H ) :   0.9896
B(  9-C , 10-C ) :   1.2189 B(  9-C , 15-C ) :   0.9871 B( 10-C , 11-C ) :   1.4669
B( 10-C , 12-C ) :   0.9832 B( 11-C , 83-H ) :   1.0180 B( 12-C , 13-O ) :   2.0143
B( 12-C , 14-C ) :   1.0122 B( 13-O , 85-H ) :   0.1470 B( 14-C , 15-C ) :   1.0932
B( 14-C , 21-C ) :   1.4479 B( 15-C , 16-C ) :   1.6345 B( 16-C , 17-C ) :   1.1457
B( 16-C , 19-C ) :   1.1468 B( 17-C , 18-N ) :   2.9551 B( 19-C , 20-N ) :   2.9611
B( 21-C , 22-N ) :   1.3401 B( 21-C , 84-H ) :   0.9319 B( 22-N , 23-C ) :   1.1991
B( 22-N , 85-H ) :   0.8175 B( 23-C , 24-S ) :   1.1385 B( 23-C , 30-C ) :   1.3723
B( 24-S , 25-C ) :   1.0851 B( 25-C , 26-N ) :   0.9545 B( 25-C , 29-C ) :   1.5177
B( 26-N , 27-O ) :   1.5447 B( 26-N , 28-O ) :   1.5178 B( 27-O , 28-O ) :   0.2666
B( 29-C , 30-C ) :   1.2125 B( 29-C , 86-H ) :   0.9994 B( 30-C , 31-C ) :   1.0806
B( 31-C , 32-C ) :   1.6925 B( 31-C , 87-H ) :   0.9658 B( 32-C , 33-C ) :   1.1741
B( 32-C , 88-H ) :   0.9667 B( 33-C , 34-C ) :   1.4864 B( 33-C , 39-S ) :   1.1182
B( 34-C , 35-C ) :   1.1750 B( 34-C , 37-C ) :   1.2461 B( 35-C , 36-N ) :   2.9865
B( 37-C , 38-C ) :   1.4123 B( 37-C , 42-C ) :   1.0686 B( 38-C , 39-S ) :   1.0961
B( 38-C , 40-S ) :   1.0900 B( 40-S , 41-C ) :   1.0904 B( 41-C , 42-C ) :   1.4149
B( 41-C , 47-S ) :   1.0892 B( 42-C , 43-C ) :   1.2425 B( 43-C , 44-C ) :   1.1723
B( 43-C , 46-C ) :   1.5222 B( 44-C , 45-N ) :   3.0022 B( 46-C , 47-S ) :   1.1651
B( 46-C , 48-C ) :   1.0307 B( 48-C , 49-C ) :   1.1134 B( 48-C , 57-C ) :   1.5544
B( 49-C , 50-C ) :   1.6183 B( 49-C , 54-C ) :   1.0992 B( 50-C , 51-S ) :   0.8962
B( 50-C , 89-H ) :   0.9331 B( 51-S , 52-F ) :   0.4886 B( 51-S , 53-C ) :   1.0499
B( 51-S , 90-H ) :   0.8830 B( 53-C , 54-C ) :   1.5277 B( 53-C , 91-H ) :   0.9927
B( 54-C , 55-C ) :   1.0893 B( 55-C , 56-C ) :   1.6384 B( 55-C , 92-H ) :   1.0004
B( 56-C , 57-C ) :   1.1062 B( 56-C , 93-H ) :   0.9907 B( 57-C , 58-C ) :   1.0476
B( 58-C , 59-C ) :   1.6194 B( 58-C , 94-H ) :   0.9603 B( 59-C , 60-C ) :   1.1482
B( 59-C , 95-H ) :   0.9807 B( 60-C , 61-C ) :   1.5622 B( 60-C , 96-H ) :   0.9639
B( 61-C , 62-C ) :   1.0585 B( 61-C , 70-C ) :   0.9414 B( 62-C , 63-C ) :   1.6320
B( 62-C , 68-C ) :   1.0080 B( 63-C , 64-C ) :   1.1390 B( 63-C , 66-C ) :   1.1478
B( 64-C , 65-N ) :   2.9737 B( 66-C , 67-N ) :   2.9820 B( 68-C , 69-C ) :   1.2706
B( 68-C , 75-C ) :   1.4079 B( 69-C , 70-C ) :   0.9439 B( 69-C , 72-C ) :   1.4222
B( 70-C , 71-O ) :   2.2083 B( 72-C , 73-C ) :   1.2497 B( 72-C , 97-H ) :   1.0160
B( 73-C , 74-C ) :   1.2993 B( 73-C , 78-C ) :   1.1652 B( 74-C , 75-C ) :   1.3349
B( 74-C , 76-S ) :   1.0876 B( 75-C , 98-H ) :   0.9800 B( 76-S , 77-C ) :   1.0877
B( 77-C , 78-C ) :   1.6147 B( 77-C , 79-Br) :   1.0221 B( 78-C , 99-H ) :   1.0008

-----------------------------------------------------------------------------
         ABSORPTION SPECTRUM VIA TRANSITION ELECTRIC DIPOLE MOMENTS
-----------------------------------------------------------------------------
State   Energy  Wavelength   fosc         T2         TX        TY        TZ
        (cm-1)    (nm)                  (au**2)     (au)      (au)      (au)
-----------------------------------------------------------------------------
   0   19726.8    506.9   0.614020224  10.24710   1.42563  -0.34096   2.84577
   1   21263.4    470.3   1.003296398  15.53363  -1.76501   3.02552   1.80682
   2   23629.8    423.2   0.008819448   0.12287  -0.12408  -0.20378  -0.25681
   3   25500.2    392.2   0.428203944   5.52819   0.02511   1.63247   1.69192
   4   25800.6    387.6   0.053210603   0.67896  -0.04265  -0.17732   0.80355
   5   26270.0    380.7   0.094626375   1.18584   0.08047  -0.20010  -1.06739
   6   26748.4    373.9   0.043813384   0.53924   0.13043   0.67684   0.25321
   7   27062.9    369.5   0.676767414   8.23268   1.16168  -2.16495   1.48195
   8   27578.3    362.6   0.119398489   1.42530   0.11125  -0.76335   0.91116
   9   28335.9    352.9   0.034550224   0.40141   0.00317  -0.09749   0.62602
  10   28579.7    349.9   0.249182340   2.87035   0.09582   0.60378  -1.58007
  11   28845.4    346.7   0.000803524   0.00917  -0.08607  -0.04190  -0.00243
  12   29052.5    344.2   0.015653751   0.17738  -0.15493   0.39003   0.03542
  13   29252.9    341.8   0.054124837   0.60912  -0.14464   0.54534   0.53926
  14   29772.2    335.9   0.081759718   0.90408  -0.22451  -0.02126   0.92370
  15   30349.2    329.5   0.540059397   5.85828  -0.10442  -0.50606  -2.36459
  16   30470.8    328.2   0.589748227   6.37175   0.72669  -0.07846  -2.41610
  17   31289.3    319.6   0.168395850   1.77179   0.16080  -0.33687  -1.27767
  18   31655.5    315.9   0.042222657   0.43911   0.19753  -0.34047  -0.53307
  19   32402.8    308.6   0.080081625   0.81363   0.25661  -0.51304   0.69611
  20   32480.1    307.9   0.071490161   0.72461  -0.09957   0.42829   0.72888
  21   32661.8    306.2   0.192973534   1.94506   0.40585  -0.91721   0.96906
  22   32786.1    305.0   0.412862909   4.14564   0.56167  -1.09450   1.62242
  23   33401.0    299.4   0.010853581   0.10698  -0.11484   0.00842   0.30613
  24   33454.9    298.9   0.095372658   0.93851   0.43933  -0.27097  -0.81980
  25   33544.1    298.1   0.312277324   3.06478   0.10136   0.59022  -1.64504
  26   34192.2    292.5   0.005311509   0.05114  -0.08347   0.10935   0.17949
  27   34266.9    291.8   0.005760502   0.05534   0.12384   0.14599   0.13672
  28   34408.9    290.6   0.022413642   0.21445   0.02899  -0.30735  -0.34517
  29   34555.3    289.4   0.772173010   7.35656   0.23427   0.79523  -2.58250
  30   34723.0    288.0   0.022475331   0.21309  -0.07168   0.29331  -0.34917
  31   34752.6    287.7   0.001360864   0.01289   0.04202  -0.05811   0.08802
  32   35007.7    285.7   0.033161384   0.31185   0.08869  -0.27499  -0.47788
  33   35608.6    280.8   0.008926980   0.08253   0.08813  -0.16066   0.22125
  34   35969.9    278.0   0.015987918   0.14633  -0.18878   0.31091  -0.11844
  35   36333.7    275.2   0.014363904   0.13015  -0.17412   0.30939  -0.06410
  36   36527.5    273.8   0.009432101   0.08501   0.09665   0.25583   0.10110
  37   36735.4    272.2   0.011298126   0.10125   0.08203  -0.30347   0.04929
  38   36957.4    270.6   0.000209251   0.00186  -0.01240   0.04123   0.00320
  39   37023.8    270.1   0.052913152   0.47050  -0.07278   0.58933   0.34336
  40   37081.7    269.7   0.027187582   0.24137  -0.03933   0.40943   0.26869
  41   37276.6    268.3   0.270367922   2.38778   0.75175  -1.34075  -0.15822
  42   37858.6    264.1   0.002301307   0.02001  -0.06992  -0.02558   0.12029
  43   37879.9    264.0   0.001745379   0.01517   0.01694  -0.01328   0.12127
  44   38146.9    262.1   0.061020709   0.52662  -0.07275   0.39076  -0.60715
  45   38471.1    259.9   0.042049831   0.35984  -0.30474   0.51367  -0.05581
  46   38614.7    259.0   0.135690916   1.15684   0.13761  -1.05721  -0.14217
  47   39265.6    254.7   0.044453743   0.37271  -0.05599   0.16977   0.58374
  48   39478.7    253.3   0.015800409   0.13176   0.12913  -0.03672  -0.33725
  49   39706.5    251.8   0.001850434   0.01534   0.01381  -0.03001  -0.11938
  50   39871.8    250.8   0.086512805   0.71432  -0.04305  -0.42300  -0.73043
  51   40021.2    249.9   0.005296427   0.04357  -0.04731   0.15875   0.12700
  52   40078.2    249.5   0.081222151   0.66718  -0.30301   0.75590   0.06311

FINAL SINGLE POINT ENERGY     -8218.681450846438

DIPOLE MOMENT
-------------
                                X             Y             Z
Electronic contribution:    -23.90098      10.33105    -139.80414
Nuclear contribution   :     24.57049      -9.43365     134.22216
                        -----------------------------------------
Total Dipole Moment    :      0.66951       0.89740      -5.58199
                        -----------------------------------------
Magnitude (a.u.)       :      5.69317
Magnitude (Debye)      :     14.47088

Rotational constants in cm-1:     0.000561     0.000239     0.000173
Rotational constants in MHz :    16.815292     7.176348     5.200643

                             ****ORCA TERMINATED NORMALLY****
TOTAL RUN TIME: 0 days 0 hours 9 minutes 50 seconds 429 msec
