                         Program Version 4.2.0 -  RELEASE  -
|  1> # ORCA input file
|  2> # SCF done       -194.478846292896          0.000986845559
|  3> ! CAM-B3LYP def2-SVP def2/J RIJCOSX Grid4 TightSCF
|  4> %maxcore 5000
|  5> %tddft
|  6>     Mode sTDDFT
|  7>     Ethresh 5.0
|  8>     maxcore 5000
|  9> end
| 10>
| 11> %pal
| 12>   nprocs 6
| 13>   end
| 14> * xyz 0 1
| 15>    C        3.20945        -6.42147        -3.20631
| 16>    C        4.13507        -7.41877        -3.07242
| 17>    F        5.21310        -7.44634        -3.86437
| 18>    C        3.96755        -8.42783        -2.10246
| 19>    F        4.88998        -9.39127        -1.99288
| 20>    C        2.87523        -8.42613        -1.28026
| 21>    C        1.90440        -7.41268        -1.39468
| 22>    C        2.07310        -6.39097        -2.37386
| 23>    C        1.11212        -5.36131        -2.50469
| 24>    C        0.01663        -5.35428        -1.68323
| 25>    C       -0.14460        -6.38208        -0.70819
| 26>    C        0.76658        -7.38744        -0.55775
| 27>    C       -1.38740        -6.14059         0.03552
| 28>    O       -1.85751        -6.80489         0.95063
| 29>    C       -1.96185        -4.91069        -0.52197
| 30>    C       -1.11457        -4.43241        -1.58895
| 31>    C       -1.32975        -3.33965        -2.38852
| 32>    C       -2.44556        -2.48718        -2.28273
| 33>    N       -3.34220        -1.77002        -2.24280
| 34>    C       -0.47007        -2.93875        -3.43224
| 35>    N        0.18827        -2.56602        -4.29527
| 36>    C       -3.10787        -4.35582        -0.00998
| 37>    N       -3.77051        -4.95836         0.98574
| 38>    C       -4.91292        -4.52785         1.59606
| 39>    S       -5.21102        -5.03227         3.22929
| 40>    C       -6.64274        -4.05867         3.24963
| 41>    N       -7.42123        -4.06837         4.42095
| 42>    O       -8.42956        -3.39377         4.43346
| 43>    O       -7.01542        -4.76339         5.33365
| 44>    C       -6.86997        -3.39240         2.07682
| 45>    C       -5.89056        -3.66307         1.09892
| 46>    C       -5.95464        -3.18555        -0.26224
| 47>    C       -6.52164        -2.02165        -0.62472
| 48>    C       -6.61039        -1.55827        -1.96884
| 49>    C       -7.07820        -0.31209        -2.36158
| 50>    C       -7.61077         0.59144        -1.42664
| 51>    N       -8.08551         1.26332        -0.62810
| 52>    C       -7.02685        -0.12942        -3.76792
| 53>    C       -6.54690        -1.27012        -4.40381
| 54>    S       -6.12302        -2.54080        -3.32882
| 55>    S       -6.52019        -1.18896        -6.13633
| 56>    C       -7.16533         0.41697        -6.01608
| 57>    C       -7.37004         0.87425        -4.71939
| 58>    C       -7.85090         2.21173        -4.69841
| 59>    C       -7.83167         2.98746        -3.53112
| 60>    N       -7.70505         3.63267        -2.59047
| 61>    C       -8.06814         2.71992        -5.97901
| 62>    S       -7.58385         1.56693        -7.22302
| 63>    C       -8.59245         3.95105        -6.42521
| 64>    C       -9.43572         4.81523        -5.77647
| 65>    C       -9.90118         6.04449        -6.32435
| 66>    C      -10.78551         6.70906        -5.53687
| 67>    C      -11.07416         6.04296        -4.32073
| 68>    S      -10.18696         4.54288        -4.21779
| 69>    C      -11.89674         6.46884        -3.29604
| 70>    C      -12.69736         7.63370        -3.25137
| 71>    C      -13.36829         7.80060        -2.07916
| 72>    C      -13.12308         6.78153        -1.12486
| 73>    S      -12.06232         5.56657        -1.81039
| 74>    C      -13.63254         6.59933         0.14233
| 75>    C      -14.31467         7.53653         0.93605
| 76>    C      -14.21496         8.91547         0.87764
| 77>    C      -15.08498         9.62841         1.76507
| 78>    C      -15.24307        10.99078         1.84860
| 79>    C      -14.60597        11.91255         0.99950
| 80>    N      -14.15300        12.71244         0.31181
| 81>    C      -16.13121        11.55358         2.78480
| 82>    N      -16.85237        12.00831         3.55327
| 83>    S      -16.00870         8.54126         2.76183
| 84>    C      -15.21527         7.02922         2.03764
| 85>    C      -14.41651         6.34324         3.14464
| 86>    C      -16.31444         6.12076         1.49552
| 87>    C      -13.20288         9.58574         0.16757
| 88>    N      -12.31411        10.09091        -0.35472
| 89>    H        3.35373        -5.65708        -3.95383
| 90>    H        2.76157        -9.20530        -0.54289
| 91>    H        1.27073        -4.60109        -3.25242
| 92>    H        0.62179        -8.15256         0.18968
| 93>    H       -3.49264        -3.41000        -0.36430
| 94>    H       -3.29345        -5.80001         1.35239
| 95>    H       -7.72831        -2.76423         1.92269
| 96>    H       -5.53389        -3.82832        -1.02546
| 97>    H       -6.91030        -1.34314         0.12300
| 98>    H       -8.34766         4.20956        -7.44843
| 99>    H       -9.55538         6.39243        -7.28153
|100>    H      -11.23020         7.65488        -5.78721
|101>    H      -12.76477         8.31220        -4.08207
|102>    H      -14.05523         8.60604        -1.89780
|103>    H      -13.49972         5.61359         0.56800
|104>    H      -13.62778         6.99850         3.50924
|105>    H      -13.96377         5.42477         2.77813
|106>    H      -15.07438         6.09635         3.97482
|107>    H      -16.89237         6.63591         0.73068
|108>    H      -16.98637         5.82841         2.29904
|109>    H      -15.88172         5.22354         1.05826
|110> *
|111>
|112>                          ****END OF INPUT****

CARTESIAN COORDINATES (ANGSTROEM)
---------------------------------
  C      3.209450   -6.421470   -3.206310
  C      4.135070   -7.418770   -3.072420
  F      5.213100   -7.446340   -3.864370
  C      3.967550   -8.427830   -2.102460
  F      4.889980   -9.391270   -1.992880
  C      2.875230   -8.426130   -1.280260
  C      1.904400   -7.412680   -1.394680
  C      2.073100   -6.390970   -2.373860
  C      1.112120   -5.361310   -2.504690
  C      0.016630   -5.354280   -1.683230
  C     -0.144600   -6.382080   -0.708190
  C      0.766580   -7.387440   -0.557750
  C     -1.387400   -6.140590    0.035520
  O     -1.857510   -6.804890    0.950630
  C     -1.961850   -4.910690   -0.521970
  C     -1.114570   -4.432410   -1.588950
  C     -1.329750   -3.339650   -2.388520
  C     -2.445560   -2.487180   -2.282730
  N     -3.342200   -1.770020   -2.242800
  C     -0.470070   -2.938750   -3.432240
  N      0.188270   -2.566020   -4.295270
  C     -3.107870   -4.355820   -0.009980
  N     -3.770510   -4.958360    0.985740
  C     -4.912920   -4.527850    1.596060
  S     -5.211020   -5.032270    3.229290
  C     -6.642740   -4.058670    3.249630
  N     -7.421230   -4.068370    4.420950
  O     -8.429560   -3.393770    4.433460
  O     -7.015420   -4.763390    5.333650
  C     -6.869970   -3.392400    2.076820
  C     -5.890560   -3.663070    1.098920
  C     -5.954640   -3.185550   -0.262240
  C     -6.521640   -2.021650   -0.624720
  C     -6.610390   -1.558270   -1.968840
  C     -7.078200   -0.312090   -2.361580
  C     -7.610770    0.591440   -1.426640
  N     -8.085510    1.263320   -0.628100
  C     -7.026850   -0.129420   -3.767920
  C     -6.546900   -1.270120   -4.403810
  S     -6.123020   -2.540800   -3.328820
  S     -6.520190   -1.188960   -6.136330
  C     -7.165330    0.416970   -6.016080
  C     -7.370040    0.874250   -4.719390
  C     -7.850900    2.211730   -4.698410
  C     -7.831670    2.987460   -3.531120
  N     -7.705050    3.632670   -2.590470
  C     -8.068140    2.719920   -5.979010
  S     -7.583850    1.566930   -7.223020
  C     -8.592450    3.951050   -6.425210
  C     -9.435720    4.815230   -5.776470
  C     -9.901180    6.044490   -6.324350
  C    -10.785510    6.709060   -5.536870
  C    -11.074160    6.042960   -4.320730
  S    -10.186960    4.542880   -4.217790
  C    -11.896740    6.468840   -3.296040
  C    -12.697360    7.633700   -3.251370
  C    -13.368290    7.800600   -2.079160
  C    -13.123080    6.781530   -1.124860
  S    -12.062320    5.566570   -1.810390
  C    -13.632540    6.599330    0.142330
  C    -14.314670    7.536530    0.936050
  C    -14.214960    8.915470    0.877640
  C    -15.084980    9.628410    1.765070
  C    -15.243070   10.990780    1.848600
  C    -14.605970   11.912550    0.999500
  N    -14.153000   12.712440    0.311810
  C    -16.131210   11.553580    2.784800
  N    -16.852370   12.008310    3.553270
  S    -16.008700    8.541260    2.761830
  C    -15.215270    7.029220    2.037640
  C    -14.416510    6.343240    3.144640
  C    -16.314440    6.120760    1.495520
  C    -13.202880    9.585740    0.167570
  N    -12.314110   10.090910   -0.354720
  H      3.353730   -5.657080   -3.953830
  H      2.761570   -9.205300   -0.542890
  H      1.270730   -4.601090   -3.252420
  H      0.621790   -8.152560    0.189680
  H     -3.492640   -3.410000   -0.364300
  H     -3.293450   -5.800010    1.352390
  H     -7.728310   -2.764230    1.922690
  H     -5.533890   -3.828320   -1.025460
  H     -6.910300   -1.343140    0.123000
  H     -8.347660    4.209560   -7.448430
  H     -9.555380    6.392430   -7.281530
  H    -11.230200    7.654880   -5.787210
  H    -12.764770    8.312200   -4.082070
  H    -14.055230    8.606040   -1.897800
  H    -13.499720    5.613590    0.568000
  H    -13.627780    6.998500    3.509240
  H    -13.963770    5.424770    2.778130
  H    -15.074380    6.096350    3.974820
  H    -16.892370    6.635910    0.730680
  H    -16.986370    5.828410    2.299040
  H    -15.881720    5.223540    1.058260

 Total Charge           Charge          ....    0
 Multiplicity           Mult            ....    1
 Number of Electrons    NEL             ....  556
 Basis Dimension        Dim             .... 1169

ORBITAL ENERGIES
----------------

  NO   OCC          E(Eh)            E(eV)
   0   2.0000     -89.002665     -2421.8856
   1   2.0000     -88.995336     -2421.6862
   2   2.0000     -88.991883     -2421.5922
   3   2.0000     -88.990772     -2421.5620
   4   2.0000     -88.967745     -2420.9354
   5   2.0000     -88.965168     -2420.8653
   6   2.0000     -88.951468     -2420.4925
   7   2.0000     -24.808838      -675.0828
   8   2.0000     -24.808022      -675.0606
   9   2.0000     -19.251252      -523.8532
  10   2.0000     -19.251208      -523.8520
  11   2.0000     -19.244260      -523.6629
  12   2.0000     -14.663093      -399.0031
  13   2.0000     -14.510733      -394.8571
  14   2.0000     -14.435701      -392.8154
  15   2.0000     -14.427396      -392.5894
  16   2.0000     -14.410223      -392.1221
  17   2.0000     -14.409320      -392.0975
  18   2.0000     -14.401501      -391.8848
  19   2.0000     -14.392422      -391.6377
  20   2.0000     -14.387195      -391.4955
  21   2.0000     -10.392936      -282.8062
  22   2.0000     -10.392378      -282.7910
  23   2.0000     -10.391611      -282.7701
  24   2.0000     -10.385408      -282.6013
  25   2.0000     -10.383492      -282.5492
  26   2.0000     -10.360948      -281.9357
  27   2.0000     -10.360106      -281.9128
  28   2.0000     -10.354963      -281.7729
  29   2.0000     -10.348671      -281.6017
  30   2.0000     -10.346128      -281.5325
  31   2.0000     -10.345762      -281.5225
  32   2.0000     -10.345437      -281.5136
  33   2.0000     -10.339656      -281.3563
  34   2.0000     -10.339223      -281.3446
  35   2.0000     -10.338761      -281.3320
  36   2.0000     -10.338420      -281.3227
  37   2.0000     -10.336944      -281.2825
  38   2.0000     -10.336474      -281.2697
  39   2.0000     -10.331315      -281.1294
  40   2.0000     -10.331244      -281.1274
  41   2.0000     -10.330756      -281.1142
  42   2.0000     -10.329879      -281.0903
  43   2.0000     -10.329244      -281.0730
  44   2.0000     -10.324433      -280.9421
  45   2.0000     -10.323323      -280.9119
  46   2.0000     -10.323240      -280.9096
  47   2.0000     -10.323070      -280.9050
  48   2.0000     -10.322061      -280.8776
  49   2.0000     -10.320075      -280.8235
  50   2.0000     -10.320067      -280.8233
  51   2.0000     -10.317956      -280.7659
  52   2.0000     -10.317469      -280.7526
  53   2.0000     -10.316465      -280.7253
  54   2.0000     -10.315732      -280.7053
  55   2.0000     -10.315427      -280.6970
  56   2.0000     -10.313832      -280.6536
  57   2.0000     -10.312918      -280.6288
  58   2.0000     -10.312051      -280.6052
  59   2.0000     -10.312012      -280.6041
  60   2.0000     -10.311674      -280.5949
  61   2.0000     -10.310557      -280.5645
  62   2.0000     -10.310430      -280.5611
  63   2.0000     -10.309943      -280.5478
  64   2.0000     -10.309783      -280.5435
  65   2.0000     -10.309592      -280.5383
  66   2.0000     -10.308354      -280.5046
  67   2.0000     -10.301459      -280.3170
  68   2.0000     -10.299301      -280.2582
  69   2.0000     -10.296776      -280.1895
  70   2.0000     -10.294947      -280.1397
  71   2.0000     -10.290893      -280.0294
  72   2.0000     -10.282766      -279.8083
  73   2.0000     -10.282362      -279.7973
  74   2.0000      -8.098366      -220.3677
  75   2.0000      -8.090415      -220.1514
  76   2.0000      -8.087462      -220.0710
  77   2.0000      -8.085724      -220.0237
  78   2.0000      -8.063837      -219.4282
  79   2.0000      -8.061798      -219.3727
  80   2.0000      -8.047224      -218.9761
  81   2.0000      -6.067973      -165.1179
  82   2.0000      -6.063549      -164.9976
  83   2.0000      -6.060393      -164.9117
  84   2.0000      -6.059891      -164.8980
  85   2.0000      -6.057065      -164.8211
  86   2.0000      -6.056155      -164.7964
  87   2.0000      -6.055290      -164.7728
  88   2.0000      -6.052907      -164.7080
  89   2.0000      -6.051229      -164.6623
  90   2.0000      -6.051108      -164.6590
  91   2.0000      -6.048860      -164.5979
  92   2.0000      -6.047332      -164.5563
  93   2.0000      -6.033555      -164.1814
  94   2.0000      -6.031501      -164.1255
  95   2.0000      -6.029359      -164.0672
  96   2.0000      -6.027363      -164.0129
  97   2.0000      -6.024746      -163.9417
  98   2.0000      -6.022732      -163.8869
  99   2.0000      -6.017148      -163.7349
 100   2.0000      -6.013295      -163.6301
 101   2.0000      -6.007495      -163.4723
 102   2.0000      -1.333950       -36.2986
 103   2.0000      -1.331896       -36.2427
 104   2.0000      -1.316994       -35.8372
 105   2.0000      -1.160002       -31.5652
 106   2.0000      -1.153536       -31.3893
 107   2.0000      -1.115448       -30.3529
 108   2.0000      -1.048701       -28.5366
 109   2.0000      -1.035995       -28.1909
 110   2.0000      -1.024907       -27.8891
 111   2.0000      -1.021422       -27.7943
 112   2.0000      -1.019894       -27.7527
 113   2.0000      -1.016967       -27.6731
 114   2.0000      -1.013000       -27.5651
 115   2.0000      -1.009624       -27.4733
 116   2.0000      -0.997947       -27.1555
 117   2.0000      -0.994952       -27.0740
 118   2.0000      -0.994037       -27.0491
 119   2.0000      -0.986610       -26.8470
 120   2.0000      -0.983405       -26.7598
 121   2.0000      -0.980257       -26.6741
 122   2.0000      -0.967227       -26.3196
 123   2.0000      -0.961181       -26.1551
 124   2.0000      -0.945562       -25.7300
 125   2.0000      -0.934311       -25.4239
 126   2.0000      -0.927498       -25.2385
 127   2.0000      -0.922149       -25.0930
 128   2.0000      -0.914479       -24.8842
 129   2.0000      -0.907874       -24.7045
 130   2.0000      -0.903959       -24.5980
 131   2.0000      -0.902513       -24.5586
 132   2.0000      -0.895905       -24.3788
 133   2.0000      -0.880984       -23.9728
 134   2.0000      -0.873671       -23.7738
 135   2.0000      -0.870088       -23.6763
 136   2.0000      -0.867140       -23.5961
 137   2.0000      -0.864725       -23.5304
 138   2.0000      -0.854345       -23.2479
 139   2.0000      -0.846758       -23.0415
 140   2.0000      -0.843689       -22.9579
 141   2.0000      -0.828715       -22.5505
 142   2.0000      -0.823080       -22.3972
 143   2.0000      -0.818410       -22.2701
 144   2.0000      -0.802105       -21.8264
 145   2.0000      -0.797089       -21.6899
 146   2.0000      -0.790277       -21.5045
 147   2.0000      -0.783959       -21.3326
 148   2.0000      -0.770835       -20.9755
 149   2.0000      -0.758992       -20.6532
 150   2.0000      -0.749008       -20.3815
 151   2.0000      -0.737345       -20.0642
 152   2.0000      -0.732629       -19.9358
 153   2.0000      -0.728072       -19.8118
 154   2.0000      -0.717454       -19.5229
 155   2.0000      -0.708670       -19.2839
 156   2.0000      -0.705988       -19.2109
 157   2.0000      -0.701182       -19.0801
 158   2.0000      -0.698849       -19.0166
 159   2.0000      -0.692077       -18.8324
 160   2.0000      -0.685429       -18.6515
 161   2.0000      -0.679216       -18.4824
 162   2.0000      -0.674469       -18.3532
 163   2.0000      -0.668721       -18.1968
 164   2.0000      -0.662178       -18.0188
 165   2.0000      -0.656288       -17.8585
 166   2.0000      -0.654536       -17.8108
 167   2.0000      -0.654167       -17.8008
 168   2.0000      -0.650308       -17.6958
 169   2.0000      -0.644580       -17.5399
 170   2.0000      -0.642557       -17.4849
 171   2.0000      -0.639616       -17.4048
 172   2.0000      -0.636460       -17.3190
 173   2.0000      -0.634897       -17.2764
 174   2.0000      -0.632750       -17.2180
 175   2.0000      -0.625193       -17.0124
 176   2.0000      -0.621150       -16.9024
 177   2.0000      -0.605398       -16.4737
 178   2.0000      -0.600049       -16.3282
 179   2.0000      -0.597337       -16.2544
 180   2.0000      -0.596280       -16.2256
 181   2.0000      -0.593421       -16.1478
 182   2.0000      -0.587953       -15.9990
 183   2.0000      -0.582218       -15.8429
 184   2.0000      -0.574962       -15.6455
 185   2.0000      -0.569966       -15.5096
 186   2.0000      -0.567707       -15.4481
 187   2.0000      -0.565697       -15.3934
 188   2.0000      -0.563516       -15.3341
 189   2.0000      -0.557554       -15.1718
 190   2.0000      -0.555815       -15.1245
 191   2.0000      -0.553489       -15.0612
 192   2.0000      -0.549960       -14.9652
 193   2.0000      -0.547733       -14.9046
 194   2.0000      -0.543874       -14.7996
 195   2.0000      -0.543199       -14.7812
 196   2.0000      -0.540611       -14.7108
 197   2.0000      -0.539223       -14.6730
 198   2.0000      -0.536706       -14.6045
 199   2.0000      -0.531046       -14.4505
 200   2.0000      -0.530213       -14.4278
 201   2.0000      -0.528700       -14.3867
 202   2.0000      -0.527600       -14.3567
 203   2.0000      -0.522598       -14.2206
 204   2.0000      -0.519964       -14.1489
 205   2.0000      -0.517194       -14.0736
 206   2.0000      -0.515966       -14.0402
 207   2.0000      -0.515221       -14.0199
 208   2.0000      -0.510515       -13.8918
 209   2.0000      -0.506545       -13.7838
 210   2.0000      -0.504145       -13.7185
 211   2.0000      -0.502592       -13.6762
 212   2.0000      -0.500018       -13.6062
 213   2.0000      -0.494324       -13.4513
 214   2.0000      -0.492822       -13.4104
 215   2.0000      -0.486159       -13.2291
 216   2.0000      -0.484592       -13.1864
 217   2.0000      -0.483990       -13.1700
 218   2.0000      -0.481853       -13.1119
 219   2.0000      -0.481220       -13.0947
 220   2.0000      -0.476558       -12.9678
 221   2.0000      -0.474311       -12.9067
 222   2.0000      -0.471746       -12.8369
 223   2.0000      -0.468123       -12.7383
 224   2.0000      -0.467164       -12.7122
 225   2.0000      -0.466452       -12.6928
 226   2.0000      -0.462298       -12.5798
 227   2.0000      -0.461419       -12.5558
 228   2.0000      -0.459667       -12.5082
 229   2.0000      -0.457514       -12.4496
 230   2.0000      -0.453526       -12.3411
 231   2.0000      -0.450743       -12.2653
 232   2.0000      -0.450174       -12.2499
 233   2.0000      -0.447362       -12.1733
 234   2.0000      -0.446387       -12.1468
 235   2.0000      -0.443885       -12.0787
 236   2.0000      -0.443777       -12.0758
 237   2.0000      -0.442151       -12.0315
 238   2.0000      -0.440746       -11.9933
 239   2.0000      -0.437520       -11.9055
 240   2.0000      -0.434492       -11.8231
 241   2.0000      -0.430529       -11.7153
 242   2.0000      -0.429865       -11.6972
 243   2.0000      -0.428539       -11.6612
 244   2.0000      -0.427515       -11.6333
 245   2.0000      -0.425199       -11.5702
 246   2.0000      -0.422156       -11.4875
 247   2.0000      -0.417158       -11.3514
 248   2.0000      -0.415426       -11.3043
 249   2.0000      -0.413789       -11.2598
 250   2.0000      -0.409795       -11.1511
 251   2.0000      -0.408243       -11.1089
 252   2.0000      -0.403582       -10.9820
 253   2.0000      -0.398772       -10.8511
 254   2.0000      -0.397838       -10.8257
 255   2.0000      -0.396492       -10.7891
 256   2.0000      -0.395849       -10.7716
 257   2.0000      -0.395073       -10.7505
 258   2.0000      -0.394099       -10.7240
 259   2.0000      -0.389965       -10.6115
 260   2.0000      -0.379696       -10.3320
 261   2.0000      -0.379417       -10.3245
 262   2.0000      -0.378036       -10.2869
 263   2.0000      -0.371344       -10.1048
 264   2.0000      -0.368465       -10.0264
 265   2.0000      -0.358780        -9.7629
 266   2.0000      -0.353857        -9.6289
 267   2.0000      -0.351943        -9.5769
 268   2.0000      -0.343561        -9.3488
 269   2.0000      -0.332823        -9.0566
 270   2.0000      -0.330617        -8.9965
 271   2.0000      -0.322913        -8.7869
 272   2.0000      -0.316618        -8.6156
 273   2.0000      -0.304225        -8.2784
 274   2.0000      -0.299226        -8.1423
 275   2.0000      -0.283292        -7.7088
 276   2.0000      -0.276868        -7.5340
 277   2.0000      -0.240122        -6.5341
 278   0.0000      -0.114213        -3.1079
 279   0.0000      -0.102061        -2.7772
 280   0.0000      -0.079679        -2.1682
 281   0.0000      -0.062775        -1.7082
 282   0.0000      -0.058398        -1.5891

MULLIKEN ATOMIC CHARGES
-----------------------
   0 C :   -0.107809
   1 C :    0.242732
   2 F :   -0.167634
   3 C :    0.240038
   4 F :   -0.168748
   5 C :   -0.105154
   6 C :    0.115684
   7 C :    0.114308
   8 C :   -0.083937
   9 C :    0.042313
  10 C :    0.001361
  11 C :   -0.078015
  12 C :    0.175302
  13 O :   -0.211540
  14 C :   -0.144086
  15 C :    0.339858
  16 C :   -0.350554
  17 C :   -0.194603
  18 N :    0.143175
  19 C :   -0.186969
  20 N :    0.149722
  21 C :    0.016145
  22 N :    0.001658
  23 C :   -0.118402
  24 S :    0.207404
  25 C :    0.001103
  26 N :    0.275462
  27 O :   -0.235914
  28 O :   -0.255265
  29 C :   -0.001957
  30 C :    0.109449
  31 C :   -0.051933
  32 C :    0.002565
  33 C :   -0.067756
  34 C :   -0.003352
  35 C :   -0.306217
  36 N :    0.192285
  37 C :    0.155814
  38 C :   -0.220066
  39 S :    0.165918
  40 S :    0.192996
  41 C :   -0.224217
  42 C :    0.102685
  43 C :    0.008205
  44 C :   -0.319032
  45 N :    0.197562
  46 C :   -0.114738
  47 S :    0.165098
  48 C :   -0.001236
  49 C :   -0.020824
  50 C :    0.042474
  51 C :    0.041331
  52 C :   -0.035488
  53 S :    0.139468
  54 C :   -0.056614
  55 C :    0.030950
  56 C :    0.050852
  57 C :   -0.053809
  58 S :    0.135196
  59 C :   -0.023759
  60 C :    0.140112
  61 C :   -0.114668
  62 C :    0.092999
  63 C :   -0.308400
  64 C :   -0.193583
  65 N :    0.176917
  66 C :   -0.214342
  67 N :    0.139973
  68 S :    0.111177
  69 C :   -0.400228
  70 C :    0.133593
  71 C :    0.130909
  72 C :   -0.266755
  73 N :    0.187366
  74 H :    0.010305
  75 H :    0.003489
  76 H :   -0.002385
  77 H :   -0.006355
  78 H :    0.058297
  79 H :    0.170450
  80 H :    0.022271
  81 H :    0.014311
  82 H :    0.023310
  83 H :    0.000146
  84 H :    0.000531
  85 H :    0.001148
  86 H :    0.003521
  87 H :    0.022262
  88 H :   -0.002044
  89 H :    0.036635
  90 H :    0.025984
  91 H :    0.031588
  92 H :    0.029486
  93 H :    0.029208
  94 H :    0.023288
Sum of atomic charges:    0.0000000

LOEWDIN ATOMIC CHARGES
----------------------
   0 C :   -0.028329
   1 C :    0.068777
   2 F :   -0.045463
   3 C :    0.069303
   4 F :   -0.046073
   5 C :   -0.031885
   6 C :   -0.009258
   7 C :   -0.006084
   8 C :    0.020995
   9 C :   -0.021887
  10 C :   -0.053179
  11 C :    0.033493
  12 C :    0.093957
  13 O :   -0.171081
  14 C :   -0.150366
  15 C :    0.081419
  16 C :   -0.152519
  17 C :   -0.016898
  18 N :   -0.065142
  19 C :   -0.020299
  20 N :   -0.053583
  21 C :    0.119778
  22 N :    0.074280
  23 C :   -0.118228
  24 S :    0.479986
  25 C :   -0.197976
  26 N :    0.272759
  27 O :   -0.202056
  28 O :   -0.221084
  29 C :    0.004262
  30 C :   -0.084455
  31 C :   -0.034238
  32 C :   -0.019017
  33 C :   -0.125307
  34 C :   -0.087005
  35 C :   -0.038507
  36 N :   -0.036465
  37 C :   -0.063111
  38 C :   -0.323855
  39 S :    0.467669
  40 S :    0.428352
  41 C :   -0.332594
  42 C :   -0.058643
  43 C :   -0.105465
  44 C :   -0.063247
  45 N :   -0.028629
  46 C :   -0.132123
  47 S :    0.445693
  48 C :   -0.074853
  49 C :   -0.134161
  50 C :   -0.014735
  51 C :   -0.024494
  52 C :   -0.151799
  53 S :    0.439818
  54 C :   -0.179187
  55 C :    0.003518
  56 C :   -0.026278
  57 C :   -0.097804
  58 S :    0.412762
  59 C :   -0.091491
  60 C :    0.042215
  61 C :   -0.127692
  62 C :   -0.066421
  63 C :   -0.182532
  64 C :   -0.035195
  65 N :   -0.048415
  66 C :   -0.036871
  67 N :   -0.055217
  68 S :    0.376333
  69 C :   -0.122184
  70 C :   -0.042619
  71 C :   -0.045635
  72 C :   -0.041971
  73 N :   -0.037049
  74 H :    0.048705
  75 H :    0.045969
  76 H :    0.041422
  77 H :    0.041858
  78 H :    0.044643
  79 H :    0.085466
  80 H :    0.050146
  81 H :    0.024035
  82 H :    0.046039
  83 H :    0.038724
  84 H :    0.038466
  85 H :    0.037993
  86 H :    0.039855
  87 H :    0.043101
  88 H :    0.032078
  89 H :    0.034966
  90 H :    0.028256
  91 H :    0.032052
  92 H :    0.031797
  93 H :    0.030561
  94 H :    0.029150

  Mayer bond orders larger than 0.100000
B(  0-C ,  1-C ) :   1.4381 B(  0-C ,  5-C ) :   0.1071 B(  0-C ,  7-C ) :   1.1926
B(  0-C , 74-H ) :   1.0067 B(  1-C ,  2-F ) :   1.1384 B(  1-C ,  3-C ) :   1.1924
B(  3-C ,  4-F ) :   1.1361 B(  3-C ,  5-C ) :   1.4406 B(  5-C ,  6-C ) :   1.1944
B(  5-C , 75-H ) :   1.0069 B(  6-C ,  7-C ) :   1.2570 B(  6-C , 11-C ) :   1.1859
B(  7-C ,  8-C ) :   1.2106 B(  8-C ,  9-C ) :   1.4632 B(  8-C , 76-H ) :   0.9896
B(  9-C , 10-C ) :   1.2200 B(  9-C , 15-C ) :   0.9887 B( 10-C , 11-C ) :   1.4714
B( 10-C , 12-C ) :   0.9758 B( 11-C , 77-H ) :   1.0181 B( 12-C , 13-O ) :   2.0585
B( 12-C , 14-C ) :   0.9944 B( 13-O , 79-H ) :   0.1442 B( 14-C , 15-C ) :   1.1082
B( 14-C , 21-C ) :   1.4438 B( 15-C , 16-C ) :   1.6191 B( 16-C , 17-C ) :   1.1525
B( 16-C , 19-C ) :   1.1477 B( 17-C , 18-N ) :   2.9357 B( 19-C , 20-N ) :   2.9633
B( 21-C , 22-N ) :   1.3577 B( 21-C , 78-H ) :   0.9274 B( 22-N , 23-C ) :   1.1428
B( 22-N , 79-H ) :   0.8302 B( 23-C , 24-S ) :   1.1463 B( 23-C , 30-C ) :   1.4049
B( 24-S , 25-C ) :   1.1004 B( 25-C , 26-N ) :   0.9526 B( 25-C , 29-C ) :   1.4939
B( 26-N , 27-O ) :   1.5490 B( 26-N , 28-O ) :   1.5182 B( 27-O , 28-O ) :   0.2666
B( 29-C , 30-C ) :   1.2335 B( 29-C , 80-H ) :   1.0041 B( 30-C , 31-C ) :   1.0457
B( 31-C , 32-C ) :   1.7112 B( 31-C , 81-H ) :   0.9633 B( 32-C , 33-C ) :   1.1681
B( 32-C , 82-H ) :   0.9627 B( 33-C , 34-C ) :   1.4944 B( 33-C , 39-S ) :   1.1236
B( 34-C , 35-C ) :   1.1579 B( 34-C , 37-C ) :   1.2493 B( 35-C , 36-N ) :   2.9850
B( 37-C , 38-C ) :   1.4129 B( 37-C , 42-C ) :   1.0829 B( 38-C , 39-S ) :   1.1102
B( 38-C , 40-S ) :   1.0833 B( 40-S , 41-C ) :   1.0852 B( 41-C , 42-C ) :   1.4189
B( 41-C , 47-S ) :   1.0859 B( 42-C , 43-C ) :   1.2613 B( 43-C , 44-C ) :   1.1492
B( 43-C , 46-C ) :   1.4488 B( 44-C , 45-N ) :   2.9854 B( 46-C , 47-S ) :   1.1220
B( 46-C , 48-C ) :   1.1659 B( 48-C , 49-C ) :   1.6201 B( 48-C , 83-H ) :   0.9381
B( 49-C , 50-C ) :   1.1252 B( 49-C , 53-S ) :   1.0557 B( 50-C , 51-C ) :   1.6113
B( 50-C , 84-H ) :   0.9992 B( 51-C , 52-C ) :   1.1715 B( 51-C , 85-H ) :   0.9927
B( 52-C , 53-S ) :   1.0812 B( 52-C , 54-C ) :   1.4993 B( 54-C , 55-C ) :   1.1909
B( 54-C , 58-S ) :   1.0484 B( 55-C , 56-C ) :   1.5964 B( 55-C , 86-H ) :   0.9938
B( 56-C , 57-C ) :   1.1659 B( 56-C , 87-H ) :   0.9832 B( 57-C , 58-S ) :   1.0895
B( 57-C , 59-C ) :   1.4927 B( 59-C , 60-C ) :   1.2739 B( 59-C , 88-H ) :   0.9336
B( 60-C , 61-C ) :   1.5524 B( 60-C , 69-C ) :   0.9126 B( 61-C , 62-C ) :   1.1294
B( 61-C , 72-C ) :   1.1466 B( 62-C , 63-C ) :   1.6126 B( 62-C , 68-S ) :   1.0944
B( 63-C , 64-C ) :   1.1609 B( 63-C , 66-C ) :   1.1409 B( 64-C , 65-N ) :   3.0223
B( 66-C , 67-N ) :   3.0321 B( 68-S , 69-C ) :   0.9921 B( 69-C , 70-C ) :   0.9987
B( 69-C , 71-C ) :   1.0118 B( 70-C , 89-H ) :   0.9616 B( 70-C , 90-H ) :   0.9589
B( 70-C , 91-H ) :   0.9609 B( 71-C , 92-H ) :   0.9621 B( 71-C , 93-H ) :   0.9632
B( 71-C , 94-H ) :   0.9542 B( 72-C , 73-N ) :   2.9940

-----------------------------------------------------------------------------
         ABSORPTION SPECTRUM VIA TRANSITION ELECTRIC DIPOLE MOMENTS
-----------------------------------------------------------------------------
State   Energy  Wavelength   fosc         T2         TX        TY        TZ
        (cm-1)    (nm)                  (au**2)     (au)      (au)      (au)
-----------------------------------------------------------------------------
   0   13516.0    739.9   1.541697211  37.55155   3.53589  -3.84569  -3.20308
   1   21231.2    471.0   0.306589339   4.75398   2.00930  -0.62025  -0.57616
   2   21741.2    460.0   0.072453666   1.09712  -0.95185   0.42452   0.10437
   3   22361.8    447.2   0.010228335   0.15058   0.30471  -0.00475   0.24023
   4   23904.9    418.3   0.028193087   0.38827   0.14549   0.05624  -0.60327
   5   24682.8    405.1   0.029685161   0.39593  -0.32941  -0.40374  -0.35273
   6   25878.9    386.4   0.308927112   3.92995   0.41412  -1.03223   1.64102
   7   26778.0    373.4   0.216266609   2.65880   1.34870  -0.84295  -0.35950
   8   27239.7    367.1   0.015762003   0.19050  -0.21555   0.35424   0.13620
   9   27461.1    364.2   0.114702760   1.37509   0.64056   0.41951  -0.88814
  10   27773.8    360.1   0.010624263   0.12593   0.22401  -0.05281  -0.27012
  11   28219.2    354.4   0.047994133   0.55991   0.01673  -0.27890   0.69415
  12   29301.7    341.3   0.642056909   7.21368  -0.43760  -1.08553   2.41740
  13   29914.8    334.3   0.346408744   3.81223   1.62269  -0.74036  -0.79433
  14   30316.1    329.9   0.267166625   2.90125   1.20093  -1.15208   0.36295
  15   30903.0    323.6   0.021190905   0.22575  -0.23989   0.24705  -0.32736
  16   31110.7    321.4   0.013513455   0.14300  -0.34783  -0.11460   0.09424
  17   31528.7    317.2   0.003229658   0.03372   0.06205  -0.01783  -0.17191
  18   31726.0    315.2   0.036886590   0.38276  -0.05040   0.10145   0.60822
  19   31978.4    312.7   0.118821616   1.22325   0.07539   0.78517  -0.77529
  20   32176.1    310.8   0.199573444   2.04195   0.51056  -0.09318  -1.33139
  21   32631.0    306.5   0.080961883   0.81682   0.13979  -0.86228   0.23183
  22   32995.5    303.1   0.256221744   2.55645  -1.27667   0.92403   0.26970
  23   33810.5    295.8   0.158218195   1.54057   0.93853  -0.78582  -0.20547
  24   34424.0    290.5   0.223423454   2.13670  -0.75805   1.11840  -0.55788
  25   34837.9    287.0   0.487077962   4.60281  -1.26731   1.66311  -0.48041
  26   35497.3    281.7   0.142057076   1.31748  -0.07057  -0.88812   0.72370
  27   35826.4    279.1   0.001570376   0.01443  -0.08623   0.01154   0.08284
  28   36068.7    277.2   0.226821101   2.07028  -0.01249   1.39670  -0.34549
  29   36167.7    276.5   0.017116023   0.15580  -0.20462   0.27245  -0.19925
  30   36549.2    273.6   0.005684876   0.05121   0.02029   0.21574  -0.06520
  31   36594.3    273.3   0.024244810   0.21811  -0.29587   0.28169   0.22633
  32   36803.6    271.7   0.030579814   0.27354  -0.27513   0.27672  -0.34824
  33   37121.8    269.4   0.037497911   0.33255   0.10947  -0.13082  -0.55086
  34   37510.2    266.6   0.045249013   0.39713   0.08012  -0.12773  -0.61188
  35   37557.5    266.3   0.141911184   1.24393   0.24640  -0.80574   0.73075
  36   37712.4    265.2   0.012261621   0.10704   0.14385   0.18423  -0.22893
  37   37931.9    263.6   0.029429987   0.25542  -0.14974  -0.46046   0.14484
  38   38058.3    262.8   0.018592709   0.16083   0.06152   0.18778  -0.34897
  39   38673.4    258.6   0.162063610   1.37959  -0.73760  -0.30246   0.86258
  40   39111.8    255.7   0.148919906   1.25349  -0.15963  -0.67760   0.87685
  41   39206.5    255.1   0.170217473   1.42929   0.76893   0.14950  -0.90315
  42   39465.5    253.4   0.061090112   0.50960   0.14930  -0.54483   0.43642
  43   40089.6    249.4   0.063943521   0.52510  -0.40736   0.45437   0.39077
  44   40182.7    248.9   0.050627072   0.41478   0.29808   0.10593  -0.56099
  45   40304.5    248.1   0.003513164   0.02870  -0.08017  -0.10839  -0.10257

FINAL SINGLE POINT ENERGY     -5732.947303489404

DIPOLE MOMENT
-------------
                                X             Y             Z
Electronic contribution:     54.86586     -41.05436     -18.40992
Nuclear contribution   :    -52.61359      34.14006      14.29483
                        -----------------------------------------
Total Dipole Moment    :      2.25227      -6.91430      -4.11509
                        -----------------------------------------
Magnitude (a.u.)       :      8.35549
Magnitude (Debye)      :     21.23797

Rotational constants in cm-1:     0.001264     0.000221     0.000197
Rotational constants in MHz :    37.900620     6.634313     5.915447

                             ****ORCA TERMINATED NORMALLY****
TOTAL RUN TIME: 0 days 0 hours 15 minutes 52 seconds 43 msec
