                         Program Version 4.2.0 -  RELEASE  -
|  1> # ORCA input file
|  2> # SCF done       -209.242170079894          0.000772283688
|  3> ! CAM-B3LYP def2-SVP def2/J RIJCOSX Grid4 TightSCF
|  4> %maxcore 5000
|  5> %tddft
|  6>     Mode sTDDFT
|  7>     Ethresh 5.0
|  8>     maxcore 5000
|  9> end
| 10>
| 11> %pal
| 12>   nprocs 6
| 13>   end
| 14> * xyz 0 1
| 15>    C      -11.15951         0.48554         6.93084
| 16>    C      -11.10168         1.13921         8.12996
| 17>    F      -12.07059         1.99747         8.47636
| 18>    C      -10.02720         0.92077         9.01476
| 19>    F       -9.99640         1.57488        10.18410
| 20>    C       -9.02447         0.05099         8.68810
| 21>    C       -9.05584        -0.63739         7.46019
| 22>    C      -10.14128        -0.41679         6.56387
| 23>    C      -10.19215        -1.09398         5.32304
| 24>    C       -9.18665        -1.96165         4.98872
| 25>    C       -8.10888        -2.17773         5.89248
| 26>    C       -8.03381        -1.54345         7.09811
| 27>    C       -7.17632        -3.15489         5.30688
| 28>    O       -6.19388        -3.63648         5.84600
| 29>    C       -7.72503        -3.50661         3.99047
| 30>    C       -8.96155        -2.77679         3.79688
| 31>    C       -9.75278        -2.78220         2.67702
| 32>    C       -9.49020        -3.51007         1.49750
| 33>    N       -9.33863        -4.05901         0.50021
| 34>    C      -10.94108        -2.03331         2.54764
| 35>    N      -11.91775        -1.45290         2.38304
| 36>    C       -7.23342        -4.49316         3.16897
| 37>    C       -5.97479        -5.11025         3.19581
| 38>    S       -5.82134        -6.66692         2.40079
| 39>    C       -4.11787        -6.78255         2.73658
| 40>    C       -3.69549        -5.62762         3.39577
| 41>    C       -4.72016        -4.70610         3.66102
| 42>    S       -4.25778        -3.18905         4.35549
| 43>    C       -2.51039        -3.50593         4.37872
| 44>    O       -1.69706        -2.71399         4.73812
| 45>    S       -2.08286        -5.15648         3.85235
| 46>    C       -3.40320        -7.92431         2.33747
| 47>    C       -2.08322        -8.16009         2.61410
| 48>    C       -1.37851        -9.28087         2.17024
| 49>    C       -0.04898        -9.50415         2.45110
| 50>    C        0.74024       -10.59843         2.02841
| 51>    C        2.02978       -10.56366         2.46666
| 52>    C        2.33099        -9.43085         3.25475
| 53>    S        0.91896        -8.40986         3.42294
| 54>    C        3.54982        -9.10170         3.81484
| 55>    C        4.74197        -9.86368         3.79212
| 56>    C        5.82008        -9.22569         4.31814
| 57>    C        5.54343        -7.91310         4.78771
| 58>    S        3.82139        -7.56580         4.61397
| 59>    C        6.46198        -7.00159         5.21264
| 60>    N        6.17167        -5.78782         5.74991
| 61>    C        7.06856        -4.76634         5.86329
| 62>    S        6.92214        -3.67088         7.20590
| 63>    C        8.43812        -2.94990         6.76499
| 64>    N        8.90208        -1.87593         7.53963
| 65>    O        9.96598        -1.37619         7.23057
| 66>    O        8.19642        -1.53214         8.47056
| 67>    C        9.01345        -3.52053         5.66406
| 68>    C        8.22380        -4.54369         5.09842
| 69>    C        8.56701        -5.13059         3.82224
| 70>    C        7.68807        -5.47943         2.85348
| 71>    C        6.30389        -5.17451         2.94754
| 72>    C        5.18330        -5.67209         2.35910
| 73>    C        3.91600        -4.93757         2.64439
| 74>    O        3.80071        -4.00458         3.40685
| 75>    C        2.87471        -5.59633         1.84358
| 76>    C        1.56142        -5.25444         1.69993
| 77>    C        0.73294        -6.05617         0.88551
| 78>    C        1.28580        -7.19911         0.23911
| 79>    C        0.44337        -8.01995        -0.53686
| 80>    C       -0.88437        -7.72156        -0.65995
| 81>    C       -1.42393        -6.57721        -0.04037
| 82>    C       -0.63131        -5.75730         0.71111
| 83>    F       -2.72830        -6.30400        -0.18631
| 84>    F       -1.69078        -8.52425        -1.36779
| 85>    C        2.65497        -7.51491         0.39387
| 86>    C        3.44215        -6.72789         1.19306
| 87>    C        4.85544        -6.83665         1.56330
| 88>    C        5.62562        -7.94376         1.32166
| 89>    C        6.94832        -8.16156         1.75422
| 90>    N        8.01110        -8.45006         2.07925
| 91>    C        5.13613        -9.11784         0.71006
| 92>    N        4.79201       -10.11846         0.26421
| 93>    H      -11.98890         0.66535         6.26472
| 94>    H       -8.20848        -0.10543         9.37619
| 95>    H      -11.02915        -0.90761         4.66990
| 96>    H       -7.20428        -1.72631         7.76403
| 97>    H       -7.89913        -4.89083         2.41250
| 98>    H       -3.95928        -8.65496         1.76619
| 99>    H       -1.53165        -7.44443         3.20956
|100>    H       -1.89301       -10.01717         1.56744
|101>    H        0.32870       -11.37890         1.41361
|102>    H        2.77137       -11.30356         2.22769
|103>    H        4.77031       -10.85273         3.37357
|104>    H        6.81043        -9.63890         4.37286
|105>    H        7.51218        -7.24650         5.13969
|106>    H        5.21816        -5.61711         6.04848
|107>    H        9.94576        -3.17711         5.25300
|108>    H        9.62553        -5.24840         3.63744
|109>    H        8.06220        -5.95017         1.95847
|110>    H        6.07717        -4.32442         3.59047
|111>    H        1.15934        -4.39356         2.21129
|112>    H        0.84163        -8.89596        -1.02459
|113>    H       -1.05461        -4.88368         1.17939
|114>    H        3.04234        -8.37517        -0.12712
|115> *
|116>
|117>                          ****END OF INPUT****

CARTESIAN COORDINATES (ANGSTROEM)
---------------------------------
  C    -11.159510    0.485540    6.930840
  C    -11.101680    1.139210    8.129960
  F    -12.070590    1.997470    8.476360
  C    -10.027200    0.920770    9.014760
  F     -9.996400    1.574880   10.184100
  C     -9.024470    0.050990    8.688100
  C     -9.055840   -0.637390    7.460190
  C    -10.141280   -0.416790    6.563870
  C    -10.192150   -1.093980    5.323040
  C     -9.186650   -1.961650    4.988720
  C     -8.108880   -2.177730    5.892480
  C     -8.033810   -1.543450    7.098110
  C     -7.176320   -3.154890    5.306880
  O     -6.193880   -3.636480    5.846000
  C     -7.725030   -3.506610    3.990470
  C     -8.961550   -2.776790    3.796880
  C     -9.752780   -2.782200    2.677020
  C     -9.490200   -3.510070    1.497500
  N     -9.338630   -4.059010    0.500210
  C    -10.941080   -2.033310    2.547640
  N    -11.917750   -1.452900    2.383040
  C     -7.233420   -4.493160    3.168970
  C     -5.974790   -5.110250    3.195810
  S     -5.821340   -6.666920    2.400790
  C     -4.117870   -6.782550    2.736580
  C     -3.695490   -5.627620    3.395770
  C     -4.720160   -4.706100    3.661020
  S     -4.257780   -3.189050    4.355490
  C     -2.510390   -3.505930    4.378720
  O     -1.697060   -2.713990    4.738120
  S     -2.082860   -5.156480    3.852350
  C     -3.403200   -7.924310    2.337470
  C     -2.083220   -8.160090    2.614100
  C     -1.378510   -9.280870    2.170240
  C     -0.048980   -9.504150    2.451100
  C      0.740240  -10.598430    2.028410
  C      2.029780  -10.563660    2.466660
  C      2.330990   -9.430850    3.254750
  S      0.918960   -8.409860    3.422940
  C      3.549820   -9.101700    3.814840
  C      4.741970   -9.863680    3.792120
  C      5.820080   -9.225690    4.318140
  C      5.543430   -7.913100    4.787710
  S      3.821390   -7.565800    4.613970
  C      6.461980   -7.001590    5.212640
  N      6.171670   -5.787820    5.749910
  C      7.068560   -4.766340    5.863290
  S      6.922140   -3.670880    7.205900
  C      8.438120   -2.949900    6.764990
  N      8.902080   -1.875930    7.539630
  O      9.965980   -1.376190    7.230570
  O      8.196420   -1.532140    8.470560
  C      9.013450   -3.520530    5.664060
  C      8.223800   -4.543690    5.098420
  C      8.567010   -5.130590    3.822240
  C      7.688070   -5.479430    2.853480
  C      6.303890   -5.174510    2.947540
  C      5.183300   -5.672090    2.359100
  C      3.916000   -4.937570    2.644390
  O      3.800710   -4.004580    3.406850
  C      2.874710   -5.596330    1.843580
  C      1.561420   -5.254440    1.699930
  C      0.732940   -6.056170    0.885510
  C      1.285800   -7.199110    0.239110
  C      0.443370   -8.019950   -0.536860
  C     -0.884370   -7.721560   -0.659950
  C     -1.423930   -6.577210   -0.040370
  C     -0.631310   -5.757300    0.711110
  F     -2.728300   -6.304000   -0.186310
  F     -1.690780   -8.524250   -1.367790
  C      2.654970   -7.514910    0.393870
  C      3.442150   -6.727890    1.193060
  C      4.855440   -6.836650    1.563300
  C      5.625620   -7.943760    1.321660
  C      6.948320   -8.161560    1.754220
  N      8.011100   -8.450060    2.079250
  C      5.136130   -9.117840    0.710060
  N      4.792010  -10.118460    0.264210
  H    -11.988900    0.665350    6.264720
  H     -8.208480   -0.105430    9.376190
  H    -11.029150   -0.907610    4.669900
  H     -7.204280   -1.726310    7.764030
  H     -7.899130   -4.890830    2.412500
  H     -3.959280   -8.654960    1.766190
  H     -1.531650   -7.444430    3.209560
  H     -1.893010  -10.017170    1.567440
  H      0.328700  -11.378900    1.413610
  H      2.771370  -11.303560    2.227690
  H      4.770310  -10.852730    3.373570
  H      6.810430   -9.638900    4.372860
  H      7.512180   -7.246500    5.139690
  H      5.218160   -5.617110    6.048480
  H      9.945760   -3.177110    5.253000
  H      9.625530   -5.248400    3.637440
  H      8.062200   -5.950170    1.958470
  H      6.077170   -4.324420    3.590470
  H      1.159340   -4.393560    2.211290
  H      0.841630   -8.895960   -1.024590
  H     -1.054610   -4.883680    1.179390
  H      3.042340   -8.375170   -0.127120

 Total Charge           Charge          ....    0
 Multiplicity           Mult            ....    1
 Number of Electrons    NEL             ....  578
 Basis Dimension        Dim             .... 1226

ORBITAL ENERGIES
----------------

  NO   OCC          E(Eh)            E(eV)
   0   2.0000     -88.997071     -2421.7334
   1   2.0000     -88.976152     -2421.1642
   2   2.0000     -88.975968     -2421.1592
   3   2.0000     -88.974385     -2421.1161
   4   2.0000     -88.973513     -2421.0924
   5   2.0000     -88.965239     -2420.8672
   6   2.0000     -24.804946      -674.9769
   7   2.0000     -24.804536      -674.9657
   8   2.0000     -24.795759      -674.7269
   9   2.0000     -24.794649      -674.6967
  10   2.0000     -19.247577      -523.7532
  11   2.0000     -19.246932      -523.7356
  12   2.0000     -19.234629      -523.4009
  13   2.0000     -19.223772      -523.1054
  14   2.0000     -19.217073      -522.9232
  15   2.0000     -14.659000      -398.8917
  16   2.0000     -14.500282      -394.5727
  17   2.0000     -14.431564      -392.7028
  18   2.0000     -14.429812      -392.6551
  19   2.0000     -14.414583      -392.2407
  20   2.0000     -14.413160      -392.2020
  21   2.0000     -10.412135      -283.3286
  22   2.0000     -10.385389      -282.6008
  23   2.0000     -10.385180      -282.5951
  24   2.0000     -10.385039      -282.5913
  25   2.0000     -10.378619      -282.4166
  26   2.0000     -10.377718      -282.3921
  27   2.0000     -10.373612      -282.2803
  28   2.0000     -10.363933      -282.0170
  29   2.0000     -10.356574      -281.8167
  30   2.0000     -10.356200      -281.8065
  31   2.0000     -10.355864      -281.7974
  32   2.0000     -10.354745      -281.7669
  33   2.0000     -10.340249      -281.3725
  34   2.0000     -10.339688      -281.3572
  35   2.0000     -10.339450      -281.3507
  36   2.0000     -10.339439      -281.3504
  37   2.0000     -10.338119      -281.3145
  38   2.0000     -10.335196      -281.2350
  39   2.0000     -10.334301      -281.2106
  40   2.0000     -10.329653      -281.0842
  41   2.0000     -10.329180      -281.0713
  42   2.0000     -10.328629      -281.0563
  43   2.0000     -10.328396      -281.0499
  44   2.0000     -10.327642      -281.0294
  45   2.0000     -10.324555      -280.9454
  46   2.0000     -10.322918      -280.9009
  47   2.0000     -10.322400      -280.8868
  48   2.0000     -10.318629      -280.7842
  49   2.0000     -10.317767      -280.7607
  50   2.0000     -10.317451      -280.7521
  51   2.0000     -10.316247      -280.7194
  52   2.0000     -10.315378      -280.6957
  53   2.0000     -10.314867      -280.6818
  54   2.0000     -10.314102      -280.6610
  55   2.0000     -10.309310      -280.5306
  56   2.0000     -10.308187      -280.5000
  57   2.0000     -10.308131      -280.4985
  58   2.0000     -10.307394      -280.4784
  59   2.0000     -10.307037      -280.4687
  60   2.0000     -10.306632      -280.4577
  61   2.0000     -10.306008      -280.4407
  62   2.0000     -10.305333      -280.4224
  63   2.0000     -10.304161      -280.3905
  64   2.0000     -10.304071      -280.3880
  65   2.0000     -10.302920      -280.3567
  66   2.0000     -10.302148      -280.3357
  67   2.0000     -10.301675      -280.3228
  68   2.0000     -10.299548      -280.2649
  69   2.0000     -10.299237      -280.2565
  70   2.0000     -10.298941      -280.2484
  71   2.0000     -10.298897      -280.2472
  72   2.0000     -10.298812      -280.2449
  73   2.0000     -10.298294      -280.2308
  74   2.0000     -10.297967      -280.2219
  75   2.0000     -10.297697      -280.2146
  76   2.0000     -10.292719      -280.0791
  77   2.0000     -10.290247      -280.0118
  78   2.0000      -8.092853      -220.2177
  79   2.0000      -8.071883      -219.6471
  80   2.0000      -8.070998      -219.6230
  81   2.0000      -8.070231      -219.6021
  82   2.0000      -8.069320      -219.5773
  83   2.0000      -8.060559      -219.3389
  84   2.0000      -6.062488      -164.9687
  85   2.0000      -6.058041      -164.8477
  86   2.0000      -6.054338      -164.7469
  87   2.0000      -6.041298      -164.3921
  88   2.0000      -6.040775      -164.3779
  89   2.0000      -6.039901      -164.3541
  90   2.0000      -6.038957      -164.3284
  91   2.0000      -6.037308      -164.2835
  92   2.0000      -6.036778      -164.2691
  93   2.0000      -6.035972      -164.2471
  94   2.0000      -6.034649      -164.2112
  95   2.0000      -6.033445      -164.1784
  96   2.0000      -6.032019      -164.1396
  97   2.0000      -6.031065      -164.1136
  98   2.0000      -6.030338      -164.0938
  99   2.0000      -6.030311      -164.0931
 100   2.0000      -6.026336      -163.9849
 101   2.0000      -6.021566      -163.8551
 102   2.0000      -1.329135       -36.1676
 103   2.0000      -1.326723       -36.1020
 104   2.0000      -1.317974       -35.8639
 105   2.0000      -1.311953       -35.7001
 106   2.0000      -1.303122       -35.4598
 107   2.0000      -1.163831       -31.6694
 108   2.0000      -1.148636       -31.2560
 109   2.0000      -1.139757       -31.0144
 110   2.0000      -1.131944       -30.8018
 111   2.0000      -1.107004       -30.1231
 112   2.0000      -1.033998       -28.1365
 113   2.0000      -1.027843       -27.9690
 114   2.0000      -1.021010       -27.7831
 115   2.0000      -1.017593       -27.6901
 116   2.0000      -1.014449       -27.6046
 117   2.0000      -1.011458       -27.5232
 118   2.0000      -1.009986       -27.4831
 119   2.0000      -1.001955       -27.2646
 120   2.0000      -0.993431       -27.0326
 121   2.0000      -0.992580       -27.0095
 122   2.0000      -0.987281       -26.8653
 123   2.0000      -0.979325       -26.6488
 124   2.0000      -0.954089       -25.9621
 125   2.0000      -0.947394       -25.7799
 126   2.0000      -0.939749       -25.5719
 127   2.0000      -0.935415       -25.4539
 128   2.0000      -0.927370       -25.2350
 129   2.0000      -0.917575       -24.9685
 130   2.0000      -0.910688       -24.7811
 131   2.0000      -0.905069       -24.6282
 132   2.0000      -0.898227       -24.4420
 133   2.0000      -0.896321       -24.3901
 134   2.0000      -0.889159       -24.1953
 135   2.0000      -0.887085       -24.1388
 136   2.0000      -0.879920       -23.9438
 137   2.0000      -0.871723       -23.7208
 138   2.0000      -0.864590       -23.5267
 139   2.0000      -0.859507       -23.3884
 140   2.0000      -0.849683       -23.1211
 141   2.0000      -0.846414       -23.0321
 142   2.0000      -0.842401       -22.9229
 143   2.0000      -0.837693       -22.7948
 144   2.0000      -0.827996       -22.5309
 145   2.0000      -0.825579       -22.4652
 146   2.0000      -0.809088       -22.0164
 147   2.0000      -0.804621       -21.8948
 148   2.0000      -0.787232       -21.4217
 149   2.0000      -0.777386       -21.1537
 150   2.0000      -0.775320       -21.0975
 151   2.0000      -0.765249       -20.8235
 152   2.0000      -0.754614       -20.5341
 153   2.0000      -0.749603       -20.3977
 154   2.0000      -0.734979       -19.9998
 155   2.0000      -0.731035       -19.8925
 156   2.0000      -0.724883       -19.7251
 157   2.0000      -0.721710       -19.6387
 158   2.0000      -0.713508       -19.4156
 159   2.0000      -0.706348       -19.2207
 160   2.0000      -0.702127       -19.1058
 161   2.0000      -0.692764       -18.8511
 162   2.0000      -0.689487       -18.7619
 163   2.0000      -0.684775       -18.6337
 164   2.0000      -0.683598       -18.6017
 165   2.0000      -0.677638       -18.4395
 166   2.0000      -0.664602       -18.0847
 167   2.0000      -0.662794       -18.0355
 168   2.0000      -0.661942       -18.0123
 169   2.0000      -0.655427       -17.8351
 170   2.0000      -0.651685       -17.7333
 171   2.0000      -0.651492       -17.7280
 172   2.0000      -0.650541       -17.7021
 173   2.0000      -0.646845       -17.6015
 174   2.0000      -0.641007       -17.4427
 175   2.0000      -0.640194       -17.4206
 176   2.0000      -0.639669       -17.4063
 177   2.0000      -0.635797       -17.3009
 178   2.0000      -0.628155       -17.0930
 179   2.0000      -0.627577       -17.0772
 180   2.0000      -0.620137       -16.8748
 181   2.0000      -0.619782       -16.8651
 182   2.0000      -0.609019       -16.5722
 183   2.0000      -0.608387       -16.5551
 184   2.0000      -0.602174       -16.3860
 185   2.0000      -0.598766       -16.2932
 186   2.0000      -0.593392       -16.1470
 187   2.0000      -0.591327       -16.0908
 188   2.0000      -0.589111       -16.0305
 189   2.0000      -0.586353       -15.9555
 190   2.0000      -0.583074       -15.8663
 191   2.0000      -0.582595       -15.8532
 192   2.0000      -0.575870       -15.6702
 193   2.0000      -0.571407       -15.5488
 194   2.0000      -0.569349       -15.4928
 195   2.0000      -0.567800       -15.4506
 196   2.0000      -0.562744       -15.3130
 197   2.0000      -0.560205       -15.2440
 198   2.0000      -0.556337       -15.1387
 199   2.0000      -0.554764       -15.0959
 200   2.0000      -0.552216       -15.0266
 201   2.0000      -0.549556       -14.9542
 202   2.0000      -0.547429       -14.8963
 203   2.0000      -0.544297       -14.8111
 204   2.0000      -0.544181       -14.8079
 205   2.0000      -0.541104       -14.7242
 206   2.0000      -0.538187       -14.6448
 207   2.0000      -0.536945       -14.6110
 208   2.0000      -0.536142       -14.5892
 209   2.0000      -0.534169       -14.5355
 210   2.0000      -0.532347       -14.4859
 211   2.0000      -0.530757       -14.4426
 212   2.0000      -0.528343       -14.3769
 213   2.0000      -0.524344       -14.2681
 214   2.0000      -0.522236       -14.2108
 215   2.0000      -0.520268       -14.1572
 216   2.0000      -0.518277       -14.1030
 217   2.0000      -0.514836       -14.0094
 218   2.0000      -0.512556       -13.9473
 219   2.0000      -0.512128       -13.9357
 220   2.0000      -0.511103       -13.9078
 221   2.0000      -0.507451       -13.8084
 222   2.0000      -0.505612       -13.7584
 223   2.0000      -0.505520       -13.7559
 224   2.0000      -0.501305       -13.6412
 225   2.0000      -0.500384       -13.6161
 226   2.0000      -0.497545       -13.5389
 227   2.0000      -0.495523       -13.4839
 228   2.0000      -0.492480       -13.4011
 229   2.0000      -0.486177       -13.2295
 230   2.0000      -0.484710       -13.1896
 231   2.0000      -0.481690       -13.1075
 232   2.0000      -0.479349       -13.0438
 233   2.0000      -0.478216       -13.0129
 234   2.0000      -0.471552       -12.8316
 235   2.0000      -0.470615       -12.8061
 236   2.0000      -0.468605       -12.7514
 237   2.0000      -0.467647       -12.7253
 238   2.0000      -0.466229       -12.6867
 239   2.0000      -0.462560       -12.5869
 240   2.0000      -0.461735       -12.5645
 241   2.0000      -0.459272       -12.4974
 242   2.0000      -0.456093       -12.4109
 243   2.0000      -0.455182       -12.3861
 244   2.0000      -0.450596       -12.2613
 245   2.0000      -0.448008       -12.1909
 246   2.0000      -0.447593       -12.1796
 247   2.0000      -0.446280       -12.1439
 248   2.0000      -0.443977       -12.0812
 249   2.0000      -0.442947       -12.0532
 250   2.0000      -0.441155       -12.0044
 251   2.0000      -0.438959       -11.9447
 252   2.0000      -0.437477       -11.9043
 253   2.0000      -0.436376       -11.8744
 254   2.0000      -0.434853       -11.8330
 255   2.0000      -0.426873       -11.6158
 256   2.0000      -0.426620       -11.6089
 257   2.0000      -0.424220       -11.5436
 258   2.0000      -0.421600       -11.4723
 259   2.0000      -0.420977       -11.4554
 260   2.0000      -0.415505       -11.3065
 261   2.0000      -0.411918       -11.2089
 262   2.0000      -0.407262       -11.0822
 263   2.0000      -0.402503       -10.9527
 264   2.0000      -0.394974       -10.7478
 265   2.0000      -0.394232       -10.7276
 266   2.0000      -0.391002       -10.6397
 267   2.0000      -0.388000       -10.5580
 268   2.0000      -0.385948       -10.5022
 269   2.0000      -0.379700       -10.3322
 270   2.0000      -0.375829       -10.2268
 271   2.0000      -0.373755       -10.1704
 272   2.0000      -0.361270        -9.8307
 273   2.0000      -0.356089        -9.6897
 274   2.0000      -0.355322        -9.6688
 275   2.0000      -0.352224        -9.5845
 276   2.0000      -0.347775        -9.4634
 277   2.0000      -0.344452        -9.3730
 278   2.0000      -0.339175        -9.2294
 279   2.0000      -0.332749        -9.0546
 280   2.0000      -0.325981        -8.8704
 281   2.0000      -0.316477        -8.6118
 282   2.0000      -0.314597        -8.5606
 283   2.0000      -0.307810        -8.3759
 284   2.0000      -0.303461        -8.2576
 285   2.0000      -0.300109        -8.1664
 286   2.0000      -0.294360        -8.0099
 287   2.0000      -0.274872        -7.4797
 288   2.0000      -0.226928        -6.1750
 289   0.0000      -0.113482        -3.0880
 290   0.0000      -0.104726        -2.8497
 291   0.0000      -0.082497        -2.2449
 292   0.0000      -0.066508        -1.8098
 293   0.0000      -0.063343        -1.7237

MULLIKEN ATOMIC CHARGES
-----------------------
   0 C :   -0.111316
   1 C :    0.242744
   2 F :   -0.172269
   3 C :    0.239515
   4 F :   -0.172565
   5 C :   -0.109207
   6 C :    0.120655
   7 C :    0.115042
   8 C :   -0.090043
   9 C :    0.050227
  10 C :    0.001102
  11 C :   -0.087761
  12 C :    0.132652
  13 O :   -0.171204
  14 C :   -0.098182
  15 C :    0.319907
  16 C :   -0.350169
  17 C :   -0.203119
  18 N :    0.159725
  19 C :   -0.181641
  20 N :    0.144907
  21 C :    0.015711
  22 C :   -0.161453
  23 S :    0.169437
  24 C :   -0.106197
  25 C :   -0.039798
  26 C :    0.035107
  27 S :    0.167852
  28 C :    0.075759
  29 O :   -0.154335
  30 S :    0.050600
  31 C :    0.022154
  32 C :   -0.007051
  33 C :   -0.023464
  34 C :   -0.014213
  35 C :    0.030551
  36 C :    0.036666
  37 C :   -0.043708
  38 S :    0.070170
  39 C :   -0.060893
  40 C :    0.021271
  41 C :    0.074973
  42 C :   -0.090270
  43 S :    0.067077
  44 C :    0.067167
  45 N :   -0.039050
  46 C :   -0.135110
  47 S :    0.202268
  48 C :   -0.004510
  49 N :    0.276683
  50 O :   -0.243249
  51 O :   -0.256824
  52 C :    0.016046
  53 C :    0.069232
  54 C :   -0.006659
  55 C :    0.023262
  56 C :   -0.040753
  57 C :   -0.090259
  58 C :    0.134302
  59 O :   -0.148939
  60 C :    0.026943
  61 C :   -0.091479
  62 C :    0.133966
  63 C :    0.108659
  64 C :   -0.109164
  65 C :    0.251924
  66 C :    0.256306
  67 C :   -0.121174
  68 F :   -0.170966
  69 F :   -0.174255
  70 C :   -0.082405
  71 C :    0.026542
  72 C :    0.351748
  73 C :   -0.371651
  74 C :   -0.207447
  75 N :    0.165814
  76 C :   -0.186856
  77 N :    0.150814
  78 H :    0.006720
  79 H :   -0.000762
  80 H :   -0.007003
  81 H :   -0.011697
  82 H :    0.021909
  83 H :   -0.011929
  84 H :    0.027902
  85 H :   -0.008183
  86 H :   -0.006632
  87 H :    0.003448
  88 H :    0.001631
  89 H :    0.007003
  90 H :    0.038194
  91 H :    0.154280
  92 H :    0.015326
  93 H :    0.019611
  94 H :    0.025737
  95 H :    0.042932
  96 H :   -0.007401
  97 H :   -0.001164
  98 H :    0.000447
  99 H :   -0.006240
Sum of atomic charges:   -0.0000000

LOEWDIN ATOMIC CHARGES
----------------------
   0 C :   -0.029387
   1 C :    0.065421
   2 F :   -0.050090
   3 C :    0.067019
   4 F :   -0.050372
   5 C :   -0.033942
   6 C :   -0.008614
   7 C :   -0.007853
   8 C :    0.017077
   9 C :   -0.022844
  10 C :   -0.049313
  11 C :    0.026160
  12 C :    0.064277
  13 O :   -0.168269
  14 C :   -0.107810
  15 C :    0.075683
  16 C :   -0.141919
  17 C :   -0.024372
  18 N :   -0.052085
  19 C :   -0.017391
  20 N :   -0.055772
  21 C :    0.037960
  22 C :   -0.197998
  23 S :    0.462979
  24 C :   -0.150493
  25 C :   -0.226455
  26 C :   -0.172193
  27 S :    0.442595
  28 C :   -0.211223
  29 O :   -0.150879
  30 S :    0.363732
  31 C :   -0.064877
  32 C :   -0.010665
  33 C :   -0.073473
  34 C :   -0.124802
  35 C :   -0.042439
  36 C :   -0.009038
  37 C :   -0.189285
  38 S :    0.388688
  39 C :   -0.160641
  40 C :   -0.045005
  41 C :   -0.007102
  42 C :   -0.195913
  43 S :    0.383911
  44 C :    0.024309
  45 N :    0.038796
  46 C :   -0.110999
  47 S :    0.470272
  48 C :   -0.202839
  49 N :    0.273322
  50 O :   -0.209112
  51 O :   -0.222489
  52 C :    0.007675
  53 C :   -0.107348
  54 C :    0.014679
  55 C :   -0.038486
  56 C :    0.059493
  57 C :   -0.096042
  58 C :    0.074579
  59 O :   -0.149733
  60 C :   -0.057659
  61 C :    0.031283
  62 C :   -0.010183
  63 C :   -0.008544
  64 C :   -0.029083
  65 C :    0.066493
  66 C :    0.067532
  67 C :   -0.034106
  68 F :   -0.044594
  69 F :   -0.050681
  70 C :    0.018170
  71 C :   -0.024001
  72 C :    0.075841
  73 C :   -0.139725
  74 C :   -0.013366
  75 N :   -0.061137
  76 C :   -0.010090
  77 N :   -0.062672
  78 H :    0.047385
  79 H :    0.044535
  80 H :    0.039645
  81 H :    0.039616
  82 H :    0.045156
  83 H :    0.032674
  84 H :    0.008088
  85 H :    0.034993
  86 H :    0.036447
  87 H :    0.038645
  88 H :    0.037979
  89 H :    0.040659
  90 H :    0.044576
  91 H :    0.093473
  92 H :    0.048635
  93 H :    0.041541
  94 H :    0.040290
  95 H :    0.043506
  96 H :    0.041741
  97 H :    0.044515
  98 H :    0.035213
  99 H :    0.038146

  Mayer bond orders larger than 0.100000
B(  0-C ,  1-C ) :   1.4378 B(  0-C ,  5-C ) :   0.1089 B(  0-C ,  7-C ) :   1.1915
B(  0-C , 78-H ) :   1.0070 B(  1-C ,  2-F ) :   1.1339 B(  1-C ,  3-C ) :   1.1934
B(  3-C ,  4-F ) :   1.1330 B(  3-C ,  5-C ) :   1.4404 B(  5-C ,  6-C ) :   1.1928
B(  5-C , 79-H ) :   1.0073 B(  6-C ,  7-C ) :   1.2584 B(  6-C , 11-C ) :   1.1831
B(  7-C ,  8-C ) :   1.2110 B(  8-C ,  9-C ) :   1.4551 B(  8-C , 80-H ) :   0.9903
B(  9-C , 10-C ) :   1.2196 B(  9-C , 15-C ) :   0.9826 B( 10-C , 11-C ) :   1.4742
B( 10-C , 12-C ) :   0.9359 B( 11-C , 81-H ) :   1.0172 B( 12-C , 13-O ) :   2.1558
B( 12-C , 14-C ) :   0.9897 B( 14-C , 15-C ) :   1.0836 B( 14-C , 21-C ) :   1.5133
B( 15-C , 16-C ) :   1.6273 B( 16-C , 17-C ) :   1.1433 B( 16-C , 19-C ) :   1.1472
B( 17-C , 18-N ) :   2.9828 B( 19-C , 20-N ) :   2.9607 B( 21-C , 22-C ) :   1.2640
B( 21-C , 82-H ) :   0.9255 B( 22-C , 23-S ) :   1.0856 B( 22-C , 26-C ) :   1.4487
B( 23-S , 24-C ) :   1.1387 B( 24-C , 25-C ) :   1.4755 B( 24-C , 31-C ) :   1.1804
B( 25-C , 26-C ) :   1.3157 B( 25-C , 30-S ) :   0.9962 B( 26-C , 27-S ) :   1.0490
B( 27-S , 28-C ) :   0.9998 B( 27-S , 29-O ) :   0.1041 B( 28-C , 29-O ) :   2.1129
B( 28-C , 30-S ) :   0.9623 B( 29-O , 30-S ) :   0.1028 B( 31-C , 32-C ) :   1.5642
B( 31-C , 83-H ) :   0.9676 B( 32-C , 33-C ) :   1.2203 B( 32-C , 84-H ) :   0.9541
B( 33-C , 34-C ) :   1.5153 B( 33-C , 85-H ) :   0.9826 B( 34-C , 35-C ) :   1.1480
B( 34-C , 38-S ) :   1.0598 B( 35-C , 36-C ) :   1.5641 B( 35-C , 86-H ) :   1.0037
B( 36-C , 37-C ) :   1.1993 B( 36-C , 87-H ) :   0.9936 B( 37-C , 38-S ) :   1.0384
B( 37-C , 39-C ) :   1.5009 B( 39-C , 40-C ) :   1.1704 B( 39-C , 43-S ) :   1.0562
B( 40-C , 41-C ) :   1.6046 B( 40-C , 88-H ) :   0.9971 B( 41-C , 42-C ) :   1.1286
B( 41-C , 89-H ) :   0.9991 B( 42-C , 43-S ) :   1.0099 B( 42-C , 44-C ) :   1.6094
B( 44-C , 45-N ) :   1.1616 B( 44-C , 90-H ) :   0.9559 B( 45-N , 46-C ) :   1.1756
B( 45-N , 91-H ) :   0.9026 B( 46-C , 47-S ) :   1.1457 B( 46-C , 53-C ) :   1.3775
B( 47-S , 48-C ) :   1.0882 B( 48-C , 49-N ) :   0.9598 B( 48-C , 52-C ) :   1.5100
B( 49-N , 50-O ) :   1.5428 B( 49-N , 51-O ) :   1.5175 B( 50-O , 51-O ) :   0.2642
B( 52-C , 53-C ) :   1.2176 B( 52-C , 92-H ) :   1.0044 B( 53-C , 54-C ) :   1.0551
B( 54-C , 55-C ) :   1.7459 B( 54-C , 93-H ) :   0.9628 B( 55-C , 56-C ) :   1.0779
B( 55-C , 94-H ) :   0.9622 B( 56-C , 57-C ) :   1.6901 B( 56-C , 95-H ) :   0.9089
B( 57-C , 58-C ) :   0.9395 B( 57-C , 72-C ) :   1.0201 B( 58-C , 59-O ) :   2.2370
B( 58-C , 60-C ) :   0.9260 B( 60-C , 61-C ) :   1.4602 B( 60-C , 71-C ) :   1.2200
B( 61-C , 62-C ) :   1.1809 B( 61-C , 96-H ) :   1.0219 B( 62-C , 63-C ) :   1.2551
B( 62-C , 67-C ) :   1.1912 B( 63-C , 64-C ) :   1.1853 B( 63-C , 70-C ) :   1.2200
B( 64-C , 65-C ) :   1.4394 B( 64-C , 67-C ) :   0.1077 B( 64-C , 97-H ) :   1.0091
B( 65-C , 66-C ) :   1.2086 B( 65-C , 69-F ) :   1.1299 B( 66-C , 67-C ) :   1.4273
B( 66-C , 68-F ) :   1.1112 B( 67-C , 98-H ) :   1.0036 B( 70-C , 71-C ) :   1.4325
B( 70-C , 99-H ) :   0.9964 B( 71-C , 72-C ) :   0.9908 B( 72-C , 73-C ) :   1.6371
B( 73-C , 74-C ) :   1.1807 B( 73-C , 76-C ) :   1.1418 B( 74-C , 75-N ) :   2.9456
B( 76-C , 77-N ) :   2.9508

-----------------------------------------------------------------------------
         ABSORPTION SPECTRUM VIA TRANSITION ELECTRIC DIPOLE MOMENTS
-----------------------------------------------------------------------------
State   Energy  Wavelength   fosc         T2         TX        TY        TZ
        (cm-1)    (nm)                  (au**2)     (au)      (au)      (au)
-----------------------------------------------------------------------------
   0    9156.4   1092.1   0.189263677   6.80483   2.59439  -0.02727  -0.27063
   1   11899.0    840.4   1.175045712  32.51022   5.50075  -1.41804   0.49106
   2   18020.2    554.9   0.136159712   2.48751   0.64372  -1.42646   0.19584
   3   18935.4    528.1   0.231532013   4.02542   0.05098  -1.85296  -0.76769
   4   20093.3    497.7   0.167746630   2.74839  -1.45562   0.02047  -0.79319
   5   21931.5    456.0   0.310906493   4.66699   0.80559  -1.70836  -1.04858
   6   23095.0    433.0   0.110470426   1.57472  -0.18075   1.12935   0.51636
   7   24206.6    413.1   0.035344955   0.48069  -0.69322  -0.00437   0.01068
   8   24588.1    406.7   0.245696689   3.28965   0.84904   1.07375   1.18990
   9   24950.8    400.8   0.264936017   3.49569   1.69115   0.38355   0.69899
  10   25306.8    395.2   0.024359987   0.31690  -0.33653   0.27318  -0.35919
  11   25770.7    388.0   0.022870316   0.29216  -0.28623  -0.44123  -0.12468
  12   26928.7    371.4   0.171453985   2.09608  -0.91513  -1.10337  -0.20298
  13   27103.7    369.0   0.294904229   3.58203  -0.67601   1.29610   1.20215
  14   27410.5    364.8   0.023641672   0.28395  -0.30638  -0.39587  -0.18267
  15   27783.2    359.9   0.101994966   1.20857   0.02325   1.04137   0.35153
  16   28064.0    356.3   0.026738766   0.31367  -0.03339  -0.11875  -0.54630
  17   28457.9    351.4   0.010884112   0.12591  -0.32435   0.03124  -0.14046
  18   28809.3    347.1   0.014930248   0.17061  -0.13237   0.27545   0.27788
  19   28903.5    346.0   0.075655992   0.86173   0.61718  -0.69251   0.03536
  20   29008.0    344.7   0.004631504   0.05256  -0.06893  -0.17495  -0.13116
  21   29567.2    338.2   0.156141009   1.73853  -0.08808  -1.20638  -0.52479
  22   29940.1    334.0   0.212571267   2.33737  -1.32046  -0.46117  -0.61732
  23   31212.2    320.4   0.172038599   1.81458  -1.10361  -0.44456  -0.63166
  24   31394.2    318.5   0.124331769   1.30379  -1.05603  -0.19471  -0.38818
  25   31721.7    315.2   0.043199751   0.44833  -0.01026   0.08412   0.66419
  26   31878.9    313.7   0.028469167   0.29400  -0.01112   0.53603   0.08091
  27   31967.9    312.8   0.073601799   0.75797  -0.85533   0.06069   0.15061
  28   32159.1    311.0   0.211764883   2.16783  -0.00541  -0.57034  -1.35739
  29   32443.7    308.2   0.160624317   1.62988   0.13223   0.88069   0.91476
  30   32826.6    304.6   0.088315848   0.88570  -0.47608  -0.61497  -0.52996
  31   33047.0    302.6   0.072871860   0.72594   0.73172  -0.42022  -0.11806
  32   33273.4    300.5   0.042324509   0.41877  -0.55218  -0.27757  -0.19187
  33   33635.4    297.3   0.078332151   0.76669  -0.03340  -0.42289  -0.76599
  34   33689.2    296.8   0.001404068   0.01372  -0.11499  -0.01604  -0.01552
  35   33838.0    295.5   0.170963494   1.66331   0.82868  -0.04056   0.98740
  36   34071.9    293.5   0.024542997   0.23714  -0.22945  -0.40117  -0.15347
  37   34343.2    291.2   0.033235862   0.31860   0.10405  -0.44836  -0.32672
  38   34643.2    288.7   0.182353206   1.73289   1.01478   0.18232   0.81846
  39   34652.2    288.6   0.234917571   2.23183   1.46152  -0.08554   0.29743
  40   34942.1    286.2   0.047901463   0.45131   0.50522  -0.10708   0.42965
  41   35258.1    283.6   0.070647884   0.65965  -0.73496   0.30627   0.16029
  42   35404.5    282.4   0.124269764   1.15553   1.04028  -0.10617   0.24915
  43   35551.4    281.3   0.102550850   0.94964   0.46860  -0.46396  -0.71749
  44   35820.5    279.2   0.040002106   0.36764   0.47945  -0.31890  -0.18993
  45   35957.1    278.1   0.208275055   1.90690  -0.48843  -0.56822  -1.15994
  46   36255.4    275.8   0.045285971   0.41121  -0.62253  -0.13088  -0.08091
  47   36284.8    275.6   0.053956199   0.48954  -0.40976   0.34325   0.45147
  48   36490.1    274.0   0.016472626   0.14862  -0.08978   0.31386   0.20505
  49   36679.3    272.6   0.045401119   0.40749   0.54020  -0.18657  -0.28437
  50   37004.7    270.2   0.002670132   0.02375   0.07616  -0.13195   0.02331
  51   37117.8    269.4   0.003217778   0.02854  -0.08159   0.05404   0.13770
  52   37254.6    268.4   0.059049244   0.52181  -0.55087   0.46720   0.00841
  53   37340.1    267.8   0.012723739   0.11218   0.18935   0.23655   0.14273
  54   37412.5    267.3   0.017406558   0.15317   0.00217  -0.32005  -0.22524
  55   37556.5    266.3   0.066929376   0.58669   0.09029  -0.67223  -0.35587
  56   37770.9    264.8   0.019087771   0.16637  -0.06286  -0.38941  -0.10380
  57   38130.3    262.3   0.057533560   0.49674   0.62954   0.07181   0.30865
  58   38322.7    260.9   0.100614499   0.86433  -0.44453   0.25642  -0.77522
  59   38503.6    259.7   0.002294226   0.01962  -0.11158  -0.07430  -0.04056
  60   38597.9    259.1   0.097824603   0.83437   0.02397   0.68764   0.60079
  61   38680.8    258.5   0.191076005   1.62625   1.23912  -0.24946   0.16909
  62   38878.5    257.2   0.007457154   0.06314   0.02663  -0.03555   0.24733
  63   39179.0    255.2   0.021891795   0.18395   0.02472   0.25054   0.34723
  64   39493.4    253.2   0.006140880   0.05119   0.17362   0.11987   0.08172
  65   39597.6    252.5   0.076854984   0.63897  -0.76333   0.16875  -0.16677
  66   39904.8    250.6   0.112993080   0.93219  -0.14617  -0.65986  -0.68950
  67   40046.9    249.7   0.003103494   0.02551  -0.04690  -0.15173   0.01702
  68   40144.7    249.1   0.048064973   0.39416   0.15969  -0.32455  -0.51316
  69   40195.4    248.8   0.062957929   0.51564  -0.57241   0.43192  -0.03789

FINAL SINGLE POINT ENERGY     -5673.453076941701

DIPOLE MOMENT
-------------
                                X             Y             Z
Electronic contribution:    -45.99888      26.98905       9.03271
Nuclear contribution   :     48.43920     -29.86329      -8.93522
                        -----------------------------------------
Total Dipole Moment    :      2.44032      -2.87424       0.09749
                        -----------------------------------------
Magnitude (a.u.)       :      3.77173
Magnitude (Debye)      :      9.58697

Rotational constants in cm-1:     0.001144     0.000318     0.000263
Rotational constants in MHz :    34.286107     9.530489     7.879704

                             ****ORCA TERMINATED NORMALLY****
TOTAL RUN TIME: 0 days 0 hours 14 minutes 20 seconds 115 msec
