                         Program Version 4.2.0 -  RELEASE  -
|  1> # ORCA input file
|  2> # SCF done       -213.825906992836          0.000415925869
|  3> ! CAM-B3LYP def2-SVP def2/J RIJCOSX Grid4 TightSCF
|  4> %maxcore 5000
|  5> %tddft
|  6>     Mode sTDDFT
|  7>     Ethresh 5.0
|  8>     maxcore 5000
|  9> end
| 10>
| 11> %pal
| 12>   nprocs 6
| 13>   end
| 14> * xyz 0 1
| 15>    C       -4.11939       -11.48626        -6.93523
| 16>    C       -4.29304       -11.48280        -8.29147
| 17>    F       -3.95049       -12.55416        -9.01627
| 18>    C       -4.83331       -10.35565        -8.94287
| 19>    F       -4.99260       -10.37962       -10.27194
| 20>    C       -5.19271        -9.24700        -8.22842
| 21>    C       -5.02648        -9.22089        -6.83026
| 22>    C       -4.48019       -10.35962        -6.17010
| 23>    C       -4.30524       -10.35657        -4.76608
| 24>    C       -4.66653        -9.25057        -4.04474
| 25>    C       -5.21302        -8.11695        -4.71431
| 26>    C       -5.39206        -8.08968        -6.06791
| 27>    C       -5.51933        -7.08354        -3.72131
| 28>    O       -6.00104        -5.97110        -3.92472
| 29>    C       -5.14140        -7.63794        -2.41793
| 30>    C       -4.60692        -8.96690        -2.61058
| 31>    C       -4.12663        -9.81238        -1.64585
| 32>    C       -4.08212        -9.49402        -0.27286
| 33>    N       -4.02900        -9.26761         0.85108
| 34>    C       -3.61498       -11.10064        -1.90519
| 35>    N       -3.18788       -12.15463        -2.05933
| 36>    C       -5.32340        -6.92140        -1.25789
| 37>    N       -5.84650        -5.69270        -1.32230
| 38>    C       -6.12429        -4.84059        -0.30656
| 39>    S       -5.83491        -5.25015         1.35263
| 40>    C       -6.47121        -3.70514         1.81682
| 41>    N       -6.50063        -3.40724         3.19023
| 42>    O       -6.94077        -2.32643         3.52389
| 43>    O       -6.07539        -4.26717         3.93923
| 44>    C       -6.87868        -2.93103         0.76594
| 45>    C       -6.68532        -3.56528        -0.47863
| 46>    C       -6.99409        -3.01806        -1.76761
| 47>    C       -7.63873        -1.85743        -2.00653
| 48>    C       -7.90540        -1.38862        -3.32470
| 49>    C       -8.62392        -0.25107        -3.67126
| 50>    C       -9.16639         0.58661        -2.68238
| 51>    N       -9.58054         1.23026        -1.82896
| 52>    C       -8.72442        -0.07249        -5.07736
| 53>    C       -8.05892        -1.09115        -5.75456
| 54>    S       -7.32828        -2.25941        -4.72994
| 55>    S       -8.10712        -0.99006        -7.48238
| 56>    C       -9.05360         0.45168        -7.30901
| 57>    C       -9.31652         0.83976        -6.00157
| 58>    C      -10.11317         2.02071        -5.96668
| 59>    C      -10.54532         2.65966        -4.79446
| 60>    N      -10.90427         3.19164        -3.84363
| 61>    C      -10.42961         2.48393        -7.23562
| 62>    S       -9.74473         1.48232        -8.49917
| 63>    C      -11.21650         3.60184        -7.62772
| 64>    C      -11.48418         3.97302        -8.92244
| 65>    C      -12.31987         5.09774        -9.04297
| 66>    C      -12.68737         5.60134        -7.80107
| 67>    S      -11.99221         4.68271        -6.49940
| 68>    C      -13.49428         6.72639        -7.55433
| 69>    C      -14.32711         7.36864        -8.46195
| 70>    C      -14.61827         7.04920        -9.86611
| 71>    O      -15.65458         7.45121       -10.35800
| 72>    N      -13.69346         6.39943       -10.67666
| 73>    C      -12.59705         5.59374       -10.39794
| 74>    O      -11.88104         5.22375       -11.30921
| 75>    C      -13.98594         6.51631       -12.11232
| 76>    C      -14.83747         5.35097       -12.59739
| 77>    C      -15.02781         8.43434        -7.87005
| 78>    C      -14.74193         8.63510        -6.53949
| 79>    S      -13.59269         7.45020        -5.97736
| 80>    C      -15.27806         9.65369        -5.70721
| 81>    C      -14.97728         9.82524        -4.40072
| 82>    C      -15.49753        10.86054        -3.56921
| 83>    C      -15.19201        11.04360        -2.22447
| 84>    C      -15.89229        12.18578        -1.74553
| 85>    C      -15.93144        12.78813        -0.50868
| 86>    C      -16.73441        13.93111        -0.36570
| 87>    C      -16.98104        14.75447         0.72773
| 88>    C      -17.88016        15.79204         0.33705
| 89>    C      -18.18897        15.60767        -1.00037
| 90>    C      -17.49465        14.45553        -1.48173
| 91>    C      -17.45970        13.85665        -2.71455
| 92>    C      -16.65373        12.71020        -2.86040
| 93>    C      -16.40648        11.89772        -3.95548
| 94>    C      -18.39190        16.85676         1.16687
| 95>    C      -18.10932        17.04055         2.45347
| 96>    H       -3.70447       -12.35765        -6.45321
| 97>    H       -5.60497        -8.39238        -8.74166
| 98>    H       -3.88976       -11.23403        -4.29776
| 99>    H       -5.80797        -7.21787        -6.54967
|100>    H       -5.06429        -7.30873        -0.28098
|101>    H       -6.07022        -5.39893        -2.29387
|102>    H       -7.28986        -1.94768         0.90164
|103>    H       -6.68104        -3.59622        -2.62798
|104>    H       -8.00043        -1.23102        -1.20350
|105>    H      -11.09528         3.45931        -9.78421
|106>    H      -13.03060         6.53491       -12.63809
|107>    H      -14.51519         7.45721       -12.26484
|108>    H      -14.31427         4.41076       -12.43869
|109>    H      -15.03749         5.46440       -13.65906
|110>    H      -15.78366         5.33083       -12.06218
|111>    H      -15.72518         9.03556        -8.42467
|112>    H      -15.97024        10.32143        -6.20052
|113>    H      -14.28448         9.13725        -3.93070
|114>    H      -14.53483        10.42675        -1.63927
|115>    H      -15.36567        12.40294         0.32807
|116>    H      -16.56215        14.63134         1.70967
|117>    H      -18.84250        16.22517        -1.58955
|118>    H      -18.02473        14.24113        -3.55220
|119>    H      -16.82652        12.02573        -4.93622
|120>    H      -19.06035        17.54386         0.66273
|121>    H      -17.45219        16.38437         2.99788
|122>    H      -18.53040        17.85950         3.01025
|123> *
|124>
|125>                          ****END OF INPUT****

CARTESIAN COORDINATES (ANGSTROEM)
---------------------------------
  C     -4.119390  -11.486260   -6.935230
  C     -4.293040  -11.482800   -8.291470
  F     -3.950490  -12.554160   -9.016270
  C     -4.833310  -10.355650   -8.942870
  F     -4.992600  -10.379620  -10.271940
  C     -5.192710   -9.247000   -8.228420
  C     -5.026480   -9.220890   -6.830260
  C     -4.480190  -10.359620   -6.170100
  C     -4.305240  -10.356570   -4.766080
  C     -4.666530   -9.250570   -4.044740
  C     -5.213020   -8.116950   -4.714310
  C     -5.392060   -8.089680   -6.067910
  C     -5.519330   -7.083540   -3.721310
  O     -6.001040   -5.971100   -3.924720
  C     -5.141400   -7.637940   -2.417930
  C     -4.606920   -8.966900   -2.610580
  C     -4.126630   -9.812380   -1.645850
  C     -4.082120   -9.494020   -0.272860
  N     -4.029000   -9.267610    0.851080
  C     -3.614980  -11.100640   -1.905190
  N     -3.187880  -12.154630   -2.059330
  C     -5.323400   -6.921400   -1.257890
  N     -5.846500   -5.692700   -1.322300
  C     -6.124290   -4.840590   -0.306560
  S     -5.834910   -5.250150    1.352630
  C     -6.471210   -3.705140    1.816820
  N     -6.500630   -3.407240    3.190230
  O     -6.940770   -2.326430    3.523890
  O     -6.075390   -4.267170    3.939230
  C     -6.878680   -2.931030    0.765940
  C     -6.685320   -3.565280   -0.478630
  C     -6.994090   -3.018060   -1.767610
  C     -7.638730   -1.857430   -2.006530
  C     -7.905400   -1.388620   -3.324700
  C     -8.623920   -0.251070   -3.671260
  C     -9.166390    0.586610   -2.682380
  N     -9.580540    1.230260   -1.828960
  C     -8.724420   -0.072490   -5.077360
  C     -8.058920   -1.091150   -5.754560
  S     -7.328280   -2.259410   -4.729940
  S     -8.107120   -0.990060   -7.482380
  C     -9.053600    0.451680   -7.309010
  C     -9.316520    0.839760   -6.001570
  C    -10.113170    2.020710   -5.966680
  C    -10.545320    2.659660   -4.794460
  N    -10.904270    3.191640   -3.843630
  C    -10.429610    2.483930   -7.235620
  S     -9.744730    1.482320   -8.499170
  C    -11.216500    3.601840   -7.627720
  C    -11.484180    3.973020   -8.922440
  C    -12.319870    5.097740   -9.042970
  C    -12.687370    5.601340   -7.801070
  S    -11.992210    4.682710   -6.499400
  C    -13.494280    6.726390   -7.554330
  C    -14.327110    7.368640   -8.461950
  C    -14.618270    7.049200   -9.866110
  O    -15.654580    7.451210  -10.358000
  N    -13.693460    6.399430  -10.676660
  C    -12.597050    5.593740  -10.397940
  O    -11.881040    5.223750  -11.309210
  C    -13.985940    6.516310  -12.112320
  C    -14.837470    5.350970  -12.597390
  C    -15.027810    8.434340   -7.870050
  C    -14.741930    8.635100   -6.539490
  S    -13.592690    7.450200   -5.977360
  C    -15.278060    9.653690   -5.707210
  C    -14.977280    9.825240   -4.400720
  C    -15.497530   10.860540   -3.569210
  C    -15.192010   11.043600   -2.224470
  C    -15.892290   12.185780   -1.745530
  C    -15.931440   12.788130   -0.508680
  C    -16.734410   13.931110   -0.365700
  C    -16.981040   14.754470    0.727730
  C    -17.880160   15.792040    0.337050
  C    -18.188970   15.607670   -1.000370
  C    -17.494650   14.455530   -1.481730
  C    -17.459700   13.856650   -2.714550
  C    -16.653730   12.710200   -2.860400
  C    -16.406480   11.897720   -3.955480
  C    -18.391900   16.856760    1.166870
  C    -18.109320   17.040550    2.453470
  H     -3.704470  -12.357650   -6.453210
  H     -5.604970   -8.392380   -8.741660
  H     -3.889760  -11.234030   -4.297760
  H     -5.807970   -7.217870   -6.549670
  H     -5.064290   -7.308730   -0.280980
  H     -6.070220   -5.398930   -2.293870
  H     -7.289860   -1.947680    0.901640
  H     -6.681040   -3.596220   -2.627980
  H     -8.000430   -1.231020   -1.203500
  H    -11.095280    3.459310   -9.784210
  H    -13.030600    6.534910  -12.638090
  H    -14.515190    7.457210  -12.264840
  H    -14.314270    4.410760  -12.438690
  H    -15.037490    5.464400  -13.659060
  H    -15.783660    5.330830  -12.062180
  H    -15.725180    9.035560   -8.424670
  H    -15.970240   10.321430   -6.200520
  H    -14.284480    9.137250   -3.930700
  H    -14.534830   10.426750   -1.639270
  H    -15.365670   12.402940    0.328070
  H    -16.562150   14.631340    1.709670
  H    -18.842500   16.225170   -1.589550
  H    -18.024730   14.241130   -3.552200
  H    -16.826520   12.025730   -4.936220
  H    -19.060350   17.543860    0.662730
  H    -17.452190   16.384370    2.997880
  H    -18.530400   17.859500    3.010250

 Total Charge           Charge          ....    0
 Multiplicity           Mult            ....    1
 Number of Electrons    NEL             ....  596
 Basis Dimension        Dim             .... 1293

ORBITAL ENERGIES
----------------

  NO   OCC          E(Eh)            E(eV)
   0   2.0000     -89.001223     -2421.8464
   1   2.0000     -88.995257     -2421.6841
   2   2.0000     -88.992313     -2421.6039
   3   2.0000     -88.991696     -2421.5872
   4   2.0000     -88.978194     -2421.2198
   5   2.0000     -88.967980     -2420.9418
   6   2.0000     -24.808305      -675.0683
   7   2.0000     -24.807107      -675.0357
   8   2.0000     -19.247497      -523.7510
   9   2.0000     -19.247346      -523.7469
  10   2.0000     -19.246937      -523.7358
  11   2.0000     -19.198839      -522.4270
  12   2.0000     -19.197993      -522.4039
  13   2.0000     -14.659219      -398.8976
  14   2.0000     -14.508361      -394.7926
  15   2.0000     -14.459768      -393.4703
  16   2.0000     -14.429410      -392.6442
  17   2.0000     -14.424623      -392.5139
  18   2.0000     -14.412146      -392.1744
  19   2.0000     -14.410448      -392.1282
  20   2.0000     -10.393633      -282.8251
  21   2.0000     -10.393283      -282.8156
  22   2.0000     -10.392535      -282.7953
  23   2.0000     -10.392268      -282.7880
  24   2.0000     -10.391601      -282.7698
  25   2.0000     -10.384284      -282.5707
  26   2.0000     -10.383263      -282.5429
  27   2.0000     -10.358552      -281.8705
  28   2.0000     -10.357184      -281.8333
  29   2.0000     -10.353049      -281.7208
  30   2.0000     -10.347651      -281.5739
  31   2.0000     -10.345936      -281.5272
  32   2.0000     -10.343924      -281.4725
  33   2.0000     -10.341795      -281.4145
  34   2.0000     -10.333802      -281.1970
  35   2.0000     -10.331502      -281.1345
  36   2.0000     -10.331394      -281.1315
  37   2.0000     -10.329688      -281.0851
  38   2.0000     -10.327566      -281.0274
  39   2.0000     -10.326734      -281.0047
  40   2.0000     -10.325766      -280.9784
  41   2.0000     -10.322648      -280.8935
  42   2.0000     -10.322517      -280.8900
  43   2.0000     -10.322209      -280.8816
  44   2.0000     -10.320907      -280.8461
  45   2.0000     -10.320512      -280.8354
  46   2.0000     -10.318047      -280.7683
  47   2.0000     -10.317994      -280.7669
  48   2.0000     -10.317358      -280.7496
  49   2.0000     -10.314747      -280.6785
  50   2.0000     -10.314366      -280.6682
  51   2.0000     -10.312478      -280.6168
  52   2.0000     -10.312418      -280.6152
  53   2.0000     -10.311498      -280.5901
  54   2.0000     -10.311248      -280.5833
  55   2.0000     -10.310983      -280.5761
  56   2.0000     -10.310861      -280.5728
  57   2.0000     -10.309776      -280.5433
  58   2.0000     -10.309415      -280.5335
  59   2.0000     -10.301791      -280.3260
  60   2.0000     -10.300683      -280.2958
  61   2.0000     -10.298821      -280.2452
  62   2.0000     -10.296441      -280.1804
  63   2.0000     -10.294502      -280.1276
  64   2.0000     -10.290157      -280.0094
  65   2.0000     -10.286388      -279.9068
  66   2.0000     -10.285140      -279.8729
  67   2.0000     -10.282518      -279.8015
  68   2.0000     -10.279956      -279.7318
  69   2.0000     -10.278560      -279.6938
  70   2.0000     -10.275881      -279.6209
  71   2.0000     -10.274592      -279.5859
  72   2.0000     -10.271349      -279.4976
  73   2.0000     -10.269275      -279.4412
  74   2.0000     -10.268624      -279.4235
  75   2.0000     -10.266265      -279.3593
  76   2.0000     -10.266028      -279.3528
  77   2.0000     -10.265843      -279.3478
  78   2.0000     -10.265550      -279.3398
  79   2.0000     -10.257938      -279.1327
  80   2.0000     -10.249158      -278.8938
  81   2.0000      -8.096370      -220.3134
  82   2.0000      -8.090425      -220.1516
  83   2.0000      -8.087463      -220.0711
  84   2.0000      -8.086917      -220.0562
  85   2.0000      -8.072964      -219.6765
  86   2.0000      -8.063578      -219.4211
  87   2.0000      -6.066000      -165.0643
  88   2.0000      -6.061619      -164.9450
  89   2.0000      -6.060385      -164.9114
  90   2.0000      -6.057903      -164.8439
  91   2.0000      -6.056990      -164.8191
  92   2.0000      -6.056586      -164.8081
  93   2.0000      -6.056151      -164.7962
  94   2.0000      -6.052853      -164.7065
  95   2.0000      -6.052307      -164.6917
  96   2.0000      -6.051275      -164.6636
  97   2.0000      -6.049071      -164.6036
  98   2.0000      -6.048333      -164.5835
  99   2.0000      -6.042471      -164.4240
 100   2.0000      -6.038039      -164.3034
 101   2.0000      -6.034849      -164.2166
 102   2.0000      -6.032885      -164.1632
 103   2.0000      -6.028753      -164.0507
 104   2.0000      -6.025575      -163.9642
 105   2.0000      -1.331058       -36.2199
 106   2.0000      -1.329987       -36.1908
 107   2.0000      -1.316128       -35.8137
 108   2.0000      -1.162121       -31.6229
 109   2.0000      -1.152074       -31.3495
 110   2.0000      -1.149527       -31.2802
 111   2.0000      -1.129962       -30.7478
 112   2.0000      -1.116275       -30.3754
 113   2.0000      -1.049590       -28.5608
 114   2.0000      -1.032907       -28.1068
 115   2.0000      -1.023919       -27.8623
 116   2.0000      -1.022019       -27.8106
 117   2.0000      -1.020413       -27.7669
 118   2.0000      -1.017042       -27.6751
 119   2.0000      -1.009707       -27.4755
 120   2.0000      -1.005692       -27.3663
 121   2.0000      -0.998088       -27.1594
 122   2.0000      -0.993657       -27.0388
 123   2.0000      -0.989712       -26.9314
 124   2.0000      -0.988120       -26.8881
 125   2.0000      -0.986385       -26.8409
 126   2.0000      -0.962553       -26.1924
 127   2.0000      -0.959291       -26.1036
 128   2.0000      -0.944630       -25.7047
 129   2.0000      -0.934304       -25.4237
 130   2.0000      -0.917980       -24.9795
 131   2.0000      -0.911827       -24.8121
 132   2.0000      -0.906757       -24.6741
 133   2.0000      -0.903499       -24.5855
 134   2.0000      -0.900176       -24.4950
 135   2.0000      -0.893216       -24.3056
 136   2.0000      -0.883078       -24.0298
 137   2.0000      -0.874674       -23.8011
 138   2.0000      -0.872445       -23.7404
 139   2.0000      -0.871769       -23.7221
 140   2.0000      -0.866871       -23.5888
 141   2.0000      -0.864298       -23.5187
 142   2.0000      -0.853858       -23.2346
 143   2.0000      -0.853337       -23.2205
 144   2.0000      -0.842520       -22.9261
 145   2.0000      -0.835480       -22.7346
 146   2.0000      -0.828672       -22.5493
 147   2.0000      -0.825648       -22.4670
 148   2.0000      -0.821068       -22.3424
 149   2.0000      -0.799652       -21.7596
 150   2.0000      -0.797994       -21.7145
 151   2.0000      -0.782731       -21.2992
 152   2.0000      -0.781204       -21.2577
 153   2.0000      -0.773448       -21.0466
 154   2.0000      -0.758941       -20.6518
 155   2.0000      -0.751318       -20.4444
 156   2.0000      -0.749193       -20.3866
 157   2.0000      -0.744509       -20.2591
 158   2.0000      -0.741683       -20.1822
 159   2.0000      -0.735793       -20.0220
 160   2.0000      -0.730935       -19.8898
 161   2.0000      -0.725488       -19.7415
 162   2.0000      -0.715024       -19.4568
 163   2.0000      -0.711267       -19.3545
 164   2.0000      -0.700832       -19.0706
 165   2.0000      -0.699894       -19.0451
 166   2.0000      -0.695762       -18.9326
 167   2.0000      -0.682633       -18.5754
 168   2.0000      -0.675536       -18.3823
 169   2.0000      -0.674911       -18.3653
 170   2.0000      -0.672217       -18.2920
 171   2.0000      -0.669869       -18.2281
 172   2.0000      -0.667879       -18.1739
 173   2.0000      -0.663824       -18.0636
 174   2.0000      -0.656549       -17.8656
 175   2.0000      -0.653494       -17.7825
 176   2.0000      -0.650264       -17.6946
 177   2.0000      -0.646247       -17.5853
 178   2.0000      -0.644434       -17.5359
 179   2.0000      -0.640765       -17.4361
 180   2.0000      -0.637062       -17.3354
 181   2.0000      -0.633658       -17.2427
 182   2.0000      -0.627004       -17.0617
 183   2.0000      -0.623278       -16.9602
 184   2.0000      -0.619004       -16.8439
 185   2.0000      -0.616840       -16.7851
 186   2.0000      -0.611135       -16.6298
 187   2.0000      -0.609468       -16.5845
 188   2.0000      -0.596734       -16.2380
 189   2.0000      -0.595481       -16.2039
 190   2.0000      -0.590577       -16.0704
 191   2.0000      -0.587016       -15.9735
 192   2.0000      -0.583008       -15.8645
 193   2.0000      -0.580095       -15.7852
 194   2.0000      -0.577083       -15.7032
 195   2.0000      -0.572177       -15.5697
 196   2.0000      -0.571257       -15.5447
 197   2.0000      -0.569968       -15.5096
 198   2.0000      -0.565665       -15.3925
 199   2.0000      -0.564191       -15.3524
 200   2.0000      -0.556773       -15.1506
 201   2.0000      -0.555756       -15.1229
 202   2.0000      -0.551264       -15.0006
 203   2.0000      -0.550362       -14.9761
 204   2.0000      -0.548765       -14.9326
 205   2.0000      -0.547484       -14.8978
 206   2.0000      -0.545760       -14.8509
 207   2.0000      -0.544753       -14.8235
 208   2.0000      -0.542859       -14.7720
 209   2.0000      -0.539645       -14.6845
 210   2.0000      -0.536538       -14.5999
 211   2.0000      -0.534190       -14.5360
 212   2.0000      -0.529367       -14.4048
 213   2.0000      -0.528262       -14.3747
 214   2.0000      -0.526259       -14.3202
 215   2.0000      -0.523783       -14.2529
 216   2.0000      -0.518901       -14.1200
 217   2.0000      -0.516072       -14.0430
 218   2.0000      -0.515781       -14.0351
 219   2.0000      -0.511474       -13.9179
 220   2.0000      -0.510440       -13.8898
 221   2.0000      -0.508022       -13.8240
 222   2.0000      -0.504848       -13.7376
 223   2.0000      -0.502536       -13.6747
 224   2.0000      -0.502140       -13.6639
 225   2.0000      -0.501662       -13.6509
 226   2.0000      -0.497496       -13.5376
 227   2.0000      -0.496462       -13.5094
 228   2.0000      -0.494879       -13.4664
 229   2.0000      -0.492330       -13.3970
 230   2.0000      -0.490851       -13.3567
 231   2.0000      -0.487792       -13.2735
 232   2.0000      -0.483165       -13.1476
 233   2.0000      -0.480079       -13.0636
 234   2.0000      -0.475851       -12.9486
 235   2.0000      -0.475693       -12.9443
 236   2.0000      -0.475460       -12.9379
 237   2.0000      -0.473223       -12.8771
 238   2.0000      -0.470817       -12.8116
 239   2.0000      -0.469008       -12.7624
 240   2.0000      -0.466026       -12.6812
 241   2.0000      -0.465017       -12.6538
 242   2.0000      -0.460757       -12.5378
 243   2.0000      -0.460239       -12.5237
 244   2.0000      -0.458504       -12.4765
 245   2.0000      -0.457683       -12.4542
 246   2.0000      -0.454301       -12.3622
 247   2.0000      -0.453856       -12.3501
 248   2.0000      -0.452154       -12.3037
 249   2.0000      -0.451556       -12.2875
 250   2.0000      -0.449643       -12.2354
 251   2.0000      -0.447939       -12.1890
 252   2.0000      -0.446017       -12.1367
 253   2.0000      -0.445225       -12.1152
 254   2.0000      -0.441930       -12.0255
 255   2.0000      -0.440277       -11.9806
 256   2.0000      -0.439467       -11.9585
 257   2.0000      -0.438686       -11.9372
 258   2.0000      -0.438541       -11.9333
 259   2.0000      -0.438504       -11.9323
 260   2.0000      -0.434517       -11.8238
 261   2.0000      -0.433509       -11.7964
 262   2.0000      -0.425204       -11.5704
 263   2.0000      -0.421512       -11.4699
 264   2.0000      -0.420837       -11.4516
 265   2.0000      -0.416855       -11.3432
 266   2.0000      -0.414940       -11.2911
 267   2.0000      -0.412286       -11.2189
 268   2.0000      -0.407471       -11.0878
 269   2.0000      -0.405725       -11.0403
 270   2.0000      -0.400633       -10.9018
 271   2.0000      -0.395956       -10.7745
 272   2.0000      -0.394194       -10.7266
 273   2.0000      -0.392836       -10.6896
 274   2.0000      -0.386965       -10.5298
 275   2.0000      -0.384531       -10.4636
 276   2.0000      -0.379479       -10.3261
 277   2.0000      -0.376663       -10.2495
 278   2.0000      -0.369435       -10.0528
 279   2.0000      -0.366998        -9.9865
 280   2.0000      -0.364857        -9.9283
 281   2.0000      -0.362317        -9.8592
 282   2.0000      -0.357041        -9.7156
 283   2.0000      -0.348475        -9.4825
 284   2.0000      -0.346100        -9.4179
 285   2.0000      -0.339928        -9.2499
 286   2.0000      -0.333385        -9.0719
 287   2.0000      -0.331825        -9.0294
 288   2.0000      -0.331204        -9.0125
 289   2.0000      -0.327637        -8.9155
 290   2.0000      -0.320828        -8.7302
 291   2.0000      -0.315926        -8.5968
 292   2.0000      -0.302794        -8.2395
 293   2.0000      -0.292993        -7.9727
 294   2.0000      -0.271341        -7.3836
 295   2.0000      -0.268503        -7.3063
 296   2.0000      -0.264702        -7.2029
 297   2.0000      -0.231180        -6.2907
 298   0.0000      -0.102623        -2.7925
 299   0.0000      -0.097103        -2.6423
 300   0.0000      -0.080627        -2.1940
 301   0.0000      -0.073297        -1.9945
 302   0.0000      -0.064160        -1.7459

MULLIKEN ATOMIC CHARGES
-----------------------
   0 C :   -0.108264
   1 C :    0.244477
   2 F :   -0.167363
   3 C :    0.239965
   4 F :   -0.168852
   5 C :   -0.106226
   6 C :    0.118414
   7 C :    0.116455
   8 C :   -0.085143
   9 C :    0.044302
  10 C :    0.008162
  11 C :   -0.081346
  12 C :    0.173746
  13 O :   -0.228493
  14 C :   -0.136548
  15 C :    0.335360
  16 C :   -0.342113
  17 C :   -0.196496
  18 N :    0.144897
  19 C :   -0.180295
  20 N :    0.153878
  21 C :    0.031815
  22 N :   -0.011601
  23 C :   -0.114119
  24 S :    0.187712
  25 C :    0.003037
  26 N :    0.274858
  27 O :   -0.235737
  28 O :   -0.253686
  29 C :    0.012918
  30 C :    0.135769
  31 C :   -0.060106
  32 C :    0.009050
  33 C :   -0.094813
  34 C :   -0.019124
  35 C :   -0.326627
  36 N :    0.215576
  37 C :    0.162893
  38 C :   -0.227959
  39 S :    0.151071
  40 S :    0.192176
  41 C :   -0.227742
  42 C :    0.138155
  43 C :   -0.006811
  44 C :   -0.367140
  45 N :    0.227374
  46 C :   -0.048949
  47 S :    0.171772
  48 C :   -0.073028
  49 C :   -0.051951
  50 C :    0.034903
  51 C :   -0.079190
  52 S :    0.186305
  53 C :   -0.099446
  54 C :    0.049092
  55 C :    0.149740
  56 O :   -0.210271
  57 N :   -0.259671
  58 C :    0.155216
  59 O :   -0.217556
  60 C :    0.122503
  61 C :    0.003327
  62 C :   -0.042289
  63 C :   -0.001596
  64 S :    0.145120
  65 C :    0.006542
  66 C :    0.011146
  67 C :    0.072045
  68 C :   -0.033215
  69 C :    0.057054
  70 C :    0.002013
  71 C :    0.042618
  72 C :   -0.016571
  73 C :    0.061162
  74 C :   -0.029238
  75 C :    0.059725
  76 C :   -0.001487
  77 C :    0.052213
  78 C :   -0.028297
  79 C :    0.012010
  80 C :   -0.026796
  81 H :    0.010931
  82 H :   -0.000649
  83 H :   -0.002792
  84 H :   -0.011631
  85 H :    0.047966
  86 H :    0.186925
  87 H :    0.022296
  88 H :    0.005579
  89 H :    0.018473
  90 H :    0.012346
  91 H :    0.036747
  92 H :    0.028214
  93 H :    0.018705
  94 H :    0.018442
  95 H :    0.026368
  96 H :   -0.001881
  97 H :   -0.015344
  98 H :   -0.012928
  99 H :   -0.024703
 100 H :   -0.023682
 101 H :   -0.023249
 102 H :   -0.027234
 103 H :   -0.025747
 104 H :   -0.023934
 105 H :   -0.019003
 106 H :    0.008289
 107 H :    0.021086
Sum of atomic charges:   -0.0000000

LOEWDIN ATOMIC CHARGES
----------------------
   0 C :   -0.027776
   1 C :    0.069094
   2 F :   -0.045365
   3 C :    0.068954
   4 F :   -0.046660
   5 C :   -0.032438
   6 C :   -0.009954
   7 C :   -0.005141
   8 C :    0.020886
   9 C :   -0.019850
  10 C :   -0.053292
  11 C :    0.032748
  12 C :    0.097940
  13 O :   -0.180136
  14 C :   -0.144782
  15 C :    0.077598
  16 C :   -0.145128
  17 C :   -0.020326
  18 N :   -0.050216
  19 C :   -0.019373
  20 N :   -0.050538
  21 C :    0.115673
  22 N :    0.080702
  23 C :   -0.113166
  24 S :    0.478690
  25 C :   -0.194934
  26 N :    0.272445
  27 O :   -0.202877
  28 O :   -0.219670
  29 C :    0.006935
  30 C :   -0.085103
  31 C :   -0.025361
  32 C :   -0.026614
  33 C :   -0.129166
  34 C :   -0.094055
  35 C :   -0.042035
  36 N :   -0.031562
  37 C :   -0.062822
  38 C :   -0.330910
  39 S :    0.454089
  40 S :    0.426917
  41 C :   -0.334082
  42 C :   -0.060979
  43 C :   -0.107410
  44 C :   -0.056973
  45 N :   -0.026944
  46 C :   -0.132670
  47 S :    0.460723
  48 C :   -0.195960
  49 C :   -0.019591
  50 C :   -0.098403
  51 C :   -0.161319
  52 S :    0.482955
  53 C :   -0.182556
  54 C :   -0.084626
  55 C :    0.095801
  56 O :   -0.176925
  57 N :   -0.027079
  58 C :    0.095965
  59 O :   -0.185642
  60 C :    0.046278
  61 C :   -0.058266
  62 C :   -0.033137
  63 C :   -0.147883
  64 S :    0.445074
  65 C :   -0.056817
  66 C :   -0.007170
  67 C :   -0.064766
  68 C :    0.016469
  69 C :   -0.062430
  70 C :    0.075505
  71 C :   -0.065464
  72 C :    0.049802
  73 C :   -0.059890
  74 C :    0.015146
  75 C :   -0.058688
  76 C :    0.070992
  77 C :   -0.061817
  78 C :    0.038160
  79 C :   -0.020947
  80 C :   -0.054330
  81 H :    0.049100
  82 H :    0.044831
  83 H :    0.041598
  84 H :    0.040113
  85 H :    0.037994
  86 H :    0.082189
  87 H :    0.049990
  88 H :    0.021976
  89 H :    0.044100
  90 H :    0.033305
  91 H :    0.027964
  92 H :    0.026333
  93 H :    0.023640
  94 H :    0.029947
  95 H :    0.026629
  96 H :    0.037910
  97 H :    0.032738
  98 H :    0.025659
  99 H :    0.025173
 100 H :    0.035610
 101 H :    0.025390
 102 H :    0.024023
 103 H :    0.034732
 104 H :    0.023705
 105 H :    0.029315
 106 H :    0.017844
 107 H :    0.024664

  Mayer bond orders larger than 0.100000
B(  0-C ,  1-C ) :   1.4362 B(  0-C ,  5-C ) :   0.1079 B(  0-C ,  7-C ) :   1.1929
B(  0-C , 81-H ) :   1.0064 B(  1-C ,  2-F ) :   1.1385 B(  1-C ,  3-C ) :   1.1939
B(  3-C ,  4-F ) :   1.1371 B(  3-C ,  5-C ) :   1.4402 B(  5-C ,  6-C ) :   1.1926
B(  5-C , 82-H ) :   1.0066 B(  6-C ,  7-C ) :   1.2582 B(  6-C , 11-C ) :   1.1851
B(  7-C ,  8-C ) :   1.2077 B(  8-C ,  9-C ) :   1.4656 B(  8-C , 83-H ) :   0.9892
B(  9-C , 10-C ) :   1.2207 B(  9-C , 15-C ) :   0.9868 B( 10-C , 11-C ) :   1.4671
B( 10-C , 12-C ) :   0.9832 B( 11-C , 84-H ) :   1.0180 B( 12-C , 13-O ) :   2.0153
B( 12-C , 14-C ) :   1.0143 B( 13-O , 86-H ) :   0.1477 B( 14-C , 15-C ) :   1.0919
B( 14-C , 21-C ) :   1.4416 B( 15-C , 16-C ) :   1.6357 B( 16-C , 17-C ) :   1.1456
B( 16-C , 19-C ) :   1.1446 B( 17-C , 18-N ) :   2.9547 B( 19-C , 20-N ) :   2.9624
B( 21-C , 22-N ) :   1.3455 B( 21-C , 85-H ) :   0.9330 B( 22-N , 23-C ) :   1.1949
B( 22-N , 86-H ) :   0.8176 B( 23-C , 24-S ) :   1.1371 B( 23-C , 30-C ) :   1.3719
B( 24-S , 25-C ) :   1.0855 B( 25-C , 26-N ) :   0.9554 B( 25-C , 29-C ) :   1.5170
B( 26-N , 27-O ) :   1.5444 B( 26-N , 28-O ) :   1.5170 B( 27-O , 28-O ) :   0.2663
B( 29-C , 30-C ) :   1.2162 B( 29-C , 87-H ) :   0.9991 B( 30-C , 31-C ) :   1.0783
B( 31-C , 32-C ) :   1.6929 B( 31-C , 88-H ) :   0.9658 B( 32-C , 33-C ) :   1.1737
B( 32-C , 89-H ) :   0.9666 B( 33-C , 34-C ) :   1.4870 B( 33-C , 39-S ) :   1.1174
B( 34-C , 35-C ) :   1.1759 B( 34-C , 37-C ) :   1.2470 B( 35-C , 36-N ) :   2.9882
B( 37-C , 38-C ) :   1.4092 B( 37-C , 42-C ) :   1.0644 B( 38-C , 39-S ) :   1.0943
B( 38-C , 40-S ) :   1.0882 B( 40-S , 41-C ) :   1.0818 B( 41-C , 42-C ) :   1.4304
B( 41-C , 47-S ) :   1.0814 B( 42-C , 43-C ) :   1.2463 B( 43-C , 44-C ) :   1.1617
B( 43-C , 46-C ) :   1.5033 B( 44-C , 45-N ) :   2.9705 B( 46-C , 47-S ) :   1.1441
B( 46-C , 48-C ) :   1.1776 B( 48-C , 49-C ) :   1.4666 B( 48-C , 52-S ) :   1.0935
B( 49-C , 50-C ) :   1.2826 B( 49-C , 90-H ) :   0.9950 B( 50-C , 51-C ) :   1.4526
B( 50-C , 58-C ) :   0.9428 B( 51-C , 52-S ) :   1.1369 B( 51-C , 53-C ) :   1.1899
B( 53-C , 54-C ) :   1.4672 B( 53-C , 64-S ) :   1.1265 B( 54-C , 55-C ) :   0.9429
B( 54-C , 62-C ) :   1.2610 B( 55-C , 56-O ) :   2.1141 B( 55-C , 57-N ) :   1.0561
B( 57-N , 58-C ) :   1.0699 B( 57-N , 60-C ) :   0.9189 B( 58-C , 59-O ) :   2.1060
B( 60-C , 61-C ) :   1.1296 B( 60-C , 91-H ) :   0.9322 B( 60-C , 92-H ) :   0.9377
B( 61-C , 93-H ) :   0.9650 B( 61-C , 94-H ) :   0.9692 B( 61-C , 95-H ) :   0.9677
B( 62-C , 63-C ) :   1.4564 B( 62-C , 96-H ) :   1.0132 B( 63-C , 64-S ) :   1.0880
B( 63-C , 65-C ) :   1.1512 B( 65-C , 66-C ) :   1.6418 B( 65-C , 97-H ) :   0.9769
B( 66-C , 67-C ) :   1.1118 B( 66-C , 98-H ) :   0.9763 B( 67-C , 68-C ) :   1.4575
B( 67-C , 78-C ) :   1.1517 B( 68-C , 69-C ) :   1.1050 B( 68-C , 99-H ) :   1.0205
B( 69-C , 70-C ) :   1.4294 B( 69-C , 77-C ) :   1.1378 B( 70-C , 71-C ) :   1.1438
B( 70-C ,100-H ) :   1.0057 B( 71-C , 72-C ) :   1.4185 B( 71-C , 75-C ) :   1.1323
B( 72-C , 73-C ) :   1.1588 B( 72-C ,101-H ) :   1.0076 B( 73-C , 74-C ) :   1.4950
B( 73-C , 79-C ) :   1.0835 B( 74-C , 75-C ) :   1.0887 B( 74-C ,102-H ) :   1.0175
B( 75-C , 76-C ) :   1.4601 B( 76-C , 77-C ) :   1.1237 B( 76-C ,103-H ) :   1.0053
B( 77-C , 78-C ) :   1.4352 B( 78-C ,104-H ) :   1.0062 B( 79-C , 80-C ) :   1.9347
B( 79-C ,105-H ) :   0.9666 B( 80-C ,106-H ) :   0.9530 B( 80-C ,107-H ) :   0.9495

-----------------------------------------------------------------------------
         ABSORPTION SPECTRUM VIA TRANSITION ELECTRIC DIPOLE MOMENTS
-----------------------------------------------------------------------------
State   Energy  Wavelength   fosc         T2         TX        TY        TZ
        (cm-1)    (nm)                  (au**2)     (au)      (au)      (au)
-----------------------------------------------------------------------------
   0    8535.0   1171.6   0.005954108   0.22966  -0.17378   0.35305   0.27353
   1   19901.5    502.5   2.150361496  35.57133  -2.73887   4.96646   1.84506
   2   20985.5    476.5   0.420058102   6.58969  -0.82282   2.39116   0.44161
   3   22131.4    451.8   0.008600261   0.12793  -0.08871  -0.05165  -0.34263
   4   22241.1    449.6   0.000419812   0.00621   0.01688  -0.02884   0.07139
   5   22746.9    439.6   0.301499077   4.36355   0.78795  -1.56954  -1.13104
   6   25525.0    391.8   0.034510848   0.44511   0.12634  -0.11343   0.64520
   7   27111.9    368.8   0.036001013   0.43715  -0.26152   0.28929  -0.53392
   8   27318.0    366.1   0.683390179   8.23561   0.97254  -1.39151   2.31376
   9   27715.2    360.8   0.051345526   0.60990   0.27008  -0.12211   0.72253
  10   27902.2    358.4   0.459318981   5.41941   0.54843  -0.14427   2.25783
  11   28547.5    350.3   0.118747531   1.36940   0.31437  -0.27699  -1.09263
  12   28628.3    349.3   0.219367809   2.52263  -0.41985   1.06725   1.09879
  13   28880.7    346.3   0.121751548   1.38785  -0.34603   0.77234   0.81951
  14   29485.7    339.1   0.037978972   0.42404  -0.07422   0.30623   0.56987
  15   29733.0    336.3   0.059306102   0.65665  -0.02371  -0.17168  -0.79159
  16   30362.7    329.4   0.578376860   6.27114  -0.12492   0.86710   2.34599
  17   30474.9    328.1   0.342518221   3.70014  -0.06629   0.71560   1.78428
  18   30720.2    325.5   0.039927353   0.42788  -0.09023   0.25091   0.59731
  19   31397.3    318.5   0.000037998   0.00040  -0.01120   0.01264  -0.01063
  20   32390.9    308.7   0.050878320   0.51711  -0.24150   0.46951  -0.48821
  21   32420.4    308.4   0.026658859   0.27071   0.16649  -0.35153   0.34557
  22   32650.0    306.3   0.044706462   0.45078   0.30364  -0.59868   0.01285
  23   32850.4    304.4   0.013440319   0.13469   0.03696  -0.12075  -0.34460
  24   33078.1    302.3   0.307163688   3.05706   0.28310  -0.17456   1.71652
  25   33383.2    299.6   0.000090489   0.00089  -0.00067  -0.01120   0.02769
  26   33509.3    298.4   0.632319190   6.21221  -0.50368   1.50692   1.92034
  27   33630.2    297.4   0.031257195   0.30598  -0.20987   0.43656   0.26712
  28   34033.6    293.8   0.219510438   2.12336   0.51621  -1.22158  -0.60385
  29   34079.9    293.4   0.010547043   0.10188   0.10225  -0.28859  -0.09026
  30   34274.8    291.8   0.015166630   0.14568   0.14040  -0.13318   0.32898
  31   34535.6    289.6   0.881333451   8.40135   0.41068  -0.13399   2.86614
  32   34708.7    288.1   0.000365878   0.00347   0.04385  -0.01988   0.03395
  33   35086.6    285.0   0.033924821   0.31831   0.13142  -0.03010   0.54784
  34   35556.6    281.2   0.013893635   0.12864  -0.02549   0.14122   0.32870
  35   36145.0    276.7   0.004797197   0.04369   0.07673  -0.14500   0.12954
  36   36183.4    276.4   0.003443322   0.03133  -0.09294   0.05446  -0.14045
  37   36509.1    273.9   0.000175048   0.00158  -0.01960   0.02426  -0.02461
  38   36789.8    271.8   0.055629411   0.49780   0.33054  -0.40841   0.47090
  39   36977.2    270.4   0.000042324   0.00038  -0.00152  -0.01051   0.01625
  40   37334.8    267.8   0.140057491   1.23500   0.45266  -0.94171   0.37852
  41   37359.4    267.7   0.073135595   0.64447  -0.10591  -0.25524  -0.75373
  42   37919.1    263.7   0.150132701   1.30344   0.42107  -1.05017  -0.15263
  43   38334.1    260.9   0.016599439   0.14256   0.03477  -0.26373  -0.26794
  44   38484.9    259.8   0.004390787   0.03756  -0.07738   0.16875   0.05563
  45   38528.4    259.5   0.002543157   0.02173  -0.01848   0.09809   0.10848
  46   38588.3    259.1   0.008511495   0.07261  -0.02204  -0.04505  -0.26476
  47   38896.4    257.1   0.015294698   0.12945   0.08382  -0.19427  -0.29100
  48   39081.6    255.9   0.025049818   0.21101   0.11882  -0.25090  -0.36598
  49   39403.2    253.8   0.005746647   0.04801  -0.05043   0.20842   0.04504
  50   39540.2    252.9   0.019296461   0.16066   0.02055  -0.08080  -0.39206
  51   39761.1    251.5   0.007454893   0.06172   0.07951  -0.23502  -0.01300
  52   39956.6    250.3   0.035033936   0.28865   0.23968  -0.47954  -0.03537
  53   40078.8    249.5   0.012358055   0.10151   0.12879  -0.17864   0.23024

FINAL SINGLE POINT ENERGY     -5683.939878414460

DIPOLE MOMENT
-------------
                                X             Y             Z
Electronic contribution:     76.05571    -126.81086      -7.94401
Nuclear contribution   :    -76.35412     127.55816       5.17266
                        -----------------------------------------
Total Dipole Moment    :     -0.29841       0.74730      -2.77135
                        -----------------------------------------
Magnitude (a.u.)       :      2.88581
Magnitude (Debye)      :      7.33514

Rotational constants in cm-1:     0.000891     0.000166     0.000140
Rotational constants in MHz :    26.719895     4.963482     4.206604

                             ****ORCA TERMINATED NORMALLY****
TOTAL RUN TIME: 0 days 0 hours 12 minutes 56 seconds 446 msec
