                         Program Version 4.2.0 -  RELEASE  -
|  1> # ORCA input file
|  2> # SCF done       -210.314522541709          0.000891051920
|  3> ! CAM-B3LYP def2-SVP def2/J RIJCOSX Grid4 TightSCF
|  4> %maxcore 5000
|  5> %tddft
|  6>     Mode sTDDFT
|  7>     Ethresh 5.0
|  8>     maxcore 5000
|  9> end
| 10>
| 11> %pal
| 12>   nprocs 6
| 13>   end
| 14> * xyz 0 1
| 15>    C       -0.66914         3.83484        -1.39804
| 16>    C       -0.63455         4.56312        -2.55429
| 17>    F        0.38273         5.40336        -2.80207
| 18>    C       -1.65368         4.43619        -3.51767
| 19>    F       -1.56123         5.12870        -4.66437
| 20>    C       -2.71534         3.60422        -3.30208
| 21>    C       -2.78908         2.84908        -2.11594
| 22>    C       -1.74317         2.95430        -1.15320
| 23>    C       -1.78087         2.17926         0.03069
| 24>    C       -2.83002         1.32414         0.24114
| 25>    C       -3.87076         1.22687        -0.72828
| 26>    C       -3.86623         1.96856        -1.87428
| 27>    C       -4.83514         0.21230        -0.29097
| 28>    O       -5.86094        -0.14093        -0.86376
| 29>    C       -4.31884        -0.32721         0.97123
| 30>    C       -3.11967         0.39511         1.33398
| 31>    C       -2.39885         0.26510         2.49084
| 32>    C       -2.73007        -0.63687         3.52290
| 33>    N       -2.97264        -1.36009         4.38071
| 34>    C       -1.25893         1.03348         2.80929
| 35>    N       -0.33541         1.63346         3.12948
| 36>    C       -4.92545        -1.38755         1.59935
| 37>    N       -6.00834        -1.96046         1.05924
| 38>    C       -6.70997        -3.01548         1.54721
| 39>    S       -6.52314        -3.54259         3.19121
| 40>    C       -7.80118        -4.68890         2.94750
| 41>    N       -8.15467        -5.51693         4.02633
| 42>    O       -9.05572        -6.31295         3.85108
| 43>    O       -7.52599        -5.36765         5.05699
| 44>    C       -8.33370        -4.66121         1.68893
| 45>    C       -7.70303        -3.71976         0.84780
| 46>    C       -8.05326        -3.55384        -0.53307
| 47>    C       -7.23430        -3.06420        -1.50040
| 48>    C       -7.61838        -2.81572        -2.83110
| 49>    C       -6.78622        -2.20382        -3.73494
| 50>    C       -7.08586        -1.80614        -5.06115
| 51>    C       -6.08359        -1.11879        -5.67801
| 52>    C       -4.93537        -0.94374        -4.87404
| 53>    S       -5.15041        -1.70994        -3.32631
| 54>    C       -3.78290        -0.22932        -5.16432
| 55>    C       -3.47338         0.50637        -6.32350
| 56>    C       -2.27782         1.16778        -6.26276
| 57>    C       -1.58432         0.98783        -5.04903
| 58>    S       -2.48881        -0.08459        -3.99674
| 59>    C       -0.40865         1.53655        -4.57329
| 60>    C        0.45330         2.43317        -5.19436
| 61>    S        0.32196         2.98658        -6.83597
| 62>    C        1.72752         4.00894        -6.73024
| 63>    C        2.24532         3.98718        -5.42225
| 64>    C        1.55281         3.07230        -4.56708
| 65>    C        1.95339         2.92513        -3.23692
| 66>    C        2.95649         3.71490        -2.72780
| 67>    N        3.37619         3.46411        -1.37000
| 68>    O        2.50205         3.16117        -0.58581
| 69>    O        4.55951         3.50703        -1.13606
| 70>    C        3.57453         4.69131        -3.54371
| 71>    N        4.45345         5.69425        -2.97985
| 72>    O        4.22208         6.04867        -1.84868
| 73>    O        5.30781         6.14237        -3.70825
| 74>    C        3.23745         4.81266        -4.86830
| 75>    C        2.15677         4.66106        -7.90159
| 76>    C        3.38300         5.20494        -8.13299
| 77>    C        3.74431         5.82593        -9.34872
| 78>    S        2.64056         6.01654       -10.67999
| 79>    C        3.83189         6.80178       -11.66339
| 80>    C        5.02917         6.91203       -10.97367
| 81>    C        4.98756         6.35811        -9.67533
| 82>    S        6.29525         6.41330        -8.48774
| 83>    C        7.74960         5.93355        -9.41001
| 84>    O        8.79539         5.86876        -8.84178
| 85>    C        7.53336         5.68174       -10.88164
| 86>    C        7.34795         7.03829       -11.54795
| 87>    O        8.23029         7.65175       -12.06618
| 88>    O        6.10363         7.55161       -11.53011
| 89>    C        3.47756         7.22382       -12.99075
| 90>    C        4.25038         7.92227       -13.82171
| 91>    H        0.13388         3.92266        -0.68119
| 92>    H       -3.49085         3.52202        -4.04756
| 93>    H       -0.96856         2.27721         0.73310
| 94>    H       -4.66896         1.87856        -2.59035
| 95>    H       -4.54202        -1.81708         2.51603
| 96>    H       -6.33485        -1.50653         0.18640
| 97>    H       -9.12943        -5.31519         1.38077
| 98>    H       -9.04682        -3.88452        -0.80393
| 99>    H       -6.20077        -2.84356        -1.27134
|100>    H       -8.62469        -3.05694        -3.14406
|101>    H       -8.03908        -2.02468        -5.50881
|102>    H       -6.14322        -0.72710        -6.67747
|103>    H       -4.13652         0.54243        -7.16896
|104>    H       -1.89716         1.78455        -7.05564
|105>    H       -0.13958         1.25122        -3.56504
|106>    H        1.48617         2.20116        -2.58724
|107>    H        3.69567         5.59986        -5.44492
|108>    H        1.44095         4.67370        -8.71567
|109>    H        4.16918         5.14746        -7.39590
|110>    H        6.66279         5.04512       -11.05051
|111>    H        8.43700         5.22149       -11.28413
|112>    H        2.48143         6.92863       -13.29452
|113>    H        5.23790         8.25200       -13.55414
|114>    H        3.89785         8.19048       -14.80206
|115> *
|116>
|117>                          ****END OF INPUT****

CARTESIAN COORDINATES (ANGSTROEM)
---------------------------------
  C     -0.669140    3.834840   -1.398040
  C     -0.634550    4.563120   -2.554290
  F      0.382730    5.403360   -2.802070
  C     -1.653680    4.436190   -3.517670
  F     -1.561230    5.128700   -4.664370
  C     -2.715340    3.604220   -3.302080
  C     -2.789080    2.849080   -2.115940
  C     -1.743170    2.954300   -1.153200
  C     -1.780870    2.179260    0.030690
  C     -2.830020    1.324140    0.241140
  C     -3.870760    1.226870   -0.728280
  C     -3.866230    1.968560   -1.874280
  C     -4.835140    0.212300   -0.290970
  O     -5.860940   -0.140930   -0.863760
  C     -4.318840   -0.327210    0.971230
  C     -3.119670    0.395110    1.333980
  C     -2.398850    0.265100    2.490840
  C     -2.730070   -0.636870    3.522900
  N     -2.972640   -1.360090    4.380710
  C     -1.258930    1.033480    2.809290
  N     -0.335410    1.633460    3.129480
  C     -4.925450   -1.387550    1.599350
  N     -6.008340   -1.960460    1.059240
  C     -6.709970   -3.015480    1.547210
  S     -6.523140   -3.542590    3.191210
  C     -7.801180   -4.688900    2.947500
  N     -8.154670   -5.516930    4.026330
  O     -9.055720   -6.312950    3.851080
  O     -7.525990   -5.367650    5.056990
  C     -8.333700   -4.661210    1.688930
  C     -7.703030   -3.719760    0.847800
  C     -8.053260   -3.553840   -0.533070
  C     -7.234300   -3.064200   -1.500400
  C     -7.618380   -2.815720   -2.831100
  C     -6.786220   -2.203820   -3.734940
  C     -7.085860   -1.806140   -5.061150
  C     -6.083590   -1.118790   -5.678010
  C     -4.935370   -0.943740   -4.874040
  S     -5.150410   -1.709940   -3.326310
  C     -3.782900   -0.229320   -5.164320
  C     -3.473380    0.506370   -6.323500
  C     -2.277820    1.167780   -6.262760
  C     -1.584320    0.987830   -5.049030
  S     -2.488810   -0.084590   -3.996740
  C     -0.408650    1.536550   -4.573290
  C      0.453300    2.433170   -5.194360
  S      0.321960    2.986580   -6.835970
  C      1.727520    4.008940   -6.730240
  C      2.245320    3.987180   -5.422250
  C      1.552810    3.072300   -4.567080
  C      1.953390    2.925130   -3.236920
  C      2.956490    3.714900   -2.727800
  N      3.376190    3.464110   -1.370000
  O      2.502050    3.161170   -0.585810
  O      4.559510    3.507030   -1.136060
  C      3.574530    4.691310   -3.543710
  N      4.453450    5.694250   -2.979850
  O      4.222080    6.048670   -1.848680
  O      5.307810    6.142370   -3.708250
  C      3.237450    4.812660   -4.868300
  C      2.156770    4.661060   -7.901590
  C      3.383000    5.204940   -8.132990
  C      3.744310    5.825930   -9.348720
  S      2.640560    6.016540  -10.679990
  C      3.831890    6.801780  -11.663390
  C      5.029170    6.912030  -10.973670
  C      4.987560    6.358110   -9.675330
  S      6.295250    6.413300   -8.487740
  C      7.749600    5.933550   -9.410010
  O      8.795390    5.868760   -8.841780
  C      7.533360    5.681740  -10.881640
  C      7.347950    7.038290  -11.547950
  O      8.230290    7.651750  -12.066180
  O      6.103630    7.551610  -11.530110
  C      3.477560    7.223820  -12.990750
  C      4.250380    7.922270  -13.821710
  H      0.133880    3.922660   -0.681190
  H     -3.490850    3.522020   -4.047560
  H     -0.968560    2.277210    0.733100
  H     -4.668960    1.878560   -2.590350
  H     -4.542020   -1.817080    2.516030
  H     -6.334850   -1.506530    0.186400
  H     -9.129430   -5.315190    1.380770
  H     -9.046820   -3.884520   -0.803930
  H     -6.200770   -2.843560   -1.271340
  H     -8.624690   -3.056940   -3.144060
  H     -8.039080   -2.024680   -5.508810
  H     -6.143220   -0.727100   -6.677470
  H     -4.136520    0.542430   -7.168960
  H     -1.897160    1.784550   -7.055640
  H     -0.139580    1.251220   -3.565040
  H      1.486170    2.201160   -2.587240
  H      3.695670    5.599860   -5.444920
  H      1.440950    4.673700   -8.715670
  H      4.169180    5.147460   -7.395900
  H      6.662790    5.045120  -11.050510
  H      8.437000    5.221490  -11.284130
  H      2.481430    6.928630  -13.294520
  H      5.237900    8.252000  -13.554140
  H      3.897850    8.190480  -14.802060

 Total Charge           Charge          ....    0
 Multiplicity           Mult            ....    1
 Number of Electrons    NEL             ....  572
 Basis Dimension        Dim             .... 1208

ORBITAL ENERGIES
----------------

  NO   OCC          E(Eh)            E(eV)
   0   2.0000     -89.000187     -2421.8182
   1   2.0000     -88.992043     -2421.5966
   2   2.0000     -88.981135     -2421.2998
   3   2.0000     -88.970067     -2420.9986
   4   2.0000     -88.968991     -2420.9693
   5   2.0000     -88.960218     -2420.7306
   6   2.0000     -24.807471      -675.0456
   7   2.0000     -24.806485      -675.0188
   8   2.0000     -19.296772      -525.0918
   9   2.0000     -19.251126      -523.8498
  10   2.0000     -19.249820      -523.8142
  11   2.0000     -19.247373      -523.7476
  12   2.0000     -19.246637      -523.7276
  13   2.0000     -19.246513      -523.7243
  14   2.0000     -19.244974      -523.6824
  15   2.0000     -19.239324      -523.5286
  16   2.0000     -19.234146      -523.3877
  17   2.0000     -19.221278      -523.0376
  18   2.0000     -14.658928      -398.8897
  19   2.0000     -14.656396      -398.8208
  20   2.0000     -14.652522      -398.7154
  21   2.0000     -14.504714      -394.6933
  22   2.0000     -14.424615      -392.5137
  23   2.0000     -14.417132      -392.3101
  24   2.0000     -10.428240      -283.7668
  25   2.0000     -10.402855      -283.0761
  26   2.0000     -10.387729      -282.6645
  27   2.0000     -10.386344      -282.6268
  28   2.0000     -10.385778      -282.6114
  29   2.0000     -10.383043      -282.5370
  30   2.0000     -10.378295      -282.4078
  31   2.0000     -10.363956      -282.0176
  32   2.0000     -10.356786      -281.8225
  33   2.0000     -10.351266      -281.6723
  34   2.0000     -10.349962      -281.6368
  35   2.0000     -10.349289      -281.6185
  36   2.0000     -10.347476      -281.5691
  37   2.0000     -10.339654      -281.3563
  38   2.0000     -10.338379      -281.3216
  39   2.0000     -10.335120      -281.2329
  40   2.0000     -10.333230      -281.1815
  41   2.0000     -10.332149      -281.1521
  42   2.0000     -10.331806      -281.1427
  43   2.0000     -10.331467      -281.1335
  44   2.0000     -10.329403      -281.0773
  45   2.0000     -10.326829      -281.0073
  46   2.0000     -10.325588      -280.9735
  47   2.0000     -10.321419      -280.8601
  48   2.0000     -10.320837      -280.8442
  49   2.0000     -10.319593      -280.8104
  50   2.0000     -10.319239      -280.8008
  51   2.0000     -10.318653      -280.7848
  52   2.0000     -10.317053      -280.7413
  53   2.0000     -10.316638      -280.7300
  54   2.0000     -10.316551      -280.7276
  55   2.0000     -10.316507      -280.7264
  56   2.0000     -10.315425      -280.6970
  57   2.0000     -10.315267      -280.6927
  58   2.0000     -10.312432      -280.6155
  59   2.0000     -10.312375      -280.6140
  60   2.0000     -10.312299      -280.6119
  61   2.0000     -10.311657      -280.5945
  62   2.0000     -10.311111      -280.5796
  63   2.0000     -10.310555      -280.5645
  64   2.0000     -10.308818      -280.5172
  65   2.0000     -10.308155      -280.4992
  66   2.0000     -10.308053      -280.4964
  67   2.0000     -10.307914      -280.4926
  68   2.0000     -10.307528      -280.4821
  69   2.0000     -10.307039      -280.4688
  70   2.0000     -10.306467      -280.4532
  71   2.0000     -10.305518      -280.4274
  72   2.0000     -10.303824      -280.3813
  73   2.0000     -10.301751      -280.3249
  74   2.0000     -10.296025      -280.1691
  75   2.0000     -10.278191      -279.6838
  76   2.0000      -8.095347      -220.2856
  77   2.0000      -8.086922      -220.0563
  78   2.0000      -8.076694      -219.7780
  79   2.0000      -8.065698      -219.4788
  80   2.0000      -8.065136      -219.4635
  81   2.0000      -8.056588      -219.2309
  82   2.0000      -6.064945      -165.0356
  83   2.0000      -6.060535      -164.9155
  84   2.0000      -6.056954      -164.8181
  85   2.0000      -6.055943      -164.7906
  86   2.0000      -6.051894      -164.6804
  87   2.0000      -6.049585      -164.6176
  88   2.0000      -6.045846      -164.5158
  89   2.0000      -6.042093      -164.4137
  90   2.0000      -6.038663      -164.3204
  91   2.0000      -6.035460      -164.2332
  92   2.0000      -6.034807      -164.2155
  93   2.0000      -6.031409      -164.1230
  94   2.0000      -6.030808      -164.1066
  95   2.0000      -6.026687      -163.9945
  96   2.0000      -6.026566      -163.9912
  97   2.0000      -6.026095      -163.9784
  98   2.0000      -6.022121      -163.8702
  99   2.0000      -6.017162      -163.7353
 100   2.0000      -1.333796       -36.2944
 101   2.0000      -1.329419       -36.1753
 102   2.0000      -1.328123       -36.1401
 103   2.0000      -1.326479       -36.0953
 104   2.0000      -1.312946       -35.7271
 105   2.0000      -1.225836       -33.3567
 106   2.0000      -1.160307       -31.5736
 107   2.0000      -1.154971       -31.4284
 108   2.0000      -1.154161       -31.4063
 109   2.0000      -1.148872       -31.2624
 110   2.0000      -1.148074       -31.2407
 111   2.0000      -1.132287       -30.8111
 112   2.0000      -1.112484       -30.2722
 113   2.0000      -1.030758       -28.0483
 114   2.0000      -1.027359       -27.9558
 115   2.0000      -1.021151       -27.7869
 116   2.0000      -1.019393       -27.7391
 117   2.0000      -1.014657       -27.6102
 118   2.0000      -1.011650       -27.5284
 119   2.0000      -0.999867       -27.2078
 120   2.0000      -0.999136       -27.1879
 121   2.0000      -0.988356       -26.8945
 122   2.0000      -0.988148       -26.8889
 123   2.0000      -0.944699       -25.7066
 124   2.0000      -0.940618       -25.5955
 125   2.0000      -0.937137       -25.5008
 126   2.0000      -0.932718       -25.3805
 127   2.0000      -0.919392       -25.0179
 128   2.0000      -0.913994       -24.8710
 129   2.0000      -0.909544       -24.7500
 130   2.0000      -0.904074       -24.6011
 131   2.0000      -0.898477       -24.4488
 132   2.0000      -0.897831       -24.4312
 133   2.0000      -0.891258       -24.2524
 134   2.0000      -0.885327       -24.0910
 135   2.0000      -0.877601       -23.8807
 136   2.0000      -0.873355       -23.7652
 137   2.0000      -0.869409       -23.6578
 138   2.0000      -0.861720       -23.4486
 139   2.0000      -0.851957       -23.1829
 140   2.0000      -0.847913       -23.0729
 141   2.0000      -0.840929       -22.8829
 142   2.0000      -0.833865       -22.6906
 143   2.0000      -0.821398       -22.3514
 144   2.0000      -0.815190       -22.1824
 145   2.0000      -0.812196       -22.1010
 146   2.0000      -0.793492       -21.5920
 147   2.0000      -0.784571       -21.3493
 148   2.0000      -0.776806       -21.1380
 149   2.0000      -0.774578       -21.0773
 150   2.0000      -0.762414       -20.7463
 151   2.0000      -0.749340       -20.3906
 152   2.0000      -0.742401       -20.2018
 153   2.0000      -0.736077       -20.0297
 154   2.0000      -0.731482       -19.9046
 155   2.0000      -0.724151       -19.7051
 156   2.0000      -0.722920       -19.6716
 157   2.0000      -0.717728       -19.5304
 158   2.0000      -0.705763       -19.2048
 159   2.0000      -0.697521       -18.9805
 160   2.0000      -0.689630       -18.7658
 161   2.0000      -0.688379       -18.7317
 162   2.0000      -0.681290       -18.5388
 163   2.0000      -0.676598       -18.4112
 164   2.0000      -0.667447       -18.1622
 165   2.0000      -0.661867       -18.0103
 166   2.0000      -0.660723       -17.9792
 167   2.0000      -0.657946       -17.9036
 168   2.0000      -0.653803       -17.7909
 169   2.0000      -0.651388       -17.7252
 170   2.0000      -0.649633       -17.6774
 171   2.0000      -0.648233       -17.6393
 172   2.0000      -0.646513       -17.5925
 173   2.0000      -0.642946       -17.4955
 174   2.0000      -0.640699       -17.4343
 175   2.0000      -0.640061       -17.4170
 176   2.0000      -0.636444       -17.3185
 177   2.0000      -0.632297       -17.2057
 178   2.0000      -0.626987       -17.0612
 179   2.0000      -0.623022       -16.9533
 180   2.0000      -0.621037       -16.8993
 181   2.0000      -0.614101       -16.7105
 182   2.0000      -0.611995       -16.6532
 183   2.0000      -0.608277       -16.5521
 184   2.0000      -0.606291       -16.4980
 185   2.0000      -0.603362       -16.4183
 186   2.0000      -0.598176       -16.2772
 187   2.0000      -0.595842       -16.2137
 188   2.0000      -0.594331       -16.1726
 189   2.0000      -0.590468       -16.0675
 190   2.0000      -0.587464       -15.9857
 191   2.0000      -0.582794       -15.8586
 192   2.0000      -0.578678       -15.7466
 193   2.0000      -0.575654       -15.6643
 194   2.0000      -0.568199       -15.4615
 195   2.0000      -0.568003       -15.4562
 196   2.0000      -0.566006       -15.4018
 197   2.0000      -0.563461       -15.3326
 198   2.0000      -0.559951       -15.2370
 199   2.0000      -0.559474       -15.2241
 200   2.0000      -0.557941       -15.1824
 201   2.0000      -0.556929       -15.1548
 202   2.0000      -0.553755       -15.0684
 203   2.0000      -0.551948       -15.0193
 204   2.0000      -0.549542       -14.9538
 205   2.0000      -0.546456       -14.8698
 206   2.0000      -0.541899       -14.7458
 207   2.0000      -0.538486       -14.6530
 208   2.0000      -0.537615       -14.6292
 209   2.0000      -0.536830       -14.6079
 210   2.0000      -0.534295       -14.5389
 211   2.0000      -0.531824       -14.4717
 212   2.0000      -0.527987       -14.3673
 213   2.0000      -0.525450       -14.2982
 214   2.0000      -0.523648       -14.2492
 215   2.0000      -0.522677       -14.2228
 216   2.0000      -0.518908       -14.1202
 217   2.0000      -0.518100       -14.0982
 218   2.0000      -0.514488       -13.9999
 219   2.0000      -0.511058       -13.9066
 220   2.0000      -0.510054       -13.8793
 221   2.0000      -0.506966       -13.7952
 222   2.0000      -0.505987       -13.7686
 223   2.0000      -0.502933       -13.6855
 224   2.0000      -0.498647       -13.5689
 225   2.0000      -0.496811       -13.5189
 226   2.0000      -0.493962       -13.4414
 227   2.0000      -0.487846       -13.2750
 228   2.0000      -0.484678       -13.1888
 229   2.0000      -0.482927       -13.1411
 230   2.0000      -0.478766       -13.0279
 231   2.0000      -0.478256       -13.0140
 232   2.0000      -0.475467       -12.9381
 233   2.0000      -0.471853       -12.8398
 234   2.0000      -0.471710       -12.8359
 235   2.0000      -0.465449       -12.6655
 236   2.0000      -0.460567       -12.5327
 237   2.0000      -0.459736       -12.5101
 238   2.0000      -0.458311       -12.4713
 239   2.0000      -0.455923       -12.4063
 240   2.0000      -0.455431       -12.3929
 241   2.0000      -0.452616       -12.3163
 242   2.0000      -0.450835       -12.2678
 243   2.0000      -0.449263       -12.2251
 244   2.0000      -0.446404       -12.1473
 245   2.0000      -0.446185       -12.1413
 246   2.0000      -0.441746       -12.0205
 247   2.0000      -0.437650       -11.9091
 248   2.0000      -0.433672       -11.8008
 249   2.0000      -0.431839       -11.7509
 250   2.0000      -0.431470       -11.7409
 251   2.0000      -0.424187       -11.5427
 252   2.0000      -0.422384       -11.4937
 253   2.0000      -0.417360       -11.3569
 254   2.0000      -0.415170       -11.2973
 255   2.0000      -0.410783       -11.1780
 256   2.0000      -0.402957       -10.9650
 257   2.0000      -0.399288       -10.8652
 258   2.0000      -0.397155       -10.8071
 259   2.0000      -0.394005       -10.7214
 260   2.0000      -0.392311       -10.6753
 261   2.0000      -0.390205       -10.6180
 262   2.0000      -0.388206       -10.5636
 263   2.0000      -0.386459       -10.5161
 264   2.0000      -0.385057       -10.4779
 265   2.0000      -0.381479       -10.3806
 266   2.0000      -0.378589       -10.3019
 267   2.0000      -0.376022       -10.2321
 268   2.0000      -0.371393       -10.1061
 269   2.0000      -0.367357        -9.9963
 270   2.0000      -0.366016        -9.9598
 271   2.0000      -0.363453        -9.8901
 272   2.0000      -0.358891        -9.7659
 273   2.0000      -0.357517        -9.7285
 274   2.0000      -0.354209        -9.6385
 275   2.0000      -0.349825        -9.5192
 276   2.0000      -0.345027        -9.3887
 277   2.0000      -0.340603        -9.2683
 278   2.0000      -0.334008        -9.0888
 279   2.0000      -0.325874        -8.8675
 280   2.0000      -0.318805        -8.6751
 281   2.0000      -0.310396        -8.4463
 282   2.0000      -0.301478        -8.2036
 283   2.0000      -0.289484        -7.8773
 284   2.0000      -0.266585        -7.2542
 285   2.0000      -0.220913        -6.0114
 286   0.0000      -0.120267        -3.2726
 287   0.0000      -0.098322        -2.6755
 288   0.0000      -0.077875        -2.1191
 289   0.0000      -0.073128        -1.9899
 290   0.0000      -0.058714        -1.5977

MULLIKEN ATOMIC CHARGES
-----------------------
   0 C :   -0.127885
   1 C :    0.244283
   2 F :   -0.176122
   3 C :    0.254564
   4 F :   -0.177277
   5 C :   -0.090836
   6 C :    0.101004
   7 C :    0.113573
   8 C :   -0.099180
   9 C :    0.052799
  10 C :    0.004784
  11 C :   -0.064975
  12 C :    0.170476
  13 O :   -0.215111
  14 C :   -0.130926
  15 C :    0.329206
  16 C :   -0.336405
  17 C :   -0.199519
  18 N :    0.145497
  19 C :   -0.190027
  20 N :    0.163619
  21 C :    0.029895
  22 N :   -0.019593
  23 C :   -0.114575
  24 S :    0.192877
  25 C :    0.007112
  26 N :    0.273004
  27 O :   -0.243582
  28 O :   -0.252482
  29 C :    0.009342
  30 C :    0.117827
  31 C :   -0.022314
  32 C :    0.000977
  33 C :   -0.000628
  34 C :   -0.018463
  35 C :    0.047014
  36 C :    0.025064
  37 C :   -0.030646
  38 S :    0.095485
  39 C :   -0.062356
  40 C :    0.019776
  41 C :    0.011062
  42 C :   -0.074134
  43 S :    0.092745
  44 C :   -0.001184
  45 C :   -0.065548
  46 S :    0.142056
  47 C :   -0.103019
  48 C :    0.141896
  49 C :    0.113875
  50 C :   -0.074894
  51 C :    0.096986
  52 N :    0.260904
  53 O :   -0.238010
  54 O :   -0.209324
  55 C :    0.141858
  56 N :    0.248646
  57 O :   -0.220148
  58 O :   -0.227242
  59 C :   -0.089991
  60 C :    0.032910
  61 C :   -0.017311
  62 C :   -0.110698
  63 S :    0.138192
  64 C :   -0.120844
  65 C :    0.166280
  66 C :   -0.096853
  67 S :    0.088215
  68 C :    0.010307
  69 O :   -0.135731
  70 C :    0.036592
  71 C :    0.142484
  72 O :   -0.142183
  73 O :   -0.218598
  74 C :    0.020461
  75 C :   -0.010474
  76 H :    0.021889
  77 H :   -0.006829
  78 H :    0.007699
  79 H :   -0.015734
  80 H :    0.046293
  81 H :    0.180512
  82 H :    0.014007
  83 H :   -0.001632
  84 H :    0.006727
  85 H :   -0.006883
  86 H :   -0.004396
  87 H :   -0.008136
  88 H :   -0.007565
  89 H :   -0.003486
  90 H :   -0.013618
  91 H :    0.004972
  92 H :    0.001835
  93 H :   -0.007935
  94 H :    0.016001
  95 H :    0.090245
  96 H :    0.061087
  97 H :   -0.010451
  98 H :    0.051157
  99 H :    0.029686
Sum of atomic charges:   -0.0000000

LOEWDIN ATOMIC CHARGES
----------------------
   0 C :   -0.025389
   1 C :    0.062579
   2 F :   -0.045775
   3 C :    0.067435
   4 F :   -0.053049
   5 C :   -0.031111
   6 C :   -0.014555
   7 C :   -0.009837
   8 C :    0.019916
   9 C :   -0.019821
  10 C :   -0.058494
  11 C :    0.029779
  12 C :    0.092031
  13 O :   -0.175323
  14 C :   -0.141566
  15 C :    0.075589
  16 C :   -0.144123
  17 C :   -0.019857
  18 N :   -0.052593
  19 C :   -0.023769
  20 N :   -0.042499
  21 C :    0.111254
  22 N :    0.077130
  23 C :   -0.110068
  24 S :    0.482063
  25 C :   -0.200944
  26 N :    0.272594
  27 O :   -0.209766
  28 O :   -0.218527
  29 C :    0.001549
  30 C :   -0.088249
  31 C :   -0.014876
  32 C :   -0.033301
  33 C :   -0.035207
  34 C :   -0.139048
  35 C :   -0.021168
  36 C :   -0.032079
  37 C :   -0.166354
  38 S :    0.403711
  39 C :   -0.193524
  40 C :   -0.015086
  41 C :   -0.060629
  42 C :   -0.141447
  43 S :    0.403196
  44 C :   -0.090059
  45 C :   -0.158982
  46 S :    0.487195
  47 C :   -0.168562
  48 C :   -0.038440
  49 C :   -0.046781
  50 C :    0.020333
  51 C :   -0.030992
  52 N :    0.285615
  53 O :   -0.204237
  54 O :   -0.177113
  55 C :   -0.021108
  56 N :    0.281615
  57 O :   -0.187496
  58 O :   -0.193597
  59 C :    0.024032
  60 C :   -0.047772
  61 C :   -0.044510
  62 C :   -0.180042
  63 S :    0.456522
  64 C :   -0.180723
  65 C :   -0.009496
  66 C :   -0.227874
  67 S :    0.350907
  68 C :   -0.053369
  69 O :   -0.117540
  70 C :   -0.091497
  71 C :    0.090764
  72 O :   -0.122803
  73 O :   -0.030975
  74 C :   -0.052803
  75 C :   -0.017353
  76 H :    0.048091
  77 H :    0.042555
  78 H :    0.044883
  79 H :    0.036958
  80 H :    0.036962
  81 H :    0.086139
  82 H :    0.047803
  83 H :    0.035159
  84 H :    0.017024
  85 H :    0.036496
  86 H :    0.037276
  87 H :    0.034150
  88 H :    0.035148
  89 H :    0.020406
  90 H :    0.033855
  91 H :    0.040691
  92 H :    0.043583
  93 H :    0.023000
  94 H :    0.030874
  95 H :    0.054686
  96 H :    0.062011
  97 H :    0.029393
  98 H :    0.029976
  99 H :    0.029228

  Mayer bond orders larger than 0.100000
B(  0-C ,  1-C ) :   1.4253 B(  0-C ,  5-C ) :   0.1086 B(  0-C ,  7-C ) :   1.1844
B(  0-C , 76-H ) :   1.0019 B(  1-C ,  2-F ) :   1.0940 B(  1-C ,  3-C ) :   1.2075
B(  3-C ,  4-F ) :   1.1258 B(  3-C ,  5-C ) :   1.4432 B(  5-C ,  6-C ) :   1.1990
B(  5-C , 77-H ) :   1.0040 B(  6-C ,  7-C ) :   1.2639 B(  6-C , 11-C ) :   1.1778
B(  7-C ,  8-C ) :   1.2020 B(  8-C ,  9-C ) :   1.4535 B(  8-C , 78-H ) :   0.9949
B(  9-C , 10-C ) :   1.2185 B(  9-C , 15-C ) :   0.9853 B( 10-C , 11-C ) :   1.4620
B( 10-C , 12-C ) :   0.9818 B( 11-C , 79-H ) :   1.0218 B( 12-C , 13-O ) :   2.0235
B( 12-C , 14-C ) :   0.9989 B( 13-O , 81-H ) :   0.1429 B( 14-C , 15-C ) :   1.0948
B( 14-C , 21-C ) :   1.4605 B( 15-C , 16-C ) :   1.6345 B( 16-C , 17-C ) :   1.1475
B( 16-C , 19-C ) :   1.1417 B( 17-C , 18-N ) :   2.9571 B( 19-C , 20-N ) :   2.9720
B( 21-C , 22-N ) :   1.3268 B( 21-C , 80-H ) :   0.9300 B( 22-N , 23-C ) :   1.1741
B( 22-N , 81-H ) :   0.8257 B( 23-C , 24-S ) :   1.1469 B( 23-C , 30-C ) :   1.3804
B( 24-S , 25-C ) :   1.0872 B( 25-C , 26-N ) :   0.9576 B( 25-C , 29-C ) :   1.5021
B( 26-N , 27-O ) :   1.5428 B( 26-N , 28-O ) :   1.5196 B( 27-O , 28-O ) :   0.2646
B( 29-C , 30-C ) :   1.2049 B( 29-C , 82-H ) :   1.0083 B( 30-C , 31-C ) :   1.0805
B( 31-C , 32-C ) :   1.6546 B( 31-C , 83-H ) :   0.9729 B( 32-C , 33-C ) :   1.1610
B( 32-C , 84-H ) :   0.9599 B( 33-C , 34-C ) :   1.5636 B( 33-C , 85-H ) :   0.9872
B( 34-C , 35-C ) :   1.1466 B( 34-C , 38-S ) :   1.0380 B( 35-C , 36-C ) :   1.5824
B( 35-C , 86-H ) :   0.9985 B( 36-C , 37-C ) :   1.1978 B( 36-C , 87-H ) :   0.9938
B( 37-C , 38-S ) :   1.0880 B( 37-C , 39-C ) :   1.4474 B( 39-C , 40-C ) :   1.2274
B( 39-C , 43-S ) :   1.0539 B( 40-C , 41-C ) :   1.5604 B( 40-C , 88-H ) :   0.9929
B( 41-C , 42-C ) :   1.1887 B( 41-C , 89-H ) :   0.9812 B( 42-C , 43-S ) :   1.0675
B( 42-C , 44-C ) :   1.4857 B( 44-C , 45-C ) :   1.2980 B( 44-C , 90-H ) :   0.9410
B( 45-C , 46-S ) :   1.1312 B( 45-C , 49-C ) :   1.2800 B( 46-S , 47-C ) :   1.1272
B( 47-C , 48-C ) :   1.3261 B( 47-C , 60-C ) :   1.1934 B( 48-C , 49-C ) :   1.2184
B( 48-C , 59-C ) :   1.1526 B( 49-C , 50-C ) :   1.1733 B( 50-C , 51-C ) :   1.5274
B( 50-C , 91-H ) :   0.9934 B( 51-C , 52-N ) :   0.8786 B( 51-C , 55-C ) :   1.2499
B( 52-N , 53-O ) :   1.5186 B( 52-N , 54-O ) :   1.5704 B( 53-O , 54-O ) :   0.2696
B( 55-C , 56-N ) :   0.8686 B( 55-C , 59-C ) :   1.5364 B( 56-N , 57-O ) :   1.5635
B( 56-N , 58-O ) :   1.5441 B( 57-O , 58-O ) :   0.2753 B( 59-C , 92-H ) :   0.9879
B( 60-C , 61-C ) :   1.6091 B( 60-C , 93-H ) :   0.9459 B( 61-C , 62-C ) :   1.1976
B( 61-C , 94-H ) :   0.9618 B( 62-C , 63-S ) :   1.1230 B( 62-C , 64-C ) :   0.1020
B( 62-C , 66-C ) :   1.5027 B( 63-S , 64-C ) :   1.1203 B( 64-C , 65-C ) :   1.5165
B( 64-C , 74-C ) :   1.1052 B( 65-C , 66-C ) :   1.2429 B( 65-C , 73-O ) :   1.0817
B( 66-C , 67-S ) :   0.9950 B( 67-S , 68-C ) :   0.9949 B( 67-S , 69-O ) :   0.1188
B( 68-C , 69-O ) :   2.1816 B( 68-C , 70-C ) :   0.9458 B( 70-C , 71-C ) :   0.9651
B( 70-C , 95-H ) :   0.9165 B( 70-C , 96-H ) :   0.9087 B( 71-C , 72-O ) :   2.2343
B( 71-C , 73-O ) :   1.0511 B( 74-C , 75-C ) :   1.9351 B( 74-C , 97-H ) :   0.9477
B( 75-C , 98-H ) :   0.9523 B( 75-C , 99-H ) :   0.9455

-----------------------------------------------------------------------------
         ABSORPTION SPECTRUM VIA TRANSITION ELECTRIC DIPOLE MOMENTS
-----------------------------------------------------------------------------
State   Energy  Wavelength   fosc         T2         TX        TY        TZ
        (cm-1)    (nm)                  (au**2)     (au)      (au)      (au)
-----------------------------------------------------------------------------
   0    9076.1   1101.8   0.981800559  35.61221   4.27119   3.10415  -2.78091
   1   12742.9    784.7   0.328217719   8.47947   2.13039   1.76212  -0.91425
   2   16235.2    615.9   0.030818158   0.62492   0.00393  -0.14243   0.77757
   3   17854.1    560.1   0.130690727   2.40980   1.20980   0.79810   0.55607
   4   18764.9    532.9   0.065828606   1.15490   0.07419   0.68269  -0.82664
   5   21180.3    472.1   0.270962645   4.21165  -0.30684  -0.47673   1.97236
   6   22341.2    447.6   0.486254263   7.16525   1.81172   1.75649   0.89311
   7   23015.3    434.5   0.129588393   1.85364   1.02001   0.50958   0.74401
   8   24194.3    413.3   0.136170013   1.85286   0.82299   0.77147  -0.76182
   9   24300.8    411.5   0.010260313   0.13900  -0.15358  -0.26095   0.21752
  10   25027.2    399.6   0.004468669   0.05878   0.02900   0.22208  -0.09285
  11   26532.7    376.9   0.389677385   4.83503  -1.39047  -1.24605   1.16146
  12   26780.8    373.4   0.105456585   1.29636   0.31731   0.73602  -0.80867
  13   27250.7    367.0   0.351786289   4.24989   0.42859   0.93852  -1.78476
  14   28071.5    356.2   0.141384412   1.65810   0.21652   0.42110  -1.19745
  15   28557.5    350.2   0.100599853   1.15972   0.38093   0.61356  -0.79885
  16   29002.9    344.8   0.142793881   1.62085  -0.19163   0.06685  -1.25685
  17   29139.0    343.2   0.093599082   1.05748   0.53717   0.66001  -0.57734
  18   29738.4    336.3   0.033653930   0.37256  -0.15025   0.29848  -0.51078
  19   29847.5    335.0   0.029955543   0.33040   0.28743   0.48970   0.08935
  20   30451.2    328.4   0.015146444   0.16375   0.35509  -0.13035  -0.14378
  21   30754.1    325.2   0.058046195   0.62136  -0.65396  -0.16776  -0.40688
  22   30919.5    323.4   0.050603145   0.53879  -0.16020  -0.48198   0.52993
  23   31454.6    317.9   0.145688558   1.52481   0.27094   0.51269  -1.09021
  24   31841.2    314.1   0.027160140   0.28081   0.36182   0.18611   0.33950
  25   31965.6    312.8   0.026033735   0.26812  -0.17306   0.14135  -0.46711
  26   32308.5    309.5   0.008187111   0.08342  -0.16748  -0.14088  -0.18848
  27   32816.0    304.7   0.254876635   2.55693   0.83062   1.14698  -0.74260
  28   33181.5    301.4   0.096339022   0.95583   0.48317   0.55713  -0.64186
  29   33531.9    298.2   0.017256542   0.16942  -0.02030   0.12823  -0.39060
  30   33907.2    294.9   0.978220612   9.49773  -0.28303  -1.53424   2.65777
  31   34096.3    293.3   0.031112428   0.30040  -0.32493  -0.31986  -0.30416
  32   34759.8    287.7   0.081936734   0.77603   0.54298   0.06629   0.69051
  33   35138.9    284.6   0.097435438   0.91286   0.03360  -0.33620   0.89370
  34   35215.8    284.0   0.057092560   0.53372  -0.44583   0.01174  -0.57864
  35   35369.1    282.7   0.001946307   0.01812  -0.00487   0.13029   0.03342
  36   35778.6    279.5   0.076574784   0.70459   0.42630   0.50514  -0.51739
  37   35851.3    278.9   0.034293571   0.31491   0.29799   0.47517   0.01794
  38   36350.1    275.1   0.022698775   0.20558  -0.34409  -0.02553  -0.29415
  39   36445.8    274.4   0.073238541   0.66156   0.01635   0.27641  -0.76478
  40   36469.7    274.2   0.033239191   0.30005   0.24180   0.23246  -0.43307
  41   36920.1    270.9   0.096459420   0.86012   0.69632   0.27295   0.54841
  42   37030.1    270.1   0.071738859   0.63779   0.63169  -0.03150   0.48760
  43   37116.5    269.4   0.011153133   0.09892   0.08874   0.25786  -0.15671
  44   37445.3    267.1   0.005947191   0.05229  -0.10071   0.05282  -0.19838
  45   37804.1    264.5   0.003920263   0.03414  -0.03055  -0.11850   0.13844
  46   37860.5    264.1   0.103725758   0.90194   0.70594   0.15294   0.61660
  47   37956.1    263.5   0.007596350   0.06589  -0.15554   0.00589  -0.20411
  48   38182.3    261.9   0.024074393   0.20757   0.29083   0.12345   0.32826
  49   38184.6    261.9   0.011549033   0.09957   0.04609  -0.02643   0.31104
  50   38277.4    261.3   0.004716427   0.04056  -0.04256  -0.07224   0.18312
  51   38512.7    259.7   0.079503976   0.67961  -0.64636  -0.50078  -0.10514
  52   38597.0    259.1   0.041713630   0.35580   0.47952   0.32178   0.14939
  53   38790.7    257.8   0.008043034   0.06826  -0.11055  -0.12218   0.20276
  54   39066.7    256.0   0.002045332   0.01724  -0.04874   0.12168  -0.00747
  55   39147.9    255.4   0.063642591   0.53520  -0.55123   0.06188  -0.47699
  56   39231.5    254.9   0.006305322   0.05291   0.17125  -0.02062  -0.15218
  57   39411.0    253.7   0.017453086   0.14579  -0.20291  -0.31729   0.06278
  58   39776.8    251.4   0.024537442   0.20308   0.19808  -0.18994   0.35745
  59   39891.7    250.7   0.039904727   0.32932   0.06179   0.07308  -0.56583
  60   40163.9    249.0   0.014677102   0.12030   0.06239   0.10627  -0.32422

FINAL SINGLE POINT ENERGY     -5660.460595654497

DIPOLE MOMENT
-------------
                                X             Y             Z
Electronic contribution:     10.83778       6.84158      30.50621
Nuclear contribution   :    -16.38024      -8.53173     -36.29572
                        -----------------------------------------
Total Dipole Moment    :     -5.54246      -1.69016      -5.78951
                        -----------------------------------------
Magnitude (a.u.)       :      8.19109
Magnitude (Debye)      :     20.82008

Rotational constants in cm-1:     0.001803     0.000287     0.000258
Rotational constants in MHz :    54.052926     8.607350     7.730621

                             ****ORCA TERMINATED NORMALLY****
TOTAL RUN TIME: 0 days 0 hours 11 minutes 39 seconds 450 msec
