                         Program Version 4.2.0 -  RELEASE  -
|  1> # ORCA input file
|  2> # SCF done       -184.068888146263          0.000795442620
|  3> ! CAM-B3LYP def2-SVP def2/J RIJCOSX Grid4 TightSCF
|  4> %maxcore 5000
|  5> %tddft
|  6>     Mode sTDDFT
|  7>     Ethresh 5.0
|  8>     maxcore 5000
|  9> end
| 10>
| 11> %pal
| 12>   nprocs 6
| 13>   end
| 14> * xyz 0 1
| 15>    C        3.86480        -5.63521         1.57319
| 16>    C        3.37649        -6.16703         2.73381
| 17>    F        4.21437        -6.52709         3.71422
| 18>    C        1.98967        -6.34179         2.91528
| 19>    F        1.53918        -6.86310         4.06391
| 20>    C        1.10997        -5.98183         1.93299
| 21>    C        1.58232        -5.42948         0.72672
| 22>    C        2.98422        -5.25321         0.54120
| 23>    C        3.48155        -4.70096        -0.66182
| 24>    C        2.60395        -4.33661        -1.64872
| 25>    C        1.20621        -4.51486        -1.45281
| 26>    C        0.69553        -5.04294        -0.30256
| 27>    C        0.48143        -4.03766        -2.64231
| 28>    O       -0.72498        -3.94504        -2.77095
| 29>    C        1.51911        -3.58165        -3.58850
| 30>    C        2.81893        -3.75520        -2.97142
| 31>    C        4.03963        -3.48586        -3.53196
| 32>    C        4.23301        -2.97165        -4.83063
| 33>    N        4.44970        -2.55630        -5.87921
| 34>    C        5.27319        -3.69347        -2.87948
| 35>    N        6.30700        -3.82991        -2.39998
| 36>    C        1.26068        -2.93551        -4.76763
| 37>    N        0.07942        -2.92679        -5.41776
| 38>    C       -0.90083        -3.89435        -5.34840
| 39>    S       -0.46833        -5.57206        -5.28806
| 40>    C       -2.14605        -5.98210        -5.35971
| 41>    N       -2.48830        -7.34218        -5.30415
| 42>    O       -3.66686        -7.63150        -5.36513
| 43>    O       -1.56855        -8.13318        -5.19723
| 44>    C       -2.97651        -4.89847        -5.43743
| 45>    C       -2.27368        -3.67599        -5.43792
| 46>    C       -2.85273        -2.35517        -5.40955
| 47>    C       -4.16625        -2.10636        -5.27726
| 48>    C       -4.80003        -0.81789        -5.14027
| 49>    C       -4.30593         0.29576        -4.58414
| 50>    C       -2.94173         0.42610        -3.98222
| 51>    C       -5.13439         1.56070        -4.47714
| 52>    N       -6.52325         1.44888        -4.83100
| 53>    C       -7.00849         1.48584        -6.09532
| 54>    C       -6.27665         1.66369        -7.21882
| 55>    C       -6.80347         1.78323        -8.53785
| 56>    S       -5.74276         1.41708        -9.86616
| 57>    C       -6.98371         1.75882       -11.03916
| 58>    C       -8.15422         2.14099       -10.41445
| 59>    C       -8.04777         2.17191        -9.00508
| 60>    C       -9.17628         2.62852        -8.13439
| 61>    F       -9.81431         1.55016        -7.54520
| 62>    C      -10.17851         3.42883        -8.96849
| 63>    F      -11.26078         3.78638        -8.20707
| 64>    C      -10.60973         2.66204       -10.21805
| 65>    F      -11.07615         1.41048        -9.92158
| 66>    C       -9.40071         2.52527       -11.14986
| 67>    F       -9.22204         3.75262       -11.77548
| 68>    C       -6.65837         1.61495       -12.41655
| 69>    S       -7.71678         1.95662       -13.76743
| 70>    C       -6.55567         1.52327       -14.95379
| 71>    C       -5.38236         1.13037       -14.35911
| 72>    C       -5.45502         1.18872       -12.93205
| 73>    O       -4.29078         0.79684       -12.37054
| 74>    C       -3.47874         0.49211       -13.41984
| 75>    N       -2.16989         0.04064       -13.12248
| 76>    O       -1.45339        -0.20723       -14.07353
| 77>    O       -1.85728        -0.06923       -11.95629
| 78>    C       -4.06646         0.66820       -14.64262
| 79>    H        4.92925        -5.50970         1.45034
| 80>    H        0.05156        -6.12267         2.08695
| 81>    H        4.54697        -4.57764        -0.76891
| 82>    H       -0.36984        -5.16668        -0.18100
| 83>    H        2.03413        -2.34025        -5.23550
| 84>    H       -0.06113        -2.20317        -6.11251
| 85>    H       -4.04463        -5.00154        -5.48417
| 86>    H       -2.15477        -1.53639        -5.48173
| 87>    H       -4.85604        -2.93957        -5.27546
| 88>    H       -5.82605        -0.79872        -5.48617
| 89>    H       -2.21971         0.74696        -4.73364
| 90>    H       -2.61012        -0.52298        -3.56670
| 91>    H       -2.94427         1.17425        -3.19167
| 92>    H       -4.67744         2.33224        -5.10781
| 93>    H       -5.08669         1.92029        -3.44329
| 94>    H       -7.13125         1.07574        -4.12042
| 95>    H       -8.07769         1.35877        -6.14778
| 96>    H       -5.19842         1.64989        -7.16420
| 97>    H       -8.81288         3.24196        -7.29761
| 98>    H       -9.70444         4.36442        -9.29635
| 99>    H      -11.42361         3.19502       -10.72557
|100>    H       -9.63359         1.80756       -11.94780
|101>    H       -6.80689         1.58051       -15.99220
|102>    H       -3.60991         0.48903       -15.59389
|103> *
|104>
|105>                          ****END OF INPUT****

CARTESIAN COORDINATES (ANGSTROEM)
---------------------------------
  C      3.864800   -5.635210    1.573190
  C      3.376490   -6.167030    2.733810
  F      4.214370   -6.527090    3.714220
  C      1.989670   -6.341790    2.915280
  F      1.539180   -6.863100    4.063910
  C      1.109970   -5.981830    1.932990
  C      1.582320   -5.429480    0.726720
  C      2.984220   -5.253210    0.541200
  C      3.481550   -4.700960   -0.661820
  C      2.603950   -4.336610   -1.648720
  C      1.206210   -4.514860   -1.452810
  C      0.695530   -5.042940   -0.302560
  C      0.481430   -4.037660   -2.642310
  O     -0.724980   -3.945040   -2.770950
  C      1.519110   -3.581650   -3.588500
  C      2.818930   -3.755200   -2.971420
  C      4.039630   -3.485860   -3.531960
  C      4.233010   -2.971650   -4.830630
  N      4.449700   -2.556300   -5.879210
  C      5.273190   -3.693470   -2.879480
  N      6.307000   -3.829910   -2.399980
  C      1.260680   -2.935510   -4.767630
  N      0.079420   -2.926790   -5.417760
  C     -0.900830   -3.894350   -5.348400
  S     -0.468330   -5.572060   -5.288060
  C     -2.146050   -5.982100   -5.359710
  N     -2.488300   -7.342180   -5.304150
  O     -3.666860   -7.631500   -5.365130
  O     -1.568550   -8.133180   -5.197230
  C     -2.976510   -4.898470   -5.437430
  C     -2.273680   -3.675990   -5.437920
  C     -2.852730   -2.355170   -5.409550
  C     -4.166250   -2.106360   -5.277260
  C     -4.800030   -0.817890   -5.140270
  C     -4.305930    0.295760   -4.584140
  C     -2.941730    0.426100   -3.982220
  C     -5.134390    1.560700   -4.477140
  N     -6.523250    1.448880   -4.831000
  C     -7.008490    1.485840   -6.095320
  C     -6.276650    1.663690   -7.218820
  C     -6.803470    1.783230   -8.537850
  S     -5.742760    1.417080   -9.866160
  C     -6.983710    1.758820  -11.039160
  C     -8.154220    2.140990  -10.414450
  C     -8.047770    2.171910   -9.005080
  C     -9.176280    2.628520   -8.134390
  F     -9.814310    1.550160   -7.545200
  C    -10.178510    3.428830   -8.968490
  F    -11.260780    3.786380   -8.207070
  C    -10.609730    2.662040  -10.218050
  F    -11.076150    1.410480   -9.921580
  C     -9.400710    2.525270  -11.149860
  F     -9.222040    3.752620  -11.775480
  C     -6.658370    1.614950  -12.416550
  S     -7.716780    1.956620  -13.767430
  C     -6.555670    1.523270  -14.953790
  C     -5.382360    1.130370  -14.359110
  C     -5.455020    1.188720  -12.932050
  O     -4.290780    0.796840  -12.370540
  C     -3.478740    0.492110  -13.419840
  N     -2.169890    0.040640  -13.122480
  O     -1.453390   -0.207230  -14.073530
  O     -1.857280   -0.069230  -11.956290
  C     -4.066460    0.668200  -14.642620
  H      4.929250   -5.509700    1.450340
  H      0.051560   -6.122670    2.086950
  H      4.546970   -4.577640   -0.768910
  H     -0.369840   -5.166680   -0.181000
  H      2.034130   -2.340250   -5.235500
  H     -0.061130   -2.203170   -6.112510
  H     -4.044630   -5.001540   -5.484170
  H     -2.154770   -1.536390   -5.481730
  H     -4.856040   -2.939570   -5.275460
  H     -5.826050   -0.798720   -5.486170
  H     -2.219710    0.746960   -4.733640
  H     -2.610120   -0.522980   -3.566700
  H     -2.944270    1.174250   -3.191670
  H     -4.677440    2.332240   -5.107810
  H     -5.086690    1.920290   -3.443290
  H     -7.131250    1.075740   -4.120420
  H     -8.077690    1.358770   -6.147780
  H     -5.198420    1.649890   -7.164200
  H     -8.812880    3.241960   -7.297610
  H     -9.704440    4.364420   -9.296350
  H    -11.423610    3.195020  -10.725570
  H     -9.633590    1.807560  -11.947800
  H     -6.806890    1.580510  -15.992200
  H     -3.609910    0.489030  -15.593890

 Total Charge           Charge          ....    0
 Multiplicity           Mult            ....    1
 Number of Electrons    NEL             ....  474
 Basis Dimension        Dim             .... 1028

ORBITAL ENERGIES
----------------

  NO   OCC          E(Eh)            E(eV)
   0   2.0000     -88.983473     -2421.3634
   1   2.0000     -88.982956     -2421.3493
   2   2.0000     -88.958361     -2420.6801
   3   2.0000     -24.799994      -674.8421
   4   2.0000     -24.799122      -674.8184
   5   2.0000     -24.764549      -673.8776
   6   2.0000     -24.760278      -673.7614
   7   2.0000     -24.757979      -673.6989
   8   2.0000     -24.753410      -673.5745
   9   2.0000     -19.314033      -525.5616
  10   2.0000     -19.248517      -523.7788
  11   2.0000     -19.246514      -523.7243
  12   2.0000     -19.240636      -523.5643
  13   2.0000     -19.240346      -523.5564
  14   2.0000     -19.221213      -523.0358
  15   2.0000     -14.660258      -398.9259
  16   2.0000     -14.651747      -398.6943
  17   2.0000     -14.507428      -394.7672
  18   2.0000     -14.445629      -393.0855
  19   2.0000     -14.422576      -392.4582
  20   2.0000     -14.417650      -392.3242
  21   2.0000     -10.392303      -282.7889
  22   2.0000     -10.383382      -282.5462
  23   2.0000     -10.382526      -282.5229
  24   2.0000     -10.374428      -282.3025
  25   2.0000     -10.374074      -282.2929
  26   2.0000     -10.366005      -282.0733
  27   2.0000     -10.363491      -282.0049
  28   2.0000     -10.357883      -281.8523
  29   2.0000     -10.357242      -281.8349
  30   2.0000     -10.356912      -281.8259
  31   2.0000     -10.349827      -281.6331
  32   2.0000     -10.348909      -281.6081
  33   2.0000     -10.346459      -281.5415
  34   2.0000     -10.345059      -281.5034
  35   2.0000     -10.326681      -281.0033
  36   2.0000     -10.325426      -280.9691
  37   2.0000     -10.323854      -280.9264
  38   2.0000     -10.322274      -280.8834
  39   2.0000     -10.320896      -280.8458
  40   2.0000     -10.317598      -280.7561
  41   2.0000     -10.316632      -280.7298
  42   2.0000     -10.314810      -280.6803
  43   2.0000     -10.312716      -280.6233
  44   2.0000     -10.312396      -280.6146
  45   2.0000     -10.310859      -280.5728
  46   2.0000     -10.310354      -280.5590
  47   2.0000     -10.308779      -280.5162
  48   2.0000     -10.305474      -280.4262
  49   2.0000     -10.305039      -280.4144
  50   2.0000     -10.304516      -280.4001
  51   2.0000     -10.303488      -280.3722
  52   2.0000     -10.303110      -280.3619
  53   2.0000     -10.303076      -280.3609
  54   2.0000     -10.302330      -280.3407
  55   2.0000     -10.296265      -280.1756
  56   2.0000     -10.293760      -280.1075
  57   2.0000     -10.292717      -280.0791
  58   2.0000     -10.289421      -279.9894
  59   2.0000     -10.288469      -279.9635
  60   2.0000     -10.280043      -279.7342
  61   2.0000     -10.278818      -279.7008
  62   2.0000     -10.276112      -279.6272
  63   2.0000     -10.266965      -279.3783
  64   2.0000      -8.078947      -219.8393
  65   2.0000      -8.077269      -219.7937
  66   2.0000      -8.054175      -219.1652
  67   2.0000      -6.048518      -164.5886
  68   2.0000      -6.046723      -164.5397
  69   2.0000      -6.044197      -164.4710
  70   2.0000      -6.042118      -164.4144
  71   2.0000      -6.040454      -164.3691
  72   2.0000      -6.039668      -164.3477
  73   2.0000      -6.023560      -163.9094
  74   2.0000      -6.019287      -163.7931
  75   2.0000      -6.016049      -163.7050
  76   2.0000      -1.331640       -36.2358
  77   2.0000      -1.322619       -35.9903
  78   2.0000      -1.322313       -35.9820
  79   2.0000      -1.307754       -35.5858
  80   2.0000      -1.284353       -34.9490
  81   2.0000      -1.274334       -34.6764
  82   2.0000      -1.268425       -34.5156
  83   2.0000      -1.259900       -34.2836
  84   2.0000      -1.234176       -33.5836
  85   2.0000      -1.147947       -31.2372
  86   2.0000      -1.141422       -31.0597
  87   2.0000      -1.138587       -30.9825
  88   2.0000      -1.103311       -30.0226
  89   2.0000      -1.045702       -28.4550
  90   2.0000      -1.024287       -27.8723
  91   2.0000      -1.009142       -27.4601
  92   2.0000      -1.008818       -27.4513
  93   2.0000      -1.007243       -27.4085
  94   2.0000      -0.998682       -27.1755
  95   2.0000      -0.988935       -26.9103
  96   2.0000      -0.983867       -26.7724
  97   2.0000      -0.940422       -25.5902
  98   2.0000      -0.935259       -25.4497
  99   2.0000      -0.932316       -25.3696
 100   2.0000      -0.917552       -24.9678
 101   2.0000      -0.913320       -24.8527
 102   2.0000      -0.902864       -24.5682
 103   2.0000      -0.899957       -24.4891
 104   2.0000      -0.894358       -24.3367
 105   2.0000      -0.887364       -24.1464
 106   2.0000      -0.882356       -24.0101
 107   2.0000      -0.865815       -23.5600
 108   2.0000      -0.853744       -23.2316
 109   2.0000      -0.844735       -22.9864
 110   2.0000      -0.843160       -22.9436
 111   2.0000      -0.839527       -22.8447
 112   2.0000      -0.831279       -22.6203
 113   2.0000      -0.817199       -22.2371
 114   2.0000      -0.800969       -21.7955
 115   2.0000      -0.796385       -21.6707
 116   2.0000      -0.792862       -21.5749
 117   2.0000      -0.773866       -21.0580
 118   2.0000      -0.771597       -20.9962
 119   2.0000      -0.768764       -20.9191
 120   2.0000      -0.738673       -20.1003
 121   2.0000      -0.738056       -20.0835
 122   2.0000      -0.727729       -19.8025
 123   2.0000      -0.721848       -19.6425
 124   2.0000      -0.715480       -19.4692
 125   2.0000      -0.713810       -19.4237
 126   2.0000      -0.703131       -19.1332
 127   2.0000      -0.701225       -19.0813
 128   2.0000      -0.691685       -18.8217
 129   2.0000      -0.679732       -18.4965
 130   2.0000      -0.672097       -18.2887
 131   2.0000      -0.664934       -18.0938
 132   2.0000      -0.661706       -18.0059
 133   2.0000      -0.658836       -17.9278
 134   2.0000      -0.646328       -17.5875
 135   2.0000      -0.645739       -17.5714
 136   2.0000      -0.645012       -17.5517
 137   2.0000      -0.644618       -17.5410
 138   2.0000      -0.640879       -17.4392
 139   2.0000      -0.638688       -17.3796
 140   2.0000      -0.635606       -17.2957
 141   2.0000      -0.633272       -17.2322
 142   2.0000      -0.632129       -17.2011
 143   2.0000      -0.623701       -16.9718
 144   2.0000      -0.615902       -16.7595
 145   2.0000      -0.614453       -16.7201
 146   2.0000      -0.608861       -16.5679
 147   2.0000      -0.607458       -16.5298
 148   2.0000      -0.601781       -16.3753
 149   2.0000      -0.599986       -16.3264
 150   2.0000      -0.592546       -16.1240
 151   2.0000      -0.590443       -16.0668
 152   2.0000      -0.589583       -16.0434
 153   2.0000      -0.587123       -15.9764
 154   2.0000      -0.586745       -15.9661
 155   2.0000      -0.582618       -15.8538
 156   2.0000      -0.578126       -15.7316
 157   2.0000      -0.575518       -15.6606
 158   2.0000      -0.571674       -15.5560
 159   2.0000      -0.568885       -15.4802
 160   2.0000      -0.565904       -15.3990
 161   2.0000      -0.560178       -15.2432
 162   2.0000      -0.557200       -15.1622
 163   2.0000      -0.554957       -15.1011
 164   2.0000      -0.552475       -15.0336
 165   2.0000      -0.551090       -14.9959
 166   2.0000      -0.548888       -14.9360
 167   2.0000      -0.548711       -14.9312
 168   2.0000      -0.544422       -14.8145
 169   2.0000      -0.538586       -14.6557
 170   2.0000      -0.535326       -14.5670
 171   2.0000      -0.533359       -14.5134
 172   2.0000      -0.529816       -14.4170
 173   2.0000      -0.527180       -14.3453
 174   2.0000      -0.524803       -14.2806
 175   2.0000      -0.518694       -14.1144
 176   2.0000      -0.518012       -14.0958
 177   2.0000      -0.517922       -14.0934
 178   2.0000      -0.513493       -13.9729
 179   2.0000      -0.506625       -13.7860
 180   2.0000      -0.503426       -13.6989
 181   2.0000      -0.502988       -13.6870
 182   2.0000      -0.497375       -13.5343
 183   2.0000      -0.494713       -13.4618
 184   2.0000      -0.491569       -13.3763
 185   2.0000      -0.485889       -13.2217
 186   2.0000      -0.485606       -13.2140
 187   2.0000      -0.484007       -13.1705
 188   2.0000      -0.482742       -13.1361
 189   2.0000      -0.476304       -12.9609
 190   2.0000      -0.473157       -12.8752
 191   2.0000      -0.469832       -12.7848
 192   2.0000      -0.466582       -12.6963
 193   2.0000      -0.466182       -12.6855
 194   2.0000      -0.464822       -12.6485
 195   2.0000      -0.460622       -12.5342
 196   2.0000      -0.459231       -12.4963
 197   2.0000      -0.454832       -12.3766
 198   2.0000      -0.454193       -12.3592
 199   2.0000      -0.450751       -12.2656
 200   2.0000      -0.450001       -12.2451
 201   2.0000      -0.447318       -12.1721
 202   2.0000      -0.440302       -11.9812
 203   2.0000      -0.439198       -11.9512
 204   2.0000      -0.436922       -11.8893
 205   2.0000      -0.435190       -11.8421
 206   2.0000      -0.430754       -11.7214
 207   2.0000      -0.430692       -11.7197
 208   2.0000      -0.429637       -11.6910
 209   2.0000      -0.426631       -11.6092
 210   2.0000      -0.418955       -11.4003
 211   2.0000      -0.414192       -11.2707
 212   2.0000      -0.407313       -11.0835
 213   2.0000      -0.403104       -10.9690
 214   2.0000      -0.401719       -10.9313
 215   2.0000      -0.400293       -10.8925
 216   2.0000      -0.396186       -10.7808
 217   2.0000      -0.394670       -10.7395
 218   2.0000      -0.387495       -10.5443
 219   2.0000      -0.384721       -10.4688
 220   2.0000      -0.384016       -10.4496
 221   2.0000      -0.383671       -10.4402
 222   2.0000      -0.380186       -10.3454
 223   2.0000      -0.376129       -10.2350
 224   2.0000      -0.368486       -10.0270
 225   2.0000      -0.359607        -9.7854
 226   2.0000      -0.357925        -9.7396
 227   2.0000      -0.352123        -9.5817
 228   2.0000      -0.332204        -9.0397
 229   2.0000      -0.330233        -8.9861
 230   2.0000      -0.323757        -8.8099
 231   2.0000      -0.319520        -8.6946
 232   2.0000      -0.311954        -8.4887
 233   2.0000      -0.300448        -8.1756
 234   2.0000      -0.297632        -8.0990
 235   2.0000      -0.274980        -7.4826
 236   2.0000      -0.241804        -6.5798
 237   0.0000      -0.090371        -2.4591
 238   0.0000      -0.070290        -1.9127
 239   0.0000      -0.066300        -1.8041
 240   0.0000      -0.050772        -1.3816
 241   0.0000      -0.029393        -0.7998

MULLIKEN ATOMIC CHARGES
-----------------------
   0 C :   -0.113697
   1 C :    0.244849
   2 F :   -0.169633
   3 C :    0.241724
   4 F :   -0.171346
   5 C :   -0.110423
   6 C :    0.120728
   7 C :    0.117727
   8 C :   -0.091381
   9 C :    0.052474
  10 C :    0.011306
  11 C :   -0.085805
  12 C :    0.153512
  13 O :   -0.156208
  14 C :   -0.172216
  15 C :    0.315884
  16 C :   -0.344959
  17 C :   -0.212746
  18 N :    0.153682
  19 C :   -0.180611
  20 N :    0.145710
  21 C :    0.042145
  22 N :   -0.021432
  23 C :   -0.100332
  24 S :    0.193092
  25 C :    0.001277
  26 N :    0.276819
  27 O :   -0.244739
  28 O :   -0.258069
  29 C :   -0.003880
  30 C :    0.151262
  31 C :   -0.015073
  32 C :    0.016500
  33 C :    0.026895
  34 C :   -0.219740
  35 C :    0.070793
  36 C :    0.193537
  37 N :   -0.157894
  38 C :    0.046704
  39 C :   -0.046423
  40 C :   -0.095076
  41 S :    0.152220
  42 C :   -0.094300
  43 C :   -0.084265
  44 C :   -0.081472
  45 C :    0.307263
  46 F :   -0.245368
  47 C :    0.191760
  48 F :   -0.235464
  49 C :    0.241771
  50 F :   -0.232106
  51 C :    0.257837
  52 F :   -0.255216
  53 C :   -0.186544
  54 S :    0.161694
  55 C :   -0.133427
  56 C :    0.132621
  57 C :    0.170130
  58 O :   -0.195025
  59 C :    0.245183
  60 N :    0.272460
  61 O :   -0.247516
  62 O :   -0.233281
  63 C :   -0.078271
  64 H :    0.008573
  65 H :    0.000638
  66 H :   -0.005179
  67 H :   -0.010014
  68 H :    0.047092
  69 H :    0.170267
  70 H :    0.011687
  71 H :   -0.049502
  72 H :   -0.006819
  73 H :   -0.013152
  74 H :    0.034922
  75 H :    0.042973
  76 H :    0.011664
  77 H :    0.032546
  78 H :    0.022748
  79 H :    0.128888
  80 H :    0.025689
  81 H :   -0.021246
  82 H :    0.010867
  83 H :    0.028187
  84 H :    0.021395
  85 H :    0.023555
  86 H :    0.034215
  87 H :    0.014385
Sum of atomic charges:    0.0000000

LOEWDIN ATOMIC CHARGES
----------------------
   0 C :   -0.028903
   1 C :    0.066577
   2 F :   -0.048110
   3 C :    0.068345
   4 F :   -0.048734
   5 C :   -0.033265
   6 C :   -0.008261
   7 C :   -0.007144
   8 C :    0.019433
   9 C :   -0.023624
  10 C :   -0.050724
  11 C :    0.029546
  12 C :    0.072354
  13 O :   -0.155377
  14 C :   -0.152467
  15 C :    0.081289
  16 C :   -0.148944
  17 C :   -0.023998
  18 N :   -0.055554
  19 C :   -0.018475
  20 N :   -0.054342
  21 C :    0.106182
  22 N :    0.065736
  23 C :   -0.116335
  24 S :    0.481350
  25 C :   -0.193529
  26 N :    0.273872
  27 O :   -0.210465
  28 O :   -0.223962
  29 C :    0.001224
  30 C :   -0.066920
  31 C :   -0.030764
  32 C :   -0.009575
  33 C :   -0.058487
  34 C :   -0.029263
  35 C :   -0.052133
  36 C :    0.036659
  37 N :    0.000832
  38 C :    0.046987
  39 C :   -0.154776
  40 C :   -0.133165
  41 S :    0.461115
  42 C :   -0.185072
  43 C :   -0.082890
  44 C :   -0.107621
  45 C :    0.094128
  46 F :   -0.124174
  47 C :    0.074260
  48 F :   -0.113358
  49 C :    0.084605
  50 F :   -0.108384
  51 C :    0.090031
  52 F :   -0.133373
  53 C :   -0.215904
  54 S :    0.500016
  55 C :   -0.189807
  56 C :   -0.081359
  57 C :    0.008805
  58 O :   -0.005643
  59 C :    0.027484
  60 N :    0.272279
  61 O :   -0.208234
  62 O :   -0.195091
  63 C :   -0.006676
  64 H :    0.048023
  65 H :    0.045089
  66 H :    0.040396
  67 H :    0.040352
  68 H :    0.045151
  69 H :    0.107105
  70 H :    0.043786
  71 H :    0.019122
  72 H :    0.029777
  73 H :    0.028469
  74 H :    0.035614
  75 H :    0.039866
  76 H :    0.028878
  77 H :    0.036146
  78 H :    0.032979
  79 H :    0.082248
  80 H :    0.028453
  81 H :    0.022138
  82 H :    0.023861
  83 H :    0.031762
  84 H :    0.028105
  85 H :    0.016417
  86 H :    0.030109
  87 H :    0.047927

  Mayer bond orders larger than 0.100000
B(  0-C ,  1-C ) :   1.4392 B(  0-C ,  5-C ) :   0.1088 B(  0-C ,  7-C ) :   1.1878
B(  0-C , 64-H ) :   1.0080 B(  1-C ,  2-F ) :   1.1365 B(  1-C ,  3-C ) :   1.1921
B(  3-C ,  4-F ) :   1.1328 B(  3-C ,  5-C ) :   1.4412 B(  5-C ,  6-C ) :   1.1907
B(  5-C , 65-H ) :   1.0081 B(  6-C ,  7-C ) :   1.2578 B(  6-C , 11-C ) :   1.1834
B(  7-C ,  8-C ) :   1.2136 B(  8-C ,  9-C ) :   1.4490 B(  8-C , 66-H ) :   0.9909
B(  9-C , 10-C ) :   1.2240 B(  9-C , 15-C ) :   0.9916 B( 10-C , 11-C ) :   1.4729
B( 10-C , 12-C ) :   0.9402 B( 11-C , 67-H ) :   1.0188 B( 12-C , 13-O ) :   2.2152
B( 12-C , 14-C ) :   0.9506 B( 14-C , 15-C ) :   1.1104 B( 14-C , 21-C ) :   1.5068
B( 15-C , 16-C ) :   1.6320 B( 16-C , 17-C ) :   1.1396 B( 16-C , 19-C ) :   1.1473
B( 17-C , 18-N ) :   2.9809 B( 19-C , 20-N ) :   2.9608 B( 21-C , 22-N ) :   1.3123
B( 21-C , 68-H ) :   0.9364 B( 22-N , 23-C ) :   1.0768 B( 22-N , 69-H ) :   0.9106
B( 23-C , 24-S ) :   1.1367 B( 23-C , 30-C ) :   1.4404 B( 24-S , 25-C ) :   1.1094
B( 25-C , 26-N ) :   0.9566 B( 25-C , 29-C ) :   1.5091 B( 26-N , 27-O ) :   1.5395
B( 26-N , 28-O ) :   1.5207 B( 27-O , 28-O ) :   0.2640 B( 29-C , 30-C ) :   1.2104
B( 29-C , 70-H ) :   0.9960 B( 30-C , 31-C ) :   1.0746 B( 31-C , 32-C ) :   1.7731
B( 31-C , 71-H ) :   0.9622 B( 32-C , 33-C ) :   1.0924 B( 32-C , 72-H ) :   0.9542
B( 33-C , 34-C ) :   1.8548 B( 33-C , 73-H ) :   0.9329 B( 34-C , 35-C ) :   1.0888
B( 34-C , 36-C ) :   1.0029 B( 35-C , 74-H ) :   0.9431 B( 35-C , 75-H ) :   0.9423
B( 35-C , 76-H ) :   0.9504 B( 36-C , 37-N ) :   1.0443 B( 36-C , 77-H ) :   0.9164
B( 36-C , 78-H ) :   0.9360 B( 37-N , 38-C ) :   1.2156 B( 37-N , 79-H ) :   0.9403
B( 38-C , 39-C ) :   1.6497 B( 38-C , 80-H ) :   0.9516 B( 39-C , 40-C ) :   1.1287
B( 39-C , 81-H ) :   0.9380 B( 40-C , 41-S ) :   1.1304 B( 40-C , 44-C ) :   1.5362
B( 41-S , 42-C ) :   1.1248 B( 42-C , 43-C ) :   1.5507 B( 42-C , 53-C ) :   1.1410
B( 43-C , 44-C ) :   1.3089 B( 43-C , 51-C ) :   0.9770 B( 44-C , 45-C ) :   0.9706
B( 45-C , 46-F ) :   0.9873 B( 45-C , 47-C ) :   0.9913 B( 45-C , 82-H ) :   0.9244
B( 47-C , 48-F ) :   1.0472 B( 47-C , 49-C ) :   0.9983 B( 47-C , 83-H ) :   0.9343
B( 49-C , 50-F ) :   1.0444 B( 49-C , 51-C ) :   0.9931 B( 49-C , 84-H ) :   0.9276
B( 51-C , 52-F ) :   1.0146 B( 51-C , 85-H ) :   0.9090 B( 53-C , 54-S ) :   1.1445
B( 53-C , 55-C ) :   0.1202 B( 53-C , 57-C ) :   1.4813 B( 54-S , 55-C ) :   1.1860
B( 55-C , 56-C ) :   1.4351 B( 55-C , 86-H ) :   0.9757 B( 56-C , 57-C ) :   1.2161
B( 56-C , 63-C ) :   1.0547 B( 57-C , 58-O ) :   1.0978 B( 58-O , 59-C ) :   1.1177
B( 59-C , 60-N ) :   0.9150 B( 59-C , 63-C ) :   1.5810 B( 60-N , 61-O ) :   1.5353
B( 60-N , 62-O ) :   1.5142 B( 61-O , 62-O ) :   0.2799 B( 63-C , 87-H ) :   1.0267

-----------------------------------------------------------------------------
         ABSORPTION SPECTRUM VIA TRANSITION ELECTRIC DIPOLE MOMENTS
-----------------------------------------------------------------------------
State   Energy  Wavelength   fosc         T2         TX        TY        TZ
        (cm-1)    (nm)                  (au**2)     (au)      (au)      (au)
-----------------------------------------------------------------------------
   0   21238.3    470.8   0.179106203   2.77631   0.15997  -0.04628   1.65788
   1   22621.1    442.1   0.363351688   5.28798  -2.02463   0.03574  -1.08976
   2   23849.3    419.3   0.108414490   1.49654   1.05570   0.13112   0.60402
   3   26934.2    371.3   0.019996126   0.24441   0.14691   0.01010  -0.47194
   4   28561.9    350.1   0.055973000   0.64516   0.64925   0.44282  -0.16597
   5   29045.2    344.3   0.008649807   0.09804   0.01833  -0.01063   0.31240
   6   29210.5    342.3   0.019565685   0.22051   0.26377   0.14790  -0.35925
   7   29389.2    340.3   0.672017251   7.52781   0.54899   0.16787  -2.68295
   8   30102.5    332.2   0.081832620   0.89495   0.53752  -0.77681   0.05099
   9   30502.5    327.8   0.227159113   2.45171  -0.43122  -0.56521  -1.39510
  10   30714.1    325.6   0.064725710   0.69377  -0.42045   0.17453  -0.69752
  11   31199.1    320.5   0.156411230   1.65045  -0.10215   1.14503  -0.57352
  12   32504.1    307.7   0.263446727   2.66827  -0.75964  -0.20951   1.43085
  13   32873.4    304.2   0.004097962   0.04104   0.14073  -0.12857   0.06858
  14   32880.6    304.1   0.024374124   0.24404  -0.27859   0.40511  -0.04811
  15   33021.8    302.8   0.122356349   1.21983  -0.22652   0.02396  -1.08072
  16   34074.1    293.5   0.100701611   0.97294   0.46741  -0.24305   0.83390
  17   34487.8    290.0   0.215207557   2.05432   0.57309   0.32564  -1.27273
  18   34702.6    288.2   0.435215055   4.12874  -0.57613  -1.19136   1.54191
  19   36057.0    277.3   0.000595475   0.00544   0.01217  -0.01865  -0.07029
  20   36587.9    273.3   0.520204368   4.68072  -1.97492   0.69152  -0.54974
  21   37279.3    268.2   0.054706621   0.48311   0.33810  -0.12810  -0.59363
  22   37928.0    263.7   0.579303694   5.02831  -2.13278   0.68235  -0.11812
  23   38529.4    259.5   0.312534067   2.67043   0.53905  -1.52271  -0.24741
  24   38942.3    256.8   0.201732580   1.70541   1.16930  -0.52952  -0.24031
  25   39902.9    250.6   0.302306416   2.49413   0.14945  -1.10092   1.12240
  26   40274.6    248.3   0.012159001   0.09939   0.13152  -0.03428  -0.28446

FINAL SINGLE POINT ENERGY     -4222.214448310292

DIPOLE MOMENT
-------------
                                X             Y             Z
Electronic contribution:      3.58774     -16.15852      -4.28808
Nuclear contribution   :     -5.56712      18.75281       4.68784
                        -----------------------------------------
Total Dipole Moment    :     -1.97938       2.59429       0.39975
                        -----------------------------------------
Magnitude (a.u.)       :      3.28757
Magnitude (Debye)      :      8.35633

Rotational constants in cm-1:     0.001799     0.000352     0.000322
Rotational constants in MHz :    53.925884    10.555361     9.665136

                             ****ORCA TERMINATED NORMALLY****
TOTAL RUN TIME: 0 days 0 hours 7 minutes 48 seconds 468 msec
