                         Program Version 4.2.0 -  RELEASE  -
|  1> # ORCA input file
|  2> # SCF done       -178.198469464023          0.000468613829
|  3> ! CAM-B3LYP def2-SVP def2/J RIJCOSX Grid4 TightSCF
|  4> %maxcore 5000
|  5> %tddft
|  6>     Mode sTDDFT
|  7>     Ethresh 5.0
|  8>     maxcore 5000
|  9> end
| 10>
| 11> %pal
| 12>   nprocs 6
| 13>   end
| 14> * xyz 0 1
| 15>    C      -11.40360       -11.73633        -4.59537
| 16>    C      -12.05923       -12.87375        -4.21273
| 17>    F      -12.83432       -13.52873        -5.08627
| 18>    C      -11.92878       -13.36955        -2.90075
| 19>    F      -12.58200       -14.48576        -2.55257
| 20>    C      -11.14338       -12.72055        -1.98805
| 21>    C      -10.45584       -11.54802        -2.35231
| 22>    C      -10.58717       -11.04484        -3.67894
| 23>    C       -9.90563        -9.86806        -4.06783
| 24>    C       -9.11548        -9.21521        -3.15892
| 25>    C       -8.98763        -9.72879        -1.83490
| 26>    C       -9.63437       -10.85962        -1.42992
| 27>    C       -8.07980        -8.85684        -1.07803
| 28>    O       -7.72431        -8.97824         0.08827
| 29>    C       -7.65168        -7.80670        -2.00898
| 30>    C       -8.30855        -8.00419        -3.27280
| 31>    C       -8.24355        -7.19606        -4.38733
| 32>    C       -8.93772        -7.44411        -5.58888
| 33>    N       -9.47554        -7.57132        -6.59582
| 34>    C       -7.53174        -5.99619        -4.49692
| 35>    N       -7.01142        -4.98736        -4.69454
| 36>    C       -6.71820        -6.85991        -1.64886
| 37>    N       -6.23017        -6.83941        -0.40163
| 38>    C       -5.28395        -6.02123         0.14002
| 39>    S       -4.46227        -6.57971         1.56775
| 40>    C       -3.47210        -5.15908         1.53411
| 41>    N       -2.51557        -5.00092         2.54524
| 42>    O       -1.81695        -4.00500         2.51095
| 43>    O       -2.45892        -5.88131         3.38679
| 44>    C       -3.76268        -4.31577         0.49385
| 45>    C       -4.81583        -4.78458        -0.31219
| 46>    C       -5.37864        -4.05091        -1.42336
| 47>    C       -4.67619        -3.26633        -2.25668
| 48>    C       -5.30169        -2.65211        -3.39150
| 49>    C       -4.68602        -2.07026        -4.43033
| 50>    C       -3.21354        -1.83294        -4.53463
| 51>    C       -5.47206        -1.65130        -5.65156
| 52>    N       -6.75292        -2.29415        -5.73843
| 53>    C       -7.91385        -1.66277        -5.86390
| 54>    C       -9.12859        -2.30364        -5.81630
| 55>    C      -10.38695        -1.71646        -5.96605
| 56>    C      -10.74086        -0.42059        -6.28707
| 57>    C      -12.06855         0.04827        -6.38105
| 58>    C      -12.18867         1.35928        -6.74622
| 59>    C      -10.95586         2.00057        -6.97051
| 60>    S       -9.64102         0.89445        -6.68278
| 61>    C      -10.73302         3.30879        -7.38018
| 62>    C      -11.68976         4.30770        -7.63423
| 63>    C      -11.15589         5.49321        -8.05766
| 64>    C       -9.74868         5.48750        -8.16231
| 65>    S       -9.12390         3.92693        -7.68580
| 66>    C       -8.88472         6.48568        -8.58485
| 67>    C       -9.30669         7.74271        -8.99779
| 68>    C       -8.51882         8.77817        -9.47846
| 69>    C       -7.07864         8.68622        -9.63017
| 70>    O       -6.40401         7.71452        -9.33405
| 71>    N       -6.46173         9.81570       -10.16152
| 72>    C       -7.08952        10.98418       -10.53204
| 73>    O       -6.46411        11.91699       -10.98693
| 74>    N       -8.45509        11.02884       -10.35562
| 75>    C       -9.22816         9.99595        -9.84981
| 76>    O      -10.43296        10.14239        -9.74064
| 77>    C       -9.15434        12.24489       -10.73164
| 78>    C       -5.02208         9.79151       -10.35631
| 79>    H      -11.51502       -11.37054        -5.60417
| 80>    H      -11.05357       -13.11355        -0.98745
| 81>    H      -10.02448        -9.51607        -5.07968
| 82>    H       -9.52131       -11.22662        -0.42120
| 83>    H       -6.33147        -6.14321        -2.35999
| 84>    H       -6.58443        -7.61732         0.18337
| 85>    H       -3.25506        -3.37985         0.34860
| 86>    H       -6.44339        -4.16517        -1.58222
| 87>    H       -3.60832        -3.17000        -2.13141
| 88>    H       -6.37830        -2.75348        -3.41687
| 89>    H       -2.75213        -1.73762        -3.55680
| 90>    H       -3.01876        -0.92378        -5.10011
| 91>    H       -2.73433        -2.66030        -5.05941
| 92>    H       -4.87714        -1.90822        -6.53919
| 93>    H       -5.61383        -0.56483        -5.65590
| 94>    H       -6.76780        -3.29723        -5.54994
| 95>    H       -7.85830        -0.59289        -6.00741
| 96>    H       -9.11379        -3.36932        -5.62894
| 97>    H      -11.23119        -2.37922        -5.81713
| 98>    H      -12.90439        -0.59824        -6.17775
| 99>    H      -13.12687         1.86881        -6.86846
|100>    H      -12.74322         4.13602        -7.50267
|101>    H      -11.74214         6.36084        -8.29878
|102>    H       -7.82753         6.26761        -8.60699
|103>    H      -10.36457         7.97558        -8.96252
|104>    H       -8.42263        12.94839       -11.11993
|105>    H       -9.65857        12.66008        -9.85910
|106>    H       -9.90339        12.01418       -11.48900
|107>    H       -4.66285         8.81858       -10.02993
|108>    H       -4.55708        10.58543        -9.77250
|109>    H       -4.79067         9.95072       -11.40919
|110> *
|111>
|112>                          ****END OF INPUT****

CARTESIAN COORDINATES (ANGSTROEM)
---------------------------------
  C    -11.403600  -11.736330   -4.595370
  C    -12.059230  -12.873750   -4.212730
  F    -12.834320  -13.528730   -5.086270
  C    -11.928780  -13.369550   -2.900750
  F    -12.582000  -14.485760   -2.552570
  C    -11.143380  -12.720550   -1.988050
  C    -10.455840  -11.548020   -2.352310
  C    -10.587170  -11.044840   -3.678940
  C     -9.905630   -9.868060   -4.067830
  C     -9.115480   -9.215210   -3.158920
  C     -8.987630   -9.728790   -1.834900
  C     -9.634370  -10.859620   -1.429920
  C     -8.079800   -8.856840   -1.078030
  O     -7.724310   -8.978240    0.088270
  C     -7.651680   -7.806700   -2.008980
  C     -8.308550   -8.004190   -3.272800
  C     -8.243550   -7.196060   -4.387330
  C     -8.937720   -7.444110   -5.588880
  N     -9.475540   -7.571320   -6.595820
  C     -7.531740   -5.996190   -4.496920
  N     -7.011420   -4.987360   -4.694540
  C     -6.718200   -6.859910   -1.648860
  N     -6.230170   -6.839410   -0.401630
  C     -5.283950   -6.021230    0.140020
  S     -4.462270   -6.579710    1.567750
  C     -3.472100   -5.159080    1.534110
  N     -2.515570   -5.000920    2.545240
  O     -1.816950   -4.005000    2.510950
  O     -2.458920   -5.881310    3.386790
  C     -3.762680   -4.315770    0.493850
  C     -4.815830   -4.784580   -0.312190
  C     -5.378640   -4.050910   -1.423360
  C     -4.676190   -3.266330   -2.256680
  C     -5.301690   -2.652110   -3.391500
  C     -4.686020   -2.070260   -4.430330
  C     -3.213540   -1.832940   -4.534630
  C     -5.472060   -1.651300   -5.651560
  N     -6.752920   -2.294150   -5.738430
  C     -7.913850   -1.662770   -5.863900
  C     -9.128590   -2.303640   -5.816300
  C    -10.386950   -1.716460   -5.966050
  C    -10.740860   -0.420590   -6.287070
  C    -12.068550    0.048270   -6.381050
  C    -12.188670    1.359280   -6.746220
  C    -10.955860    2.000570   -6.970510
  S     -9.641020    0.894450   -6.682780
  C    -10.733020    3.308790   -7.380180
  C    -11.689760    4.307700   -7.634230
  C    -11.155890    5.493210   -8.057660
  C     -9.748680    5.487500   -8.162310
  S     -9.123900    3.926930   -7.685800
  C     -8.884720    6.485680   -8.584850
  C     -9.306690    7.742710   -8.997790
  C     -8.518820    8.778170   -9.478460
  C     -7.078640    8.686220   -9.630170
  O     -6.404010    7.714520   -9.334050
  N     -6.461730    9.815700  -10.161520
  C     -7.089520   10.984180  -10.532040
  O     -6.464110   11.916990  -10.986930
  N     -8.455090   11.028840  -10.355620
  C     -9.228160    9.995950   -9.849810
  O    -10.432960   10.142390   -9.740640
  C     -9.154340   12.244890  -10.731640
  C     -5.022080    9.791510  -10.356310
  H    -11.515020  -11.370540   -5.604170
  H    -11.053570  -13.113550   -0.987450
  H    -10.024480   -9.516070   -5.079680
  H     -9.521310  -11.226620   -0.421200
  H     -6.331470   -6.143210   -2.359990
  H     -6.584430   -7.617320    0.183370
  H     -3.255060   -3.379850    0.348600
  H     -6.443390   -4.165170   -1.582220
  H     -3.608320   -3.170000   -2.131410
  H     -6.378300   -2.753480   -3.416870
  H     -2.752130   -1.737620   -3.556800
  H     -3.018760   -0.923780   -5.100110
  H     -2.734330   -2.660300   -5.059410
  H     -4.877140   -1.908220   -6.539190
  H     -5.613830   -0.564830   -5.655900
  H     -6.767800   -3.297230   -5.549940
  H     -7.858300   -0.592890   -6.007410
  H     -9.113790   -3.369320   -5.628940
  H    -11.231190   -2.379220   -5.817130
  H    -12.904390   -0.598240   -6.177750
  H    -13.126870    1.868810   -6.868460
  H    -12.743220    4.136020   -7.502670
  H    -11.742140    6.360840   -8.298780
  H     -7.827530    6.267610   -8.606990
  H    -10.364570    7.975580   -8.962520
  H     -8.422630   12.948390  -11.119930
  H     -9.658570   12.660080   -9.859100
  H     -9.903390   12.014180  -11.489000
  H     -4.662850    8.818580  -10.029930
  H     -4.557080   10.585430   -9.772500
  H     -4.790670    9.950720  -11.409190

 Total Charge           Charge          ....    0
 Multiplicity           Mult            ....    1
 Number of Electrons    NEL             ....  470
 Basis Dimension        Dim             .... 1063

ORBITAL ENERGIES
----------------

  NO   OCC          E(Eh)            E(eV)
   0   2.0000     -89.006808     -2421.9984
   1   2.0000     -88.949008     -2420.4256
   2   2.0000     -88.936332     -2420.0806
   3   2.0000     -24.814603      -675.2397
   4   2.0000     -24.813554      -675.2111
   5   2.0000     -19.255335      -523.9643
   6   2.0000     -19.254864      -523.9515
   7   2.0000     -19.253052      -523.9022
   8   2.0000     -19.160783      -521.3914
   9   2.0000     -19.157649      -521.3061
  10   2.0000     -19.153315      -521.1882
  11   2.0000     -14.666661      -399.1001
  12   2.0000     -14.520290      -395.1172
  13   2.0000     -14.457924      -393.4201
  14   2.0000     -14.451119      -393.2349
  15   2.0000     -14.436732      -392.8435
  16   2.0000     -14.424689      -392.5157
  17   2.0000     -14.424596      -392.5132
  18   2.0000     -10.400357      -283.0081
  19   2.0000     -10.399701      -282.9902
  20   2.0000     -10.398798      -282.9657
  21   2.0000     -10.395202      -282.8678
  22   2.0000     -10.389045      -282.7003
  23   2.0000     -10.379701      -282.4460
  24   2.0000     -10.373211      -282.2694
  25   2.0000     -10.365691      -282.0648
  26   2.0000     -10.365621      -282.0629
  27   2.0000     -10.364754      -282.0393
  28   2.0000     -10.349821      -281.6329
  29   2.0000     -10.344791      -281.4961
  30   2.0000     -10.340505      -281.3794
  31   2.0000     -10.336487      -281.2701
  32   2.0000     -10.330590      -281.1097
  33   2.0000     -10.330560      -281.1088
  34   2.0000     -10.330265      -281.1008
  35   2.0000     -10.330198      -281.0990
  36   2.0000     -10.327901      -281.0365
  37   2.0000     -10.325999      -280.9847
  38   2.0000     -10.325508      -280.9714
  39   2.0000     -10.325288      -280.9654
  40   2.0000     -10.321441      -280.8607
  41   2.0000     -10.319439      -280.8062
  42   2.0000     -10.318742      -280.7872
  43   2.0000     -10.317458      -280.7523
  44   2.0000     -10.316918      -280.7376
  45   2.0000     -10.306017      -280.4410
  46   2.0000     -10.304695      -280.4050
  47   2.0000     -10.302809      -280.3537
  48   2.0000     -10.302471      -280.3445
  49   2.0000     -10.296809      -280.1904
  50   2.0000     -10.295425      -280.1528
  51   2.0000     -10.292692      -280.0784
  52   2.0000     -10.288467      -279.9634
  53   2.0000     -10.286850      -279.9194
  54   2.0000     -10.283242      -279.8212
  55   2.0000     -10.281667      -279.7784
  56   2.0000     -10.275325      -279.6058
  57   2.0000     -10.267607      -279.3958
  58   2.0000     -10.265877      -279.3487
  59   2.0000     -10.265207      -279.3305
  60   2.0000     -10.265016      -279.3253
  61   2.0000     -10.264204      -279.3032
  62   2.0000     -10.240214      -278.6504
  63   2.0000     -10.239608      -278.6339
  64   2.0000      -8.102446      -220.4788
  65   2.0000      -8.044876      -218.9122
  66   2.0000      -8.032626      -218.5789
  67   2.0000      -6.072069      -165.2294
  68   2.0000      -6.067657      -165.1094
  69   2.0000      -6.063936      -165.0081
  70   2.0000      -6.014504      -163.6630
  71   2.0000      -6.010521      -163.5546
  72   2.0000      -6.006081      -163.4338
  73   2.0000      -6.002260      -163.3298
  74   2.0000      -5.998151      -163.2180
  75   2.0000      -5.993874      -163.1016
  76   2.0000      -1.337114       -36.3847
  77   2.0000      -1.335794       -36.3488
  78   2.0000      -1.322206       -35.9790
  79   2.0000      -1.168765       -31.8037
  80   2.0000      -1.155123       -31.4325
  81   2.0000      -1.132823       -30.8257
  82   2.0000      -1.122807       -30.5531
  83   2.0000      -1.093927       -29.7673
  84   2.0000      -1.090225       -29.6665
  85   2.0000      -1.058808       -28.8116
  86   2.0000      -1.051396       -28.6099
  87   2.0000      -1.033733       -28.1293
  88   2.0000      -1.028304       -27.9816
  89   2.0000      -1.020473       -27.7685
  90   2.0000      -1.003984       -27.3198
  91   2.0000      -1.003649       -27.3107
  92   2.0000      -0.990215       -26.9451
  93   2.0000      -0.981357       -26.7041
  94   2.0000      -0.965756       -26.2795
  95   2.0000      -0.954417       -25.9710
  96   2.0000      -0.946648       -25.7596
  97   2.0000      -0.933635       -25.4055
  98   2.0000      -0.923838       -25.1389
  99   2.0000      -0.914187       -24.8763
 100   2.0000      -0.910065       -24.7641
 101   2.0000      -0.899500       -24.4766
 102   2.0000      -0.884099       -24.0576
 103   2.0000      -0.878660       -23.9096
 104   2.0000      -0.867652       -23.6100
 105   2.0000      -0.862405       -23.4672
 106   2.0000      -0.854506       -23.2523
 107   2.0000      -0.837532       -22.7904
 108   2.0000      -0.831279       -22.6203
 109   2.0000      -0.828891       -22.5553
 110   2.0000      -0.816007       -22.2047
 111   2.0000      -0.808654       -22.0046
 112   2.0000      -0.804021       -21.8785
 113   2.0000      -0.794947       -21.6316
 114   2.0000      -0.785165       -21.3654
 115   2.0000      -0.781621       -21.2690
 116   2.0000      -0.766334       -20.8530
 117   2.0000      -0.763182       -20.7672
 118   2.0000      -0.753044       -20.4914
 119   2.0000      -0.742816       -20.2130
 120   2.0000      -0.738710       -20.1013
 121   2.0000      -0.738219       -20.0880
 122   2.0000      -0.723111       -19.6769
 123   2.0000      -0.715310       -19.4646
 124   2.0000      -0.710555       -19.3352
 125   2.0000      -0.697420       -18.9778
 126   2.0000      -0.691846       -18.8261
 127   2.0000      -0.683791       -18.6069
 128   2.0000      -0.680558       -18.5189
 129   2.0000      -0.675579       -18.3834
 130   2.0000      -0.672204       -18.2916
 131   2.0000      -0.665334       -18.1047
 132   2.0000      -0.662814       -18.0361
 133   2.0000      -0.654486       -17.8095
 134   2.0000      -0.652276       -17.7493
 135   2.0000      -0.647566       -17.6212
 136   2.0000      -0.643777       -17.5181
 137   2.0000      -0.640455       -17.4277
 138   2.0000      -0.630296       -17.1512
 139   2.0000      -0.627164       -17.0660
 140   2.0000      -0.621780       -16.9195
 141   2.0000      -0.619451       -16.8561
 142   2.0000      -0.611472       -16.6390
 143   2.0000      -0.609521       -16.5859
 144   2.0000      -0.607147       -16.5213
 145   2.0000      -0.603034       -16.4094
 146   2.0000      -0.601849       -16.3771
 147   2.0000      -0.595410       -16.2019
 148   2.0000      -0.587795       -15.9947
 149   2.0000      -0.583183       -15.8692
 150   2.0000      -0.578557       -15.7433
 151   2.0000      -0.575848       -15.6696
 152   2.0000      -0.574639       -15.6367
 153   2.0000      -0.572279       -15.5725
 154   2.0000      -0.569655       -15.5011
 155   2.0000      -0.562834       -15.3155
 156   2.0000      -0.560197       -15.2437
 157   2.0000      -0.556551       -15.1445
 158   2.0000      -0.556331       -15.1385
 159   2.0000      -0.553766       -15.0687
 160   2.0000      -0.551621       -15.0104
 161   2.0000      -0.549509       -14.9529
 162   2.0000      -0.545154       -14.8344
 163   2.0000      -0.542602       -14.7650
 164   2.0000      -0.536017       -14.5858
 165   2.0000      -0.534246       -14.5376
 166   2.0000      -0.529308       -14.4032
 167   2.0000      -0.527389       -14.3510
 168   2.0000      -0.524618       -14.2756
 169   2.0000      -0.522433       -14.2161
 170   2.0000      -0.515744       -14.0341
 171   2.0000      -0.510361       -13.8876
 172   2.0000      -0.509357       -13.8603
 173   2.0000      -0.505989       -13.7687
 174   2.0000      -0.504594       -13.7307
 175   2.0000      -0.501885       -13.6570
 176   2.0000      -0.495696       -13.4886
 177   2.0000      -0.492169       -13.3926
 178   2.0000      -0.491689       -13.3796
 179   2.0000      -0.490437       -13.3455
 180   2.0000      -0.489669       -13.3246
 181   2.0000      -0.489026       -13.3071
 182   2.0000      -0.487364       -13.2618
 183   2.0000      -0.485025       -13.1982
 184   2.0000      -0.483614       -13.1598
 185   2.0000      -0.482104       -13.1187
 186   2.0000      -0.477141       -12.9837
 187   2.0000      -0.475887       -12.9496
 188   2.0000      -0.473236       -12.8774
 189   2.0000      -0.469298       -12.7702
 190   2.0000      -0.465700       -12.6723
 191   2.0000      -0.465305       -12.6616
 192   2.0000      -0.463483       -12.6120
 193   2.0000      -0.460855       -12.5405
 194   2.0000      -0.458024       -12.4635
 195   2.0000      -0.456142       -12.4123
 196   2.0000      -0.451838       -12.2951
 197   2.0000      -0.451407       -12.2834
 198   2.0000      -0.450164       -12.2496
 199   2.0000      -0.444591       -12.0979
 200   2.0000      -0.438610       -11.9352
 201   2.0000      -0.437528       -11.9058
 202   2.0000      -0.435065       -11.8387
 203   2.0000      -0.434172       -11.8144
 204   2.0000      -0.433890       -11.8068
 205   2.0000      -0.427311       -11.6277
 206   2.0000      -0.426982       -11.6188
 207   2.0000      -0.425632       -11.5820
 208   2.0000      -0.422521       -11.4974
 209   2.0000      -0.416281       -11.3276
 210   2.0000      -0.412331       -11.2201
 211   2.0000      -0.404310       -11.0018
 212   2.0000      -0.401923       -10.9369
 213   2.0000      -0.395229       -10.7547
 214   2.0000      -0.394402       -10.7322
 215   2.0000      -0.392068       -10.6687
 216   2.0000      -0.383078       -10.4241
 217   2.0000      -0.377285       -10.2665
 218   2.0000      -0.370755       -10.0888
 219   2.0000      -0.364652        -9.9227
 220   2.0000      -0.356618        -9.7041
 221   2.0000      -0.340481        -9.2650
 222   2.0000      -0.338699        -9.2165
 223   2.0000      -0.333431        -9.0731
 224   2.0000      -0.326208        -8.8766
 225   2.0000      -0.319744        -8.7007
 226   2.0000      -0.317443        -8.6381
 227   2.0000      -0.316317        -8.6074
 228   2.0000      -0.314925        -8.5695
 229   2.0000      -0.310081        -8.4377
 230   2.0000      -0.303021        -8.2456
 231   2.0000      -0.291498        -7.9321
 232   2.0000      -0.287387        -7.8202
 233   2.0000      -0.262078        -7.1315
 234   2.0000      -0.199267        -5.4223
 235   0.0000      -0.112960        -3.0738
 236   0.0000      -0.088729        -2.4144
 237   0.0000      -0.075519        -2.0550
 238   0.0000      -0.066039        -1.7970
 239   0.0000      -0.042005        -1.1430

MULLIKEN ATOMIC CHARGES
-----------------------
   0 C :   -0.105546
   1 C :    0.245460
   2 F :   -0.166670
   3 C :    0.241579
   4 F :   -0.166989
   5 C :   -0.102827
   6 C :    0.112545
   7 C :    0.112845
   8 C :   -0.076729
   9 C :    0.035857
  10 C :    0.001451
  11 C :   -0.073661
  12 C :    0.181196
  13 O :   -0.208538
  14 C :   -0.150841
  15 C :    0.356203
  16 C :   -0.370493
  17 C :   -0.201689
  18 N :    0.157596
  19 C :   -0.149597
  20 N :    0.124721
  21 C :    0.024912
  22 N :    0.010044
  23 C :   -0.124809
  24 S :    0.203249
  25 C :   -0.004055
  26 N :    0.277677
  27 O :   -0.239400
  28 O :   -0.255311
  29 C :    0.000244
  30 C :    0.114784
  31 C :   -0.062492
  32 C :    0.020909
  33 C :    0.015968
  34 C :   -0.230668
  35 C :    0.081492
  36 C :    0.227363
  37 N :   -0.137776
  38 C :    0.074463
  39 C :   -0.054386
  40 C :    0.042772
  41 C :   -0.065358
  42 C :    0.054486
  43 C :   -0.001071
  44 C :   -0.003285
  45 S :    0.045090
  46 C :   -0.072154
  47 C :    0.028312
  48 C :    0.008234
  49 C :   -0.015585
  50 S :    0.102345
  51 C :    0.014958
  52 C :   -0.003673
  53 C :   -0.147069
  54 C :    0.192890
  55 O :   -0.235663
  56 N :   -0.292212
  57 C :    0.216730
  58 O :   -0.243898
  59 N :   -0.281290
  60 C :    0.175697
  61 O :   -0.242983
  62 C :    0.149418
  63 C :    0.151111
  64 H :    0.010855
  65 H :    0.003924
  66 H :   -0.002580
  67 H :   -0.005401
  68 H :    0.052645
  69 H :    0.171420
  70 H :    0.016459
  71 H :    0.007901
  72 H :   -0.005953
  73 H :   -0.011502
  74 H :    0.027532
  75 H :    0.026666
  76 H :    0.040390
  77 H :    0.026462
  78 H :    0.044096
  79 H :    0.132225
  80 H :    0.022778
  81 H :   -0.026319
  82 H :   -0.008056
  83 H :   -0.013600
  84 H :   -0.017562
  85 H :   -0.014021
  86 H :   -0.005710
  87 H :    0.006209
  88 H :    0.003278
  89 H :    0.047084
  90 H :    0.027326
  91 H :    0.028586
  92 H :    0.045917
  93 H :    0.026589
  94 H :    0.026478
Sum of atomic charges:   -0.0000000

LOEWDIN ATOMIC CHARGES
----------------------
   0 C :   -0.026664
   1 C :    0.070457
   2 F :   -0.044872
   3 C :    0.071992
   4 F :   -0.045145
   5 C :   -0.030724
   6 C :   -0.008046
   7 C :   -0.006679
   8 C :    0.024836
   9 C :   -0.024552
  10 C :   -0.052582
  11 C :    0.035852
  12 C :    0.095559
  13 O :   -0.167181
  14 C :   -0.152735
  15 C :    0.090349
  16 C :   -0.165162
  17 C :   -0.023053
  18 N :   -0.051653
  19 C :    0.022310
  20 N :   -0.065014
  21 C :    0.123055
  22 N :    0.081925
  23 C :   -0.122526
  24 S :    0.477430
  25 C :   -0.198506
  26 N :    0.274096
  27 O :   -0.206541
  28 O :   -0.221344
  29 C :    0.001554
  30 C :   -0.079379
  31 C :   -0.048457
  32 C :    0.001215
  33 C :   -0.053278
  34 C :   -0.026087
  35 C :   -0.047016
  36 C :    0.047805
  37 N :    0.039969
  38 C :    0.075473
  39 C :   -0.145434
  40 C :    0.001319
  41 C :   -0.199348
  42 C :   -0.005497
  43 C :   -0.072900
  44 C :   -0.139335
  45 S :    0.380453
  46 C :   -0.219913
  47 C :   -0.009145
  48 C :   -0.064634
  49 C :   -0.100915
  50 S :    0.390091
  51 C :   -0.099863
  52 C :    0.076699
  53 C :   -0.178875
  54 C :    0.086406
  55 O :   -0.211666
  56 N :   -0.044724
  57 C :    0.091770
  58 O :   -0.216245
  59 N :   -0.042733
  60 C :    0.077963
  61 O :   -0.221331
  62 C :    0.038674
  63 C :    0.038037
  64 H :    0.049171
  65 H :    0.046631
  66 H :    0.041715
  67 H :    0.042741
  68 H :    0.043912
  69 H :    0.084262
  70 H :    0.047991
  71 H :    0.029175
  72 H :    0.027378
  73 H :    0.025168
  74 H :    0.032926
  75 H :    0.036768
  76 H :    0.042892
  77 H :    0.031268
  78 H :    0.041464
  79 H :    0.062424
  80 H :    0.014024
  81 H :    0.025188
  82 H :    0.039647
  83 H :    0.033447
  84 H :    0.030019
  85 H :    0.032101
  86 H :    0.034266
  87 H :    0.029142
  88 H :    0.034702
  89 H :    0.030682
  90 H :    0.026934
  91 H :    0.027159
  92 H :    0.029467
  93 H :    0.025883
  94 H :    0.025920

  Mayer bond orders larger than 0.100000
B(  0-C ,  1-C ) :   1.4340 B(  0-C ,  5-C ) :   0.1070 B(  0-C ,  7-C ) :   1.1942
B(  0-C , 64-H ) :   1.0069 B(  1-C ,  2-F ) :   1.1390 B(  1-C ,  3-C ) :   1.1948
B(  3-C ,  4-F ) :   1.1386 B(  3-C ,  5-C ) :   1.4363 B(  5-C ,  6-C ) :   1.1972
B(  5-C , 65-H ) :   1.0071 B(  6-C ,  7-C ) :   1.2570 B(  6-C , 11-C ) :   1.1811
B(  7-C ,  8-C ) :   1.2093 B(  8-C ,  9-C ) :   1.4606 B(  8-C , 66-H ) :   0.9892
B(  9-C , 10-C ) :   1.2146 B(  9-C , 15-C ) :   0.9914 B( 10-C , 11-C ) :   1.4762
B( 10-C , 12-C ) :   0.9777 B( 11-C , 67-H ) :   1.0183 B( 12-C , 13-O ) :   2.0530
B( 12-C , 14-C ) :   0.9925 B( 13-O , 69-H ) :   0.1511 B( 14-C , 15-C ) :   1.1268
B( 14-C , 21-C ) :   1.4096 B( 15-C , 16-C ) :   1.5702 B( 16-C , 17-C ) :   1.1483
B( 16-C , 19-C ) :   1.1863 B( 17-C , 18-N ) :   2.9675 B( 19-C , 20-N ) :   2.8637
B( 20-N , 79-H ) :   0.1153 B( 21-C , 22-N ) :   1.3822 B( 21-C , 68-H ) :   0.9350
B( 22-N , 23-C ) :   1.1433 B( 22-N , 69-H ) :   0.8248 B( 23-C , 24-S ) :   1.1411
B( 23-C , 30-C ) :   1.4073 B( 24-S , 25-C ) :   1.1039 B( 25-C , 26-N ) :   0.9603
B( 25-C , 29-C ) :   1.4811 B( 26-N , 27-O ) :   1.5416 B( 26-N , 28-O ) :   1.5155
B( 27-O , 28-O ) :   0.2671 B( 29-C , 30-C ) :   1.2425 B( 29-C , 70-H ) :   1.0053
B( 30-C , 31-C ) :   1.0174 B( 31-C , 32-C ) :   1.7572 B( 31-C , 71-H ) :   0.9638
B( 32-C , 33-C ) :   1.1015 B( 32-C , 72-H ) :   0.9746 B( 33-C , 34-C ) :   1.7990
B( 33-C , 73-H ) :   0.9591 B( 34-C , 35-C ) :   1.0793 B( 34-C , 36-C ) :   0.9970
B( 35-C , 74-H ) :   0.9531 B( 35-C , 75-H ) :   0.9537 B( 35-C , 76-H ) :   0.9451
B( 36-C , 37-N ) :   1.0198 B( 36-C , 77-H ) :   0.9372 B( 36-C , 78-H ) :   0.9219
B( 37-N , 38-C ) :   1.3409 B( 37-N , 79-H ) :   0.8952 B( 38-C , 39-C ) :   1.4670
B( 38-C , 80-H ) :   0.9479 B( 39-C , 40-C ) :   1.2994 B( 39-C , 81-H ) :   0.9601
B( 40-C , 41-C ) :   1.5007 B( 40-C , 82-H ) :   0.9605 B( 41-C , 42-C ) :   1.2035
B( 41-C , 45-S ) :   1.0089 B( 42-C , 43-C ) :   1.5270 B( 42-C , 83-H ) :   0.9974
B( 43-C , 44-C ) :   1.2347 B( 43-C , 84-H ) :   0.9943 B( 44-C , 45-S ) :   1.0846
B( 44-C , 46-C ) :   1.4242 B( 46-C , 47-C ) :   1.2466 B( 46-C , 50-S ) :   1.0311
B( 47-C , 48-C ) :   1.5259 B( 47-C , 85-H ) :   0.9947 B( 48-C , 49-C ) :   1.2138
B( 48-C , 86-H ) :   0.9931 B( 49-C , 50-S ) :   1.1034 B( 49-C , 51-C ) :   1.3721
B( 51-C , 52-C ) :   1.3039 B( 51-C , 87-H ) :   0.9539 B( 52-C , 53-C ) :   1.5141
B( 52-C , 88-H ) :   0.9580 B( 53-C , 54-C ) :   1.0031 B( 53-C , 60-C ) :   0.9883
B( 54-C , 55-O ) :   2.0456 B( 54-C , 56-N ) :   1.0530 B( 56-N , 57-C ) :   1.0758
B( 56-N , 63-C ) :   0.9468 B( 57-C , 58-O ) :   2.0611 B( 57-C , 59-N ) :   1.0776
B( 59-N , 60-C ) :   1.0547 B( 59-N , 62-C ) :   0.9459 B( 60-C , 61-O ) :   2.0835
B( 62-C , 89-H ) :   0.9559 B( 62-C , 90-H ) :   0.9761 B( 62-C , 91-H ) :   0.9753
B( 63-C , 92-H ) :   0.9533 B( 63-C , 93-H ) :   0.9760 B( 63-C , 94-H ) :   0.9758

-----------------------------------------------------------------------------
         ABSORPTION SPECTRUM VIA TRANSITION ELECTRIC DIPOLE MOMENTS
-----------------------------------------------------------------------------
State   Energy  Wavelength   fosc         T2         TX        TY        TZ
        (cm-1)    (nm)                  (au**2)     (au)      (au)      (au)
-----------------------------------------------------------------------------
   0    8977.1   1113.9   0.005270985   0.19330   0.01675  -0.41006   0.15769
   1   13547.1    738.2   1.490084845  36.21089  -0.08992  -5.65137   2.06514
   2   15459.2    646.9   0.000065443   0.00139  -0.01501  -0.02731   0.02056
   3   20580.8    485.9   0.397817959   6.36354   1.63963   1.52164   1.16608
   4   20963.1    477.0   0.012469120   0.19582   0.30008   0.24561   0.21317
   5   22193.0    450.6   0.085763569   1.27222   0.77717   0.57211   0.58388
   6   23677.5    422.3   0.001819796   0.02530  -0.08613  -0.00749  -0.13352
   7   24374.2    410.3   0.011851822   0.16008  -0.38237   0.10454  -0.05421
   8   26143.1    382.5   0.148126413   1.86531   0.80485   1.10314   0.02455
   9   27291.2    366.4   0.377850466   4.55799   1.61299   0.06892   1.39697
  10   27749.7    360.4   0.384465291   4.56115  -1.98730  -0.28644   0.72784
  11   28668.5    348.8   0.008009351   0.09197   0.22935   0.19749   0.01928
  12   28931.3    345.6   0.465328882   5.29501   1.59998   1.36591   0.93241
  13   28989.2    345.0   0.001050620   0.01193  -0.06507  -0.08666   0.01367
  14   29503.4    338.9   0.000001451   0.00002  -0.00022  -0.00370  -0.00157
  15   30268.1    330.4   0.061154762   0.66515  -0.58039  -0.44512  -0.36079
  16   30899.8    323.6   0.183404098   1.95402   0.41470   1.12260  -0.72237
  17   30988.0    322.7   0.001400554   0.01488   0.09100   0.06594  -0.04745
  18   32011.0    312.4   0.010041813   0.10327   0.18045   0.24912  -0.09300
  19   32850.8    304.4   0.002325320   0.02330   0.06347   0.13519   0.03159
  20   32894.2    304.0   0.238274240   2.38470  -1.05602  -1.08254  -0.31245
  21   33002.3    303.0   0.002328535   0.02323   0.08731   0.11695   0.04390
  22   33027.5    302.8   0.000083244   0.00083   0.01443   0.02314   0.00927
  23   33838.4    295.5   0.479223445   4.66234   1.25676   1.73187  -0.28903
  24   34154.4    292.8   0.317258685   3.05803  -0.21138  -1.24182   1.21294
  25   34249.9    292.0   0.026731274   0.25694  -0.07950  -0.34785   0.36003
  26   34368.8    291.0   0.045375858   0.43465   0.00387   0.42857  -0.50096
  27   34717.3    288.0   0.008770577   0.08317  -0.26952   0.10224  -0.00851
  28   34838.9    287.0   0.005028751   0.04752  -0.12419   0.04663  -0.17298
  29   34883.1    286.7   0.001708334   0.01612  -0.12142  -0.02418  -0.02820
  30   34912.9    286.4   0.033155945   0.31264   0.54410   0.10008  -0.08115
  31   35044.2    285.4   0.007263953   0.06824  -0.16798  -0.03400  -0.19714
  32   35826.4    279.1   0.000138589   0.00127  -0.01665   0.02972  -0.01065
  33   35967.8    278.0   0.014059529   0.12869   0.13994   0.30344  -0.13050
  34   36067.7    277.3   0.023581710   0.21524  -0.07877  -0.39283   0.23394
  35   36600.4    273.2   0.061885756   0.55665  -0.04517  -0.48465   0.56544
  36   37467.8    266.9   0.089583331   0.78713   0.20670   0.73057  -0.45899
  37   38236.5    261.5   0.023096129   0.19885   0.35496   0.10168   0.25003
  38   38330.5    260.9   0.017192226   0.14766  -0.30942  -0.13110  -0.18636
  39   38381.3    260.5   0.137111644   1.17606  -0.41336  -0.32987  -0.94677
  40   38395.2    260.4   0.106108079   0.90980   0.79882   0.29745   0.42803
  41   38520.1    259.6   0.165318667   1.41290  -0.34658   0.48991  -1.02605
  42   38572.9    259.2   0.038083940   0.32504  -0.21917  -0.22718   0.47475
  43   38763.5    258.0   0.000000621   0.00001   0.00050   0.00144  -0.00172
  44   38892.9    257.1   0.020951325   0.17734  -0.01856   0.36779  -0.20428
  45   39116.2    255.6   0.000018061   0.00015  -0.00010  -0.00835   0.00907
  46   39506.9    253.1   0.000939585   0.00783  -0.02835   0.06575  -0.05198
  47   40006.6    250.0   0.002296758   0.01890   0.06548  -0.08072   0.08998
  48   40160.1    249.0   0.074676252   0.61216  -0.54926   0.50735  -0.23037

FINAL SINGLE POINT ENERGY     -3996.494141629010

DIPOLE MOMENT
-------------
                                X             Y             Z
Electronic contribution:    -19.15225     -91.43252      35.32487
Nuclear contribution   :     18.57711      83.40535     -32.49016
                        -----------------------------------------
Total Dipole Moment    :     -0.57514      -8.02717       2.83470
                        -----------------------------------------
Magnitude (a.u.)       :      8.53239
Magnitude (Debye)      :     21.68762

Rotational constants in cm-1:     0.001403     0.000275     0.000238
Rotational constants in MHz :    42.046988     8.234828     7.120359

                             ****ORCA TERMINATED NORMALLY****
TOTAL RUN TIME: 0 days 0 hours 7 minutes 55 seconds 594 msec
