                         Program Version 4.2.0 -  RELEASE  -
|  1> # ORCA input file
|  2> # SCF done       -192.051030616858          0.000926429955
|  3> ! CAM-B3LYP def2-SVP def2/J RIJCOSX Grid4 TightSCF
|  4> %maxcore 5000
|  5> %tddft
|  6>     Mode sTDDFT
|  7>     Ethresh 5.0
|  8>     maxcore 5000
|  9> end
| 10>
| 11> %pal
| 12>   nprocs 6
| 13>   end
| 14> * xyz 0 1
| 15>    C        4.46677         1.31808        -0.79165
| 16>    C        4.90104         1.65625        -2.04314
| 17>    F        6.20442         1.60148        -2.34080
| 18>    C        3.98561         2.06557        -3.03373
| 19>    F        4.43820         2.39044        -4.25119
| 20>    C        2.64820         2.13171        -2.75875
| 21>    C        2.17046         1.79033        -1.47874
| 22>    C        3.09475         1.37531        -0.47660
| 23>    C        2.63817         1.02595         0.81578
| 24>    C        1.30014         1.09121         1.09776
| 25>    C        0.38349         1.51140         0.09017
| 26>    C        0.79435         1.85217        -1.16680
| 27>    C       -0.97275         1.50074         0.64912
| 28>    O       -2.01985         1.79313         0.07962
| 29>    C       -0.83911         1.05995         2.04146
| 30>    C        0.55420         0.79499         2.32053
| 31>    C        1.09084         0.34416         3.49728
| 32>    C        0.33241         0.05624         4.65086
| 33>    N       -0.25268        -0.19052         5.60694
| 34>    C        2.46568         0.10439         3.70052
| 35>    N        3.57165        -0.10913         3.92019
| 36>    C       -1.92936         0.95628         2.87030
| 37>    N       -3.15183         1.25532         2.41723
| 38>    C       -4.31059         1.24015         3.12591
| 39>    S       -4.31713         0.95295         4.83942
| 40>    C       -6.02666         1.23572         4.86007
| 41>    N       -6.68866         1.12403         6.09537
| 42>    O       -7.88577         1.32334         6.11302
| 43>    O       -5.99863         0.83698         7.05548
| 44>    C       -6.54837         1.54007         3.63390
| 45>    C       -5.57866         1.52676         2.60963
| 46>    C       -5.92762         1.79157         1.23662
| 47>    C       -5.28568         1.33310         0.14380
| 48>    C       -5.65350         1.60444        -1.20861
| 49>    C       -6.70881         2.33732        -1.73543
| 50>    C       -7.75147         2.89161        -0.97617
| 51>    N       -8.63993         3.28698        -0.36705
| 52>    C       -6.70506         2.34515        -3.15701
| 53>    C       -5.66537         1.57925        -3.67320
| 54>    S       -4.65062         0.90499        -2.46175
| 55>    S       -5.66737         1.41520        -5.40172
| 56>    C       -7.09441         2.40358        -5.44119
| 57>    C       -7.52279         2.86250        -4.20187
| 58>    C       -8.64450         3.72795        -4.31290
| 59>    C       -8.98968         4.62204        -3.29090
| 60>    N       -9.15712         5.42704        -2.48933
| 61>    C       -9.11347         3.82412        -5.62522
| 62>    S       -8.07674         2.94068        -6.74838
| 63>    C      -10.24519         4.47430        -6.14987
| 64>    C      -11.40281         4.80255        -5.48392
| 65>    C      -12.50753         5.48905        -6.05196
| 66>    C      -13.56356         5.64641        -5.20582
| 67>    C      -13.35089         5.08973        -3.92676
| 68>    S      -11.77823         4.33967        -3.83875
| 69>    C      -14.18710         5.11978        -2.82126
| 70>    C      -15.45907         5.72016        -2.70492
| 71>    C      -16.02299         5.58462        -1.47088
| 72>    C      -15.22212         4.87384        -0.54607
| 73>    S      -13.71249         4.40396        -1.30601
| 74>    C      -15.42989         4.60216         0.79277
| 75>    C      -16.60618         4.76633         1.53592
| 76>    C      -16.63130         5.04298         2.89256
| 77>    C      -17.96530         5.37315         3.26291
| 78>    C      -18.36837         5.75047         4.55243
| 79>    N      -18.70027         6.06157         5.60608
| 80>    C      -18.79381         5.26506         2.15694
| 81>    C      -18.01479         4.79993         1.06722
| 82>    C      -18.52545         4.24634        -0.08663
| 83>    C      -19.87560         4.43111        -0.58895
| 84>    C      -19.99439         3.77307        -1.75884
| 85>    C      -18.73290         3.08043        -2.02304
| 86>    C      -17.85761         3.37019        -1.01707
| 87>    C      -18.48876         2.27037        -3.13549
| 88>    N      -18.28873         1.62282        -4.06350
| 89>    H        5.18082         1.00673        -0.04529
| 90>    H        1.96084         2.44743        -3.52789
| 91>    H        3.36277         0.71594         1.55107
| 92>    H        0.07958         2.16607        -1.91230
| 93>    H       -1.84746         0.63030         3.89921
| 94>    H       -3.17130         1.58660         1.43661
| 95>    H       -7.59189         1.74547         3.47589
| 96>    H       -6.82706         2.37638         1.11356
| 97>    H       -4.43693         0.66959         0.23425
| 98>    H      -10.22868         4.67105        -7.21427
| 99>    H      -12.47831         5.85255        -7.06371
|100>    H      -14.47897         6.14579        -5.46661
|101>    H      -15.91992         6.24152        -3.52409
|102>    H      -16.96802         6.01402        -1.19237
|103>    H      -14.55721         4.29612         1.35804
|104>    H      -15.78155         5.09272         3.54715
|105>    H      -19.85831         5.39863         2.15796
|106>    H      -20.61725         5.04968        -0.12176
|107>    H      -20.84911         3.72755        -2.40754
|108>    H      -16.87542         2.95869        -0.89367
|109> *
|110>
|111>                          ****END OF INPUT****

CARTESIAN COORDINATES (ANGSTROEM)
---------------------------------
  C      4.466770    1.318080   -0.791650
  C      4.901040    1.656250   -2.043140
  F      6.204420    1.601480   -2.340800
  C      3.985610    2.065570   -3.033730
  F      4.438200    2.390440   -4.251190
  C      2.648200    2.131710   -2.758750
  C      2.170460    1.790330   -1.478740
  C      3.094750    1.375310   -0.476600
  C      2.638170    1.025950    0.815780
  C      1.300140    1.091210    1.097760
  C      0.383490    1.511400    0.090170
  C      0.794350    1.852170   -1.166800
  C     -0.972750    1.500740    0.649120
  O     -2.019850    1.793130    0.079620
  C     -0.839110    1.059950    2.041460
  C      0.554200    0.794990    2.320530
  C      1.090840    0.344160    3.497280
  C      0.332410    0.056240    4.650860
  N     -0.252680   -0.190520    5.606940
  C      2.465680    0.104390    3.700520
  N      3.571650   -0.109130    3.920190
  C     -1.929360    0.956280    2.870300
  N     -3.151830    1.255320    2.417230
  C     -4.310590    1.240150    3.125910
  S     -4.317130    0.952950    4.839420
  C     -6.026660    1.235720    4.860070
  N     -6.688660    1.124030    6.095370
  O     -7.885770    1.323340    6.113020
  O     -5.998630    0.836980    7.055480
  C     -6.548370    1.540070    3.633900
  C     -5.578660    1.526760    2.609630
  C     -5.927620    1.791570    1.236620
  C     -5.285680    1.333100    0.143800
  C     -5.653500    1.604440   -1.208610
  C     -6.708810    2.337320   -1.735430
  C     -7.751470    2.891610   -0.976170
  N     -8.639930    3.286980   -0.367050
  C     -6.705060    2.345150   -3.157010
  C     -5.665370    1.579250   -3.673200
  S     -4.650620    0.904990   -2.461750
  S     -5.667370    1.415200   -5.401720
  C     -7.094410    2.403580   -5.441190
  C     -7.522790    2.862500   -4.201870
  C     -8.644500    3.727950   -4.312900
  C     -8.989680    4.622040   -3.290900
  N     -9.157120    5.427040   -2.489330
  C     -9.113470    3.824120   -5.625220
  S     -8.076740    2.940680   -6.748380
  C    -10.245190    4.474300   -6.149870
  C    -11.402810    4.802550   -5.483920
  C    -12.507530    5.489050   -6.051960
  C    -13.563560    5.646410   -5.205820
  C    -13.350890    5.089730   -3.926760
  S    -11.778230    4.339670   -3.838750
  C    -14.187100    5.119780   -2.821260
  C    -15.459070    5.720160   -2.704920
  C    -16.022990    5.584620   -1.470880
  C    -15.222120    4.873840   -0.546070
  S    -13.712490    4.403960   -1.306010
  C    -15.429890    4.602160    0.792770
  C    -16.606180    4.766330    1.535920
  C    -16.631300    5.042980    2.892560
  C    -17.965300    5.373150    3.262910
  C    -18.368370    5.750470    4.552430
  N    -18.700270    6.061570    5.606080
  C    -18.793810    5.265060    2.156940
  C    -18.014790    4.799930    1.067220
  C    -18.525450    4.246340   -0.086630
  C    -19.875600    4.431110   -0.588950
  C    -19.994390    3.773070   -1.758840
  C    -18.732900    3.080430   -2.023040
  C    -17.857610    3.370190   -1.017070
  C    -18.488760    2.270370   -3.135490
  N    -18.288730    1.622820   -4.063500
  H      5.180820    1.006730   -0.045290
  H      1.960840    2.447430   -3.527890
  H      3.362770    0.715940    1.551070
  H      0.079580    2.166070   -1.912300
  H     -1.847460    0.630300    3.899210
  H     -3.171300    1.586600    1.436610
  H     -7.591890    1.745470    3.475890
  H     -6.827060    2.376380    1.113560
  H     -4.436930    0.669590    0.234250
  H    -10.228680    4.671050   -7.214270
  H    -12.478310    5.852550   -7.063710
  H    -14.478970    6.145790   -5.466610
  H    -15.919920    6.241520   -3.524090
  H    -16.968020    6.014020   -1.192370
  H    -14.557210    4.296120    1.358040
  H    -15.781550    5.092720    3.547150
  H    -19.858310    5.398630    2.157960
  H    -20.617250    5.049680   -0.121760
  H    -20.849110    3.727550   -2.407540
  H    -16.875420    2.958690   -0.893670

 Total Charge           Charge          ....    0
 Multiplicity           Mult            ....    1
 Number of Electrons    NEL             ....  544
 Basis Dimension        Dim             .... 1160

ORBITAL ENERGIES
----------------

  NO   OCC          E(Eh)            E(eV)
   0   2.0000     -88.997675     -2421.7499
   1   2.0000     -88.990845     -2421.5640
   2   2.0000     -88.990795     -2421.5626
   3   2.0000     -88.983613     -2421.3672
   4   2.0000     -88.960849     -2420.7478
   5   2.0000     -88.956260     -2420.6229
   6   2.0000     -24.806847      -675.0286
   7   2.0000     -24.805861      -675.0018
   8   2.0000     -19.244160      -523.6602
   9   2.0000     -19.243857      -523.6520
  10   2.0000     -19.242998      -523.6286
  11   2.0000     -14.655994      -398.8099
  12   2.0000     -14.506738      -394.7484
  13   2.0000     -14.427793      -392.6002
  14   2.0000     -14.423046      -392.4710
  15   2.0000     -14.412788      -392.1919
  16   2.0000     -14.411977      -392.1698
  17   2.0000     -14.410693      -392.1349
  18   2.0000     -14.399490      -391.8300
  19   2.0000     -10.390738      -282.7463
  20   2.0000     -10.390190      -282.7314
  21   2.0000     -10.390083      -282.7285
  22   2.0000     -10.380961      -282.4803
  23   2.0000     -10.380183      -282.4592
  24   2.0000     -10.355243      -281.7805
  25   2.0000     -10.353766      -281.7403
  26   2.0000     -10.351265      -281.6722
  27   2.0000     -10.341673      -281.4112
  28   2.0000     -10.340876      -281.3895
  29   2.0000     -10.339197      -281.3439
  30   2.0000     -10.336910      -281.2816
  31   2.0000     -10.329910      -281.0911
  32   2.0000     -10.329007      -281.0666
  33   2.0000     -10.327801      -281.0338
  34   2.0000     -10.327439      -281.0239
  35   2.0000     -10.326699      -281.0038
  36   2.0000     -10.326066      -280.9866
  37   2.0000     -10.325029      -280.9583
  38   2.0000     -10.324391      -280.9410
  39   2.0000     -10.322827      -280.8984
  40   2.0000     -10.322753      -280.8964
  41   2.0000     -10.320836      -280.8442
  42   2.0000     -10.320502      -280.8351
  43   2.0000     -10.319638      -280.8116
  44   2.0000     -10.319545      -280.8091
  45   2.0000     -10.318972      -280.7935
  46   2.0000     -10.317512      -280.7538
  47   2.0000     -10.315908      -280.7101
  48   2.0000     -10.315815      -280.7076
  49   2.0000     -10.313435      -280.6428
  50   2.0000     -10.313214      -280.6368
  51   2.0000     -10.312857      -280.6271
  52   2.0000     -10.310823      -280.5718
  53   2.0000     -10.310421      -280.5608
  54   2.0000     -10.310154      -280.5535
  55   2.0000     -10.309995      -280.5492
  56   2.0000     -10.309873      -280.5459
  57   2.0000     -10.309777      -280.5433
  58   2.0000     -10.309403      -280.5331
  59   2.0000     -10.307243      -280.4743
  60   2.0000     -10.307039      -280.4688
  61   2.0000     -10.305097      -280.4159
  62   2.0000     -10.304252      -280.3930
  63   2.0000     -10.302938      -280.3572
  64   2.0000     -10.301043      -280.3056
  65   2.0000     -10.300678      -280.2957
  66   2.0000     -10.300466      -280.2899
  67   2.0000     -10.300458      -280.2897
  68   2.0000     -10.299090      -280.2525
  69   2.0000     -10.299008      -280.2503
  70   2.0000     -10.296433      -280.1802
  71   2.0000     -10.294365      -280.1239
  72   2.0000     -10.289921      -280.0030
  73   2.0000     -10.289202      -279.9834
  74   2.0000      -8.092818      -220.2168
  75   2.0000      -8.086199      -220.0366
  76   2.0000      -8.085766      -220.0249
  77   2.0000      -8.079110      -219.8438
  78   2.0000      -8.057237      -219.2486
  79   2.0000      -8.052349      -219.1156
  80   2.0000      -6.062456      -164.9678
  81   2.0000      -6.058025      -164.8472
  82   2.0000      -6.055801      -164.7867
  83   2.0000      -6.055680      -164.7834
  84   2.0000      -6.054375      -164.7479
  85   2.0000      -6.051538      -164.6707
  86   2.0000      -6.051531      -164.6705
  87   2.0000      -6.048765      -164.5953
  88   2.0000      -6.047873      -164.5710
  89   2.0000      -6.046540      -164.5347
  90   2.0000      -6.044576      -164.4813
  91   2.0000      -6.040467      -164.3695
  92   2.0000      -6.026897      -164.0002
  93   2.0000      -6.022807      -163.8889
  94   2.0000      -6.022078      -163.8691
  95   2.0000      -6.018265      -163.7653
  96   2.0000      -6.017853      -163.7541
  97   2.0000      -6.013301      -163.6302
  98   2.0000      -1.329687       -36.1826
  99   2.0000      -1.326778       -36.1035
 100   2.0000      -1.314792       -35.7773
 101   2.0000      -1.157941       -31.5092
 102   2.0000      -1.146295       -31.1923
 103   2.0000      -1.113714       -30.3057
 104   2.0000      -1.044017       -28.4091
 105   2.0000      -1.031006       -28.0551
 106   2.0000      -1.018213       -27.7070
 107   2.0000      -1.016085       -27.6491
 108   2.0000      -1.015312       -27.6281
 109   2.0000      -1.012691       -27.5567
 110   2.0000      -1.008028       -27.4298
 111   2.0000      -1.004170       -27.3249
 112   2.0000      -1.001321       -27.2473
 113   2.0000      -0.996687       -27.1212
 114   2.0000      -0.991808       -26.9885
 115   2.0000      -0.990101       -26.9420
 116   2.0000      -0.986141       -26.8343
 117   2.0000      -0.980477       -26.6801
 118   2.0000      -0.977059       -26.5871
 119   2.0000      -0.955193       -25.9921
 120   2.0000      -0.942533       -25.6476
 121   2.0000      -0.930528       -25.3210
 122   2.0000      -0.914405       -24.8822
 123   2.0000      -0.910330       -24.7713
 124   2.0000      -0.903714       -24.5913
 125   2.0000      -0.900026       -24.4910
 126   2.0000      -0.897233       -24.4149
 127   2.0000      -0.887128       -24.1400
 128   2.0000      -0.878163       -23.8960
 129   2.0000      -0.874455       -23.7951
 130   2.0000      -0.869786       -23.6681
 131   2.0000      -0.863121       -23.4867
 132   2.0000      -0.861357       -23.4387
 133   2.0000      -0.851585       -23.1728
 134   2.0000      -0.847119       -23.0513
 135   2.0000      -0.835294       -22.7295
 136   2.0000      -0.832424       -22.6514
 137   2.0000      -0.824130       -22.4257
 138   2.0000      -0.817733       -22.2516
 139   2.0000      -0.810374       -22.0514
 140   2.0000      -0.799687       -21.7606
 141   2.0000      -0.787606       -21.4319
 142   2.0000      -0.780743       -21.2451
 143   2.0000      -0.771911       -21.0048
 144   2.0000      -0.759222       -20.6595
 145   2.0000      -0.749463       -20.3939
 146   2.0000      -0.738503       -20.0957
 147   2.0000      -0.734504       -19.9869
 148   2.0000      -0.724333       -19.7101
 149   2.0000      -0.723757       -19.6944
 150   2.0000      -0.709138       -19.2966
 151   2.0000      -0.708000       -19.2657
 152   2.0000      -0.702971       -19.1288
 153   2.0000      -0.698780       -19.0148
 154   2.0000      -0.693910       -18.8822
 155   2.0000      -0.691356       -18.8127
 156   2.0000      -0.679436       -18.4884
 157   2.0000      -0.670870       -18.2553
 158   2.0000      -0.667185       -18.1550
 159   2.0000      -0.661237       -17.9932
 160   2.0000      -0.657528       -17.8923
 161   2.0000      -0.652960       -17.7679
 162   2.0000      -0.651846       -17.7376
 163   2.0000      -0.646091       -17.5810
 164   2.0000      -0.644336       -17.5333
 165   2.0000      -0.640178       -17.4201
 166   2.0000      -0.637732       -17.3536
 167   2.0000      -0.637495       -17.3471
 168   2.0000      -0.635486       -17.2924
 169   2.0000      -0.632453       -17.2099
 170   2.0000      -0.626242       -17.0409
 171   2.0000      -0.616695       -16.7811
 172   2.0000      -0.612813       -16.6755
 173   2.0000      -0.606760       -16.5108
 174   2.0000      -0.595955       -16.2168
 175   2.0000      -0.594182       -16.1685
 176   2.0000      -0.594125       -16.1670
 177   2.0000      -0.587976       -15.9996
 178   2.0000      -0.583867       -15.8878
 179   2.0000      -0.580644       -15.8001
 180   2.0000      -0.578542       -15.7429
 181   2.0000      -0.569066       -15.4851
 182   2.0000      -0.567766       -15.4497
 183   2.0000      -0.564110       -15.3502
 184   2.0000      -0.562690       -15.3116
 185   2.0000      -0.555508       -15.1161
 186   2.0000      -0.554348       -15.0846
 187   2.0000      -0.547911       -14.9094
 188   2.0000      -0.544301       -14.8112
 189   2.0000      -0.542237       -14.7550
 190   2.0000      -0.541293       -14.7293
 191   2.0000      -0.541007       -14.7215
 192   2.0000      -0.536493       -14.5987
 193   2.0000      -0.531657       -14.4671
 194   2.0000      -0.528638       -14.3850
 195   2.0000      -0.526583       -14.3291
 196   2.0000      -0.524655       -14.2766
 197   2.0000      -0.521820       -14.1994
 198   2.0000      -0.519457       -14.1351
 199   2.0000      -0.519245       -14.1294
 200   2.0000      -0.516592       -14.0572
 201   2.0000      -0.514646       -14.0042
 202   2.0000      -0.513508       -13.9733
 203   2.0000      -0.509676       -13.8690
 204   2.0000      -0.509608       -13.8671
 205   2.0000      -0.507319       -13.8049
 206   2.0000      -0.506108       -13.7719
 207   2.0000      -0.501086       -13.6352
 208   2.0000      -0.499482       -13.5916
 209   2.0000      -0.496505       -13.5106
 210   2.0000      -0.494915       -13.4673
 211   2.0000      -0.492345       -13.3974
 212   2.0000      -0.488550       -13.2941
 213   2.0000      -0.487679       -13.2704
 214   2.0000      -0.482260       -13.1230
 215   2.0000      -0.481446       -13.1008
 216   2.0000      -0.479469       -13.0470
 217   2.0000      -0.474555       -12.9133
 218   2.0000      -0.473952       -12.8969
 219   2.0000      -0.470722       -12.8090
 220   2.0000      -0.470149       -12.7934
 221   2.0000      -0.464825       -12.6485
 222   2.0000      -0.461997       -12.5716
 223   2.0000      -0.459375       -12.5002
 224   2.0000      -0.457573       -12.4512
 225   2.0000      -0.456875       -12.4322
 226   2.0000      -0.455107       -12.3841
 227   2.0000      -0.452766       -12.3204
 228   2.0000      -0.447504       -12.1772
 229   2.0000      -0.444422       -12.0933
 230   2.0000      -0.443965       -12.0809
 231   2.0000      -0.443164       -12.0591
 232   2.0000      -0.441281       -12.0079
 233   2.0000      -0.440831       -11.9956
 234   2.0000      -0.439650       -11.9635
 235   2.0000      -0.438545       -11.9334
 236   2.0000      -0.437017       -11.8918
 237   2.0000      -0.436934       -11.8896
 238   2.0000      -0.436226       -11.8703
 239   2.0000      -0.429254       -11.6806
 240   2.0000      -0.426567       -11.6075
 241   2.0000      -0.420621       -11.4457
 242   2.0000      -0.419991       -11.4285
 243   2.0000      -0.419677       -11.4200
 244   2.0000      -0.411445       -11.1960
 245   2.0000      -0.409110       -11.1325
 246   2.0000      -0.406557       -11.0630
 247   2.0000      -0.405295       -11.0286
 248   2.0000      -0.403483       -10.9793
 249   2.0000      -0.394119       -10.7245
 250   2.0000      -0.391535       -10.6542
 251   2.0000      -0.390338       -10.6216
 252   2.0000      -0.389261       -10.5923
 253   2.0000      -0.383137       -10.4257
 254   2.0000      -0.374762       -10.1978
 255   2.0000      -0.373211       -10.1556
 256   2.0000      -0.365945        -9.9579
 257   2.0000      -0.363977        -9.9043
 258   2.0000      -0.354177        -9.6376
 259   2.0000      -0.352529        -9.5928
 260   2.0000      -0.346469        -9.4279
 261   2.0000      -0.335589        -9.1318
 262   2.0000      -0.329742        -8.9727
 263   2.0000      -0.327292        -8.9061
 264   2.0000      -0.324321        -8.8252
 265   2.0000      -0.318326        -8.6621
 266   2.0000      -0.313357        -8.5269
 267   2.0000      -0.307893        -8.3782
 268   2.0000      -0.299197        -8.1416
 269   2.0000      -0.281760        -7.6671
 270   2.0000      -0.271835        -7.3970
 271   2.0000      -0.224571        -6.1109
 272   0.0000      -0.126698        -3.4476
 273   0.0000      -0.100536        -2.7357
 274   0.0000      -0.091016        -2.4767
 275   0.0000      -0.078340        -2.1317
 276   0.0000      -0.057871        -1.5747

MULLIKEN ATOMIC CHARGES
-----------------------
   0 C :   -0.105588
   1 C :    0.243468
   2 F :   -0.167903
   3 C :    0.238649
   4 F :   -0.169088
   5 C :   -0.102673
   6 C :    0.112831
   7 C :    0.111150
   8 C :   -0.079423
   9 C :    0.041597
  10 C :    0.005045
  11 C :   -0.076808
  12 C :    0.171673
  13 O :   -0.219942
  14 C :   -0.137333
  15 C :    0.336873
  16 C :   -0.342233
  17 C :   -0.197991
  18 N :    0.147734
  19 C :   -0.180313
  20 N :    0.150910
  21 C :    0.029913
  22 N :   -0.007553
  23 C :   -0.122183
  24 S :    0.180457
  25 C :    0.011912
  26 N :    0.274346
  27 O :   -0.239679
  28 O :   -0.253431
  29 C :    0.011750
  30 C :    0.114175
  31 C :   -0.034336
  32 C :    0.054438
  33 C :   -0.122202
  34 C :   -0.025676
  35 C :   -0.262812
  36 N :    0.166234
  37 C :    0.143753
  38 C :   -0.235175
  39 S :    0.178694
  40 S :    0.183034
  41 C :   -0.225636
  42 C :    0.103713
  43 C :   -0.004441
  44 C :   -0.303231
  45 N :    0.171372
  46 C :   -0.107758
  47 S :    0.156588
  48 C :   -0.003387
  49 C :   -0.019094
  50 C :    0.032546
  51 C :    0.041820
  52 C :   -0.045229
  53 S :    0.124710
  54 C :   -0.039592
  55 C :   -0.001764
  56 C :    0.092570
  57 C :   -0.131756
  58 S :    0.136315
  59 C :    0.021905
  60 C :    0.060999
  61 C :   -0.016199
  62 C :   -0.086839
  63 C :   -0.129570
  64 N :    0.142510
  65 C :   -0.039859
  66 C :    0.076373
  67 C :    0.003279
  68 C :   -0.001148
  69 C :    0.062531
  70 C :   -0.157133
  71 C :    0.021730
  72 C :   -0.122167
  73 N :    0.134151
  74 H :    0.009830
  75 H :    0.000385
  76 H :   -0.004162
  77 H :   -0.010401
  78 H :    0.048524
  79 H :    0.179918
  80 H :    0.024827
  81 H :    0.020582
  82 H :   -0.015340
  83 H :   -0.007864
  84 H :   -0.007005
  85 H :   -0.007534
  86 H :   -0.007043
  87 H :    0.002583
  88 H :    0.008176
  89 H :   -0.006909
  90 H :   -0.008562
  91 H :   -0.008817
  92 H :   -0.003986
  93 H :    0.018195
Sum of atomic charges:   -0.0000000

LOEWDIN ATOMIC CHARGES
----------------------
   0 C :   -0.027873
   1 C :    0.068673
   2 F :   -0.045734
   3 C :    0.068521
   4 F :   -0.047080
   5 C :   -0.032479
   6 C :   -0.010039
   7 C :   -0.005503
   8 C :    0.020676
   9 C :   -0.020272
  10 C :   -0.053401
  11 C :    0.032601
  12 C :    0.095180
  13 O :   -0.179601
  14 C :   -0.144403
  15 C :    0.077747
  16 C :   -0.145598
  17 C :   -0.020903
  18 N :   -0.049783
  19 C :   -0.019138
  20 N :   -0.051422
  21 C :    0.113368
  22 N :    0.081584
  23 C :   -0.111161
  24 S :    0.478589
  25 C :   -0.199687
  26 N :    0.272548
  27 O :   -0.205476
  28 O :   -0.220276
  29 C :    0.007001
  30 C :   -0.085038
  31 C :   -0.004425
  32 C :   -0.049357
  33 C :   -0.128401
  34 C :   -0.098588
  35 C :   -0.030321
  36 N :   -0.041249
  37 C :   -0.058916
  38 C :   -0.336781
  39 S :    0.462106
  40 S :    0.419738
  41 C :   -0.335713
  42 C :   -0.060590
  43 C :   -0.120378
  44 C :   -0.063234
  45 N :   -0.044032
  46 C :   -0.125146
  47 S :    0.436284
  48 C :   -0.095839
  49 C :   -0.126641
  50 C :   -0.031432
  51 C :   -0.021881
  52 C :   -0.176569
  53 S :    0.437735
  54 C :   -0.168404
  55 C :   -0.024215
  56 C :   -0.027807
  57 C :   -0.144323
  58 S :    0.412905
  59 C :   -0.038254
  60 C :   -0.020811
  61 C :   -0.013496
  62 C :   -0.043207
  63 C :   -0.028609
  64 N :   -0.039314
  65 C :   -0.021248
  66 C :    0.034005
  67 C :    0.023325
  68 C :   -0.034957
  69 C :    0.018070
  70 C :   -0.066920
  71 C :    0.011008
  72 C :   -0.032539
  73 N :   -0.049360
  74 H :    0.048900
  75 H :    0.045096
  76 H :    0.041432
  77 H :    0.040579
  78 H :    0.036715
  79 H :    0.086870
  80 H :    0.052477
  81 H :    0.043667
  82 H :    0.023407
  83 H :    0.035434
  84 H :    0.035392
  85 H :    0.034691
  86 H :    0.035488
  87 H :    0.036846
  88 H :    0.041773
  89 H :    0.033630
  90 H :    0.032332
  91 H :    0.029247
  92 H :    0.034494
  93 H :    0.037694

  Mayer bond orders larger than 0.100000
B(  0-C ,  1-C ) :   1.4358 B(  0-C ,  5-C ) :   0.1078 B(  0-C ,  7-C ) :   1.1951
B(  0-C , 74-H ) :   1.0057 B(  1-C ,  2-F ) :   1.1384 B(  1-C ,  3-C ) :   1.1939
B(  3-C ,  4-F ) :   1.1364 B(  3-C ,  5-C ) :   1.4420 B(  5-C ,  6-C ) :   1.1916
B(  5-C , 75-H ) :   1.0056 B(  6-C ,  7-C ) :   1.2590 B(  6-C , 11-C ) :   1.1879
B(  7-C ,  8-C ) :   1.2080 B(  8-C ,  9-C ) :   1.4669 B(  8-C , 76-H ) :   0.9882
B(  9-C , 10-C ) :   1.2213 B(  9-C , 15-C ) :   0.9847 B( 10-C , 11-C ) :   1.4667
B( 10-C , 12-C ) :   0.9785 B( 11-C , 77-H ) :   1.0166 B( 12-C , 13-O ) :   2.0414
B( 12-C , 14-C ) :   1.0022 B( 13-O , 79-H ) :   0.1356 B( 14-C , 15-C ) :   1.0989
B( 14-C , 21-C ) :   1.4493 B( 15-C , 16-C ) :   1.6331 B( 16-C , 17-C ) :   1.1464
B( 16-C , 19-C ) :   1.1445 B( 17-C , 18-N ) :   2.9542 B( 19-C , 20-N ) :   2.9621
B( 21-C , 22-N ) :   1.3429 B( 21-C , 78-H ) :   0.9294 B( 22-N , 23-C ) :   1.1801
B( 22-N , 79-H ) :   0.8261 B( 23-C , 24-S ) :   1.1424 B( 23-C , 30-C ) :   1.3941
B( 24-S , 25-C ) :   1.0861 B( 25-C , 26-N ) :   0.9566 B( 25-C , 29-C ) :   1.4989
B( 26-N , 27-O ) :   1.5459 B( 26-N , 28-O ) :   1.5183 B( 27-O , 28-O ) :   0.2653
B( 29-C , 30-C ) :   1.2125 B( 29-C , 80-H ) :   1.0097 B( 30-C , 31-C ) :   1.0801
B( 31-C , 32-C ) :   1.7165 B( 31-C , 81-H ) :   0.9458 B( 32-C , 33-C ) :   1.1613
B( 32-C , 82-H ) :   0.9253 B( 33-C , 34-C ) :   1.4892 B( 33-C , 39-S ) :   1.1376
B( 34-C , 35-C ) :   1.1605 B( 34-C , 37-C ) :   1.2657 B( 35-C , 36-N ) :   2.9270
B( 37-C , 38-C ) :   1.4062 B( 37-C , 42-C ) :   1.0984 B( 38-C , 39-S ) :   1.0938
B( 38-C , 40-S ) :   1.0813 B( 40-S , 41-C ) :   1.0800 B( 41-C , 42-C ) :   1.4295
B( 41-C , 47-S ) :   1.0778 B( 42-C , 43-C ) :   1.2495 B( 43-C , 44-C ) :   1.1353
B( 43-C , 46-C ) :   1.4361 B( 44-C , 45-N ) :   2.9955 B( 46-C , 47-S ) :   1.1169
B( 46-C , 48-C ) :   1.1889 B( 48-C , 49-C ) :   1.5800 B( 48-C , 83-H ) :   0.9413
B( 49-C , 50-C ) :   1.1457 B( 49-C , 53-S ) :   1.0704 B( 50-C , 51-C ) :   1.5897
B( 50-C , 84-H ) :   0.9980 B( 51-C , 52-C ) :   1.1933 B( 51-C , 85-H ) :   0.9920
B( 52-C , 53-S ) :   1.0677 B( 52-C , 54-C ) :   1.4791 B( 54-C , 55-C ) :   1.1974
B( 54-C , 58-S ) :   1.0609 B( 55-C , 56-C ) :   1.5976 B( 55-C , 86-H ) :   0.9967
B( 56-C , 57-C ) :   1.1720 B( 56-C , 87-H ) :   0.9780 B( 57-C , 58-S ) :   1.0619
B( 57-C , 59-C ) :   1.4976 B( 59-C , 60-C ) :   1.2246 B( 59-C , 88-H ) :   0.9477
B( 60-C , 61-C ) :   1.4943 B( 60-C , 66-C ) :   1.0119 B( 61-C , 62-C ) :   1.1617
B( 61-C , 89-H ) :   1.0237 B( 62-C , 63-C ) :   1.0597 B( 62-C , 65-C ) :   1.5379
B( 63-C , 64-N ) :   3.0436 B( 65-C , 66-C ) :   1.1453 B( 65-C , 90-H ) :   1.0217
B( 66-C , 67-C ) :   1.4454 B( 67-C , 68-C ) :   1.0918 B( 67-C , 71-C ) :   1.0887
B( 68-C , 69-C ) :   1.6668 B( 68-C , 91-H ) :   1.0071 B( 69-C , 70-C ) :   1.0803
B( 69-C , 92-H ) :   1.0136 B( 70-C , 71-C ) :   1.6660 B( 70-C , 72-C ) :   1.0696
B( 71-C , 93-H ) :   1.0057 B( 72-C , 73-N ) :   3.0344

-----------------------------------------------------------------------------
         ABSORPTION SPECTRUM VIA TRANSITION ELECTRIC DIPOLE MOMENTS
-----------------------------------------------------------------------------
State   Energy  Wavelength   fosc         T2         TX        TY        TZ
        (cm-1)    (nm)                  (au**2)     (au)      (au)      (au)
-----------------------------------------------------------------------------
   0    5539.4   1805.3   0.123593968   7.34534   2.47270   0.07970  -1.10668
   1   14919.3    670.3   1.031376063  22.75857   3.98203  -0.61661  -2.55378
   2   17307.2    577.8   0.043427378   0.82606   0.48201  -0.36471  -0.67876
   3   18497.9    540.6   0.000715839   0.01274   0.07612  -0.07311   0.04001
   4   20331.5    491.8   0.014858320   0.24059  -0.46166   0.13295  -0.09888
   5   21085.8    474.3   0.688774174  10.75381   3.22258  -0.34217   0.50171
   6   22639.7    441.7   0.009402797   0.13673  -0.10399   0.01684   0.35445
   7   23854.0    419.2   0.001060801   0.01464  -0.06180   0.10092  -0.02524
   8   24452.5    409.0   0.000644814   0.00868   0.00191  -0.00689  -0.09290
   9   24646.5    405.7   0.037984726   0.50737  -0.33632   0.37104  -0.50655
  10   25641.4    390.0   0.030504042   0.39164   0.01434   0.21565  -0.58731
  11   25868.3    386.6   0.095328146   1.21319   0.36154  -1.04039   0.00871
  12   26933.7    371.3   0.188336809   2.30205  -0.10917   0.49785  -1.42908
  13   27304.3    366.2   0.006013694   0.07251  -0.19619   0.18040   0.03836
  14   27501.3    363.6   0.093613177   1.12062   1.03849  -0.08362  -0.18751
  15   28018.0    356.9   0.053545160   0.62916  -0.18402   0.16861   0.75290
  16   28932.6    345.6   0.031706747   0.36078   0.02552   0.01537  -0.59991
  17   28994.7    344.9   0.545627444   6.19516  -0.03773   0.07091  -2.48771
  18   29612.5    337.7   0.001189685   0.01323   0.01626  -0.11056   0.02715
  19   29739.6    336.3   0.141336868   1.56457   0.48727   0.17567  -1.13854
  20   30058.3    332.7   0.096001093   1.05145   0.54284   0.24622  -0.83435
  21   30266.5    330.4   0.499922644   5.43771   1.41808   0.18880  -1.84150
  22   30430.0    328.6   0.130711627   1.41412   0.20859  -0.12436  -1.16411
  23   30911.0    323.5   0.882137229   9.39503   0.99113   0.27423   2.88747
  24   31254.7    320.0   0.124981328   1.31645  -0.61093  -0.64780  -0.72358
  25   32250.0    310.1   0.018250449   0.18630  -0.25912  -0.11845   0.32424
  26   32408.2    308.6   0.023951333   0.24330   0.48687   0.02130  -0.07623
  27   32556.4    307.2   0.295716512   2.99030  -0.41326  -0.37335   1.63711
  28   33072.1    302.4   0.000694104   0.00691  -0.01334  -0.04020   0.07152
  29   33132.1    301.8   0.019617926   0.19493  -0.23195   0.05460   0.37168
  30   33820.4    295.7   0.027744162   0.27007   0.01104   0.03478   0.51840
  31   33902.8    295.0   0.025136500   0.24409   0.38771  -0.30365  -0.03957
  32   34291.9    291.6   0.026366883   0.25313   0.22187   0.06380  -0.44703
  33   34452.9    290.3   0.845854348   8.08251  -0.67890  -0.76142   2.65365
  34   34781.5    287.5   0.066290217   0.62745  -0.13408   0.31456   0.71451
  35   35012.3    285.6   0.022112879   0.20792   0.01666   0.16564  -0.42451
  36   35188.3    284.2   0.003679583   0.03443   0.18079  -0.02931   0.02971
  37   35360.3    282.8   0.159741628   1.48723   0.15008  -0.52983  -1.08811
  38   35416.1    282.4   0.089224616   0.82939  -0.41668   0.24037   0.77330
  39   35759.5    279.6   0.017338465   0.15962   0.28705  -0.27656  -0.02720
  40   35900.5    278.5   0.013111613   0.12024  -0.29890   0.17038   0.04319
  41   36230.0    276.0   0.016738567   0.15210  -0.26298   0.14575   0.24838
  42   36504.0    273.9   0.006871381   0.06197  -0.10317  -0.08128  -0.21147
  43   36584.8    273.3   0.050483087   0.45428   0.13252  -0.01129   0.66075
  44   37002.0    270.3   0.188406793   1.67628  -1.14098   0.45511  -0.40904
  45   37052.9    269.9   0.066388462   0.58986  -0.05997   0.01779  -0.76547
  46   37199.6    268.8   0.130631619   1.15607  -1.02109   0.12554   0.31255
  47   37264.6    268.4   0.003261365   0.02881  -0.14362  -0.08468   0.03186
  48   37379.3    267.5   0.014414242   0.12695   0.00215  -0.24175  -0.26173
  49   38323.1    260.9   0.028391979   0.24390  -0.41232   0.08211   0.25913
  50   38708.4    258.3   0.000152572   0.00130   0.00766  -0.01962  -0.02922
  51   38754.2    258.0   0.007809784   0.06634  -0.07343   0.07716   0.23452
  52   39142.2    255.5   0.005638422   0.04742   0.05651  -0.10074   0.18461
  53   39575.4    252.7   0.007088485   0.05897  -0.19303  -0.03640  -0.14276
  54   39656.2    252.2   0.022562909   0.18731   0.01622  -0.21185   0.37705
  55   39975.9    250.2   0.079831418   0.65743   0.77056  -0.01924  -0.25159
  56   40300.5    248.1   0.012175913   0.09946  -0.05871   0.10424   0.29181

FINAL SINGLE POINT ENERGY     -5355.658467268792

DIPOLE MOMENT
-------------
                                X             Y             Z
Electronic contribution:     65.20735     -14.64020      -7.41259
Nuclear contribution   :    -64.88218      15.30909       2.38896
                        -----------------------------------------
Total Dipole Moment    :      0.32517       0.66889      -5.02363
                        -----------------------------------------
Magnitude (a.u.)       :      5.07839
Magnitude (Debye)      :     12.90823

Rotational constants in cm-1:     0.001133     0.000279     0.000231
Rotational constants in MHz :    33.980184     8.369600     6.914528

                             ****ORCA TERMINATED NORMALLY****
TOTAL RUN TIME: 0 days 0 hours 26 minutes 39 seconds 591 msec
