                         Program Version 4.2.0 -  RELEASE  -
|  1> # ORCA input file
|  2> # SCF done       -220.969921945023          0.000464190762
|  3> ! CAM-B3LYP def2-SVP def2/J RIJCOSX Grid4 TightSCF
|  4> %maxcore 5000
|  5> %tddft
|  6>     Mode sTDDFT
|  7>     Ethresh 5.0
|  8>     maxcore 5000
|  9> end
| 10>
| 11> %pal
| 12>   nprocs 6
| 13>   end
| 14> * xyz 0 1
| 15>    C        3.12891         3.07145         2.92439
| 16>    C        3.64999         3.15248         4.18500
| 17>    F        4.22964         4.28411         4.60256
| 18>    C        3.58452         2.04932         5.06125
| 19>    F        4.10364         2.15832         6.29039
| 20>    C        2.99907         0.88012         4.66384
| 21>    C        2.45281         0.76497         3.37048
| 22>    C        2.51651         1.88019         2.48429
| 23>    C        1.96767         1.79155         1.18573
| 24>    C        1.36771         0.62511         0.78564
| 25>    C        1.31655        -0.48572         1.67432
| 26>    C        1.84350        -0.43106         2.93326
| 27>    C        0.63792        -1.61410         1.01874
| 28>    O        0.52955        -2.74492         1.43466
| 29>    C        0.22659        -1.10500        -0.32620
| 30>    C        0.69714         0.26714        -0.45811
| 31>    C        0.46544         1.10230        -1.51505
| 32>    C       -0.27617         0.76185        -2.66800
| 33>    N       -0.88777         0.56128        -3.61790
| 34>    C        0.91777         2.43873        -1.58198
| 35>    N        1.26468         3.52595        -1.69845
| 36>    C       -0.36861        -1.86689        -1.27119
| 37>    C       -1.00587        -3.13116        -0.99923
| 38>    C       -0.94353        -4.22668        -1.84103
| 39>    C       -0.18609        -4.32383        -3.00845
| 40>    N        0.44155        -4.39149        -3.96714
| 41>    S       -1.87550        -5.56822        -1.25346
| 42>    C       -2.40667        -4.64919         0.12562
| 43>    C       -1.85605        -3.37632         0.11788
| 44>    C       -2.16792        -2.35805         1.03344
| 45>    N       -2.41208        -1.47357         1.72296
| 46>    C       -3.32591        -5.20664         1.05422
| 47>    S       -3.85640        -4.32811         2.46506
| 48>    C       -4.95011        -5.58550         2.86667
| 49>    C       -4.92586        -6.61264         1.97813
| 50>    C       -3.99132        -6.41750         0.93541
| 51>    C       -3.75841        -7.40436        -0.11349
| 52>    C       -4.69400        -7.83126        -0.97955
| 53>    C       -4.44348        -9.02268        -1.87612
| 54>    C       -5.46846       -10.06755        -1.56848
| 55>    S       -6.84155       -10.29001        -2.60869
| 56>    C       -7.54696       -11.43537        -1.51679
| 57>    C       -8.87697       -12.03151        -1.81552
| 58>    C       -8.88632       -12.78146        -3.14700
| 59>    C       -6.74327       -11.63054        -0.43819
| 60>    C       -5.56726       -10.84682        -0.45892
| 61>    C       -6.01022        -7.24527        -1.09024
| 62>    C       -6.32694        -5.96413        -0.82574
| 63>    C       -7.63892        -5.40938        -0.90635
| 64>    C       -8.87326        -6.02455        -1.06608
| 65>    C       -9.06271        -7.41472        -1.11511
| 66>    N       -9.24222        -8.54799        -1.11601
| 67>    C       -9.94568        -5.08784        -1.09182
| 68>    C       -9.48684        -3.78649        -0.92698
| 69>    S       -7.78227        -3.67160        -0.75584
| 70>    S      -10.71622        -2.56088        -0.92012
| 71>    C      -11.88265        -3.81379        -1.15321
| 72>    C      -11.36535        -5.10739        -1.23318
| 73>    C      -12.39899        -6.05476        -1.43332
| 74>    C      -12.24785        -7.44565        -1.57799
| 75>    N      -12.18401        -8.58356        -1.69551
| 76>    C      -13.65603        -5.46745        -1.53138
| 77>    S      -13.58741        -3.72949        -1.32101
| 78>    C      -14.88530        -6.16368        -1.68098
| 79>    C      -16.07013        -5.68965        -2.13960
| 80>    C      -17.33912        -6.39396        -1.78206
| 81>    O      -17.44469        -7.50663        -1.32908
| 82>    C      -18.40515        -5.40337        -2.03447
| 83>    C      -19.73647        -5.48506        -1.74202
| 84>    C      -20.57498        -4.38986        -2.04757
| 85>    C      -20.01539        -3.22458        -2.64941
| 86>    C      -20.85707        -2.13262        -2.94235
| 87>    C      -22.19145        -2.19497        -2.65398
| 88>    C      -22.74432        -3.34842        -2.06038
| 89>    C      -21.95436        -4.42358        -1.76373
| 90>    F      -24.05426        -3.38023        -1.78739
| 91>    F      -22.98917        -1.15732        -2.93225
| 92>    C      -18.63525        -3.17128        -2.94891
| 93>    C      -17.84357        -4.24778        -2.65039
| 94>    C      -16.42087        -4.48579        -2.86897
| 95>    C      -15.64586        -3.86008        -3.80755
| 96>    C      -14.35365        -4.30204        -4.16296
| 97>    N      -13.31430        -4.66024        -4.49197
| 98>    C      -16.08285        -2.75903        -4.57310
| 99>    N      -16.39126        -1.85111        -5.20277
|100>    H        3.18561         3.92533         2.26745
|101>    H        2.95656         0.04555         5.34598
|102>    H        2.03437         2.65104         0.53852
|103>    H        1.78685        -1.28767         3.58734
|104>    H       -0.40104        -1.53902        -2.30253
|105>    H       -5.55111        -5.49239         3.74956
|106>    H       -5.53828        -7.49283         2.05297
|107>    H       -2.77891        -7.86858        -0.11518
|108>    H       -3.43706        -9.41038        -1.70735
|109>    H       -4.53221        -8.72359        -2.92274
|110>    H       -9.62064       -11.23029        -1.84759
|111>    H       -9.14309       -12.71078        -1.00287
|112>    H       -8.64231       -12.10464        -3.96305
|113>    H       -9.86974       -13.20555        -3.33237
|114>    H       -8.15565       -13.58812        -3.13657
|115>    H       -6.98870       -12.30687         0.36149
|116>    H       -4.82558       -10.86240         0.32085
|117>    H       -6.78197        -7.90219        -1.46273
|118>    H       -5.55703        -5.25532        -0.55478
|119>    H      -14.89374        -7.18623        -1.31308
|120>    H      -20.14398        -6.37260        -1.28256
|121>    H      -20.45109        -1.24413        -3.40014
|122>    H      -22.39267        -5.29845        -1.30969
|123>    H      -18.23354        -2.27569        -3.39589
|124> *
|125>
|126>                          ****END OF INPUT****

CARTESIAN COORDINATES (ANGSTROEM)
---------------------------------
  C      3.128910    3.071450    2.924390
  C      3.649990    3.152480    4.185000
  F      4.229640    4.284110    4.602560
  C      3.584520    2.049320    5.061250
  F      4.103640    2.158320    6.290390
  C      2.999070    0.880120    4.663840
  C      2.452810    0.764970    3.370480
  C      2.516510    1.880190    2.484290
  C      1.967670    1.791550    1.185730
  C      1.367710    0.625110    0.785640
  C      1.316550   -0.485720    1.674320
  C      1.843500   -0.431060    2.933260
  C      0.637920   -1.614100    1.018740
  O      0.529550   -2.744920    1.434660
  C      0.226590   -1.105000   -0.326200
  C      0.697140    0.267140   -0.458110
  C      0.465440    1.102300   -1.515050
  C     -0.276170    0.761850   -2.668000
  N     -0.887770    0.561280   -3.617900
  C      0.917770    2.438730   -1.581980
  N      1.264680    3.525950   -1.698450
  C     -0.368610   -1.866890   -1.271190
  C     -1.005870   -3.131160   -0.999230
  C     -0.943530   -4.226680   -1.841030
  C     -0.186090   -4.323830   -3.008450
  N      0.441550   -4.391490   -3.967140
  S     -1.875500   -5.568220   -1.253460
  C     -2.406670   -4.649190    0.125620
  C     -1.856050   -3.376320    0.117880
  C     -2.167920   -2.358050    1.033440
  N     -2.412080   -1.473570    1.722960
  C     -3.325910   -5.206640    1.054220
  S     -3.856400   -4.328110    2.465060
  C     -4.950110   -5.585500    2.866670
  C     -4.925860   -6.612640    1.978130
  C     -3.991320   -6.417500    0.935410
  C     -3.758410   -7.404360   -0.113490
  C     -4.694000   -7.831260   -0.979550
  C     -4.443480   -9.022680   -1.876120
  C     -5.468460  -10.067550   -1.568480
  S     -6.841550  -10.290010   -2.608690
  C     -7.546960  -11.435370   -1.516790
  C     -8.876970  -12.031510   -1.815520
  C     -8.886320  -12.781460   -3.147000
  C     -6.743270  -11.630540   -0.438190
  C     -5.567260  -10.846820   -0.458920
  C     -6.010220   -7.245270   -1.090240
  C     -6.326940   -5.964130   -0.825740
  C     -7.638920   -5.409380   -0.906350
  C     -8.873260   -6.024550   -1.066080
  C     -9.062710   -7.414720   -1.115110
  N     -9.242220   -8.547990   -1.116010
  C     -9.945680   -5.087840   -1.091820
  C     -9.486840   -3.786490   -0.926980
  S     -7.782270   -3.671600   -0.755840
  S    -10.716220   -2.560880   -0.920120
  C    -11.882650   -3.813790   -1.153210
  C    -11.365350   -5.107390   -1.233180
  C    -12.398990   -6.054760   -1.433320
  C    -12.247850   -7.445650   -1.577990
  N    -12.184010   -8.583560   -1.695510
  C    -13.656030   -5.467450   -1.531380
  S    -13.587410   -3.729490   -1.321010
  C    -14.885300   -6.163680   -1.680980
  C    -16.070130   -5.689650   -2.139600
  C    -17.339120   -6.393960   -1.782060
  O    -17.444690   -7.506630   -1.329080
  C    -18.405150   -5.403370   -2.034470
  C    -19.736470   -5.485060   -1.742020
  C    -20.574980   -4.389860   -2.047570
  C    -20.015390   -3.224580   -2.649410
  C    -20.857070   -2.132620   -2.942350
  C    -22.191450   -2.194970   -2.653980
  C    -22.744320   -3.348420   -2.060380
  C    -21.954360   -4.423580   -1.763730
  F    -24.054260   -3.380230   -1.787390
  F    -22.989170   -1.157320   -2.932250
  C    -18.635250   -3.171280   -2.948910
  C    -17.843570   -4.247780   -2.650390
  C    -16.420870   -4.485790   -2.868970
  C    -15.645860   -3.860080   -3.807550
  C    -14.353650   -4.302040   -4.162960
  N    -13.314300   -4.660240   -4.491970
  C    -16.082850   -2.759030   -4.573100
  N    -16.391260   -1.851110   -5.202770
  H      3.185610    3.925330    2.267450
  H      2.956560    0.045550    5.345980
  H      2.034370    2.651040    0.538520
  H      1.786850   -1.287670    3.587340
  H     -0.401040   -1.539020   -2.302530
  H     -5.551110   -5.492390    3.749560
  H     -5.538280   -7.492830    2.052970
  H     -2.778910   -7.868580   -0.115180
  H     -3.437060   -9.410380   -1.707350
  H     -4.532210   -8.723590   -2.922740
  H     -9.620640  -11.230290   -1.847590
  H     -9.143090  -12.710780   -1.002870
  H     -8.642310  -12.104640   -3.963050
  H     -9.869740  -13.205550   -3.332370
  H     -8.155650  -13.588120   -3.136570
  H     -6.988700  -12.306870    0.361490
  H     -4.825580  -10.862400    0.320850
  H     -6.781970   -7.902190   -1.462730
  H     -5.557030   -5.255320   -0.554780
  H    -14.893740   -7.186230   -1.313080
  H    -20.143980   -6.372600   -1.282560
  H    -20.451090   -1.244130   -3.400140
  H    -22.392670   -5.298450   -1.309690
  H    -18.233540   -2.275690   -3.395890

 Total Charge           Charge          ....    0
 Multiplicity           Mult            ....    1
 Number of Electrons    NEL             ....  618
 Basis Dimension        Dim             .... 1334

ORBITAL ENERGIES
----------------

  NO   OCC          E(Eh)            E(eV)
   0   2.0000     -89.002309     -2421.8759
   1   2.0000     -89.001690     -2421.8591
   2   2.0000     -89.001290     -2421.8482
   3   2.0000     -88.995179     -2421.6819
   4   2.0000     -88.974781     -2421.1269
   5   2.0000     -88.938360     -2420.1358
   6   2.0000     -24.805387      -674.9889
   7   2.0000     -24.804944      -674.9768
   8   2.0000     -24.804015      -674.9516
   9   2.0000     -24.803000      -674.9239
  10   2.0000     -19.229485      -523.2609
  11   2.0000     -19.228302      -523.2287
  12   2.0000     -14.429111      -392.6361
  13   2.0000     -14.426984      -392.5782
  14   2.0000     -14.426949      -392.5773
  15   2.0000     -14.426850      -392.5745
  16   2.0000     -14.423867      -392.4934
  17   2.0000     -14.420639      -392.4055
  18   2.0000     -14.420285      -392.3959
  19   2.0000     -14.415520      -392.2662
  20   2.0000     -10.389398      -282.7099
  21   2.0000     -10.389016      -282.6995
  22   2.0000     -10.387776      -282.6658
  23   2.0000     -10.387175      -282.6494
  24   2.0000     -10.381051      -282.4828
  25   2.0000     -10.380150      -282.4582
  26   2.0000     -10.359353      -281.8923
  27   2.0000     -10.357751      -281.8487
  28   2.0000     -10.357214      -281.8341
  29   2.0000     -10.357148      -281.8323
  30   2.0000     -10.356186      -281.8061
  31   2.0000     -10.353050      -281.7208
  32   2.0000     -10.352121      -281.6955
  33   2.0000     -10.349795      -281.6322
  34   2.0000     -10.349134      -281.6142
  35   2.0000     -10.346711      -281.5483
  36   2.0000     -10.343816      -281.4696
  37   2.0000     -10.336982      -281.2836
  38   2.0000     -10.334803      -281.2243
  39   2.0000     -10.333358      -281.1850
  40   2.0000     -10.332497      -281.1615
  41   2.0000     -10.331496      -281.1343
  42   2.0000     -10.330776      -281.1147
  43   2.0000     -10.328682      -281.0577
  44   2.0000     -10.328307      -281.0475
  45   2.0000     -10.328254      -281.0461
  46   2.0000     -10.326041      -280.9859
  47   2.0000     -10.325885      -280.9816
  48   2.0000     -10.324806      -280.9522
  49   2.0000     -10.322433      -280.8877
  50   2.0000     -10.321846      -280.8717
  51   2.0000     -10.319986      -280.8211
  52   2.0000     -10.319475      -280.8072
  53   2.0000     -10.319473      -280.8071
  54   2.0000     -10.319172      -280.7990
  55   2.0000     -10.317832      -280.7625
  56   2.0000     -10.317780      -280.7611
  57   2.0000     -10.317474      -280.7528
  58   2.0000     -10.316687      -280.7313
  59   2.0000     -10.316313      -280.7212
  60   2.0000     -10.314753      -280.6787
  61   2.0000     -10.313413      -280.6422
  62   2.0000     -10.312975      -280.6303
  63   2.0000     -10.312710      -280.6231
  64   2.0000     -10.310402      -280.5603
  65   2.0000     -10.310243      -280.5560
  66   2.0000     -10.308999      -280.5221
  67   2.0000     -10.308395      -280.5057
  68   2.0000     -10.307233      -280.4741
  69   2.0000     -10.307180      -280.4726
  70   2.0000     -10.306476      -280.4535
  71   2.0000     -10.304665      -280.4042
  72   2.0000     -10.304025      -280.3868
  73   2.0000     -10.303340      -280.3681
  74   2.0000     -10.301518      -280.3186
  75   2.0000     -10.292629      -280.0767
  76   2.0000     -10.292404      -280.0705
  77   2.0000     -10.289605      -279.9944
  78   2.0000     -10.289467      -279.9906
  79   2.0000     -10.286721      -279.9159
  80   2.0000     -10.279391      -279.7164
  81   2.0000     -10.258906      -279.1590
  82   2.0000     -10.255929      -279.0780
  83   2.0000     -10.252320      -278.9798
  84   2.0000     -10.244710      -278.7727
  85   2.0000      -8.096998      -220.3305
  86   2.0000      -8.096772      -220.3244
  87   2.0000      -8.095445      -220.2883
  88   2.0000      -8.090627      -220.1572
  89   2.0000      -8.070068      -219.5977
  90   2.0000      -8.033730      -218.6089
  91   2.0000      -6.066745      -165.0845
  92   2.0000      -6.066594      -165.0804
  93   2.0000      -6.064989      -165.0367
  94   2.0000      -6.062450      -164.9676
  95   2.0000      -6.062342      -164.9647
  96   2.0000      -6.060498      -164.9145
  97   2.0000      -6.060149      -164.9050
  98   2.0000      -6.058622      -164.8635
  99   2.0000      -6.057652      -164.8371
 100   2.0000      -6.057419      -164.8307
 101   2.0000      -6.055897      -164.7893
 102   2.0000      -6.052314      -164.6918
 103   2.0000      -6.039493      -164.3430
 104   2.0000      -6.034911      -164.2183
 105   2.0000      -6.032271      -164.1464
 106   2.0000      -6.002843      -163.3457
 107   2.0000      -5.998839      -163.2367
 108   2.0000      -5.996156      -163.1637
 109   2.0000      -1.328601       -36.1531
 110   2.0000      -1.326822       -36.1047
 111   2.0000      -1.313685       -35.7472
 112   2.0000      -1.311900       -35.6986
 113   2.0000      -1.146283       -31.1919
 114   2.0000      -1.144711       -31.1492
 115   2.0000      -1.056409       -28.7464
 116   2.0000      -1.041625       -28.3441
 117   2.0000      -1.033675       -28.1277
 118   2.0000      -1.030197       -28.0331
 119   2.0000      -1.022058       -27.8116
 120   2.0000      -1.014641       -27.6098
 121   2.0000      -1.013010       -27.5654
 122   2.0000      -1.009250       -27.4631
 123   2.0000      -1.006200       -27.3801
 124   2.0000      -1.005140       -27.3513
 125   2.0000      -1.004692       -27.3391
 126   2.0000      -1.003624       -27.3100
 127   2.0000      -0.994741       -27.0683
 128   2.0000      -0.994111       -27.0511
 129   2.0000      -0.991861       -26.9899
 130   2.0000      -0.989896       -26.9364
 131   2.0000      -0.971815       -26.4444
 132   2.0000      -0.966163       -26.2906
 133   2.0000      -0.943677       -25.6788
 134   2.0000      -0.943086       -25.6627
 135   2.0000      -0.940022       -25.5793
 136   2.0000      -0.926647       -25.2154
 137   2.0000      -0.917953       -24.9788
 138   2.0000      -0.910211       -24.7681
 139   2.0000      -0.904037       -24.6001
 140   2.0000      -0.902619       -24.5615
 141   2.0000      -0.900583       -24.5061
 142   2.0000      -0.897360       -24.4184
 143   2.0000      -0.894967       -24.3533
 144   2.0000      -0.881563       -23.9885
 145   2.0000      -0.878224       -23.8977
 146   2.0000      -0.877093       -23.8669
 147   2.0000      -0.861699       -23.4480
 148   2.0000      -0.850413       -23.1409
 149   2.0000      -0.850213       -23.1355
 150   2.0000      -0.848046       -23.0765
 151   2.0000      -0.839490       -22.8437
 152   2.0000      -0.833002       -22.6671
 153   2.0000      -0.822067       -22.3696
 154   2.0000      -0.812866       -22.1192
 155   2.0000      -0.805113       -21.9082
 156   2.0000      -0.802095       -21.8261
 157   2.0000      -0.793233       -21.5850
 158   2.0000      -0.777609       -21.1598
 159   2.0000      -0.777342       -21.1525
 160   2.0000      -0.761891       -20.7321
 161   2.0000      -0.757572       -20.6146
 162   2.0000      -0.755660       -20.5626
 163   2.0000      -0.743033       -20.2190
 164   2.0000      -0.739670       -20.1274
 165   2.0000      -0.733237       -19.9524
 166   2.0000      -0.729036       -19.8381
 167   2.0000      -0.726621       -19.7724
 168   2.0000      -0.725868       -19.7519
 169   2.0000      -0.710803       -19.3419
 170   2.0000      -0.709605       -19.3093
 171   2.0000      -0.703483       -19.1427
 172   2.0000      -0.696249       -18.9459
 173   2.0000      -0.695714       -18.9313
 174   2.0000      -0.689197       -18.7540
 175   2.0000      -0.681133       -18.5346
 176   2.0000      -0.678513       -18.4633
 177   2.0000      -0.668421       -18.1887
 178   2.0000      -0.667039       -18.1511
 179   2.0000      -0.664214       -18.0742
 180   2.0000      -0.657876       -17.9017
 181   2.0000      -0.654569       -17.8117
 182   2.0000      -0.652047       -17.7431
 183   2.0000      -0.651565       -17.7300
 184   2.0000      -0.649218       -17.6661
 185   2.0000      -0.636316       -17.3150
 186   2.0000      -0.632420       -17.2090
 187   2.0000      -0.626846       -17.0574
 188   2.0000      -0.621826       -16.9207
 189   2.0000      -0.617442       -16.8015
 190   2.0000      -0.608754       -16.5650
 191   2.0000      -0.608093       -16.5470
 192   2.0000      -0.606342       -16.4994
 193   2.0000      -0.605271       -16.4703
 194   2.0000      -0.599342       -16.3089
 195   2.0000      -0.596557       -16.2332
 196   2.0000      -0.592883       -16.1332
 197   2.0000      -0.591165       -16.0864
 198   2.0000      -0.589627       -16.0446
 199   2.0000      -0.587684       -15.9917
 200   2.0000      -0.578156       -15.7324
 201   2.0000      -0.577952       -15.7269
 202   2.0000      -0.569741       -15.5034
 203   2.0000      -0.563343       -15.3293
 204   2.0000      -0.561965       -15.2919
 205   2.0000      -0.560782       -15.2597
 206   2.0000      -0.558319       -15.1926
 207   2.0000      -0.555697       -15.1213
 208   2.0000      -0.554287       -15.0829
 209   2.0000      -0.552645       -15.0382
 210   2.0000      -0.552028       -15.0215
 211   2.0000      -0.550774       -14.9873
 212   2.0000      -0.549126       -14.9425
 213   2.0000      -0.548513       -14.9258
 214   2.0000      -0.540731       -14.7140
 215   2.0000      -0.539972       -14.6934
 216   2.0000      -0.538761       -14.6604
 217   2.0000      -0.536564       -14.6006
 218   2.0000      -0.534550       -14.5458
 219   2.0000      -0.529574       -14.4104
 220   2.0000      -0.529018       -14.3953
 221   2.0000      -0.527700       -14.3595
 222   2.0000      -0.526944       -14.3389
 223   2.0000      -0.523620       -14.2484
 224   2.0000      -0.522136       -14.2080
 225   2.0000      -0.521100       -14.1798
 226   2.0000      -0.519158       -14.1270
 227   2.0000      -0.517469       -14.0810
 228   2.0000      -0.513627       -13.9765
 229   2.0000      -0.512758       -13.9528
 230   2.0000      -0.509842       -13.8735
 231   2.0000      -0.508898       -13.8478
 232   2.0000      -0.506524       -13.7832
 233   2.0000      -0.500577       -13.6214
 234   2.0000      -0.496774       -13.5179
 235   2.0000      -0.495656       -13.4875
 236   2.0000      -0.494160       -13.4468
 237   2.0000      -0.492071       -13.3899
 238   2.0000      -0.488006       -13.2793
 239   2.0000      -0.484888       -13.1945
 240   2.0000      -0.481301       -13.0969
 241   2.0000      -0.478737       -13.0271
 242   2.0000      -0.477783       -13.0011
 243   2.0000      -0.475573       -12.9410
 244   2.0000      -0.473945       -12.8967
 245   2.0000      -0.472346       -12.8532
 246   2.0000      -0.471317       -12.8252
 247   2.0000      -0.470547       -12.8042
 248   2.0000      -0.470149       -12.7934
 249   2.0000      -0.466267       -12.6878
 250   2.0000      -0.463821       -12.6212
 251   2.0000      -0.461982       -12.5712
 252   2.0000      -0.461353       -12.5541
 253   2.0000      -0.459076       -12.4921
 254   2.0000      -0.458265       -12.4700
 255   2.0000      -0.455719       -12.4008
 256   2.0000      -0.454741       -12.3741
 257   2.0000      -0.454193       -12.3592
 258   2.0000      -0.453752       -12.3472
 259   2.0000      -0.453117       -12.3300
 260   2.0000      -0.450830       -12.2677
 261   2.0000      -0.450754       -12.2656
 262   2.0000      -0.450501       -12.2587
 263   2.0000      -0.447684       -12.1821
 264   2.0000      -0.444069       -12.0837
 265   2.0000      -0.441655       -12.0180
 266   2.0000      -0.440148       -11.9770
 267   2.0000      -0.438800       -11.9403
 268   2.0000      -0.438282       -11.9263
 269   2.0000      -0.437873       -11.9151
 270   2.0000      -0.437354       -11.9010
 271   2.0000      -0.437031       -11.8922
 272   2.0000      -0.433600       -11.7989
 273   2.0000      -0.430641       -11.7183
 274   2.0000      -0.429219       -11.6796
 275   2.0000      -0.428363       -11.6563
 276   2.0000      -0.424703       -11.5567
 277   2.0000      -0.420554       -11.4439
 278   2.0000      -0.420057       -11.4303
 279   2.0000      -0.415572       -11.3083
 280   2.0000      -0.414745       -11.2858
 281   2.0000      -0.411791       -11.2054
 282   2.0000      -0.408460       -11.1148
 283   2.0000      -0.406897       -11.0722
 284   2.0000      -0.404378       -11.0037
 285   2.0000      -0.397732       -10.8228
 286   2.0000      -0.397007       -10.8031
 287   2.0000      -0.393460       -10.7066
 288   2.0000      -0.392375       -10.6771
 289   2.0000      -0.389600       -10.6016
 290   2.0000      -0.383143       -10.4259
 291   2.0000      -0.377408       -10.2698
 292   2.0000      -0.368987       -10.0406
 293   2.0000      -0.362745        -9.8708
 294   2.0000      -0.354619        -9.6497
 295   2.0000      -0.353103        -9.6084
 296   2.0000      -0.347359        -9.4521
 297   2.0000      -0.336537        -9.1576
 298   2.0000      -0.328698        -8.9443
 299   2.0000      -0.326799        -8.8926
 300   2.0000      -0.324462        -8.8291
 301   2.0000      -0.321612        -8.7515
 302   2.0000      -0.311761        -8.4835
 303   2.0000      -0.306918        -8.3517
 304   2.0000      -0.305071        -8.3014
 305   2.0000      -0.295905        -8.0520
 306   2.0000      -0.292870        -7.9694
 307   2.0000      -0.277861        -7.5610
 308   2.0000      -0.276075        -7.5124
 309   0.0000      -0.111927        -3.0457
 310   0.0000      -0.107368        -2.9216
 311   0.0000      -0.072114        -1.9623
 312   0.0000      -0.069546        -1.8925
 313   0.0000      -0.069170        -1.8822

MULLIKEN ATOMIC CHARGES
-----------------------
   0 C :   -0.110437
   1 C :    0.244423
   2 F :   -0.168039
   3 C :    0.242046
   4 F :   -0.168708
   5 C :   -0.106844
   6 C :    0.120367
   7 C :    0.120323
   8 C :   -0.092164
   9 C :    0.062717
  10 C :   -0.001099
  11 C :   -0.075303
  12 C :    0.148640
  13 O :   -0.132440
  14 C :   -0.072069
  15 C :    0.312013
  16 C :   -0.334751
  17 C :   -0.192352
  18 N :    0.173006
  19 C :   -0.180106
  20 N :    0.158563
  21 C :   -0.064124
  22 C :    0.224582
  23 C :   -0.287344
  24 C :   -0.180747
  25 N :    0.158207
  26 S :    0.201680
  27 C :   -0.041750
  28 C :   -0.013981
  29 C :   -0.316883
  30 N :    0.177590
  31 C :   -0.137137
  32 S :    0.156476
  33 C :   -0.047921
  34 C :    0.051152
  35 C :    0.011442
  36 C :   -0.123496
  37 C :    0.019312
  38 C :    0.255291
  39 C :   -0.248268
  40 S :    0.104736
  41 C :   -0.165592
  42 C :    0.101115
  43 C :   -0.011706
  44 C :    0.013836
  45 C :    0.026028
  46 C :   -0.026935
  47 C :    0.084989
  48 C :   -0.111617
  49 C :   -0.006820
  50 C :   -0.321807
  51 N :    0.212540
  52 C :    0.139844
  53 C :   -0.238662
  54 S :    0.187172
  55 S :    0.209622
  56 C :   -0.220815
  57 C :    0.160449
  58 C :    0.028864
  59 C :   -0.309265
  60 N :    0.235782
  61 C :   -0.141026
  62 S :    0.194619
  63 C :    0.023929
  64 C :   -0.128530
  65 C :    0.142092
  66 O :   -0.125814
  67 C :    0.012668
  68 C :   -0.081505
  69 C :    0.114561
  70 C :    0.114370
  71 C :   -0.106273
  72 C :    0.242956
  73 C :    0.240266
  74 C :   -0.103700
  75 F :   -0.168825
  76 F :   -0.168121
  77 C :   -0.080954
  78 C :    0.038287
  79 C :    0.239583
  80 C :   -0.313960
  81 C :   -0.196909
  82 N :    0.183357
  83 C :   -0.174937
  84 N :    0.159798
  85 H :    0.010182
  86 H :    0.002418
  87 H :   -0.004215
  88 H :   -0.006139
  89 H :    0.056993
  90 H :    0.039006
  91 H :    0.000955
  92 H :    0.021574
  93 H :    0.008458
  94 H :    0.017392
  95 H :    0.047402
  96 H :   -0.001860
  97 H :    0.017479
  98 H :    0.015725
  99 H :    0.014300
 100 H :   -0.029452
 101 H :   -0.029752
 102 H :    0.027081
 103 H :   -0.011607
 104 H :    0.050560
 105 H :   -0.004377
 106 H :    0.007507
 107 H :    0.002269
 108 H :   -0.001459
Sum of atomic charges:   -0.0000000

LOEWDIN ATOMIC CHARGES
----------------------
   0 C :   -0.028600
   1 C :    0.068804
   2 F :   -0.046086
   3 C :    0.069465
   4 F :   -0.046787
   5 C :   -0.031539
   6 C :   -0.006590
   7 C :   -0.003842
   8 C :    0.019976
   9 C :   -0.021143
  10 C :   -0.050153
  11 C :    0.037794
  12 C :    0.089587
  13 O :   -0.127296
  14 C :   -0.059948
  15 C :    0.073691
  16 C :   -0.119758
  17 C :   -0.021968
  18 N :   -0.034980
  19 C :   -0.016122
  20 N :   -0.041012
  21 C :    0.067586
  22 C :   -0.005168
  23 C :   -0.213952
  24 C :   -0.058908
  25 N :   -0.031580
  26 S :    0.524358
  27 C :   -0.124549
  28 C :   -0.104786
  29 C :   -0.046661
  30 N :   -0.053809
  31 C :   -0.213571
  32 S :    0.477043
  33 C :   -0.164810
  34 C :   -0.050305
  35 C :   -0.047942
  36 C :   -0.065783
  37 C :    0.001904
  38 C :   -0.022064
  39 C :   -0.190335
  40 S :    0.428511
  41 C :   -0.151583
  42 C :   -0.042592
  43 C :   -0.055229
  44 C :   -0.078048
  45 C :   -0.069218
  46 C :    0.002394
  47 C :   -0.036083
  48 C :   -0.123364
  49 C :   -0.100469
  50 C :   -0.034130
  51 N :   -0.030915
  52 C :   -0.057722
  53 C :   -0.334030
  54 S :    0.466043
  55 S :    0.440641
  56 C :   -0.313853
  57 C :   -0.060197
  58 C :   -0.057378
  59 C :   -0.036450
  60 N :   -0.016194
  61 C :   -0.148632
  62 S :    0.483509
  63 C :    0.050956
  64 C :   -0.081657
  65 C :    0.084306
  66 O :   -0.127806
  67 C :   -0.055195
  68 C :    0.033993
  69 C :   -0.008235
  70 C :   -0.004633
  71 C :   -0.029852
  72 C :    0.068804
  73 C :    0.068741
  74 C :   -0.031602
  75 F :   -0.046501
  76 F :   -0.045905
  77 C :    0.015701
  78 C :   -0.021394
  79 C :    0.057209
  80 C :   -0.133137
  81 C :   -0.035905
  82 N :   -0.038615
  83 C :   -0.019599
  84 N :   -0.041959
  85 H :    0.048608
  86 H :    0.045896
  87 H :    0.040567
  88 H :    0.042340
  89 H :    0.054163
  90 H :    0.030079
  91 H :    0.037558
  92 H :    0.027891
  93 H :    0.038614
  94 H :    0.037031
  95 H :    0.040995
  96 H :    0.030848
  97 H :    0.018449
  98 H :    0.024705
  99 H :    0.022757
 100 H :    0.024974
 101 H :    0.023455
 102 H :    0.028923
 103 H :    0.032264
 104 H :    0.060508
 105 H :    0.042444
 106 H :    0.047849
 107 H :    0.045970
 108 H :    0.040219

  Mayer bond orders larger than 0.100000
B(  0-C ,  1-C ) :   1.4442 B(  0-C ,  5-C ) :   0.1081 B(  0-C ,  7-C ) :   1.1857
B(  0-C , 85-H ) :   1.0066 B(  1-C ,  2-F ) :   1.1376 B(  1-C ,  3-C ) :   1.1865
B(  3-C ,  4-F ) :   1.1367 B(  3-C ,  5-C ) :   1.4456 B(  5-C ,  6-C ) :   1.1895
B(  5-C , 86-H ) :   1.0071 B(  6-C ,  7-C ) :   1.2512 B(  6-C , 11-C ) :   1.1934
B(  7-C ,  8-C ) :   1.2249 B(  8-C ,  9-C ) :   1.4362 B(  8-C , 87-H ) :   0.9898
B(  9-C , 10-C ) :   1.2209 B(  9-C , 15-C ) :   0.9995 B( 10-C , 11-C ) :   1.4670
B( 10-C , 12-C ) :   0.9446 B( 11-C , 88-H ) :   1.0166 B( 12-C , 13-O ) :   2.2374
B( 12-C , 14-C ) :   0.9096 B( 14-C , 15-C ) :   1.0366 B( 14-C , 21-C ) :   1.7094
B( 15-C , 16-C ) :   1.6697 B( 16-C , 17-C ) :   1.1416 B( 16-C , 19-C ) :   1.1419
B( 17-C , 18-N ) :   2.9791 B( 19-C , 20-N ) :   2.9652 B( 21-C , 22-C ) :   1.0661
B( 21-C , 89-H ) :   0.9278 B( 22-C , 23-C ) :   1.4898 B( 22-C , 28-C ) :   1.2656
B( 23-C , 24-C ) :   1.1981 B( 23-C , 26-S ) :   1.1142 B( 23-C , 27-C ) :   0.1016
B( 24-C , 25-N ) :   3.0004 B( 26-S , 27-C ) :   1.1480 B( 27-C , 28-C ) :   1.4839
B( 27-C , 31-C ) :   1.1724 B( 28-C , 29-C ) :   1.1082 B( 29-C , 30-N ) :   2.9984
B( 31-C , 32-S ) :   1.1324 B( 31-C , 35-C ) :   1.4628 B( 32-S , 33-C ) :   1.1699
B( 33-C , 34-C ) :   1.5499 B( 33-C , 90-H ) :   0.9716 B( 34-C , 35-C ) :   1.2789
B( 34-C , 91-H ) :   1.0009 B( 35-C , 36-C ) :   0.9967 B( 36-C , 37-C ) :   1.8179
B( 36-C , 92-H ) :   0.9332 B( 37-C , 38-C ) :   1.0256 B( 37-C , 46-C ) :   1.0695
B( 38-C , 39-C ) :   1.0364 B( 38-C , 93-H ) :   0.9145 B( 38-C , 94-H ) :   0.9062
B( 39-C , 40-S ) :   1.1363 B( 39-C , 45-C ) :   1.6023 B( 40-S , 41-C ) :   1.1294
B( 41-C , 42-C ) :   1.0473 B( 41-C , 44-C ) :   1.6279 B( 42-C , 43-C ) :   1.0911
B( 42-C , 95-H ) :   0.9219 B( 42-C , 96-H ) :   0.9322 B( 43-C , 97-H ) :   0.9732
B( 43-C , 98-H ) :   0.9688 B( 43-C , 99-H ) :   0.9727 B( 44-C , 45-C ) :   1.2125
B( 44-C ,100-H ) :   0.9982 B( 45-C ,101-H ) :   0.9976 B( 46-C , 47-C ) :   1.7349
B( 46-C ,102-H ) :   0.9483 B( 47-C , 48-C ) :   1.1365 B( 47-C ,103-H ) :   0.9366
B( 48-C , 49-C ) :   1.4858 B( 48-C , 54-S ) :   1.1389 B( 49-C , 50-C ) :   1.1760
B( 49-C , 52-C ) :   1.2636 B( 50-C , 51-N ) :   2.9541 B( 52-C , 53-C ) :   1.4161
B( 52-C , 57-C ) :   1.0628 B( 53-C , 54-S ) :   1.0951 B( 53-C , 55-S ) :   1.0743
B( 55-S , 56-C ) :   1.1036 B( 56-C , 57-C ) :   1.3794 B( 56-C , 62-S ) :   1.1156
B( 57-C , 58-C ) :   1.2736 B( 58-C , 59-C ) :   1.1820 B( 58-C , 61-C ) :   1.4616
B( 59-C , 60-N ) :   2.9937 B( 61-C , 62-S ) :   1.1265 B( 61-C , 63-C ) :   1.1229
B( 63-C , 64-C ) :   1.6871 B( 63-C ,104-H ) :   0.9403 B( 64-C , 65-C ) :   0.9258
B( 64-C , 79-C ) :   1.0219 B( 65-C , 66-O ) :   2.2865 B( 65-C , 67-C ) :   0.9178
B( 67-C , 68-C ) :   1.4719 B( 67-C , 78-C ) :   1.2210 B( 68-C , 69-C ) :   1.1985
B( 68-C ,105-H ) :   1.0159 B( 69-C , 70-C ) :   1.2550 B( 69-C , 74-C ) :   1.1922
B( 70-C , 71-C ) :   1.1891 B( 70-C , 77-C ) :   1.2176 B( 71-C , 72-C ) :   1.4426
B( 71-C , 74-C ) :   0.1085 B( 71-C ,106-H ) :   1.0064 B( 72-C , 73-C ) :   1.1900
B( 72-C , 76-F ) :   1.1375 B( 73-C , 74-C ) :   1.4445 B( 73-C , 75-F ) :   1.1365
B( 74-C ,107-H ) :   1.0068 B( 77-C , 78-C ) :   1.4541 B( 77-C ,108-H ) :   0.9944
B( 78-C , 79-C ) :   1.0017 B( 79-C , 80-C ) :   1.6756 B( 80-C , 81-C ) :   1.1509
B( 80-C , 83-C ) :   1.1327 B( 81-C , 82-N ) :   3.0150 B( 83-C , 84-N ) :   2.9905

-----------------------------------------------------------------------------
         ABSORPTION SPECTRUM VIA TRANSITION ELECTRIC DIPOLE MOMENTS
-----------------------------------------------------------------------------
State   Energy  Wavelength   fosc         T2         TX        TY        TZ
        (cm-1)    (nm)                  (au**2)     (au)      (au)      (au)
-----------------------------------------------------------------------------
   0   22115.7    452.2   0.631772003   9.40447  -2.86873   0.17433  -1.06980
   1   22448.2    445.5   0.092872728   1.36202  -1.10091   0.37769  -0.08585
   2   22592.0    442.6   0.044255110   0.64489  -0.13019  -0.43831  -0.66017
   3   25333.2    394.7   0.372641681   4.84258  -1.47623  -1.63197   0.00460
   4   25556.1    391.3   0.000257642   0.00332   0.03528  -0.03677   0.02687
   5   26177.7    382.0   0.176581118   2.22069  -1.43598   0.35471  -0.18118
   6   26277.6    380.6   0.053082788   0.66503  -0.71984   0.14980   0.35275
   7   26571.5    376.3   0.088944650   1.10199  -0.54349  -0.88422  -0.15736
   8   26649.8    375.2   0.138699220   1.71338  -0.80107  -0.59817  -0.84491
   9   27424.5    364.6   0.371632292   4.46119  -2.10818  -0.11418   0.06104
  10   27542.8    363.1   0.007175899   0.08577  -0.05898  -0.22004   0.18406
  11   27869.7    358.8   0.007994307   0.09443   0.13273   0.26731  -0.07321
  12   28551.0    350.3   0.042640067   0.49167  -0.26469   0.05517  -0.64696
  13   28905.6    346.0   0.046500485   0.52960   0.66802  -0.24789  -0.14798
  14   29396.4    340.2   0.011578031   0.12966   0.19955   0.00260  -0.29973
  15   30118.1    332.0   0.033332971   0.36435   0.48251  -0.35737   0.06187
  16   31006.8    322.5   0.027559565   0.29261  -0.28197  -0.39524   0.23852
  17   31093.2    321.6   0.153538395   1.62565  -0.04996  -1.06655   0.69687
  18   31250.4    320.0   0.269376700   2.83779   0.40432   1.63304  -0.08650
  19   31629.6    316.2   0.252718194   2.63038  -1.43061   0.61363  -0.45518
  20   31857.9    313.9   0.038329925   0.39609  -0.23699   0.52862  -0.24595
  21   32359.1    309.0   0.577993157   5.88033   2.36861   0.41412  -0.31388
  22   32514.0    307.6   0.019008473   0.19247  -0.18327  -0.32758   0.22708
  23   32867.4    304.3   0.083692310   0.83829   0.84241   0.26489   0.24183
  24   32930.0    303.7   0.002688316   0.02688  -0.12082  -0.09688   0.05378
  25   33178.9    301.4   0.458769192   4.55206   1.64077   0.86249   1.05643
  26   33401.8    299.4   0.283868513   2.79784   1.50769   0.14505  -0.70970
  27   33727.1    296.5   0.504240527   4.92192  -0.88846  -0.04756  -2.03231
  28   33938.3    294.7   0.009124804   0.08851   0.03623   0.01787  -0.29476
  29   34180.6    292.6   0.005207447   0.05016  -0.13578   0.07998  -0.15913
  30   34466.5    290.1   0.428828666   4.09602  -1.56497   0.11676   1.27799
  31   34510.8    289.8   0.327425979   3.12344   0.14129  -0.11919  -1.75763
  32   34597.0    289.0   0.118113892   1.12393   0.64256  -0.74097  -0.40250
  33   35054.8    285.3   0.012223392   0.11479  -0.31355  -0.03426   0.12372
  34   35582.1    281.0   0.041373364   0.38279  -0.53214   0.22305  -0.22331
  35   35604.8    280.9   0.018885878   0.17462  -0.34188   0.23312  -0.05827
  36   36369.2    275.0   0.000400218   0.00362   0.04141  -0.04330  -0.00576
  37   36498.2    274.0   0.005860076   0.05286   0.15402  -0.16913   0.02303
  38   36580.1    273.4   0.001303141   0.01173   0.00055  -0.10759   0.01237
  39   37245.6    268.5   0.130602084   1.15438   0.35071   0.80097   0.62436
  40   37767.7    264.8   0.106707475   0.93014  -0.76163  -0.50678   0.30535
  41   37777.8    264.7   0.238248187   2.07619  -0.00635   1.37306  -0.43688
  42   38026.0    263.0   0.026201337   0.22684   0.25679  -0.36554  -0.16517
  43   38167.0    262.0   0.015316009   0.13211  -0.36299  -0.01806  -0.00468
  44   38881.7    257.2   0.000315521   0.00267  -0.03183  -0.00692   0.04013
  45   39172.9    255.3   0.002026203   0.01703   0.04358   0.02396  -0.12064
  46   39233.1    254.9   0.024483978   0.20545  -0.00377  -0.35817  -0.27776
  47   39295.6    254.5   0.093339300   0.78198   0.11039  -0.45573  -0.74973
  48   39427.1    253.6   0.005028125   0.04198   0.12352   0.12972  -0.09949
  49   39685.6    252.0   0.014367672   0.11919  -0.27964   0.19081   0.06767
  50   39931.8    250.4   0.136614551   1.12630  -0.50509   0.56326  -0.74426
  51   40012.5    249.9   0.129137246   1.06251  -0.03912  -0.99469   0.26752
  52   40130.8    249.2   0.005825638   0.04779  -0.02046  -0.09852   0.19408
  53   40325.4    248.0   0.032043577   0.26160  -0.07417  -0.41853   0.28448

FINAL SINGLE POINT ENERGY     -5863.096520796806

DIPOLE MOMENT
-------------
                                X             Y             Z
Electronic contribution:    -12.47836      73.99213       9.75109
Nuclear contribution   :     11.17815     -74.37375      -6.29707
                        -----------------------------------------
Total Dipole Moment    :     -1.30021      -0.38162       3.45403
                        -----------------------------------------
Magnitude (a.u.)       :      3.71032
Magnitude (Debye)      :      9.43089

Rotational constants in cm-1:     0.000926     0.000200     0.000176
Rotational constants in MHz :    27.747843     5.988797     5.285608

                             ****ORCA TERMINATED NORMALLY****
TOTAL RUN TIME: 0 days 0 hours 12 minutes 20 seconds 407 msec
