                         Program Version 4.2.0 -  RELEASE  -
|  1> # ORCA input file
|  2> # SCF done       -205.202488547417          0.000960656198
|  3> ! CAM-B3LYP def2-SVP def2/J RIJCOSX Grid4 TightSCF
|  4> %maxcore 5000
|  5> %tddft
|  6>     Mode sTDDFT
|  7>     Ethresh 5.0
|  8>     maxcore 5000
|  9> end
| 10>
| 11> %pal
| 12>   nprocs 6
| 13>   end
| 14> * xyz 0 1
| 15>    C       -0.93937        -1.40127        -4.84946
| 16>    C        0.34317        -0.94521        -4.97050
| 17>    F        0.58403         0.24745        -5.52621
| 18>    C        1.42781        -1.72219        -4.51274
| 19>    F        2.67269        -1.24880        -4.64287
| 20>    C        1.21419        -2.94592        -3.94296
| 21>    C       -0.09614        -3.44492        -3.80609
| 22>    C       -1.19404        -2.65823        -4.26372
| 23>    C       -2.51730        -3.13381        -4.12831
| 24>    C       -2.73761        -4.35902        -3.55286
| 25>    C       -1.63453        -5.14427        -3.11297
| 26>    C       -0.34454        -4.70944        -3.23007
| 27>    C       -2.11851        -6.42107        -2.56653
| 28>    O       -1.44850        -7.35219        -2.18195
| 29>    C       -3.60812        -6.37210        -2.70072
| 30>    C       -3.97166        -5.07986        -3.26986
| 31>    C       -5.24054        -4.59703        -3.41874
| 32>    C       -6.41239        -5.28726        -3.03572
| 33>    N       -7.39959        -5.78291        -2.72650
| 34>    C       -5.54366        -3.32178        -3.94577
| 35>    N       -5.84900        -2.30125        -4.37080
| 36>    C       -4.41996        -7.42850        -2.48256
| 37>    C       -3.99931        -8.63255        -1.80170
| 38>    C       -4.26392        -9.90740        -2.26578
| 39>    C       -4.92253       -10.22874        -3.45304
| 40>    N       -5.47064       -10.47314        -4.43118
| 41>    S       -3.58818       -11.13110        -1.24054
| 42>    C       -2.98228        -9.93916        -0.12393
| 43>    C       -3.29114        -8.65599        -0.56965
| 44>    C       -2.98944        -7.46110         0.10314
| 45>    N       -2.79381        -6.44724         0.60466
| 46>    C       -2.29552       -10.28843         1.06586
| 47>    S       -2.07902        -9.10135         2.31038
| 48>    C       -1.18438       -10.17585         3.32302
| 49>    C       -1.08581       -11.44592         2.73333
| 50>    C       -1.71107       -11.50989         1.44601
| 51>    C       -1.66729       -12.71501         0.71802
| 52>    C       -1.07292       -13.81047         1.27547
| 53>    F       -1.02540       -14.95914         0.59024
| 54>    C       -0.52350       -13.76521         2.57668
| 55>    F        0.00049       -14.88070         3.10034
| 56>    C       -0.52440       -12.60750         3.29921
| 57>    C       -0.67165        -9.66870         4.54713
| 58>    C        0.44040       -10.11937         5.17811
| 59>    C        0.95800        -9.62634         6.40675
| 60>    S        2.64324        -9.90090         6.73781
| 61>    C        2.53260        -9.07863         8.26689
| 62>    C        1.23678        -8.63242         8.49101
| 63>    C        0.34624        -8.95349         7.45597
| 64>    C       -1.11241        -8.63623         7.54927
| 65>    C       -1.51942        -8.43500         9.00689
| 66>    C       -0.59342        -7.39890         9.64870
| 67>    N       -1.13380        -7.09495        10.99904
| 68>    O       -1.83465        -6.11758        11.09001
| 69>    O       -0.87229        -7.85914        11.89314
| 70>    C        0.82171        -7.95329         9.75520
| 71>    C        3.66756        -8.83280         9.07886
| 72>    C        4.84238        -9.51275         9.12235
| 73>    C        6.06962        -8.84220         9.64039
| 74>    O        6.11588        -7.81447        10.27492
| 75>    C        7.18892        -9.66503         9.14527
| 76>    C        8.53061        -9.42228         9.21707
| 77>    C        9.42967       -10.34141         8.63169
| 78>    C        8.91847       -11.50081         7.97742
| 79>    C        9.82110       -12.40519         7.38523
| 80>    C       11.16359       -12.15453         7.45230
| 81>    C       11.68585       -11.02267         8.09363
| 82>    C       10.82390       -10.13406         8.67346
| 83>    F       12.02643       -13.01552         6.88565
| 84>    C        7.52431       -11.73393         7.92839
| 85>    C        6.67395       -10.83156         8.50702
| 86>    C        5.22072       -10.82144         8.63180
| 87>    C        4.40242       -11.91781         8.56602
| 88>    C        3.05120       -11.88584         8.96818
| 89>    N        1.96082       -11.88763         9.32738
| 90>    C        4.84142       -13.19905         8.17586
| 91>    N        5.15085       -14.25431         7.84797
| 92>    H       -1.75742        -0.79317        -5.20280
| 93>    H        2.05442        -3.52836        -3.59884
| 94>    H       -3.32615        -2.51825        -4.48753
| 95>    H        0.47310        -5.32332        -2.88426
| 96>    H       -5.44101        -7.42271        -2.84303
| 97>    H       -2.08648       -12.80225        -0.26975
| 98>    H       -0.12395       -12.60682         4.29853
| 99>    H       -1.17845        -8.79271         4.92408
|100>    H        1.05076       -10.86948         4.69512
|101>    H       -1.69615        -9.44747         7.11041
|102>    H       -1.32812        -7.72260         6.98586
|103>    H       -1.43182        -9.37684         9.55216
|104>    H       -2.55611        -8.09670         9.05560
|105>    H       -0.62978        -6.46330         9.08218
|106>    H        0.84893        -8.68125        10.57398
|107>    H        1.52737        -7.15575        10.00384
|108>    H        3.63541        -7.93010         9.68225
|109>    H        8.90242        -8.53762         9.71188
|110>    H        9.45487       -13.28899         6.88670
|111>    H       12.75429       -10.87783         8.11505
|112>    H       11.20247        -9.25504         9.17292
|113>    H        7.16081       -12.61440         7.42207
|114> *
|115>
|116>                          ****END OF INPUT****

CARTESIAN COORDINATES (ANGSTROEM)
---------------------------------
  C     -0.939370   -1.401270   -4.849460
  C      0.343170   -0.945210   -4.970500
  F      0.584030    0.247450   -5.526210
  C      1.427810   -1.722190   -4.512740
  F      2.672690   -1.248800   -4.642870
  C      1.214190   -2.945920   -3.942960
  C     -0.096140   -3.444920   -3.806090
  C     -1.194040   -2.658230   -4.263720
  C     -2.517300   -3.133810   -4.128310
  C     -2.737610   -4.359020   -3.552860
  C     -1.634530   -5.144270   -3.112970
  C     -0.344540   -4.709440   -3.230070
  C     -2.118510   -6.421070   -2.566530
  O     -1.448500   -7.352190   -2.181950
  C     -3.608120   -6.372100   -2.700720
  C     -3.971660   -5.079860   -3.269860
  C     -5.240540   -4.597030   -3.418740
  C     -6.412390   -5.287260   -3.035720
  N     -7.399590   -5.782910   -2.726500
  C     -5.543660   -3.321780   -3.945770
  N     -5.849000   -2.301250   -4.370800
  C     -4.419960   -7.428500   -2.482560
  C     -3.999310   -8.632550   -1.801700
  C     -4.263920   -9.907400   -2.265780
  C     -4.922530  -10.228740   -3.453040
  N     -5.470640  -10.473140   -4.431180
  S     -3.588180  -11.131100   -1.240540
  C     -2.982280   -9.939160   -0.123930
  C     -3.291140   -8.655990   -0.569650
  C     -2.989440   -7.461100    0.103140
  N     -2.793810   -6.447240    0.604660
  C     -2.295520  -10.288430    1.065860
  S     -2.079020   -9.101350    2.310380
  C     -1.184380  -10.175850    3.323020
  C     -1.085810  -11.445920    2.733330
  C     -1.711070  -11.509890    1.446010
  C     -1.667290  -12.715010    0.718020
  C     -1.072920  -13.810470    1.275470
  F     -1.025400  -14.959140    0.590240
  C     -0.523500  -13.765210    2.576680
  F      0.000490  -14.880700    3.100340
  C     -0.524400  -12.607500    3.299210
  C     -0.671650   -9.668700    4.547130
  C      0.440400  -10.119370    5.178110
  C      0.958000   -9.626340    6.406750
  S      2.643240   -9.900900    6.737810
  C      2.532600   -9.078630    8.266890
  C      1.236780   -8.632420    8.491010
  C      0.346240   -8.953490    7.455970
  C     -1.112410   -8.636230    7.549270
  C     -1.519420   -8.435000    9.006890
  C     -0.593420   -7.398900    9.648700
  N     -1.133800   -7.094950   10.999040
  O     -1.834650   -6.117580   11.090010
  O     -0.872290   -7.859140   11.893140
  C      0.821710   -7.953290    9.755200
  C      3.667560   -8.832800    9.078860
  C      4.842380   -9.512750    9.122350
  C      6.069620   -8.842200    9.640390
  O      6.115880   -7.814470   10.274920
  C      7.188920   -9.665030    9.145270
  C      8.530610   -9.422280    9.217070
  C      9.429670  -10.341410    8.631690
  C      8.918470  -11.500810    7.977420
  C      9.821100  -12.405190    7.385230
  C     11.163590  -12.154530    7.452300
  C     11.685850  -11.022670    8.093630
  C     10.823900  -10.134060    8.673460
  F     12.026430  -13.015520    6.885650
  C      7.524310  -11.733930    7.928390
  C      6.673950  -10.831560    8.507020
  C      5.220720  -10.821440    8.631800
  C      4.402420  -11.917810    8.566020
  C      3.051200  -11.885840    8.968180
  N      1.960820  -11.887630    9.327380
  C      4.841420  -13.199050    8.175860
  N      5.150850  -14.254310    7.847970
  H     -1.757420   -0.793170   -5.202800
  H      2.054420   -3.528360   -3.598840
  H     -3.326150   -2.518250   -4.487530
  H      0.473100   -5.323320   -2.884260
  H     -5.441010   -7.422710   -2.843030
  H     -2.086480  -12.802250   -0.269750
  H     -0.123950  -12.606820    4.298530
  H     -1.178450   -8.792710    4.924080
  H      1.050760  -10.869480    4.695120
  H     -1.696150   -9.447470    7.110410
  H     -1.328120   -7.722600    6.985860
  H     -1.431820   -9.376840    9.552160
  H     -2.556110   -8.096700    9.055600
  H     -0.629780   -6.463300    9.082180
  H      0.848930   -8.681250   10.573980
  H      1.527370   -7.155750   10.003840
  H      3.635410   -7.930100    9.682250
  H      8.902420   -8.537620    9.711880
  H      9.454870  -13.288990    6.886700
  H     12.754290  -10.877830    8.115050
  H     11.202470   -9.255040    9.172920
  H      7.160810  -12.614400    7.422070

 Total Charge           Charge          ....    0
 Multiplicity           Mult            ....    1
 Number of Electrons    NEL             ....  544
 Basis Dimension        Dim             .... 1200

ORBITAL ENERGIES
----------------

  NO   OCC          E(Eh)            E(eV)
   0   2.0000     -89.008023     -2422.0314
   1   2.0000     -88.997635     -2421.7488
   2   2.0000     -88.978343     -2421.2238
   3   2.0000     -24.807639      -675.0502
   4   2.0000     -24.806762      -675.0263
   5   2.0000     -24.806175      -675.0103
   6   2.0000     -24.802967      -674.9230
   7   2.0000     -24.790730      -674.5901
   8   2.0000     -19.251398      -523.8572
   9   2.0000     -19.249534      -523.8065
  10   2.0000     -19.235559      -523.4262
  11   2.0000     -19.220395      -523.0135
  12   2.0000     -14.648345      -398.6017
  13   2.0000     -14.430893      -392.6846
  14   2.0000     -14.430373      -392.6704
  15   2.0000     -14.428945      -392.6315
  16   2.0000     -14.426325      -392.5603
  17   2.0000     -14.422347      -392.4520
  18   2.0000     -14.421522      -392.4296
  19   2.0000     -10.391743      -282.7737
  20   2.0000     -10.391161      -282.7579
  21   2.0000     -10.390854      -282.7495
  22   2.0000     -10.387143      -282.6485
  23   2.0000     -10.386836      -282.6402
  24   2.0000     -10.374744      -282.3111
  25   2.0000     -10.372204      -282.2420
  26   2.0000     -10.365233      -282.0523
  27   2.0000     -10.362526      -281.9787
  28   2.0000     -10.359402      -281.8937
  29   2.0000     -10.357204      -281.8338
  30   2.0000     -10.350612      -281.6545
  31   2.0000     -10.348104      -281.5862
  32   2.0000     -10.341620      -281.4098
  33   2.0000     -10.341452      -281.4052
  34   2.0000     -10.341114      -281.3960
  35   2.0000     -10.339382      -281.3489
  36   2.0000     -10.338995      -281.3384
  37   2.0000     -10.338931      -281.3366
  38   2.0000     -10.332313      -281.1565
  39   2.0000     -10.331586      -281.1367
  40   2.0000     -10.331341      -281.1301
  41   2.0000     -10.330065      -281.0954
  42   2.0000     -10.328951      -281.0650
  43   2.0000     -10.327170      -281.0166
  44   2.0000     -10.325474      -280.9704
  45   2.0000     -10.324483      -280.9435
  46   2.0000     -10.324462      -280.9429
  47   2.0000     -10.324098      -280.9330
  48   2.0000     -10.323635      -280.9204
  49   2.0000     -10.322106      -280.8788
  50   2.0000     -10.321803      -280.8705
  51   2.0000     -10.320936      -280.8470
  52   2.0000     -10.318952      -280.7930
  53   2.0000     -10.318553      -280.7821
  54   2.0000     -10.316664      -280.7307
  55   2.0000     -10.315145      -280.6894
  56   2.0000     -10.314649      -280.6759
  57   2.0000     -10.313046      -280.6323
  58   2.0000     -10.312338      -280.6130
  59   2.0000     -10.311865      -280.6001
  60   2.0000     -10.311099      -280.5793
  61   2.0000     -10.310573      -280.5650
  62   2.0000     -10.310458      -280.5618
  63   2.0000     -10.310173      -280.5541
  64   2.0000     -10.306743      -280.4607
  65   2.0000     -10.306556      -280.4556
  66   2.0000     -10.305900      -280.4378
  67   2.0000     -10.305124      -280.4167
  68   2.0000     -10.305090      -280.4158
  69   2.0000     -10.304446      -280.3982
  70   2.0000     -10.302995      -280.3588
  71   2.0000     -10.302803      -280.3535
  72   2.0000     -10.302649      -280.3493
  73   2.0000     -10.300080      -280.2794
  74   2.0000     -10.299442      -280.2621
  75   2.0000     -10.296188      -280.1735
  76   2.0000     -10.294156      -280.1182
  77   2.0000      -8.102798      -220.4883
  78   2.0000      -8.092231      -220.2008
  79   2.0000      -8.073659      -219.6954
  80   2.0000      -6.072358      -165.2373
  81   2.0000      -6.067910      -165.1162
  82   2.0000      -6.064613      -165.0265
  83   2.0000      -6.061242      -164.9348
  84   2.0000      -6.056922      -164.8172
  85   2.0000      -6.055118      -164.7681
  86   2.0000      -6.042930      -164.4365
  87   2.0000      -6.038884      -164.3264
  88   2.0000      -6.035670      -164.2389
  89   2.0000      -1.332031       -36.2464
  90   2.0000      -1.330696       -36.2101
  91   2.0000      -1.328218       -36.1427
  92   2.0000      -1.315751       -35.8034
  93   2.0000      -1.312844       -35.7243
  94   2.0000      -1.305972       -35.5373
  95   2.0000      -1.152785       -31.3689
  96   2.0000      -1.152057       -31.3491
  97   2.0000      -1.135977       -30.9115
  98   2.0000      -1.049625       -28.5618
  99   2.0000      -1.034635       -28.1538
 100   2.0000      -1.028535       -27.9879
 101   2.0000      -1.027402       -27.9570
 102   2.0000      -1.017446       -27.6861
 103   2.0000      -1.017107       -27.6769
 104   2.0000      -1.012442       -27.5500
 105   2.0000      -1.008828       -27.4516
 106   2.0000      -1.006437       -27.3865
 107   2.0000      -1.002500       -27.2794
 108   2.0000      -1.000004       -27.2115
 109   2.0000      -0.994656       -27.0660
 110   2.0000      -0.982476       -26.7345
 111   2.0000      -0.968351       -26.3502
 112   2.0000      -0.966158       -26.2905
 113   2.0000      -0.950213       -25.8566
 114   2.0000      -0.942707       -25.6524
 115   2.0000      -0.934778       -25.4366
 116   2.0000      -0.928262       -25.2593
 117   2.0000      -0.917295       -24.9609
 118   2.0000      -0.906767       -24.6744
 119   2.0000      -0.903225       -24.5780
 120   2.0000      -0.901825       -24.5399
 121   2.0000      -0.895412       -24.3654
 122   2.0000      -0.891212       -24.2511
 123   2.0000      -0.888034       -24.1646
 124   2.0000      -0.875950       -23.8358
 125   2.0000      -0.868995       -23.6466
 126   2.0000      -0.864496       -23.5241
 127   2.0000      -0.859106       -23.3775
 128   2.0000      -0.852278       -23.1917
 129   2.0000      -0.841233       -22.8911
 130   2.0000      -0.837574       -22.7915
 131   2.0000      -0.821337       -22.3497
 132   2.0000      -0.810617       -22.0580
 133   2.0000      -0.796504       -21.6740
 134   2.0000      -0.786337       -21.3973
 135   2.0000      -0.781680       -21.2706
 136   2.0000      -0.768399       -20.9092
 137   2.0000      -0.763896       -20.7867
 138   2.0000      -0.758336       -20.6354
 139   2.0000      -0.755759       -20.5652
 140   2.0000      -0.744681       -20.2638
 141   2.0000      -0.741734       -20.1836
 142   2.0000      -0.739475       -20.1221
 143   2.0000      -0.730418       -19.8757
 144   2.0000      -0.724608       -19.7176
 145   2.0000      -0.715158       -19.4604
 146   2.0000      -0.714850       -19.4521
 147   2.0000      -0.701248       -19.0819
 148   2.0000      -0.699025       -19.0214
 149   2.0000      -0.690344       -18.7852
 150   2.0000      -0.688577       -18.7371
 151   2.0000      -0.682807       -18.5801
 152   2.0000      -0.673827       -18.3358
 153   2.0000      -0.671163       -18.2633
 154   2.0000      -0.667658       -18.1679
 155   2.0000      -0.663778       -18.0623
 156   2.0000      -0.654833       -17.8189
 157   2.0000      -0.650650       -17.7051
 158   2.0000      -0.645954       -17.5773
 159   2.0000      -0.641008       -17.4427
 160   2.0000      -0.637508       -17.3475
 161   2.0000      -0.634699       -17.2710
 162   2.0000      -0.633927       -17.2500
 163   2.0000      -0.632774       -17.2186
 164   2.0000      -0.629692       -17.1348
 165   2.0000      -0.626342       -17.0436
 166   2.0000      -0.619828       -16.8664
 167   2.0000      -0.614368       -16.7178
 168   2.0000      -0.611562       -16.6414
 169   2.0000      -0.602109       -16.3842
 170   2.0000      -0.598131       -16.2760
 171   2.0000      -0.595026       -16.1915
 172   2.0000      -0.594937       -16.1891
 173   2.0000      -0.592871       -16.1328
 174   2.0000      -0.591519       -16.0960
 175   2.0000      -0.590071       -16.0566
 176   2.0000      -0.582528       -15.8514
 177   2.0000      -0.579288       -15.7632
 178   2.0000      -0.575532       -15.6610
 179   2.0000      -0.567054       -15.4303
 180   2.0000      -0.565323       -15.3832
 181   2.0000      -0.564012       -15.3476
 182   2.0000      -0.563087       -15.3224
 183   2.0000      -0.562186       -15.2979
 184   2.0000      -0.558661       -15.2019
 185   2.0000      -0.556446       -15.1417
 186   2.0000      -0.556346       -15.1389
 187   2.0000      -0.553786       -15.0693
 188   2.0000      -0.553593       -15.0640
 189   2.0000      -0.552837       -15.0435
 190   2.0000      -0.548673       -14.9301
 191   2.0000      -0.546183       -14.8624
 192   2.0000      -0.542975       -14.7751
 193   2.0000      -0.539569       -14.6824
 194   2.0000      -0.539163       -14.6714
 195   2.0000      -0.535898       -14.5825
 196   2.0000      -0.535423       -14.5696
 197   2.0000      -0.531438       -14.4612
 198   2.0000      -0.528958       -14.3937
 199   2.0000      -0.528512       -14.3815
 200   2.0000      -0.526060       -14.3148
 201   2.0000      -0.523720       -14.2512
 202   2.0000      -0.519638       -14.1401
 203   2.0000      -0.518533       -14.1100
 204   2.0000      -0.516067       -14.0429
 205   2.0000      -0.511162       -13.9094
 206   2.0000      -0.509729       -13.8704
 207   2.0000      -0.507211       -13.8019
 208   2.0000      -0.504300       -13.7227
 209   2.0000      -0.503226       -13.6935
 210   2.0000      -0.500254       -13.6126
 211   2.0000      -0.499186       -13.5835
 212   2.0000      -0.495422       -13.4811
 213   2.0000      -0.490760       -13.3543
 214   2.0000      -0.487803       -13.2738
 215   2.0000      -0.485676       -13.2159
 216   2.0000      -0.482291       -13.1238
 217   2.0000      -0.477218       -12.9858
 218   2.0000      -0.475437       -12.9373
 219   2.0000      -0.473779       -12.8922
 220   2.0000      -0.472628       -12.8609
 221   2.0000      -0.469365       -12.7721
 222   2.0000      -0.468347       -12.7444
 223   2.0000      -0.463559       -12.6141
 224   2.0000      -0.462510       -12.5855
 225   2.0000      -0.462200       -12.5771
 226   2.0000      -0.457878       -12.4595
 227   2.0000      -0.457090       -12.4381
 228   2.0000      -0.456618       -12.4252
 229   2.0000      -0.455901       -12.4057
 230   2.0000      -0.455441       -12.3932
 231   2.0000      -0.451919       -12.2973
 232   2.0000      -0.450628       -12.2622
 233   2.0000      -0.448980       -12.2174
 234   2.0000      -0.447020       -12.1640
 235   2.0000      -0.443421       -12.0661
 236   2.0000      -0.441804       -12.0221
 237   2.0000      -0.440557       -11.9882
 238   2.0000      -0.437853       -11.9146
 239   2.0000      -0.437530       -11.9058
 240   2.0000      -0.435264       -11.8441
 241   2.0000      -0.434061       -11.8114
 242   2.0000      -0.433748       -11.8029
 243   2.0000      -0.430446       -11.7130
 244   2.0000      -0.428770       -11.6674
 245   2.0000      -0.428314       -11.6550
 246   2.0000      -0.424583       -11.5535
 247   2.0000      -0.422254       -11.4901
 248   2.0000      -0.418667       -11.3925
 249   2.0000      -0.414489       -11.2788
 250   2.0000      -0.409619       -11.1463
 251   2.0000      -0.403636       -10.9835
 252   2.0000      -0.396664       -10.7938
 253   2.0000      -0.389259       -10.5923
 254   2.0000      -0.387899       -10.5553
 255   2.0000      -0.385005       -10.4765
 256   2.0000      -0.379856       -10.3364
 257   2.0000      -0.374451       -10.1893
 258   2.0000      -0.373891       -10.1741
 259   2.0000      -0.361286        -9.8311
 260   2.0000      -0.358208        -9.7473
 261   2.0000      -0.347309        -9.4508
 262   2.0000      -0.340844        -9.2748
 263   2.0000      -0.335793        -9.1374
 264   2.0000      -0.333544        -9.0762
 265   2.0000      -0.331882        -9.0310
 266   2.0000      -0.327631        -8.9153
 267   2.0000      -0.319632        -8.6976
 268   2.0000      -0.310627        -8.4526
 269   2.0000      -0.306643        -8.3442
 270   2.0000      -0.297970        -8.1082
 271   2.0000      -0.259569        -7.0632
 272   0.0000      -0.113278        -3.0824
 273   0.0000      -0.109664        -2.9841
 274   0.0000      -0.087741        -2.3876
 275   0.0000      -0.074328        -2.0226
 276   0.0000      -0.061230        -1.6662

MULLIKEN ATOMIC CHARGES
-----------------------
   0 C :   -0.104900
   1 C :    0.244223
   2 F :   -0.166134
   3 C :    0.242388
   4 F :   -0.168492
   5 C :   -0.103990
   6 C :    0.115085
   7 C :    0.113921
   8 C :   -0.080220
   9 C :    0.058058
  10 C :   -0.008103
  11 C :   -0.068351
  12 C :    0.159521
  13 O :   -0.134894
  14 C :   -0.067933
  15 C :    0.297805
  16 C :   -0.324565
  17 C :   -0.196064
  18 N :    0.177872
  19 C :   -0.183381
  20 N :    0.164367
  21 C :   -0.057925
  22 C :    0.211741
  23 C :   -0.291548
  24 C :   -0.180886
  25 N :    0.162331
  26 S :    0.209757
  27 C :   -0.027404
  28 C :   -0.015920
  29 C :   -0.312288
  30 N :    0.175252
  31 C :   -0.157294
  32 S :    0.204170
  33 C :   -0.113503
  34 C :    0.111151
  35 C :    0.137942
  36 C :   -0.124938
  37 C :    0.227434
  38 F :   -0.166369
  39 C :    0.224138
  40 F :   -0.168751
  41 C :   -0.112689
  42 C :    0.026970
  43 C :    0.022170
  44 C :   -0.119540
  45 S :    0.159511
  46 C :   -0.156491
  47 C :   -0.025189
  48 C :   -0.094580
  49 C :    0.113901
  50 C :    0.066933
  51 C :   -0.030099
  52 N :    0.214140
  53 O :   -0.229858
  54 O :   -0.227071
  55 C :    0.191528
  56 C :    0.029409
  57 C :   -0.135386
  58 C :    0.144611
  59 O :   -0.142054
  60 C :    0.006641
  61 C :   -0.078458
  62 C :    0.099957
  63 C :    0.102169
  64 C :   -0.096692
  65 C :    0.304713
  66 C :   -0.032789
  67 C :   -0.008104
  68 F :   -0.188037
  69 C :   -0.084396
  70 C :    0.044720
  71 C :    0.243370
  72 C :   -0.319872
  73 C :   -0.197207
  74 N :    0.169764
  75 C :   -0.176010
  76 N :    0.157640
  77 H :    0.009791
  78 H :    0.002086
  79 H :   -0.004095
  80 H :   -0.006856
  81 H :    0.059309
  82 H :    0.003809
  83 H :    0.000256
  84 H :    0.001019
  85 H :    0.005641
  86 H :    0.031846
  87 H :    0.034271
  88 H :    0.041442
  89 H :    0.026348
  90 H :    0.028894
  91 H :    0.066156
  92 H :    0.035607
  93 H :    0.023594
  94 H :   -0.009647
  95 H :   -0.002540
  96 H :    0.006359
  97 H :   -0.007207
  98 H :   -0.003011
Sum of atomic charges:   -0.0000000

LOEWDIN ATOMIC CHARGES
----------------------
   0 C :   -0.028094
   1 C :    0.069398
   2 F :   -0.044628
   3 C :    0.070094
   4 F :   -0.045832
   5 C :   -0.031412
   6 C :   -0.006973
   7 C :   -0.003628
   8 C :    0.020961
   9 C :   -0.021591
  10 C :   -0.052023
  11 C :    0.037970
  12 C :    0.090974
  13 O :   -0.125896
  14 C :   -0.056273
  15 C :    0.072477
  16 C :   -0.116698
  17 C :   -0.022756
  18 N :   -0.032721
  19 C :   -0.016575
  20 N :   -0.037844
  21 C :    0.067315
  22 C :   -0.002818
  23 C :   -0.213116
  24 C :   -0.059383
  25 N :   -0.029295
  26 S :    0.512512
  27 C :   -0.130085
  28 C :   -0.103775
  29 C :   -0.051724
  30 N :   -0.051488
  31 C :   -0.211593
  32 S :    0.541037
  33 C :   -0.163923
  34 C :   -0.044651
  35 C :   -0.033636
  36 C :   -0.055999
  37 C :    0.073537
  38 F :   -0.045159
  39 C :    0.062133
  40 F :   -0.047597
  41 C :   -0.034938
  42 C :   -0.036427
  43 C :   -0.034444
  44 C :   -0.148890
  45 S :    0.471793
  46 C :   -0.185323
  47 C :   -0.016120
  48 C :   -0.056395
  49 C :   -0.023888
  50 C :   -0.016637
  51 C :    0.011890
  52 N :    0.272971
  53 O :   -0.198528
  54 O :   -0.193974
  55 C :   -0.027365
  56 C :    0.048407
  57 C :   -0.092843
  58 C :    0.083121
  59 O :   -0.142517
  60 C :   -0.060112
  61 C :    0.036075
  62 C :   -0.018275
  63 C :    0.003924
  64 C :   -0.042040
  65 C :    0.094044
  66 C :   -0.035747
  67 C :    0.005489
  68 F :   -0.062818
  69 C :    0.011453
  70 C :   -0.017319
  71 C :    0.060914
  72 C :   -0.139115
  73 C :   -0.029687
  74 N :   -0.051678
  75 C :   -0.020269
  76 N :   -0.047929
  77 H :    0.048867
  78 H :    0.045970
  79 H :    0.040919
  80 H :    0.042217
  81 H :    0.055253
  82 H :    0.026716
  83 H :    0.044248
  84 H :    0.034087
  85 H :    0.033103
  86 H :    0.040855
  87 H :    0.034683
  88 H :    0.038491
  89 H :    0.034992
  90 H :    0.035553
  91 H :    0.053127
  92 H :    0.042007
  93 H :    0.048524
  94 H :    0.040482
  95 H :    0.043229
  96 H :    0.042817
  97 H :    0.036396
  98 H :    0.039438

  Mayer bond orders larger than 0.100000
B(  0-C ,  1-C ) :   1.4436 B(  0-C ,  5-C ) :   0.1082 B(  0-C ,  7-C ) :   1.1845
B(  0-C , 77-H ) :   1.0068 B(  1-C ,  2-F ) :   1.1401 B(  1-C ,  3-C ) :   1.1868
B(  3-C ,  4-F ) :   1.1359 B(  3-C ,  5-C ) :   1.4444 B(  5-C ,  6-C ) :   1.1897
B(  5-C , 78-H ) :   1.0072 B(  6-C ,  7-C ) :   1.2521 B(  6-C , 11-C ) :   1.1940
B(  7-C ,  8-C ) :   1.2251 B(  8-C ,  9-C ) :   1.4364 B(  8-C , 79-H ) :   0.9901
B(  9-C , 10-C ) :   1.2191 B(  9-C , 15-C ) :   1.0021 B( 10-C , 11-C ) :   1.4673
B( 10-C , 12-C ) :   0.9520 B( 11-C , 80-H ) :   1.0161 B( 12-C , 13-O ) :   2.2275
B( 12-C , 14-C ) :   0.9073 B( 14-C , 15-C ) :   1.0265 B( 14-C , 21-C ) :   1.7317
B( 15-C , 16-C ) :   1.6839 B( 16-C , 17-C ) :   1.1399 B( 16-C , 19-C ) :   1.1391
B( 17-C , 18-N ) :   2.9886 B( 19-C , 20-N ) :   2.9702 B( 21-C , 22-C ) :   1.0550
B( 21-C , 81-H ) :   0.9269 B( 22-C , 23-C ) :   1.4961 B( 22-C , 28-C ) :   1.2849
B( 23-C , 24-C ) :   1.1972 B( 23-C , 26-S ) :   1.1243 B( 23-C , 27-C ) :   0.1008
B( 24-C , 25-N ) :   3.0010 B( 26-S , 27-C ) :   1.1377 B( 27-C , 28-C ) :   1.4630
B( 27-C , 31-C ) :   1.1819 B( 28-C , 29-C ) :   1.1057 B( 29-C , 30-N ) :   3.0008
B( 31-C , 32-S ) :   1.1614 B( 31-C , 33-C ) :   0.1154 B( 31-C , 35-C ) :   1.3373
B( 32-S , 33-C ) :   1.1811 B( 33-C , 34-C ) :   1.3377 B( 33-C , 42-C ) :   1.1393
B( 34-C , 35-C ) :   1.2199 B( 34-C , 41-C ) :   1.1626 B( 35-C , 36-C ) :   1.1500
B( 36-C , 37-C ) :   1.5215 B( 36-C , 41-C ) :   0.1093 B( 36-C , 82-H ) :   0.9776
B( 37-C , 38-F ) :   1.1452 B( 37-C , 39-C ) :   1.1582 B( 39-C , 40-F ) :   1.1370
B( 39-C , 41-C ) :   1.5010 B( 41-C , 83-H ) :   0.9962 B( 42-C , 43-C ) :   1.6717
B( 42-C , 84-H ) :   0.9483 B( 43-C , 44-C ) :   1.1368 B( 43-C , 85-H ) :   0.9511
B( 44-C , 45-S ) :   1.1365 B( 44-C , 48-C ) :   1.4847 B( 45-S , 46-C ) :   1.1157
B( 46-C , 47-C ) :   1.4453 B( 46-C , 56-C ) :   1.1230 B( 47-C , 48-C ) :   1.3486
B( 47-C , 55-C ) :   1.0538 B( 48-C , 49-C ) :   1.0447 B( 49-C , 50-C ) :   1.0958
B( 49-C , 86-H ) :   0.9135 B( 49-C , 87-H ) :   0.9030 B( 50-C , 51-C ) :   1.0464
B( 50-C , 88-H ) :   0.9308 B( 50-C , 89-H ) :   0.9275 B( 51-C , 52-N ) :   0.8364
B( 51-C , 55-C ) :   1.0218 B( 51-C , 90-H ) :   0.9275 B( 52-N , 53-O ) :   1.5663
B( 52-N , 54-O ) :   1.5610 B( 53-O , 54-O ) :   0.2740 B( 55-C , 91-H ) :   0.8821
B( 55-C , 92-H ) :   0.8972 B( 56-C , 57-C ) :   1.6710 B( 56-C , 93-H ) :   0.9353
B( 57-C , 58-C ) :   0.9340 B( 57-C , 71-C ) :   1.0333 B( 58-C , 59-O ) :   2.2666
B( 58-C , 60-C ) :   0.9234 B( 60-C , 61-C ) :   1.4717 B( 60-C , 70-C ) :   1.2138
B( 61-C , 62-C ) :   1.1950 B( 61-C , 94-H ) :   1.0149 B( 62-C , 63-C ) :   1.2516
B( 62-C , 67-C ) :   1.2347 B( 63-C , 64-C ) :   1.2032 B( 63-C , 69-C ) :   1.2048
B( 64-C , 65-C ) :   1.4412 B( 64-C , 95-H ) :   1.0062 B( 65-C , 66-C ) :   1.2543
B( 65-C , 68-F ) :   1.0913 B( 66-C , 67-C ) :   1.4616 B( 66-C , 96-H ) :   0.9934
B( 67-C , 97-H ) :   0.9969 B( 69-C , 70-C ) :   1.4634 B( 69-C , 98-H ) :   0.9949
B( 70-C , 71-C ) :   0.9995 B( 71-C , 72-C ) :   1.6640 B( 72-C , 73-C ) :   1.1577
B( 72-C , 75-C ) :   1.1336 B( 73-C , 74-N ) :   3.0143 B( 75-C , 76-N ) :   2.9907

-----------------------------------------------------------------------------
         ABSORPTION SPECTRUM VIA TRANSITION ELECTRIC DIPOLE MOMENTS
-----------------------------------------------------------------------------
State   Energy  Wavelength   fosc         T2         TX        TY        TZ
        (cm-1)    (nm)                  (au**2)     (au)      (au)      (au)
-----------------------------------------------------------------------------
   0   16717.9    598.2   1.320698369  26.00748  -3.39575   0.68387  -3.74282
   1   18962.3    527.4   0.025486119   0.44248   0.18522  -0.61878   0.15900
   2   22275.1    448.9   0.239727913   3.54303   0.26752  -0.23298   1.84856
   3   25082.2    398.7   0.008377035   0.10995   0.07237  -0.26824  -0.18100
   4   26015.1    384.4   0.078840730   0.99770   0.38440  -0.91911   0.07200
   5   26461.5    377.9   0.045280128   0.56334  -0.62519   0.28324   0.30372
   6   26771.6    373.5   0.030866945   0.37957   0.47813   0.30799  -0.23686
   7   27223.3    367.3   0.054181669   0.65522  -0.38904  -0.70540   0.07927
   8   27507.2    363.5   0.015894885   0.19023  -0.42517   0.00995   0.09675
   9   28627.4    349.3   0.064832360   0.74557   0.75671   0.39592  -0.12729
  10   28849.3    346.6   0.069080603   0.78831   0.50606   0.68414   0.25332
  11   29611.7    337.7   0.098006833   1.08960   0.89829   0.42209  -0.32328
  12   29750.1    336.1   0.262995830   2.91029   1.52752   0.74615   0.14230
  13   30322.2    329.8   0.056272642   0.61096   0.16264   0.76108  -0.07261
  14   31165.7    320.9   0.063756876   0.67348   0.41959  -0.69437   0.12359
  15   31536.5    317.1   0.386728753   4.03709  -0.60225   1.90875  -0.17626
  16   31938.8    313.1   0.045055492   0.46441  -0.44833   0.45669  -0.23419
  17   32547.2    307.2   0.041666780   0.42146  -0.57337  -0.26816  -0.14420
  18   33203.9    301.2   0.293242211   2.90745   1.58768  -0.61145   0.11338
  19   33335.2    300.0   0.287966201   2.84390   0.97063   1.26319  -0.55328
  20   33622.1    297.4   1.075320889  10.52905   2.98764   1.19553  -0.41685
  21   33780.0    296.0   0.107235037   1.04509   0.19377   0.98687   0.18337
  22   34016.8    294.0   0.068402346   0.66199  -0.44673  -0.54041   0.41277
  23   34138.5    292.9   0.211916079   2.04360  -1.33378   0.32927   0.39524
  24   34543.5    289.5   0.081383296   0.77561  -0.15690  -0.86531  -0.04719
  25   35469.3    281.9   0.023741564   0.22036   0.39047  -0.25942   0.02439
  26   35828.2    279.1   0.027907974   0.25644  -0.35938   0.23380   0.26948
  27   35992.3    277.8   0.052764316   0.48262   0.17990  -0.16310   0.65089
  28   36253.7    275.8   0.038020813   0.34526  -0.00631  -0.36892  -0.45729
  29   36545.8    273.6   0.133998354   1.20708   0.90625  -0.59701   0.17138
  30   36810.0    271.7   0.041052407   0.36715  -0.50141   0.32911   0.08621
  31   36892.2    271.1   0.064007906   0.57118  -0.58884  -0.27301   0.38720
  32   37031.8    270.0   0.102096970   0.90764  -0.32779   0.84978  -0.27941
  33   37325.8    267.9   0.225168972   1.98598   1.35878   0.37023   0.05118
  34   37400.6    267.4   0.100812396   0.88738  -0.01871  -0.88323   0.32702
  35   37690.1    265.3   0.113458063   0.99102   0.85722  -0.31782   0.39394
  36   37950.9    263.5   0.039687456   0.34428  -0.49918  -0.25233  -0.17726
  37   38141.3    262.2   0.022815137   0.19693  -0.27149  -0.22089   0.27281
  38   38397.1    260.4   0.045021877   0.38601  -0.26082  -0.42428  -0.37145
  39   39048.3    256.1   0.008439207   0.07115   0.24426   0.10575  -0.01739
  40   39088.9    255.8   0.007571984   0.06377   0.15003   0.07928  -0.18703
  41   39189.7    255.2   0.075183959   0.63158  -0.20582  -0.73063  -0.23538
  42   39250.8    254.8   0.026982915   0.22632   0.09828  -0.44529   0.13554
  43   39520.4    253.0   0.076305701   0.63564   0.26020   0.61910   0.42971
  44   39831.9    251.1   0.281241149   2.32447   0.17914  -1.40906  -0.55400
  45   39923.7    250.5   0.071017215   0.58561  -0.52774   0.43275   0.34617
  46   39943.6    250.4   0.100155172   0.82547  -0.13170   0.88844   0.13713
  47   40168.5    249.0   0.028581148   0.23424  -0.44325   0.11842   0.15411

FINAL SINGLE POINT ENERGY     -4596.615594141019

DIPOLE MOMENT
-------------
                                X             Y             Z
Electronic contribution:     -8.46708      -4.72307     -55.05683
Nuclear contribution   :     11.58170       5.29407      54.58311
                        -----------------------------------------
Total Dipole Moment    :      3.11462       0.57101      -0.47371
                        -----------------------------------------
Magnitude (a.u.)       :      3.20177
Magnitude (Debye)      :      8.13825

Rotational constants in cm-1:     0.000880     0.000295     0.000275
Rotational constants in MHz :    26.367553     8.844131     8.257949

                             ****ORCA TERMINATED NORMALLY****
TOTAL RUN TIME: 0 days 0 hours 10 minutes 52 seconds 874 msec
