                         Program Version 4.2.0 -  RELEASE  -
|  1> # ORCA input file
|  2> # SCF done       -176.004314689334          0.000735982035
|  3> ! CAM-B3LYP def2-SVP def2/J RIJCOSX Grid4 TightSCF
|  4> %maxcore 5000
|  5> %tddft
|  6>     Mode sTDDFT
|  7>     Ethresh 5.0
|  8>     maxcore 5000
|  9> end
| 10>
| 11> %pal
| 12>   nprocs 6
| 13>   end
| 14> * xyz 0 1
| 15>    C        2.08006       -10.46295        -9.32902
| 16>    C        1.68195       -10.35693       -10.63341
| 17>    F        2.17482       -11.19300       -11.55784
| 18>    C        0.75365        -9.37257       -11.02086
| 19>    F        0.37835        -9.28913       -12.30613
| 20>    C        0.23572        -8.50520       -10.09877
| 21>    C        0.62720        -8.58841        -8.74969
| 22>    C        1.56531        -9.58521        -8.35547
| 23>    C        1.97317        -9.68800        -7.00411
| 24>    C        1.46171        -8.81930        -6.07788
| 25>    C        0.52685        -7.82209        -6.48249
| 26>    C        0.11178        -7.70130        -7.77718
| 27>    C        0.15343        -7.02440        -5.30905
| 28>    O       -0.63239        -6.07501        -5.27414
| 29>    C        0.90048        -7.57486        -4.18138
| 30>    C        1.69719        -8.68522        -4.64179
| 31>    C        2.52372        -9.48290        -3.88833
| 32>    C        3.27024       -10.55892        -4.40568
| 33>    N        3.90399       -11.44340        -4.77378
| 34>    C        2.72159        -9.32793        -2.50270
| 35>    N        2.91355        -9.23446        -1.37403
| 36>    C        0.79723        -7.03669        -2.91563
| 37>    N       -0.00516        -5.98607        -2.71229
| 38>    C       -0.23351        -5.31501        -1.55935
| 39>    S        0.51485        -5.77574        -0.06114
| 40>    C       -0.32080        -4.47290         0.72398
| 41>    N       -0.11333        -4.29442         2.09341
| 42>    O       -0.70302        -3.37721         2.64074
| 43>    O        0.64722        -5.07551         2.64301
| 44>    C       -1.11769        -3.73991        -0.11689
| 45>    C       -1.08369        -4.20394        -1.44331
| 46>    C       -1.80725        -3.65441        -2.56161
| 47>    C       -2.62526        -2.58932        -2.50843
| 48>    C       -3.36040        -2.03508        -3.61982
| 49>    C       -3.84584        -2.67525        -4.69169
| 50>    C       -3.75476        -4.14881        -4.93469
| 51>    C       -4.59852        -1.93366        -5.78031
| 52>    N       -4.83776        -0.54023        -5.53621
| 53>    C       -4.01977         0.45288        -5.94006
| 54>    C       -4.14148         1.75103        -5.54960
| 55>    C       -3.32524         2.78424        -6.03747
| 56>    C       -3.42249         4.10044        -5.66057
| 57>    C       -2.64547         5.18568        -6.12579
| 58>    C       -2.97192         6.38917        -5.57351
| 59>    C       -4.02260         6.32353        -4.63505
| 60>    S       -4.59356         4.67912        -4.47834
| 61>    C       -4.57156         7.36171        -3.89964
| 62>    C       -4.20955         8.72415        -3.92474
| 63>    C       -4.93148         9.51211        -3.07679
| 64>    C       -5.90760         8.82074        -2.32425
| 65>    S       -5.86303         7.10875        -2.75148
| 66>    C       -6.79328         9.24136        -1.36187
| 67>    C       -7.04873        10.54257        -0.88001
| 68>    C       -6.61475        11.79835        -1.30733
| 69>    C       -7.17756        12.78849        -0.46270
| 70>    C       -7.06648        14.16006        -0.45884
| 71>    C       -7.75818        14.87122         0.53750
| 72>    C       -7.84601        16.22432         0.81359
| 73>    C       -8.68696        16.42007         1.95885
| 74>    C       -9.12064        15.18218         2.38841
| 75>    C       -8.56560        14.17877         1.53003
| 76>    C       -8.68460        12.81825         1.52812
| 77>    C       -7.99070        12.09951         0.52614
| 78>    C       -7.91311        10.75256         0.25720
| 79>    C       -8.98200        17.72089         2.51152
| 80>    C       -9.74160        17.95299         3.57871
| 81>    H        2.79222       -11.22333        -9.04901
| 82>    H       -0.47445        -7.75626       -10.41272
| 83>    H        2.68391       -10.45322        -6.73797
| 84>    H       -0.59824        -6.93872        -8.05941
| 85>    H        1.34426        -7.42467        -2.06722
| 86>    H       -0.49199        -5.67455        -3.57287
| 87>    H       -1.69283        -2.90392         0.23506
| 88>    H       -1.63722        -4.12647        -3.51571
| 89>    H       -2.73970        -2.05137        -1.57702
| 90>    H       -3.55305        -0.97280        -3.52822
| 91>    H       -3.77586        -4.69550        -3.99450
| 92>    H       -2.83233        -4.40670        -5.45494
| 93>    H       -4.58519        -4.48313        -5.55385
| 94>    H       -5.56636        -2.42683        -5.93338
| 95>    H       -4.03196        -2.02836        -6.71359
| 96>    H       -5.51387        -0.31596        -4.82063
| 97>    H       -3.25577         0.16354        -6.64882
| 98>    H       -4.90680         2.01772        -4.83234
| 99>    H       -2.56453         2.53339        -6.76523
|100>    H       -1.86888         5.04383        -6.85688
|101>    H       -2.48368         7.31626        -5.81458
|102>    H       -3.42476         9.09052        -4.56248
|103>    H       -4.76320        10.56574        -2.96150
|104>    H       -7.37872         8.45922        -0.89326
|105>    H       -5.98757        12.01597        -2.14949
|106>    H       -6.46755        14.68304        -1.19114
|107>    H       -7.36570        17.01714         0.26747
|108>    H       -9.76523        14.97924         3.22279
|109>    H       -9.28328        12.29367         2.25979
|110>    H       -8.39940         9.96184         0.80076
|111>    H       -8.52846        18.55430         1.98881
|112>    H      -10.21031        17.15637         4.13039
|113>    H       -9.91957        18.95163         3.93818
|114> *
|115>
|116>                          ****END OF INPUT****

CARTESIAN COORDINATES (ANGSTROEM)
---------------------------------
  C      2.080060  -10.462950   -9.329020
  C      1.681950  -10.356930  -10.633410
  F      2.174820  -11.193000  -11.557840
  C      0.753650   -9.372570  -11.020860
  F      0.378350   -9.289130  -12.306130
  C      0.235720   -8.505200  -10.098770
  C      0.627200   -8.588410   -8.749690
  C      1.565310   -9.585210   -8.355470
  C      1.973170   -9.688000   -7.004110
  C      1.461710   -8.819300   -6.077880
  C      0.526850   -7.822090   -6.482490
  C      0.111780   -7.701300   -7.777180
  C      0.153430   -7.024400   -5.309050
  O     -0.632390   -6.075010   -5.274140
  C      0.900480   -7.574860   -4.181380
  C      1.697190   -8.685220   -4.641790
  C      2.523720   -9.482900   -3.888330
  C      3.270240  -10.558920   -4.405680
  N      3.903990  -11.443400   -4.773780
  C      2.721590   -9.327930   -2.502700
  N      2.913550   -9.234460   -1.374030
  C      0.797230   -7.036690   -2.915630
  N     -0.005160   -5.986070   -2.712290
  C     -0.233510   -5.315010   -1.559350
  S      0.514850   -5.775740   -0.061140
  C     -0.320800   -4.472900    0.723980
  N     -0.113330   -4.294420    2.093410
  O     -0.703020   -3.377210    2.640740
  O      0.647220   -5.075510    2.643010
  C     -1.117690   -3.739910   -0.116890
  C     -1.083690   -4.203940   -1.443310
  C     -1.807250   -3.654410   -2.561610
  C     -2.625260   -2.589320   -2.508430
  C     -3.360400   -2.035080   -3.619820
  C     -3.845840   -2.675250   -4.691690
  C     -3.754760   -4.148810   -4.934690
  C     -4.598520   -1.933660   -5.780310
  N     -4.837760   -0.540230   -5.536210
  C     -4.019770    0.452880   -5.940060
  C     -4.141480    1.751030   -5.549600
  C     -3.325240    2.784240   -6.037470
  C     -3.422490    4.100440   -5.660570
  C     -2.645470    5.185680   -6.125790
  C     -2.971920    6.389170   -5.573510
  C     -4.022600    6.323530   -4.635050
  S     -4.593560    4.679120   -4.478340
  C     -4.571560    7.361710   -3.899640
  C     -4.209550    8.724150   -3.924740
  C     -4.931480    9.512110   -3.076790
  C     -5.907600    8.820740   -2.324250
  S     -5.863030    7.108750   -2.751480
  C     -6.793280    9.241360   -1.361870
  C     -7.048730   10.542570   -0.880010
  C     -6.614750   11.798350   -1.307330
  C     -7.177560   12.788490   -0.462700
  C     -7.066480   14.160060   -0.458840
  C     -7.758180   14.871220    0.537500
  C     -7.846010   16.224320    0.813590
  C     -8.686960   16.420070    1.958850
  C     -9.120640   15.182180    2.388410
  C     -8.565600   14.178770    1.530030
  C     -8.684600   12.818250    1.528120
  C     -7.990700   12.099510    0.526140
  C     -7.913110   10.752560    0.257200
  C     -8.982000   17.720890    2.511520
  C     -9.741600   17.952990    3.578710
  H      2.792220  -11.223330   -9.049010
  H     -0.474450   -7.756260  -10.412720
  H      2.683910  -10.453220   -6.737970
  H     -0.598240   -6.938720   -8.059410
  H      1.344260   -7.424670   -2.067220
  H     -0.491990   -5.674550   -3.572870
  H     -1.692830   -2.903920    0.235060
  H     -1.637220   -4.126470   -3.515710
  H     -2.739700   -2.051370   -1.577020
  H     -3.553050   -0.972800   -3.528220
  H     -3.775860   -4.695500   -3.994500
  H     -2.832330   -4.406700   -5.454940
  H     -4.585190   -4.483130   -5.553850
  H     -5.566360   -2.426830   -5.933380
  H     -4.031960   -2.028360   -6.713590
  H     -5.513870   -0.315960   -4.820630
  H     -3.255770    0.163540   -6.648820
  H     -4.906800    2.017720   -4.832340
  H     -2.564530    2.533390   -6.765230
  H     -1.868880    5.043830   -6.856880
  H     -2.483680    7.316260   -5.814580
  H     -3.424760    9.090520   -4.562480
  H     -4.763200   10.565740   -2.961500
  H     -7.378720    8.459220   -0.893260
  H     -5.987570   12.015970   -2.149490
  H     -6.467550   14.683040   -1.191140
  H     -7.365700   17.017140    0.267470
  H     -9.765230   14.979240    3.222790
  H     -9.283280   12.293670    2.259790
  H     -8.399400    9.961840    0.800760
  H     -8.528460   18.554300    1.988810
  H    -10.210310   17.156370    4.130390
  H     -9.919570   18.951630    3.938180

 Total Charge           Charge          ....    0
 Multiplicity           Mult            ....    1
 Number of Electrons    NEL             ....  476
 Basis Dimension        Dim             .... 1101

ORBITAL ENERGIES
----------------

  NO   OCC          E(Eh)            E(eV)
   0   2.0000     -88.997678     -2421.7499
   1   2.0000     -88.926738     -2419.8196
   2   2.0000     -88.920397     -2419.6470
   3   2.0000     -24.807870      -675.0565
   4   2.0000     -24.806856      -675.0289
   5   2.0000     -19.246492      -523.7237
   6   2.0000     -19.244929      -523.6811
   7   2.0000     -19.243981      -523.6554
   8   2.0000     -14.655979      -398.8095
   9   2.0000     -14.507832      -394.7782
  10   2.0000     -14.443747      -393.0343
  11   2.0000     -14.428252      -392.6127
  12   2.0000     -14.423623      -392.4867
  13   2.0000     -10.392742      -282.8009
  14   2.0000     -10.392237      -282.7871
  15   2.0000     -10.391557      -282.7686
  16   2.0000     -10.382867      -282.5322
  17   2.0000     -10.378974      -282.4263
  18   2.0000     -10.356200      -281.8065
  19   2.0000     -10.355674      -281.7922
  20   2.0000     -10.351405      -281.6761
  21   2.0000     -10.330376      -281.1038
  22   2.0000     -10.327230      -281.0182
  23   2.0000     -10.326674      -281.0031
  24   2.0000     -10.322409      -280.8870
  25   2.0000     -10.321970      -280.8751
  26   2.0000     -10.320986      -280.8483
  27   2.0000     -10.320161      -280.8258
  28   2.0000     -10.318664      -280.7851
  29   2.0000     -10.317921      -280.7649
  30   2.0000     -10.315370      -280.6955
  31   2.0000     -10.314412      -280.6694
  32   2.0000     -10.312684      -280.6224
  33   2.0000     -10.311335      -280.5857
  34   2.0000     -10.311112      -280.5796
  35   2.0000     -10.309227      -280.5283
  36   2.0000     -10.297307      -280.2040
  37   2.0000     -10.295755      -280.1617
  38   2.0000     -10.294573      -280.1296
  39   2.0000     -10.293978      -280.1134
  40   2.0000     -10.286694      -279.9152
  41   2.0000     -10.286015      -279.8967
  42   2.0000     -10.285344      -279.8784
  43   2.0000     -10.283791      -279.8362
  44   2.0000     -10.280527      -279.7474
  45   2.0000     -10.278728      -279.6984
  46   2.0000     -10.278155      -279.6828
  47   2.0000     -10.273779      -279.5637
  48   2.0000     -10.271054      -279.4896
  49   2.0000     -10.270649      -279.4786
  50   2.0000     -10.270461      -279.4735
  51   2.0000     -10.268504      -279.4202
  52   2.0000     -10.267649      -279.3969
  53   2.0000     -10.262114      -279.2463
  54   2.0000     -10.258808      -279.1564
  55   2.0000     -10.258588      -279.1504
  56   2.0000     -10.257647      -279.1248
  57   2.0000     -10.256261      -279.0870
  58   2.0000     -10.255865      -279.0763
  59   2.0000     -10.254550      -279.0405
  60   2.0000     -10.252256      -278.9781
  61   2.0000     -10.251067      -278.9457
  62   2.0000     -10.251053      -278.9453
  63   2.0000     -10.250496      -278.9302
  64   2.0000     -10.250029      -278.9175
  65   2.0000     -10.247766      -278.8559
  66   2.0000      -8.092813      -220.2166
  67   2.0000      -8.023054      -218.3184
  68   2.0000      -8.016970      -218.1528
  69   2.0000      -6.062461      -164.9680
  70   2.0000      -6.058102      -164.8493
  71   2.0000      -6.054287      -164.7455
  72   2.0000      -5.992768      -163.0715
  73   2.0000      -5.988883      -162.9658
  74   2.0000      -5.986768      -162.9082
  75   2.0000      -5.983912      -162.8305
  76   2.0000      -5.982791      -162.8000
  77   2.0000      -5.977705      -162.6616
  78   2.0000      -1.329729       -36.1838
  79   2.0000      -1.323912       -36.0255
  80   2.0000      -1.314916       -35.7807
  81   2.0000      -1.159271       -31.5454
  82   2.0000      -1.142893       -31.0997
  83   2.0000      -1.114700       -30.3325
  84   2.0000      -1.046682       -28.4817
  85   2.0000      -1.031988       -28.0818
  86   2.0000      -1.018175       -27.7059
  87   2.0000      -1.016394       -27.6575
  88   2.0000      -1.004196       -27.3256
  89   2.0000      -0.993512       -27.0348
  90   2.0000      -0.975303       -26.5393
  91   2.0000      -0.971371       -26.4324
  92   2.0000      -0.953529       -25.9469
  93   2.0000      -0.944345       -25.6969
  94   2.0000      -0.944207       -25.6932
  95   2.0000      -0.938071       -25.5262
  96   2.0000      -0.922575       -25.1045
  97   2.0000      -0.911423       -24.8011
  98   2.0000      -0.904056       -24.6006
  99   2.0000      -0.896839       -24.4042
 100   2.0000      -0.887830       -24.1591
 101   2.0000      -0.882232       -24.0068
 102   2.0000      -0.872047       -23.7296
 103   2.0000      -0.860315       -23.4104
 104   2.0000      -0.853154       -23.2155
 105   2.0000      -0.852777       -23.2052
 106   2.0000      -0.848702       -23.0944
 107   2.0000      -0.837434       -22.7878
 108   2.0000      -0.826889       -22.5008
 109   2.0000      -0.825661       -22.4674
 110   2.0000      -0.821470       -22.3533
 111   2.0000      -0.801452       -21.8086
 112   2.0000      -0.799989       -21.7688
 113   2.0000      -0.789693       -21.4886
 114   2.0000      -0.782316       -21.2879
 115   2.0000      -0.782293       -21.2873
 116   2.0000      -0.772472       -21.0200
 117   2.0000      -0.764461       -20.8020
 118   2.0000      -0.750635       -20.4258
 119   2.0000      -0.741962       -20.1898
 120   2.0000      -0.738752       -20.1025
 121   2.0000      -0.732936       -19.9442
 122   2.0000      -0.728197       -19.8152
 123   2.0000      -0.718669       -19.5560
 124   2.0000      -0.716440       -19.4953
 125   2.0000      -0.699287       -19.0286
 126   2.0000      -0.694804       -18.9066
 127   2.0000      -0.687732       -18.7141
 128   2.0000      -0.677502       -18.4358
 129   2.0000      -0.670550       -18.2466
 130   2.0000      -0.666960       -18.1489
 131   2.0000      -0.660591       -17.9756
 132   2.0000      -0.654969       -17.8226
 133   2.0000      -0.654718       -17.8158
 134   2.0000      -0.651586       -17.7306
 135   2.0000      -0.640659       -17.4332
 136   2.0000      -0.636699       -17.3255
 137   2.0000      -0.635943       -17.3049
 138   2.0000      -0.632677       -17.2160
 139   2.0000      -0.625982       -17.0338
 140   2.0000      -0.621121       -16.9016
 141   2.0000      -0.617550       -16.8044
 142   2.0000      -0.613462       -16.6931
 143   2.0000      -0.609642       -16.5892
 144   2.0000      -0.607984       -16.5441
 145   2.0000      -0.606129       -16.4936
 146   2.0000      -0.600281       -16.3345
 147   2.0000      -0.594949       -16.1894
 148   2.0000      -0.594788       -16.1850
 149   2.0000      -0.590892       -16.0790
 150   2.0000      -0.584864       -15.9150
 151   2.0000      -0.581203       -15.8153
 152   2.0000      -0.575975       -15.6731
 153   2.0000      -0.571704       -15.5569
 154   2.0000      -0.570558       -15.5257
 155   2.0000      -0.569563       -15.4986
 156   2.0000      -0.565107       -15.3773
 157   2.0000      -0.564744       -15.3675
 158   2.0000      -0.563596       -15.3362
 159   2.0000      -0.556012       -15.1299
 160   2.0000      -0.550183       -14.9712
 161   2.0000      -0.550007       -14.9665
 162   2.0000      -0.544499       -14.8166
 163   2.0000      -0.543908       -14.8005
 164   2.0000      -0.542226       -14.7547
 165   2.0000      -0.538986       -14.6665
 166   2.0000      -0.535409       -14.5692
 167   2.0000      -0.530032       -14.4229
 168   2.0000      -0.527522       -14.3546
 169   2.0000      -0.525733       -14.3059
 170   2.0000      -0.519385       -14.1332
 171   2.0000      -0.516287       -14.0489
 172   2.0000      -0.515163       -14.0183
 173   2.0000      -0.510280       -13.8854
 174   2.0000      -0.509205       -13.8562
 175   2.0000      -0.501938       -13.6584
 176   2.0000      -0.501531       -13.6474
 177   2.0000      -0.496666       -13.5150
 178   2.0000      -0.490553       -13.3486
 179   2.0000      -0.488074       -13.2812
 180   2.0000      -0.485605       -13.2140
 181   2.0000      -0.483524       -13.1574
 182   2.0000      -0.482844       -13.1389
 183   2.0000      -0.480864       -13.0850
 184   2.0000      -0.477126       -12.9833
 185   2.0000      -0.476544       -12.9674
 186   2.0000      -0.475923       -12.9505
 187   2.0000      -0.475551       -12.9404
 188   2.0000      -0.469522       -12.7763
 189   2.0000      -0.468029       -12.7357
 190   2.0000      -0.463284       -12.6066
 191   2.0000      -0.460061       -12.5189
 192   2.0000      -0.458014       -12.4632
 193   2.0000      -0.457918       -12.4606
 194   2.0000      -0.454861       -12.3774
 195   2.0000      -0.453785       -12.3481
 196   2.0000      -0.453288       -12.3346
 197   2.0000      -0.450514       -12.2591
 198   2.0000      -0.447223       -12.1695
 199   2.0000      -0.444651       -12.0996
 200   2.0000      -0.443911       -12.0794
 201   2.0000      -0.438063       -11.9203
 202   2.0000      -0.437515       -11.9054
 203   2.0000      -0.437158       -11.8957
 204   2.0000      -0.436457       -11.8766
 205   2.0000      -0.430422       -11.7124
 206   2.0000      -0.421991       -11.4830
 207   2.0000      -0.419994       -11.4286
 208   2.0000      -0.419573       -11.4172
 209   2.0000      -0.415178       -11.2976
 210   2.0000      -0.411194       -11.1892
 211   2.0000      -0.408824       -11.1247
 212   2.0000      -0.407026       -11.0758
 213   2.0000      -0.402596       -10.9552
 214   2.0000      -0.395476       -10.7615
 215   2.0000      -0.391962       -10.6658
 216   2.0000      -0.389879       -10.6091
 217   2.0000      -0.385233       -10.4827
 218   2.0000      -0.383438       -10.4339
 219   2.0000      -0.380674       -10.3587
 220   2.0000      -0.373501       -10.1635
 221   2.0000      -0.368861       -10.0372
 222   2.0000      -0.367215        -9.9924
 223   2.0000      -0.361529        -9.8377
 224   2.0000      -0.354374        -9.6430
 225   2.0000      -0.352375        -9.5886
 226   2.0000      -0.338076        -9.1995
 227   2.0000      -0.331481        -9.0201
 228   2.0000      -0.320076        -8.7097
 229   2.0000      -0.319306        -8.6888
 230   2.0000      -0.307679        -8.3724
 231   2.0000      -0.306612        -8.3433
 232   2.0000      -0.301189        -8.1958
 233   2.0000      -0.274697        -7.4749
 234   2.0000      -0.266110        -7.2412
 235   2.0000      -0.255279        -6.9465
 236   2.0000      -0.232079        -6.3152
 237   2.0000      -0.180824        -4.9205
 238   0.0000      -0.101029        -2.7491
 239   0.0000      -0.084436        -2.2976
 240   0.0000      -0.080441        -2.1889
 241   0.0000      -0.055931        -1.5220
 242   0.0000      -0.049859        -1.3567

MULLIKEN ATOMIC CHARGES
-----------------------
   0 C :   -0.109888
   1 C :    0.247219
   2 F :   -0.169254
   3 C :    0.242334
   4 F :   -0.171466
   5 C :   -0.108608
   6 C :    0.116958
   7 C :    0.115239
   8 C :   -0.083477
   9 C :    0.041155
  10 C :    0.010482
  11 C :   -0.082410
  12 C :    0.176007
  13 O :   -0.232448
  14 C :   -0.139682
  15 C :    0.333986
  16 C :   -0.340708
  17 C :   -0.180523
  18 N :    0.148430
  19 C :   -0.198516
  20 N :    0.148068
  21 C :    0.037118
  22 N :   -0.003797
  23 C :   -0.126159
  24 S :    0.182343
  25 C :    0.003384
  26 N :    0.276390
  27 O :   -0.245466
  28 O :   -0.255698
  29 C :    0.004068
  30 C :    0.135146
  31 C :   -0.044307
  32 C :    0.020868
  33 C :   -0.000279
  34 C :   -0.207976
  35 C :    0.069989
  36 C :    0.189652
  37 N :   -0.149318
  38 C :    0.063783
  39 C :   -0.026113
  40 C :   -0.011256
  41 C :   -0.036817
  42 C :    0.036487
  43 C :    0.011241
  44 C :   -0.037243
  45 S :    0.052229
  46 C :   -0.054442
  47 C :    0.018602
  48 C :    0.017936
  49 C :   -0.047789
  50 S :    0.061475
  51 C :    0.018606
  52 C :    0.080139
  53 C :   -0.060180
  54 C :    0.062325
  55 C :   -0.014684
  56 C :    0.063533
  57 C :   -0.034063
  58 C :    0.062835
  59 C :   -0.034050
  60 C :    0.049150
  61 C :   -0.003914
  62 C :    0.057393
  63 C :   -0.036771
  64 C :    0.008990
  65 C :   -0.017485
  66 H :    0.010405
  67 H :   -0.000289
  68 H :   -0.003174
  69 H :   -0.013769
  70 H :    0.047521
  71 H :    0.185581
  72 H :    0.015287
  73 H :   -0.017883
  74 H :   -0.007615
  75 H :   -0.008535
  76 H :    0.030006
  77 H :    0.053332
  78 H :    0.007527
  79 H :    0.026350
  80 H :    0.026544
  81 H :    0.123729
  82 H :   -0.000128
  83 H :   -0.015057
  84 H :   -0.026282
  85 H :   -0.022648
  86 H :   -0.022482
  87 H :   -0.022811
  88 H :   -0.028157
  89 H :   -0.034703
  90 H :   -0.044466
  91 H :   -0.033597
  92 H :   -0.029974
  93 H :   -0.034916
  94 H :   -0.029462
  95 H :   -0.026984
  96 H :   -0.024503
  97 H :    0.007034
  98 H :    0.015346
Sum of atomic charges:   -0.0000000

LOEWDIN ATOMIC CHARGES
----------------------
   0 C :   -0.027104
   1 C :    0.069657
   2 F :   -0.047469
   3 C :    0.069846
   4 F :   -0.049337
   5 C :   -0.032615
   6 C :   -0.010321
   7 C :   -0.005770
   8 C :    0.021194
   9 C :   -0.020125
  10 C :   -0.052404
  11 C :    0.031251
  12 C :    0.098927
  13 O :   -0.186582
  14 C :   -0.147498
  15 C :    0.077920
  16 C :   -0.147418
  17 C :   -0.019047
  18 N :   -0.052743
  19 C :   -0.021397
  20 N :   -0.050857
  21 C :    0.117716
  22 N :    0.085591
  23 C :   -0.119585
  24 S :    0.472443
  25 C :   -0.196763
  26 N :    0.274882
  27 O :   -0.212859
  28 O :   -0.222472
  29 C :    0.004341
  30 C :   -0.077995
  31 C :   -0.038225
  32 C :   -0.007524
  33 C :   -0.065688
  34 C :   -0.026070
  35 C :   -0.054007
  36 C :    0.039460
  37 N :    0.003305
  38 C :    0.045403
  39 C :   -0.123763
  40 C :   -0.038275
  41 C :   -0.176269
  42 C :   -0.032369
  43 C :   -0.051629
  44 C :   -0.172112
  45 S :    0.353041
  46 C :   -0.199165
  47 C :   -0.024717
  48 C :   -0.053890
  49 C :   -0.140093
  50 S :    0.353855
  51 C :   -0.073377
  52 C :   -0.054146
  53 C :   -0.021928
  54 C :   -0.051255
  55 C :    0.051939
  56 C :   -0.063373
  57 C :    0.029430
  58 C :   -0.062047
  59 C :    0.009881
  60 C :   -0.055450
  61 C :    0.067334
  62 C :   -0.065591
  63 C :    0.043764
  64 C :   -0.024422
  65 C :   -0.050248
  66 H :    0.049090
  67 H :    0.044691
  68 H :    0.041592
  69 H :    0.039215
  70 H :    0.037730
  71 H :    0.083824
  72 H :    0.046208
  73 H :    0.028210
  74 H :    0.029263
  75 H :    0.027439
  76 H :    0.036533
  77 H :    0.040137
  78 H :    0.028005
  79 H :    0.032167
  80 H :    0.036203
  81 H :    0.080624
  82 H :    0.027558
  83 H :    0.017810
  84 H :    0.028687
  85 H :    0.029194
  86 H :    0.027934
  87 H :    0.028768
  88 H :    0.027586
  89 H :    0.023761
  90 H :    0.016179
  91 H :    0.030928
  92 H :    0.022246
  93 H :    0.020723
  94 H :    0.032707
  95 H :    0.023569
  96 H :    0.025807
  97 H :    0.018300
  98 H :    0.022126

  Mayer bond orders larger than 0.100000
B(  0-C ,  1-C ) :   1.4326 B(  0-C ,  5-C ) :   0.1082 B(  0-C ,  7-C ) :   1.1940
B(  0-C , 66-H ) :   1.0080 B(  1-C ,  2-F ) :   1.1376 B(  1-C ,  3-C ) :   1.1950
B(  3-C ,  4-F ) :   1.1347 B(  3-C ,  5-C ) :   1.4379 B(  5-C ,  6-C ) :   1.1930
B(  5-C , 67-H ) :   1.0076 B(  6-C ,  7-C ) :   1.2602 B(  6-C , 11-C ) :   1.1825
B(  7-C ,  8-C ) :   1.2041 B(  8-C ,  9-C ) :   1.4670 B(  8-C , 68-H ) :   0.9903
B(  9-C , 10-C ) :   1.2196 B(  9-C , 15-C ) :   0.9854 B( 10-C , 11-C ) :   1.4675
B( 10-C , 12-C ) :   0.9816 B( 11-C , 69-H ) :   1.0188 B( 12-C , 13-O ) :   1.9983
B( 12-C , 14-C ) :   1.0201 B( 13-O , 71-H ) :   0.1451 B( 14-C , 15-C ) :   1.1004
B( 14-C , 21-C ) :   1.4255 B( 15-C , 16-C ) :   1.6279 B( 16-C , 17-C ) :   1.1474
B( 16-C , 19-C ) :   1.1480 B( 17-C , 18-N ) :   2.9588 B( 19-C , 20-N ) :   2.9535
B( 21-C , 22-N ) :   1.3582 B( 21-C , 70-H ) :   0.9328 B( 22-N , 23-C ) :   1.1885
B( 22-N , 71-H ) :   0.8222 B( 23-C , 24-S ) :   1.1320 B( 23-C , 30-C ) :   1.3769
B( 24-S , 25-C ) :   1.0867 B( 25-C , 26-N ) :   0.9677 B( 25-C , 29-C ) :   1.4997
B( 26-N , 27-O ) :   1.5310 B( 26-N , 28-O ) :   1.5132 B( 27-O , 28-O ) :   0.2651
B( 29-C , 30-C ) :   1.2221 B( 29-C , 72-H ) :   1.0004 B( 30-C , 31-C ) :   1.0703
B( 31-C , 32-C ) :   1.7706 B( 31-C , 73-H ) :   0.9640 B( 32-C , 33-C ) :   1.0831
B( 32-C , 74-H ) :   0.9592 B( 33-C , 34-C ) :   1.8513 B( 33-C , 75-H ) :   0.9364
B( 34-C , 35-C ) :   1.0826 B( 34-C , 36-C ) :   0.9983 B( 35-C , 76-H ) :   0.9433
B( 35-C , 77-H ) :   0.9377 B( 35-C , 78-H ) :   0.9484 B( 36-C , 37-N ) :   1.0537
B( 36-C , 79-H ) :   0.9356 B( 36-C , 80-H ) :   0.9275 B( 37-N , 38-C ) :   1.2042
B( 37-N , 81-H ) :   0.9390 B( 38-C , 39-C ) :   1.6035 B( 38-C , 82-H ) :   0.9682
B( 39-C , 40-C ) :   1.1705 B( 39-C , 83-H ) :   0.9634 B( 40-C , 41-C ) :   1.5804
B( 40-C , 84-H ) :   0.9794 B( 41-C , 42-C ) :   1.1503 B( 41-C , 45-S ) :   1.0092
B( 42-C , 43-C ) :   1.5785 B( 42-C , 85-H ) :   0.9986 B( 43-C , 44-C ) :   1.2001
B( 43-C , 86-H ) :   0.9934 B( 44-C , 45-S ) :   1.0523 B( 44-C , 46-C ) :   1.4819
B( 46-C , 47-C ) :   1.2074 B( 46-C , 50-S ) :   1.0411 B( 47-C , 48-C ) :   1.5813
B( 47-C , 87-H ) :   0.9927 B( 48-C , 49-C ) :   1.1610 B( 48-C , 88-H ) :   0.9938
B( 49-C , 50-S ) :   1.0329 B( 49-C , 51-C ) :   1.5578 B( 51-C , 52-C ) :   1.1666
B( 51-C , 89-H ) :   0.9475 B( 52-C , 53-C ) :   1.4522 B( 52-C , 63-C ) :   1.1160
B( 53-C , 54-C ) :   1.1184 B( 53-C , 90-H ) :   1.0116 B( 54-C , 55-C ) :   1.4488
B( 54-C , 62-C ) :   1.1233 B( 55-C , 56-C ) :   1.1284 B( 55-C , 91-H ) :   1.0035
B( 56-C , 57-C ) :   1.4332 B( 56-C , 60-C ) :   1.1255 B( 57-C , 58-C ) :   1.1365
B( 57-C , 92-H ) :   1.0120 B( 58-C , 59-C ) :   1.5260 B( 58-C , 64-C ) :   1.0748
B( 59-C , 60-C ) :   1.0934 B( 59-C , 93-H ) :   1.0109 B( 60-C , 61-C ) :   1.4714
B( 61-C , 62-C ) :   1.1154 B( 61-C , 94-H ) :   1.0038 B( 62-C , 63-C ) :   1.4423
B( 63-C , 95-H ) :   1.0157 B( 64-C , 65-C ) :   1.9454 B( 64-C , 96-H ) :   0.9653
B( 65-C , 97-H ) :   0.9523 B( 65-C , 98-H ) :   0.9492

-----------------------------------------------------------------------------
         ABSORPTION SPECTRUM VIA TRANSITION ELECTRIC DIPOLE MOMENTS
-----------------------------------------------------------------------------
State   Energy  Wavelength   fosc         T2         TX        TY        TZ
        (cm-1)    (nm)                  (au**2)     (au)      (au)      (au)
-----------------------------------------------------------------------------
   0    5548.3   1802.3   0.060177268   3.57064   0.53637  -1.63928  -0.77182
   1    9844.7   1015.8   0.000761379   0.02546  -0.06768   0.14026   0.03477
   2   14350.4    696.8   0.822870383  18.87746  -1.15709   3.81792   1.72106
   3   14658.3    682.2   0.000006228   0.00014  -0.00464   0.00830  -0.00703
   4   15483.3    645.9   1.297958073  27.59770   1.69790  -4.35967  -2.38916
   5   18961.0    527.4   0.000270328   0.00469  -0.00401  -0.03226  -0.06031
   6   21124.0    473.4   0.753427392  11.74195  -1.35725   2.33242   2.11179
   7   21874.9    457.1   0.025444363   0.38293  -0.20769   0.40620   0.41809
   8   22148.3    451.5   0.177087915   2.63224   0.40559  -1.40598  -0.70068
   9   22479.7    444.8   0.001404577   0.02057  -0.07586   0.10533   0.06100
  10   24338.5    410.9   0.002338961   0.03164   0.10570   0.13845  -0.03604
  11   25183.4    397.1   0.077083025   1.00767   0.37899  -0.21533   0.90425
  12   26454.0    378.0   0.055802892   0.69445  -0.51927  -0.15619   0.63278
  13   26811.8    373.0   0.000923364   0.01134  -0.02199  -0.00891  -0.10380
  14   28050.3    356.5   0.205470735   2.41150  -0.82731   0.54544   1.19564
  15   28532.7    350.5   0.013379963   0.15438  -0.20634   0.33219   0.03807
  16   28691.0    348.5   0.003001857   0.03444  -0.10862   0.13258  -0.07118
  17   29013.6    344.7   0.000475194   0.00539  -0.06334   0.03712  -0.00110
  18   29144.6    343.1   0.003605773   0.04073  -0.02297  -0.00881  -0.20031
  19   29667.4    337.1   0.081264176   0.90177   0.24031  -0.00440   0.91870
  20   29720.0    336.5   0.021146664   0.23424  -0.23299   0.26373   0.33228
  21   30361.5    329.4   0.105138168   1.14002  -0.53468   0.77707   0.50030
  22   30540.3    327.4   0.041761012   0.45017  -0.35118   0.30849   0.48132
  23   30973.2    322.9   0.553842472   5.88675  -0.31139  -0.37936  -2.37610
  24   31210.3    320.4   0.000670970   0.00708  -0.06057   0.04372   0.03869
  25   31345.5    319.0   0.012889037   0.13537   0.10588  -0.04063   0.35001
  26   32495.0    307.7   0.143399568   1.45281  -0.17725   1.14346   0.33747
  27   32797.9    304.9   0.000044636   0.00045  -0.00942  -0.01315  -0.01366
  28   33406.2    299.3   0.026508943   0.26124   0.11479  -0.00136   0.49806
  29   33441.1    299.0   0.012605385   0.12409  -0.07521   0.33742   0.06772
  30   33605.5    297.6   0.095470096   0.93526  -0.20532   0.01494  -0.94492
  31   33708.7    296.7   0.227099363   2.21794   0.35010   0.00384   1.44753
  32   33933.9    294.7   0.198577911   1.92651  -0.31890  -0.00926  -1.35083
  33   34445.3    290.3   0.219307214   2.09604  -0.34928  -0.36520  -1.35671
  34   34744.1    287.8   0.511133855   4.84317  -0.07722   2.16397  -0.39296
  35   34862.1    286.8   0.005292291   0.04998  -0.14465  -0.05733  -0.16052
  36   35015.1    285.6   0.089997659   0.84616   0.08152   0.91371   0.06811
  37   36180.7    276.4   0.012691668   0.11548   0.25600  -0.03872   0.22011
  38   36350.7    275.1   0.733550559   6.64343   1.64990  -1.11550   1.63613
  39   36437.3    274.4   0.062894880   0.56826  -0.02798  -0.66896   0.34635
  40   37070.7    269.8   0.170016995   1.50986   0.40838  -0.78107  -0.85617
  41   37109.5    269.5   0.003387633   0.03005   0.07155  -0.12917  -0.09082
  42   37756.8    264.9   0.000137652   0.00120  -0.02130   0.02525  -0.01044
  43   37915.2    263.7   0.000060530   0.00053  -0.00113   0.01515   0.01717
  44   38016.5    263.0   0.008581112   0.07431  -0.02456   0.25766   0.08555
  45   38147.5    262.1   0.344568792   2.97362   0.17068  -1.58466  -0.65828
  46   38432.3    260.2   0.000553074   0.00474  -0.02415   0.06445   0.00074
  47   38439.1    260.2   0.002710680   0.02322   0.02446  -0.06944  -0.13340
  48   38491.7    259.8   0.000764233   0.00654   0.01615  -0.01891  -0.07693
  49   38900.9    257.1   0.000897092   0.00759   0.04828  -0.04977   0.05277
  50   39101.6    255.7   0.044402973   0.37385   0.12368   0.32556  -0.50256
  51   39135.9    255.5   0.033567621   0.28237   0.45060   0.27909   0.03797
  52   39478.7    253.3   0.207260973   1.72835  -0.15690   1.23993   0.40781
  53   39681.5    252.0   0.004417045   0.03665   0.10480  -0.14130  -0.07547
  54   39951.7    250.3   0.133362096   1.09894  -0.65638   0.77327   0.26487
  55   40230.2    248.6   0.002422395   0.01982  -0.02476  -0.10977  -0.08462

FINAL SINGLE POINT ENERGY     -3929.123540887600

DIPOLE MOMENT
-------------
                                X             Y             Z
Electronic contribution:     55.36059    -108.95988     -24.75317
Nuclear contribution   :    -56.33970     107.77346      21.30741
                        -----------------------------------------
Total Dipole Moment    :     -0.97912      -1.18642      -3.44575
                        -----------------------------------------
Magnitude (a.u.)       :      3.77352
Magnitude (Debye)      :      9.59153

Rotational constants in cm-1:     0.001760     0.000184     0.000170
Rotational constants in MHz :    52.776080     5.518638     5.089037

                             ****ORCA TERMINATED NORMALLY****
TOTAL RUN TIME: 0 days 0 hours 10 minutes 41 seconds 751 msec
