                         Program Version 4.2.0 -  RELEASE  -
|  1> # ORCA input file
|  2> # SCF done       -161.992773770538          0.000876974697
|  3> ! CAM-B3LYP def2-SVP def2/J RIJCOSX Grid4 TightSCF
|  4> %maxcore 5000
|  5> %tddft
|  6>     Mode sTDDFT
|  7>     Ethresh 5.0
|  8>     maxcore 5000
|  9> end
| 10>
| 11> %pal
| 12>   nprocs 6
| 13>   end
| 14> * xyz 0 1
| 15>    C        1.02095         6.67023        -8.39688
| 16>    C       -0.31122         6.65176        -8.57818
| 17>    C       -1.09766         6.49380        -7.38459
| 18>    S       -0.05167         6.36142        -5.99365
| 19>    C        1.43949         6.52914        -7.01692
| 20>    O        2.54470         6.51222        -6.54690
| 21>    C       -2.46370         6.47480        -7.44853
| 22>    C       -3.47519         6.34209        -6.47218
| 23>    C       -4.83075         6.40380        -6.90941
| 24>    C       -5.95621         6.30233        -6.01302
| 25>    N       -7.18964         6.24870        -6.51131
| 26>    C       -7.38549         6.35654        -7.80947
| 27>    C       -6.28117         6.57082        -8.68553
| 28>    N       -5.05376         6.57081        -8.22232
| 29>    C       -6.49829         6.77905       -10.07049
| 30>    N       -6.71265         6.94575       -11.18344
| 31>    C       -8.70943         6.27988        -8.30077
| 32>    N       -9.78181         6.24136        -8.70430
| 33>    C       -5.78459         6.17546        -4.59969
| 34>    C       -4.42794         6.05454        -4.17910
| 35>    C       -3.30559         6.14045        -5.07978
| 36>    N       -2.15474         6.00262        -4.43214
| 37>    S       -2.43513         5.79109        -2.86516
| 38>    N       -4.04258         5.86455        -2.92086
| 39>    C       -6.77923         6.04806        -3.62380
| 40>    C       -8.13924         6.31023        -3.64748
| 41>    C       -8.95737         7.04661        -4.52605
| 42>    C      -10.27537         7.08808        -4.16860
| 43>    C      -10.57004         6.38716        -2.98323
| 44>    S       -9.10833         5.70984        -2.31219
| 45>    C      -11.81263         6.20960        -2.39365
| 46>    C      -13.06142         6.66592        -2.86915
| 47>    C      -14.11177         6.30903        -2.08206
| 48>    C      -13.76261         5.54821        -0.93228
| 49>    S      -12.01641         5.32594        -0.90484
| 50>    C      -14.67281         5.04304        -0.04483
| 51>    C      -14.48443         4.25324         1.12803
| 52>    C      -13.22754         4.02418         1.71946
| 53>    C      -13.13655         3.22518         2.82872
| 54>    C      -14.28255         2.62706         3.38570
| 55>    C      -15.53552         2.86489         2.83063
| 56>    C      -15.62533         3.67589         1.72312
| 57>    C      -13.87627         1.80818         4.50082
| 58>    C      -12.47758         1.90262         4.64512
| 59>    C      -11.90797         2.88196         3.64371
| 60>    C      -10.79012         2.27295         2.78596
| 61>    C      -11.25817         1.04979         2.00595
| 62>    C      -11.45012         4.19187         4.33102
| 63>    C      -10.34603         4.04451         5.36951
| 64>    C      -11.82441         1.14515         5.58483
| 65>    C      -12.55885         0.30242         6.43796
| 66>    C      -13.95529         0.24422         6.29451
| 67>    C      -14.61626         0.97918         5.33492
| 68>    C      -11.94122        -0.50655         7.45382
| 69>    C      -10.62943        -0.53260         7.79300
| 70>    C      -10.13527        -1.37099         8.82284
| 71>    C       -8.83949        -1.45024         9.23216
| 72>    S       -8.35240        -2.53753        10.52777
| 73>    C       -6.62645        -2.02056        10.40247
| 74>    O       -5.76079        -2.46791        11.10226
| 75>    C       -6.53953        -1.02384         9.34988
| 76>    C       -7.70150        -0.72981         8.74072
| 77>    H        1.76221         6.77821        -9.16868
| 78>    H       -0.79683         6.74578        -9.53504
| 79>    H       -2.87082         6.59258        -8.44750
| 80>    H       -6.39692         5.67556        -2.67984
| 81>    H       -8.56080         7.54699        -5.38729
| 82>    H      -11.03018         7.60569        -4.73226
| 83>    H      -13.15163         7.23210        -3.77814
| 84>    H      -15.13651         6.56231        -2.28897
| 85>    H      -15.70691         5.25179        -0.29509
| 86>    H      -12.34429         4.48510         1.30823
| 87>    H      -16.42125         2.42120         3.25959
| 88>    H      -16.59190         3.86563         1.27900
| 89>    H       -9.95860         1.98643         3.43091
| 90>    H      -10.42878         3.03156         2.08868
| 91>    H      -11.61252         0.27465         2.68241
| 92>    H      -10.43780         0.64511         1.41803
| 93>    H      -12.06866         1.31149         1.32947
| 94>    H      -12.32325         4.64117         4.81190
| 95>    H      -11.11611         4.87594         3.54789
| 96>    H      -10.68237         3.44527         6.21155
| 97>    H      -10.07363         5.02858         5.74481
| 98>    H       -9.45610         3.59105         4.94119
| 99>    H      -10.74945         1.17642         5.65900
|100>    H      -14.51777        -0.40344         6.95153
|101>    H      -15.68802         0.90562         5.22780
|102>    H      -12.61562        -1.15065         8.00550
|103>    H       -9.92190         0.10039         7.27903
|104>    H      -10.85515        -2.00266         9.32709
|105>    H       -5.58117        -0.58966         9.12313
|106>    H       -7.79643        -0.01187         7.94482
|107> *
|108>
|109>                          ****END OF INPUT****

CARTESIAN COORDINATES (ANGSTROEM)
---------------------------------
  C      1.020950    6.670230   -8.396880
  C     -0.311220    6.651760   -8.578180
  C     -1.097660    6.493800   -7.384590
  S     -0.051670    6.361420   -5.993650
  C      1.439490    6.529140   -7.016920
  O      2.544700    6.512220   -6.546900
  C     -2.463700    6.474800   -7.448530
  C     -3.475190    6.342090   -6.472180
  C     -4.830750    6.403800   -6.909410
  C     -5.956210    6.302330   -6.013020
  N     -7.189640    6.248700   -6.511310
  C     -7.385490    6.356540   -7.809470
  C     -6.281170    6.570820   -8.685530
  N     -5.053760    6.570810   -8.222320
  C     -6.498290    6.779050  -10.070490
  N     -6.712650    6.945750  -11.183440
  C     -8.709430    6.279880   -8.300770
  N     -9.781810    6.241360   -8.704300
  C     -5.784590    6.175460   -4.599690
  C     -4.427940    6.054540   -4.179100
  C     -3.305590    6.140450   -5.079780
  N     -2.154740    6.002620   -4.432140
  S     -2.435130    5.791090   -2.865160
  N     -4.042580    5.864550   -2.920860
  C     -6.779230    6.048060   -3.623800
  C     -8.139240    6.310230   -3.647480
  C     -8.957370    7.046610   -4.526050
  C    -10.275370    7.088080   -4.168600
  C    -10.570040    6.387160   -2.983230
  S     -9.108330    5.709840   -2.312190
  C    -11.812630    6.209600   -2.393650
  C    -13.061420    6.665920   -2.869150
  C    -14.111770    6.309030   -2.082060
  C    -13.762610    5.548210   -0.932280
  S    -12.016410    5.325940   -0.904840
  C    -14.672810    5.043040   -0.044830
  C    -14.484430    4.253240    1.128030
  C    -13.227540    4.024180    1.719460
  C    -13.136550    3.225180    2.828720
  C    -14.282550    2.627060    3.385700
  C    -15.535520    2.864890    2.830630
  C    -15.625330    3.675890    1.723120
  C    -13.876270    1.808180    4.500820
  C    -12.477580    1.902620    4.645120
  C    -11.907970    2.881960    3.643710
  C    -10.790120    2.272950    2.785960
  C    -11.258170    1.049790    2.005950
  C    -11.450120    4.191870    4.331020
  C    -10.346030    4.044510    5.369510
  C    -11.824410    1.145150    5.584830
  C    -12.558850    0.302420    6.437960
  C    -13.955290    0.244220    6.294510
  C    -14.616260    0.979180    5.334920
  C    -11.941220   -0.506550    7.453820
  C    -10.629430   -0.532600    7.793000
  C    -10.135270   -1.370990    8.822840
  C     -8.839490   -1.450240    9.232160
  S     -8.352400   -2.537530   10.527770
  C     -6.626450   -2.020560   10.402470
  O     -5.760790   -2.467910   11.102260
  C     -6.539530   -1.023840    9.349880
  C     -7.701500   -0.729810    8.740720
  H      1.762210    6.778210   -9.168680
  H     -0.796830    6.745780   -9.535040
  H     -2.870820    6.592580   -8.447500
  H     -6.396920    5.675560   -2.679840
  H     -8.560800    7.546990   -5.387290
  H    -11.030180    7.605690   -4.732260
  H    -13.151630    7.232100   -3.778140
  H    -15.136510    6.562310   -2.288970
  H    -15.706910    5.251790   -0.295090
  H    -12.344290    4.485100    1.308230
  H    -16.421250    2.421200    3.259590
  H    -16.591900    3.865630    1.279000
  H     -9.958600    1.986430    3.430910
  H    -10.428780    3.031560    2.088680
  H    -11.612520    0.274650    2.682410
  H    -10.437800    0.645110    1.418030
  H    -12.068660    1.311490    1.329470
  H    -12.323250    4.641170    4.811900
  H    -11.116110    4.875940    3.547890
  H    -10.682370    3.445270    6.211550
  H    -10.073630    5.028580    5.744810
  H     -9.456100    3.591050    4.941190
  H    -10.749450    1.176420    5.659000
  H    -14.517770   -0.403440    6.951530
  H    -15.688020    0.905620    5.227800
  H    -12.615620   -1.150650    8.005500
  H     -9.921900    0.100390    7.279030
  H    -10.855150   -2.002660    9.327090
  H     -5.581170   -0.589660    9.123130
  H     -7.796430   -0.011870    7.944820

 Total Charge           Charge          ....    0
 Multiplicity           Mult            ....    1
 Number of Electrons    NEL             ....  462
 Basis Dimension        Dim             .... 1038

ORBITAL ENERGIES
----------------

  NO   OCC          E(Eh)            E(eV)
   0   2.0000     -89.033175     -2422.7159
   1   2.0000     -88.971958     -2421.0501
   2   2.0000     -88.964869     -2420.8572
   3   2.0000     -88.930271     -2419.9157
   4   2.0000     -88.916389     -2419.5380
   5   2.0000     -19.205600      -522.6109
   6   2.0000     -19.191038      -522.2147
   7   2.0000     -14.455306      -393.3489
   8   2.0000     -14.452947      -393.2847
   9   2.0000     -14.446983      -393.1224
  10   2.0000     -14.441493      -392.9730
  11   2.0000     -14.425847      -392.5473
  12   2.0000     -14.423916      -392.4947
  13   2.0000     -10.375948      -282.3439
  14   2.0000     -10.371855      -282.2325
  15   2.0000     -10.369295      -282.1629
  16   2.0000     -10.351087      -281.6674
  17   2.0000     -10.342777      -281.4413
  18   2.0000     -10.342469      -281.4329
  19   2.0000     -10.340281      -281.3733
  20   2.0000     -10.335745      -281.2499
  21   2.0000     -10.334467      -281.2151
  22   2.0000     -10.332125      -281.1514
  23   2.0000     -10.328569      -281.0547
  24   2.0000     -10.326752      -281.0052
  25   2.0000     -10.319338      -280.8035
  26   2.0000     -10.319102      -280.7970
  27   2.0000     -10.316456      -280.7250
  28   2.0000     -10.314226      -280.6644
  29   2.0000     -10.310445      -280.5615
  30   2.0000     -10.309449      -280.5344
  31   2.0000     -10.306027      -280.4413
  32   2.0000     -10.305615      -280.4300
  33   2.0000     -10.304674      -280.4044
  34   2.0000     -10.304526      -280.4004
  35   2.0000     -10.300139      -280.2810
  36   2.0000     -10.299767      -280.2709
  37   2.0000     -10.299755      -280.2706
  38   2.0000     -10.293910      -280.1115
  39   2.0000     -10.293548      -280.1017
  40   2.0000     -10.293070      -280.0887
  41   2.0000     -10.292960      -280.0857
  42   2.0000     -10.291952      -280.0582
  43   2.0000     -10.290972      -280.0316
  44   2.0000     -10.290604      -280.0216
  45   2.0000     -10.290147      -280.0091
  46   2.0000     -10.288913      -279.9756
  47   2.0000     -10.288598      -279.9670
  48   2.0000     -10.288473      -279.9636
  49   2.0000     -10.287388      -279.9341
  50   2.0000     -10.287162      -279.9279
  51   2.0000     -10.286178      -279.9011
  52   2.0000     -10.285605      -279.8855
  53   2.0000     -10.285439      -279.8810
  54   2.0000     -10.285385      -279.8796
  55   2.0000     -10.285189      -279.8742
  56   2.0000     -10.284835      -279.8646
  57   2.0000     -10.276747      -279.6445
  58   2.0000     -10.275228      -279.6032
  59   2.0000     -10.268564      -279.4218
  60   2.0000     -10.264017      -279.2981
  61   2.0000     -10.257427      -279.1188
  62   2.0000      -8.124646      -221.0829
  63   2.0000      -8.067632      -219.5314
  64   2.0000      -8.061302      -219.3592
  65   2.0000      -8.028272      -218.4604
  66   2.0000      -8.012985      -218.0444
  67   2.0000      -6.095833      -165.8761
  68   2.0000      -6.088104      -165.6657
  69   2.0000      -6.087111      -165.6387
  70   2.0000      -6.037347      -164.2846
  71   2.0000      -6.033254      -164.1732
  72   2.0000      -6.030902      -164.1092
  73   2.0000      -6.028712      -164.0496
  74   2.0000      -6.026800      -163.9976
  75   2.0000      -6.022514      -163.8809
  76   2.0000      -5.997617      -163.2034
  77   2.0000      -5.994100      -163.1078
  78   2.0000      -5.989045      -162.9702
  79   2.0000      -5.982371      -162.7886
  80   2.0000      -5.978562      -162.6849
  81   2.0000      -5.973949      -162.5594
  82   2.0000      -1.133370       -30.8406
  83   2.0000      -1.127488       -30.6805
  84   2.0000      -1.113981       -30.3130
  85   2.0000      -1.111320       -30.2406
  86   2.0000      -1.040040       -28.3009
  87   2.0000      -1.016631       -27.6639
  88   2.0000      -1.009096       -27.4589
  89   2.0000      -1.003737       -27.3131
  90   2.0000      -0.999761       -27.2049
  91   2.0000      -0.993534       -27.0354
  92   2.0000      -0.988653       -26.9026
  93   2.0000      -0.973078       -26.4788
  94   2.0000      -0.971066       -26.4240
  95   2.0000      -0.962947       -26.2031
  96   2.0000      -0.953435       -25.9443
  97   2.0000      -0.938051       -25.5257
  98   2.0000      -0.913801       -24.8658
  99   2.0000      -0.911999       -24.8167
 100   2.0000      -0.902904       -24.5693
 101   2.0000      -0.899266       -24.4703
 102   2.0000      -0.885429       -24.0937
 103   2.0000      -0.869607       -23.6632
 104   2.0000      -0.864987       -23.5375
 105   2.0000      -0.853592       -23.2274
 106   2.0000      -0.850228       -23.1359
 107   2.0000      -0.847270       -23.0554
 108   2.0000      -0.845439       -23.0056
 109   2.0000      -0.842954       -22.9379
 110   2.0000      -0.837492       -22.7893
 111   2.0000      -0.828358       -22.5408
 112   2.0000      -0.824833       -22.4449
 113   2.0000      -0.812755       -22.1162
 114   2.0000      -0.810109       -22.0442
 115   2.0000      -0.799212       -21.7477
 116   2.0000      -0.782609       -21.2959
 117   2.0000      -0.778198       -21.1758
 118   2.0000      -0.763933       -20.7877
 119   2.0000      -0.746338       -20.3089
 120   2.0000      -0.733224       -19.9520
 121   2.0000      -0.727751       -19.8031
 122   2.0000      -0.722776       -19.6677
 123   2.0000      -0.711227       -19.3535
 124   2.0000      -0.702881       -19.1264
 125   2.0000      -0.699837       -19.0435
 126   2.0000      -0.693509       -18.8713
 127   2.0000      -0.692463       -18.8429
 128   2.0000      -0.688970       -18.7478
 129   2.0000      -0.679481       -18.4896
 130   2.0000      -0.674273       -18.3479
 131   2.0000      -0.665424       -18.1071
 132   2.0000      -0.654765       -17.8171
 133   2.0000      -0.649555       -17.6753
 134   2.0000      -0.647315       -17.6143
 135   2.0000      -0.640355       -17.4249
 136   2.0000      -0.633079       -17.2270
 137   2.0000      -0.631648       -17.1880
 138   2.0000      -0.625351       -17.0167
 139   2.0000      -0.617214       -16.7952
 140   2.0000      -0.611851       -16.6493
 141   2.0000      -0.611023       -16.6268
 142   2.0000      -0.608146       -16.5485
 143   2.0000      -0.600620       -16.3437
 144   2.0000      -0.595826       -16.2133
 145   2.0000      -0.592564       -16.1245
 146   2.0000      -0.580946       -15.8084
 147   2.0000      -0.576728       -15.6936
 148   2.0000      -0.571415       -15.5490
 149   2.0000      -0.565636       -15.3917
 150   2.0000      -0.558023       -15.1846
 151   2.0000      -0.551609       -15.0101
 152   2.0000      -0.550530       -14.9807
 153   2.0000      -0.549987       -14.9659
 154   2.0000      -0.545348       -14.8397
 155   2.0000      -0.543508       -14.7896
 156   2.0000      -0.541986       -14.7482
 157   2.0000      -0.536068       -14.5871
 158   2.0000      -0.532958       -14.5025
 159   2.0000      -0.531357       -14.4590
 160   2.0000      -0.528586       -14.3835
 161   2.0000      -0.522075       -14.2064
 162   2.0000      -0.517624       -14.0853
 163   2.0000      -0.514977       -14.0132
 164   2.0000      -0.514112       -13.9897
 165   2.0000      -0.512018       -13.9327
 166   2.0000      -0.506987       -13.7958
 167   2.0000      -0.506927       -13.7942
 168   2.0000      -0.505366       -13.7517
 169   2.0000      -0.502549       -13.6750
 170   2.0000      -0.497733       -13.5440
 171   2.0000      -0.492439       -13.3999
 172   2.0000      -0.491636       -13.3781
 173   2.0000      -0.488504       -13.2929
 174   2.0000      -0.488191       -13.2844
 175   2.0000      -0.483263       -13.1503
 176   2.0000      -0.481713       -13.1081
 177   2.0000      -0.479745       -13.0545
 178   2.0000      -0.477508       -12.9937
 179   2.0000      -0.474615       -12.9149
 180   2.0000      -0.473895       -12.8953
 181   2.0000      -0.471492       -12.8299
 182   2.0000      -0.469533       -12.7767
 183   2.0000      -0.468157       -12.7392
 184   2.0000      -0.464839       -12.6489
 185   2.0000      -0.462895       -12.5960
 186   2.0000      -0.456676       -12.4268
 187   2.0000      -0.452686       -12.3182
 188   2.0000      -0.452081       -12.3017
 189   2.0000      -0.451096       -12.2749
 190   2.0000      -0.450101       -12.2479
 191   2.0000      -0.449429       -12.2296
 192   2.0000      -0.448431       -12.2024
 193   2.0000      -0.445515       -12.1231
 194   2.0000      -0.443674       -12.0730
 195   2.0000      -0.439210       -11.9515
 196   2.0000      -0.437685       -11.9100
 197   2.0000      -0.435945       -11.8627
 198   2.0000      -0.432519       -11.7695
 199   2.0000      -0.426457       -11.6045
 200   2.0000      -0.424609       -11.5542
 201   2.0000      -0.420025       -11.4295
 202   2.0000      -0.418462       -11.3869
 203   2.0000      -0.416782       -11.3412
 204   2.0000      -0.415678       -11.3112
 205   2.0000      -0.410581       -11.1725
 206   2.0000      -0.405375       -11.0308
 207   2.0000      -0.402964       -10.9652
 208   2.0000      -0.402282       -10.9467
 209   2.0000      -0.400862       -10.9080
 210   2.0000      -0.398859       -10.8535
 211   2.0000      -0.394416       -10.7326
 212   2.0000      -0.393068       -10.6959
 213   2.0000      -0.372237       -10.1291
 214   2.0000      -0.368339       -10.0230
 215   2.0000      -0.357634        -9.7317
 216   2.0000      -0.353275        -9.6131
 217   2.0000      -0.349510        -9.5107
 218   2.0000      -0.343614        -9.3502
 219   2.0000      -0.339579        -9.2404
 220   2.0000      -0.337649        -9.1879
 221   2.0000      -0.336007        -9.1432
 222   2.0000      -0.330524        -8.9940
 223   2.0000      -0.326943        -8.8966
 224   2.0000      -0.326912        -8.8957
 225   2.0000      -0.316988        -8.6257
 226   2.0000      -0.301741        -8.2108
 227   2.0000      -0.300840        -8.1863
 228   2.0000      -0.271437        -7.3862
 229   2.0000      -0.255600        -6.9552
 230   2.0000      -0.217367        -5.9149
 231   0.0000      -0.128416        -3.4944
 232   0.0000      -0.083282        -2.2662
 233   0.0000      -0.068142        -1.8542
 234   0.0000      -0.051837        -1.4106
 235   0.0000      -0.037378        -1.0171

MULLIKEN ATOMIC CHARGES
-----------------------
   0 C :    0.001491
   1 C :    0.061033
   2 C :   -0.030785
   3 S :    0.045572
   4 C :    0.074385
   5 O :   -0.174119
   6 C :   -0.115506
   7 C :    0.090881
   8 C :   -0.023220
   9 C :   -0.086807
  10 N :    0.020986
  11 C :   -0.142584
  12 C :   -0.122667
  13 N :    0.042517
  14 C :   -0.216773
  15 N :    0.232835
  16 C :   -0.224698
  17 N :    0.228152
  18 C :    0.123872
  19 C :   -0.015229
  20 C :    0.030856
  21 N :   -0.293132
  22 S :    0.534869
  23 N :   -0.278573
  24 C :   -0.070347
  25 C :   -0.035894
  26 C :    0.077236
  27 C :    0.018024
  28 C :   -0.058055
  29 S :    0.112613
  30 C :   -0.011845
  31 C :    0.028012
  32 C :    0.048097
  33 C :   -0.020132
  34 S :    0.075203
  35 C :   -0.021660
  36 C :    0.106203
  37 C :   -0.085020
  38 C :    0.010683
  39 C :    0.095484
  40 C :   -0.038418
  41 C :   -0.010737
  42 C :    0.093303
  43 C :    0.025342
  44 C :   -0.137130
  45 C :    0.049753
  46 C :    0.025856
  47 C :    0.078922
  48 C :    0.032487
  49 C :   -0.085073
  50 C :    0.125495
  51 C :   -0.013088
  52 C :   -0.045869
  53 C :   -0.004088
  54 C :    0.014736
  55 C :    0.053025
  56 C :   -0.093296
  57 S :    0.017794
  58 C :    0.076090
  59 O :   -0.162282
  60 C :   -0.009630
  61 C :    0.076296
  62 H :    0.000178
  63 H :    0.003273
  64 H :    0.002196
  65 H :    0.007383
  66 H :   -0.007250
  67 H :   -0.001370
  68 H :   -0.001552
  69 H :   -0.001052
  70 H :   -0.010138
  71 H :   -0.023024
  72 H :   -0.030218
  73 H :   -0.022588
  74 H :    0.005880
  75 H :    0.002078
  76 H :    0.019530
  77 H :    0.014014
  78 H :    0.021158
  79 H :    0.006479
  80 H :    0.000459
  81 H :    0.019045
  82 H :    0.016374
  83 H :    0.002656
  84 H :   -0.043876
  85 H :   -0.023204
  86 H :   -0.029644
  87 H :   -0.018173
  88 H :   -0.010747
  89 H :   -0.007578
  90 H :    0.007427
  91 H :    0.000837
Sum of atomic charges:   -0.0000000

LOEWDIN ATOMIC CHARGES
----------------------
   0 C :   -0.079787
   1 C :    0.006913
   2 C :   -0.154937
   3 S :    0.337448
   4 C :   -0.066604
   5 O :   -0.157874
   6 C :   -0.025328
   7 C :   -0.062309
   8 C :    0.005910
   9 C :   -0.019775
  10 N :    0.006700
  11 C :   -0.051411
  12 C :   -0.025469
  13 N :   -0.007322
  14 C :   -0.034988
  15 N :   -0.010022
  16 C :   -0.039983
  17 N :   -0.024155
  18 C :   -0.016309
  19 C :   -0.046247
  20 C :   -0.036629
  21 N :   -0.284956
  22 S :    0.659866
  23 N :   -0.280248
  24 C :   -0.057500
  25 C :   -0.108610
  26 C :   -0.031217
  27 C :   -0.011843
  28 C :   -0.193194
  29 S :    0.403388
  30 C :   -0.148812
  31 C :   -0.039707
  32 C :   -0.006636
  33 C :   -0.155450
  34 S :    0.399722
  35 C :   -0.013320
  36 C :   -0.035116
  37 C :   -0.020845
  38 C :    0.009720
  39 C :   -0.006845
  40 C :   -0.018092
  41 C :   -0.006045
  42 C :   -0.014818
  43 C :    0.008178
  44 C :   -0.034968
  45 C :   -0.015720
  46 C :   -0.056143
  47 C :   -0.008279
  48 C :   -0.058750
  49 C :   -0.014037
  50 C :   -0.026697
  51 C :   -0.011499
  52 C :   -0.016470
  53 C :    0.001294
  54 C :   -0.030651
  55 C :   -0.014293
  56 C :   -0.162811
  57 S :    0.300669
  58 C :   -0.059165
  59 O :   -0.150191
  60 C :   -0.068618
  61 C :    0.001955
  62 H :    0.034666
  63 H :    0.036764
  64 H :    0.038397
  65 H :    0.037239
  66 H :    0.032173
  67 H :    0.037197
  68 H :    0.036928
  69 H :    0.038125
  70 H :    0.038634
  71 H :    0.009573
  72 H :    0.029402
  73 H :    0.028415
  74 H :    0.019805
  75 H :    0.021989
  76 H :    0.025233
  77 H :    0.026098
  78 H :    0.025024
  79 H :    0.027157
  80 H :    0.021571
  81 H :    0.023971
  82 H :    0.029572
  83 H :    0.019695
  84 H :    0.022731
  85 H :    0.028379
  86 H :    0.028907
  87 H :    0.030353
  88 H :    0.023688
  89 H :    0.034638
  90 H :    0.038271
  91 H :    0.034339

  Mayer bond orders larger than 0.100000
B(  0-C ,  1-C ) :   1.6471 B(  0-C ,  4-C ) :   0.9730 B(  0-C , 62-H ) :   0.9946
B(  1-C ,  2-C ) :   1.0867 B(  1-C , 63-H ) :   1.0003 B(  2-C ,  3-S ) :   1.0414
B(  2-C ,  6-C ) :   1.5898 B(  3-S ,  4-C ) :   0.9688 B(  4-C ,  5-O ) :   2.1240
B(  6-C ,  7-C ) :   1.1926 B(  6-C , 64-H ) :   0.9414 B(  7-C ,  8-C ) :   1.2564
B(  7-C , 18-C ) :   0.1048 B(  7-C , 20-C ) :   1.1444 B(  8-C ,  9-C ) :   1.1049
B(  8-C , 13-N ) :   1.4358 B(  9-C , 10-N ) :   1.4960 B(  9-C , 18-C ) :   1.1482
B( 10-N , 11-C ) :   1.6556 B( 11-C , 12-C ) :   1.2287 B( 11-C , 16-C ) :   1.1609
B( 12-C , 13-N ) :   1.7307 B( 12-C , 14-C ) :   1.1543 B( 14-C , 15-N ) :   3.0498
B( 16-C , 17-N ) :   3.0448 B( 18-C , 19-C ) :   1.1438 B( 18-C , 24-C ) :   1.3885
B( 19-C , 20-C ) :   1.1121 B( 19-C , 23-N ) :   1.5722 B( 20-C , 21-N ) :   1.5197
B( 21-N , 22-S ) :   1.2548 B( 21-N , 23-N ) :   0.1412 B( 22-S , 23-N ) :   1.2661
B( 24-C , 25-C ) :   1.3729 B( 24-C , 65-H ) :   0.9288 B( 25-C , 26-C ) :   1.2232
B( 25-C , 29-S ) :   1.0928 B( 26-C , 27-C ) :   1.5366 B( 26-C , 66-H ) :   0.9842
B( 27-C , 28-C ) :   1.2236 B( 27-C , 67-H ) :   0.9953 B( 28-C , 29-S ) :   1.0535
B( 28-C , 30-C ) :   1.4433 B( 30-C , 31-C ) :   1.1998 B( 30-C , 34-S ) :   1.0752
B( 31-C , 32-C ) :   1.5799 B( 31-C , 68-H ) :   0.9937 B( 32-C , 33-C ) :   1.1424
B( 32-C , 69-H ) :   0.9999 B( 33-C , 34-S ) :   1.0196 B( 33-C , 35-C ) :   1.5793
B( 35-C , 36-C ) :   1.1130 B( 35-C , 70-H ) :   0.9711 B( 36-C , 37-C ) :   1.2745
B( 36-C , 41-C ) :   1.3005 B( 37-C , 38-C ) :   1.4454 B( 37-C , 71-H ) :   0.9747
B( 38-C , 39-C ) :   1.3617 B( 38-C , 44-C ) :   0.9245 B( 39-C , 40-C ) :   1.3253
B( 39-C , 42-C ) :   1.0066 B( 40-C , 41-C ) :   1.3988 B( 40-C , 72-H ) :   0.9916
B( 41-C , 73-H ) :   0.9938 B( 42-C , 43-C ) :   1.3628 B( 42-C , 52-C ) :   1.3373
B( 43-C , 44-C ) :   0.9189 B( 43-C , 49-C ) :   1.4296 B( 44-C , 45-C ) :   1.0342
B( 44-C , 47-C ) :   1.0107 B( 45-C , 46-C ) :   1.1045 B( 45-C , 74-H ) :   0.9377
B( 45-C , 75-H ) :   0.9379 B( 46-C , 76-H ) :   0.9648 B( 46-C , 77-H ) :   0.9649
B( 46-C , 78-H ) :   0.9627 B( 47-C , 48-C ) :   1.1172 B( 47-C , 79-H ) :   0.9387
B( 47-C , 80-H ) :   0.9369 B( 48-C , 81-H ) :   0.9601 B( 48-C , 82-H ) :   0.9590
B( 48-C , 83-H ) :   0.9625 B( 49-C , 50-C ) :   1.2894 B( 49-C , 84-H ) :   0.9898
B( 50-C , 51-C ) :   1.3306 B( 50-C , 53-C ) :   1.0615 B( 51-C , 52-C ) :   1.3824
B( 51-C , 85-H ) :   0.9942 B( 52-C , 86-H ) :   0.9901 B( 53-C , 54-C ) :   1.6704
B( 53-C , 87-H ) :   0.9895 B( 54-C , 55-C ) :   1.1559 B( 54-C , 88-H ) :   0.9639
B( 55-C , 56-C ) :   1.6283 B( 55-C , 89-H ) :   0.9728 B( 56-C , 57-S ) :   1.0240
B( 56-C , 61-C ) :   1.0875 B( 57-S , 58-C ) :   0.9938 B( 57-S , 59-O ) :   0.1147
B( 58-C , 59-O ) :   2.1312 B( 58-C , 60-C ) :   0.9844 B( 60-C , 61-C ) :   1.6790
B( 60-C , 90-H ) :   0.9916 B( 61-C , 91-H ) :   0.9875

-----------------------------------------------------------------------------
         ABSORPTION SPECTRUM VIA TRANSITION ELECTRIC DIPOLE MOMENTS
-----------------------------------------------------------------------------
State   Energy  Wavelength   fosc         T2         TX        TY        TZ
        (cm-1)    (nm)                  (au**2)     (au)      (au)      (au)
-----------------------------------------------------------------------------
   0    6067.5   1648.1   0.615615721  33.40241  -4.61135  -0.86369   3.37519
   1   15674.4    638.0   0.458854068   9.63736   0.95815   1.33780  -2.63241
   2   15977.1    625.9   0.338247059   6.96967  -1.59527  -0.82339   1.93567
   3   19999.2    500.0   0.186686295   3.07309   1.21184  -0.92294   0.86759
   4   21263.4    470.3   0.204889877   3.17223  -1.77174  -0.15271  -0.09917
   5   21343.2    468.5   0.069653340   1.07438   1.01745   0.19791   0.00166
   6   22059.0    453.3   0.652043869   9.73120   2.62412  -1.13909   1.24405
   7   23647.1    422.9   0.123778847   1.72323   0.91798  -0.65655   0.67044
   8   24604.7    406.4   0.129557880   1.73349   1.28132   0.23545  -0.19046
   9   25341.6    394.6   0.456982878   5.93666  -1.50477   1.10421  -1.56623
  10   26001.3    384.6   0.012830924   0.16246  -0.18354   0.31835   0.16560
  11   26467.6    377.8   0.070264393   0.87397  -0.80340   0.27265  -0.39266
  12   27149.9    368.3   0.195278072   2.36789   1.51608  -0.10167   0.24303
  13   27318.4    366.1   0.272610662   3.28521  -1.61837   0.17628  -0.79687
  14   29146.3    343.1   0.010780153   0.12176   0.32198  -0.11124  -0.07562
  15   29696.2    336.7   0.172162210   1.90859  -1.31671  -0.27054  -0.31888
  16   30250.5    330.6   0.018184176   0.19790  -0.22892   0.37734  -0.05569
  17   30558.2    327.2   0.000034575   0.00037   0.01807   0.00410  -0.00539
  18   30615.0    326.6   0.059189983   0.63649  -0.48438   0.24129  -0.58621
  19   30943.9    323.2   0.134124440   1.42695   0.46379   0.40279  -1.02450
  20   31141.4    321.1   0.003984462   0.04212  -0.18109  -0.09648   0.00423
  21   31407.2    318.4   0.003017408   0.03163  -0.13030  -0.11320   0.04284
  22   32458.7    308.1   0.507484952   5.14717  -1.61016   0.26153  -1.57676
  23   33031.2    302.7   0.177836437   1.77244  -0.52194   0.53030  -1.10399
  24   33279.7    300.5   0.045556205   0.45065   0.61955  -0.20855   0.15269
  25   33752.1    296.3   0.027875563   0.27189   0.16326   0.35805  -0.34211
  26   33992.4    294.2   0.002216666   0.02147  -0.00947   0.10502   0.10173
  27   34415.0    290.6   0.004290314   0.04104   0.04480  -0.16027   0.11553
  28   34645.3    288.6   0.001700918   0.01616   0.12173   0.01173   0.03474
  29   35301.0    283.3   0.116610766   1.08750  -0.48291   0.10100  -0.91875
  30   35753.6    279.7   0.047264537   0.43520  -0.07493  -0.34594   0.55670
  31   35938.5    278.3   0.132350851   1.21239   0.88949  -0.34279   0.55108
  32   36374.3    274.9   0.120702228   1.09244  -0.61734   0.21337  -0.81597
  33   36741.9    272.2   0.001727603   0.01548  -0.07021   0.04433  -0.09266
  34   36790.5    271.8   0.055145329   0.49346  -0.28453   0.39345  -0.50764
  35   36949.0    270.6   0.015173108   0.13519  -0.16617   0.17327  -0.27849
  36   37057.9    269.8   0.000350882   0.00312  -0.04359   0.01956  -0.02888
  37   37698.0    265.3   0.045666528   0.39880  -0.54074  -0.24058   0.22027
  38   37826.8    264.4   0.026827226   0.23348   0.36334  -0.28952   0.13282
  39   38180.3    261.9   0.025945841   0.22372  -0.25806  -0.06066  -0.39172
  40   38440.1    260.1   0.028480806   0.24392   0.06721   0.36367  -0.32733
  41   38716.7    258.3   0.016701218   0.14201  -0.22708   0.07796  -0.29047
  42   39022.5    256.3   0.038016245   0.32072   0.16191  -0.03478   0.54157
  43   39216.6    255.0   0.044206798   0.37110  -0.54180  -0.16361   0.22535
  44   39783.0    251.4   0.060478049   0.50047   0.64333  -0.15033   0.25298
  45   40251.8    248.4   0.020064339   0.16410  -0.28212   0.04050  -0.28787

FINAL SINGLE POINT ENERGY     -4351.474775535383

DIPOLE MOMENT
-------------
                                X             Y             Z
Electronic contribution:     58.01272      24.55156     -68.54159
Nuclear contribution   :    -63.15800     -23.82621      70.64467
                        -----------------------------------------
Total Dipole Moment    :     -5.14529       0.72535       2.10308
                        -----------------------------------------
Magnitude (a.u.)       :      5.60563
Magnitude (Debye)      :     14.24837

Rotational constants in cm-1:     0.001215     0.000347     0.000276
Rotational constants in MHz :    36.412858    10.401929     8.272443

                             ****ORCA TERMINATED NORMALLY****
TOTAL RUN TIME: 0 days 0 hours 8 minutes 49 seconds 882 msec
