                         Program Version 4.2.0 -  RELEASE  -
|  1> # ORCA input file
|  2> # SCF done        -68.146264151857          0.000545749747
|  3> ! CAM-B3LYP def2-SVP def2/J RIJCOSX Grid4 TightSCF
|  4> %maxcore 5000
|  5> %tddft
|  6>     Mode sTDDFT
|  7>     Ethresh 5.0
|  8>     maxcore 5000
|  9> end
| 10>
| 11> %pal
| 12>   nprocs 6
| 13>   end
| 14> * xyz 0 1
| 15>    C        3.04849         0.65778         0.52958
| 16>    C        1.60055         0.41252         0.26115
| 17>    C        0.70205         1.46322         0.02743
| 18>    C       -0.59512         1.06722        -0.19663
| 19>    C       -1.72778         1.88035        -0.46702
| 20>    C       -3.03071         1.48998        -0.67502
| 21>    C       -3.89566         2.55825        -0.92269
| 22>    C       -3.27622         3.78564        -0.91171
| 23>    C       -3.85574         5.06892        -1.13143
| 24>    C       -3.21307         6.28092        -1.14374
| 25>    C       -4.03864         7.39568        -1.39153
| 26>    C       -5.35189         7.10388        -1.58156
| 27>   Se       -5.69874         5.28638        -1.45980
| 28>    S       -1.57368         3.61313        -0.58173
| 29>    S       -0.72387        -0.66412        -0.11733
| 30>    C        0.98290        -0.82730         0.21469
| 31>    C        1.52211        -2.13485         0.38919
| 32>    C        2.82150        -2.54390         0.59869
| 33>    C        2.95656        -3.92925         0.71812
| 34>    C        1.77244        -4.61720         0.60338
| 35>    C        1.56328        -6.02487         0.67544
| 36>    C        0.37714        -6.70060         0.54401
| 37>    C        0.46846        -8.10228         0.66180
| 38>    C        1.72072        -8.57754         0.88801
| 39>   Se        2.98553        -7.22471         0.98162
| 40>    S        0.45201        -3.51461         0.34069
| 41>    H        3.23967         1.72763         0.55519
| 42>    H        3.66630         0.21632        -0.25189
| 43>    H        3.34184         0.22992         1.48739
| 44>    H        0.99199         2.49987         0.02237
| 45>    H       -3.33447         0.45849        -0.64599
| 46>    H       -4.95231         2.45120        -1.10938
| 47>    H       -2.15193         6.36217        -0.97611
| 48>    H       -3.65416         8.40114        -1.42806
| 49>    H       -6.14369         7.80211        -1.78322
| 50>    H        3.65748        -1.87539         0.65931
| 51>    H        3.89733        -4.43031         0.88346
| 52>    H       -0.55221        -6.18635         0.36313
| 53>    H       -0.39151        -8.74528         0.57684
| 54>    H        2.00747        -9.60644         1.00703
| 55> *
| 56>
| 57>                          ****END OF INPUT****

CARTESIAN COORDINATES (ANGSTROEM)
---------------------------------
  C      3.048490    0.657780    0.529580
  C      1.600550    0.412520    0.261150
  C      0.702050    1.463220    0.027430
  C     -0.595120    1.067220   -0.196630
  C     -1.727780    1.880350   -0.467020
  C     -3.030710    1.489980   -0.675020
  C     -3.895660    2.558250   -0.922690
  C     -3.276220    3.785640   -0.911710
  C     -3.855740    5.068920   -1.131430
  C     -3.213070    6.280920   -1.143740
  C     -4.038640    7.395680   -1.391530
  C     -5.351890    7.103880   -1.581560
  Se    -5.698740    5.286380   -1.459800
  S     -1.573680    3.613130   -0.581730
  S     -0.723870   -0.664120   -0.117330
  C      0.982900   -0.827300    0.214690
  C      1.522110   -2.134850    0.389190
  C      2.821500   -2.543900    0.598690
  C      2.956560   -3.929250    0.718120
  C      1.772440   -4.617200    0.603380
  C      1.563280   -6.024870    0.675440
  C      0.377140   -6.700600    0.544010
  C      0.468460   -8.102280    0.661800
  C      1.720720   -8.577540    0.888010
  Se     2.985530   -7.224710    0.981620
  S      0.452010   -3.514610    0.340690
  H      3.239670    1.727630    0.555190
  H      3.666300    0.216320   -0.251890
  H      3.341840    0.229920    1.487390
  H      0.991990    2.499870    0.022370
  H     -3.334470    0.458490   -0.645990
  H     -4.952310    2.451200   -1.109380
  H     -2.151930    6.362170   -0.976110
  H     -3.654160    8.401140   -1.428060
  H     -6.143690    7.802110   -1.783220
  H      3.657480   -1.875390    0.659310
  H      3.897330   -4.430310    0.883460
  H     -0.552210   -6.186350    0.363130
  H     -0.391510   -8.745280    0.576840
  H      2.007470   -9.606440    1.007030

 Total Charge           Charge          ....    0
 Multiplicity           Mult            ....    1
 Number of Electrons    NEL             ....  256
 Basis Dimension        Dim             ....  482

ORBITAL ENERGIES
----------------

  NO   OCC          E(Eh)            E(eV)
   0   2.0000    -453.917135    -12351.7132
   1   2.0000    -453.916361    -12351.6921
   2   2.0000     -88.949844     -2420.4483
   3   2.0000     -88.948086     -2420.4005
   4   2.0000     -88.947632     -2420.3881
   5   2.0000     -58.132830     -1581.8747
   6   2.0000     -58.132017     -1581.8526
   7   2.0000     -52.202824     -1420.5110
   8   2.0000     -52.202012     -1420.4890
   9   2.0000     -52.201797     -1420.4831
  10   2.0000     -52.201030     -1420.4622
  11   2.0000     -52.200987     -1420.4611
  12   2.0000     -52.200215     -1420.4401
  13   2.0000     -10.301242      -280.3111
  14   2.0000     -10.299838      -280.2728
  15   2.0000     -10.299554      -280.2651
  16   2.0000     -10.298911      -280.2476
  17   2.0000     -10.298028      -280.2236
  18   2.0000     -10.297438      -280.2075
  19   2.0000     -10.296617      -280.1852
  20   2.0000     -10.296312      -280.1769
  21   2.0000     -10.284867      -279.8655
  22   2.0000     -10.284138      -279.8456
  23   2.0000     -10.275354      -279.6066
  24   2.0000     -10.268890      -279.4307
  25   2.0000     -10.268477      -279.4195
  26   2.0000     -10.267465      -279.3919
  27   2.0000     -10.267125      -279.3827
  28   2.0000     -10.266376      -279.3623
  29   2.0000     -10.265886      -279.3490
  30   2.0000     -10.265880      -279.3488
  31   2.0000     -10.265533      -279.3393
  32   2.0000     -10.265182      -279.3298
  33   2.0000     -10.264923      -279.3227
  34   2.0000      -8.045305      -218.9239
  35   2.0000      -8.043819      -218.8834
  36   2.0000      -8.043278      -218.8687
  37   2.0000      -7.907023      -215.1610
  38   2.0000      -7.906199      -215.1386
  39   2.0000      -6.014724      -163.6690
  40   2.0000      -6.013219      -163.6280
  41   2.0000      -6.012721      -163.6145
  42   2.0000      -6.010607      -163.5569
  43   2.0000      -6.009080      -163.5154
  44   2.0000      -6.008607      -163.5025
  45   2.0000      -6.007178      -163.4636
  46   2.0000      -6.005684      -163.4230
  47   2.0000      -6.005055      -163.4059
  48   2.0000      -5.856040      -159.3510
  49   2.0000      -5.855213      -159.3284
  50   2.0000      -5.851928      -159.2391
  51   2.0000      -5.851095      -159.2164
  52   2.0000      -5.846921      -159.1028
  53   2.0000      -5.846113      -159.0808
  54   2.0000      -2.210683       -60.1557
  55   2.0000      -2.210112       -60.1402
  56   2.0000      -2.209847       -60.1330
  57   2.0000      -2.209289       -60.1178
  58   2.0000      -2.205400       -60.0120
  59   2.0000      -2.204545       -59.9887
  60   2.0000      -2.202074       -59.9215
  61   2.0000      -2.201639       -59.9096
  62   2.0000      -2.201244       -59.8989
  63   2.0000      -2.200810       -59.8871
  64   2.0000      -0.992509       -27.0076
  65   2.0000      -0.981217       -26.7003
  66   2.0000      -0.965866       -26.2826
  67   2.0000      -0.944386       -25.6981
  68   2.0000      -0.940576       -25.5944
  69   2.0000      -0.876249       -23.8440
  70   2.0000      -0.857390       -23.3308
  71   2.0000      -0.845188       -22.9987
  72   2.0000      -0.832254       -22.6468
  73   2.0000      -0.825124       -22.4528
  74   2.0000      -0.808618       -22.0036
  75   2.0000      -0.800457       -21.7816
  76   2.0000      -0.797827       -21.7100
  77   2.0000      -0.782178       -21.2842
  78   2.0000      -0.771420       -20.9914
  79   2.0000      -0.743820       -20.2404
  80   2.0000      -0.699821       -19.0431
  81   2.0000      -0.675526       -18.3820
  82   2.0000      -0.666680       -18.1413
  83   2.0000      -0.653139       -17.7728
  84   2.0000      -0.625804       -17.0290
  85   2.0000      -0.623704       -16.9719
  86   2.0000      -0.605197       -16.4683
  87   2.0000      -0.604067       -16.4375
  88   2.0000      -0.598805       -16.2943
  89   2.0000      -0.595981       -16.2175
  90   2.0000      -0.589698       -16.0465
  91   2.0000      -0.571339       -15.5469
  92   2.0000      -0.553190       -15.0531
  93   2.0000      -0.527380       -14.3507
  94   2.0000      -0.513827       -13.9819
  95   2.0000      -0.511167       -13.9096
  96   2.0000      -0.502380       -13.6705
  97   2.0000      -0.486959       -13.2508
  98   2.0000      -0.484347       -13.1798
  99   2.0000      -0.481993       -13.1157
 100   2.0000      -0.479744       -13.0545
 101   2.0000      -0.479017       -13.0347
 102   2.0000      -0.473355       -12.8806
 103   2.0000      -0.469727       -12.7819
 104   2.0000      -0.462548       -12.5866
 105   2.0000      -0.460724       -12.5369
 106   2.0000      -0.456336       -12.4175
 107   2.0000      -0.448899       -12.2152
 108   2.0000      -0.443888       -12.0788
 109   2.0000      -0.440920       -11.9980
 110   2.0000      -0.426311       -11.6005
 111   2.0000      -0.424922       -11.5627
 112   2.0000      -0.419821       -11.4239
 113   2.0000      -0.418209       -11.3800
 114   2.0000      -0.410436       -11.1685
 115   2.0000      -0.398022       -10.8307
 116   2.0000      -0.391018       -10.6401
 117   2.0000      -0.386551       -10.5186
 118   2.0000      -0.373023       -10.1505
 119   2.0000      -0.340955        -9.2779
 120   2.0000      -0.322636        -8.7794
 121   2.0000      -0.318964        -8.6794
 122   2.0000      -0.308082        -8.3833
 123   2.0000      -0.300900        -8.1879
 124   2.0000      -0.300066        -8.1652
 125   2.0000      -0.299313        -8.1447
 126   2.0000      -0.259498        -7.0613
 127   2.0000      -0.222061        -6.0426
 128   0.0000      -0.045063        -1.2262
 129   0.0000      -0.013164        -0.3582
 130   0.0000       0.021031         0.5723
 131   0.0000       0.043889         1.1943
 132   0.0000       0.051291         1.3957

MULLIKEN ATOMIC CHARGES
-----------------------
   0 C :    0.114002
   1 C :   -0.079678
   2 C :   -0.063721
   3 C :   -0.014233
   4 C :   -0.037530
   5 C :   -0.009550
   6 C :   -0.008861
   7 C :   -0.024125
   8 C :   -0.080588
   9 C :   -0.042470
  10 C :    0.049762
  11 C :   -0.106568
  12 Se:    0.163662
  13 S :    0.110664
  14 S :    0.110043
  15 C :   -0.065485
  16 C :   -0.051966
  17 C :   -0.016113
  18 C :   -0.014068
  19 C :   -0.019720
  20 C :   -0.081276
  21 C :   -0.042085
  22 C :    0.050038
  23 C :   -0.105128
  24 Se:    0.160611
  25 S :    0.105909
  26 H :    0.005657
  27 H :    0.036080
  28 H :    0.033958
  29 H :   -0.024112
  30 H :   -0.013580
  31 H :   -0.012567
  32 H :   -0.008395
  33 H :   -0.008612
  34 H :    0.027451
  35 H :   -0.032129
  36 H :   -0.015756
  37 H :   -0.008621
  38 H :   -0.007526
  39 H :    0.026626
Sum of atomic charges:    0.0000000

LOEWDIN ATOMIC CHARGES
----------------------
   0 C :   -0.045443
   1 C :   -0.052949
   2 C :   -0.067901
   3 C :   -0.180690
   4 C :   -0.180251
   5 C :   -0.061765
   6 C :   -0.063537
   7 C :   -0.176354
   8 C :   -0.162522
   9 C :   -0.067100
  10 C :   -0.058766
  11 C :   -0.167142
  12 Se:    0.376139
  13 S :    0.429899
  14 S :    0.420813
  15 C :   -0.191303
  16 C :   -0.177236
  17 C :   -0.064123
  18 C :   -0.065231
  19 C :   -0.178474
  20 C :   -0.161789
  21 C :   -0.066338
  22 C :   -0.058814
  23 C :   -0.167050
  24 Se:    0.374160
  25 S :    0.420199
  26 H :    0.032436
  27 H :    0.036302
  28 H :    0.036198
  29 H :    0.022972
  30 H :    0.026861
  31 H :    0.026544
  32 H :    0.024301
  33 H :    0.030197
  34 H :    0.024910
  35 H :    0.027487
  36 H :    0.025484
  37 H :    0.024903
  38 H :    0.030337
  39 H :    0.024636

  Mayer bond orders larger than 0.100000
B(  0-C ,  1-C ) :   1.1053 B(  0-C , 26-H ) :   0.9440 B(  0-C , 27-H ) :   0.9389
B(  0-C , 28-H ) :   0.9397 B(  1-C ,  2-C ) :   1.2678 B(  1-C , 15-C ) :   1.5470
B(  2-C ,  3-C ) :   1.4935 B(  2-C , 29-H ) :   0.9931 B(  3-C ,  4-C ) :   1.1493
B(  3-C , 14-S ) :   1.1210 B(  3-C , 15-C ) :   0.1024 B(  4-C ,  5-C ) :   1.5152
B(  4-C , 13-S ) :   1.1156 B(  5-C ,  6-C ) :   1.2554 B(  5-C , 30-H ) :   0.9934
B(  6-C ,  7-C ) :   1.5222 B(  6-C , 31-H ) :   0.9890 B(  7-C ,  8-C ) :   1.1415
B(  7-C , 13-S ) :   1.1125 B(  8-C ,  9-C ) :   1.5605 B(  8-C , 12-Se) :   1.0999
B(  9-C , 10-C ) :   1.2380 B(  9-C , 32-H ) :   0.9920 B( 10-C , 11-C ) :   1.6191
B( 10-C , 33-H ) :   0.9892 B( 11-C , 12-Se) :   1.1333 B( 11-C , 34-H ) :   0.9639
B( 14-S , 15-C ) :   1.1012 B( 15-C , 16-C ) :   1.1270 B( 16-C , 17-C ) :   1.5158
B( 16-C , 19-C ) :   0.1025 B( 16-C , 25-S ) :   1.1108 B( 17-C , 18-C ) :   1.2516
B( 17-C , 35-H ) :   0.9956 B( 18-C , 19-C ) :   1.5185 B( 18-C , 36-H ) :   0.9885
B( 19-C , 20-C ) :   1.1434 B( 19-C , 25-S ) :   1.1125 B( 20-C , 21-C ) :   1.5621
B( 20-C , 24-Se) :   1.0983 B( 21-C , 22-C ) :   1.2362 B( 21-C , 37-H ) :   0.9928
B( 22-C , 23-C ) :   1.6188 B( 22-C , 38-H ) :   0.9892 B( 23-C , 24-Se) :   1.1327
B( 23-C , 39-H ) :   0.9645

-----------------------------------------------------------------------------
         ABSORPTION SPECTRUM VIA TRANSITION ELECTRIC DIPOLE MOMENTS
-----------------------------------------------------------------------------
State   Energy  Wavelength   fosc         T2         TX        TY        TZ
        (cm-1)    (nm)                  (au**2)     (au)      (au)      (au)
-----------------------------------------------------------------------------
   0   23088.5    433.1   1.701018483  24.25430  -2.15682   4.36985  -0.71190
   1   30615.0    326.6   0.065753836   0.70707   0.73477   0.39011   0.12248
   2   31831.4    314.2   0.095282410   0.98544  -0.92433  -0.31809  -0.17284
   3   36303.9    275.5   0.001736177   0.01574  -0.07088  -0.10272   0.01300
   4   36806.0    271.7   0.021838542   0.19534   0.24214   0.36930   0.01792
   5   39903.8    250.6   0.003262853   0.02692  -0.03717   0.13354   0.08777
   6   40028.0    249.8   0.249638511   2.05316  -0.10478   1.42161  -0.14562

FINAL SINGLE POINT ENERGY     -6804.550571791702

DIPOLE MOMENT
-------------
                                X             Y             Z
Electronic contribution:    -21.76135     -15.89144      -3.18689
Nuclear contribution   :     22.00933      16.07296       3.20640
                        -----------------------------------------
Total Dipole Moment    :      0.24798       0.18152       0.01950
                        -----------------------------------------
Magnitude (a.u.)       :      0.30794
Magnitude (Debye)      :      0.78272

Rotational constants in cm-1:     0.015964     0.000961     0.000907
Rotational constants in MHz :   478.586728    28.824500    27.193610

                             ****ORCA TERMINATED NORMALLY****
TOTAL RUN TIME: 0 days 0 hours 1 minutes 44 seconds 152 msec
