                         Program Version 4.2.0 -  RELEASE  -
|  1> # ORCA input file
|  2> # SCF done        -96.387637581050          0.000506367107
|  3> ! CAM-B3LYP def2-SVP def2/J RIJCOSX Grid4 TightSCF
|  4> %maxcore 5000
|  5> %tddft
|  6>     Mode sTDDFT
|  7>     Ethresh 5.0
|  8>     maxcore 5000
|  9> end
| 10>
| 11> %pal
| 12>   nprocs 6
| 13>   end
| 14> * xyz 0 1
| 15>    C        0.64289        -0.50257         0.86101
| 16>    N        0.83697         0.52978         1.66459
| 17>    C       -0.21935         0.95600         2.34083
| 18>    C       -1.46284         0.35876         2.22007
| 19>    C       -1.56023        -0.72516         1.33978
| 20>    N       -0.48598        -1.14616         0.66203
| 21>    C       -2.81727        -1.41509         1.13147
| 22>    C       -2.95329        -2.43851         0.27408
| 23>    C       -4.20672        -3.11650         0.04800
| 24>    C       -4.32194        -4.15542        -0.88479
| 25>    N       -5.46454        -4.77336        -1.10503
| 26>    C       -6.55091        -4.38556        -0.42295
| 27>    C       -6.42384        -3.34755         0.51938
| 28>    N       -5.28925        -2.73516         0.74400
| 29>    C       -7.80425        -5.06244        -0.65222
| 30>    C       -8.26354        -5.80525        -1.72488
| 31>    C       -7.65818        -5.95290        -3.09244
| 32>    O       -8.37535        -5.99802        -4.05882
| 33>    O       -6.34477        -6.04519        -3.19005
| 34>    C       -9.58368        -6.30094        -1.50279
| 35>    C      -10.09509        -5.91936        -0.29552
| 36>    S       -9.00898        -4.96542         0.60745
| 37>    C      -10.33063        -7.16422        -2.41583
| 38>    C       -9.74566        -8.25535        -3.07245
| 39>    N      -10.42298        -8.99654        -3.91778
| 40>    C      -11.70487        -8.69569        -4.12066
| 41>    C      -12.31558        -7.67431        -3.38685
| 42>    N      -11.63302        -6.91779        -2.55028
| 43>    C      -12.45515        -9.47191        -5.11443
| 44>    N      -13.74621        -9.17124        -5.26221
| 45>    C      -14.41570        -9.86189        -6.16801
| 46>    C      -13.82820       -10.84938        -6.94024
| 47>    C      -12.46972       -11.09843        -6.71097
| 48>    N      -11.80486       -10.40296        -5.79164
| 49>    C      -11.67799       -12.09612        -7.42152
| 50>    C      -12.10872       -12.87667        -8.40436
| 51>    H        1.50471        -0.85337         0.30704
| 52>    H       -0.05262         1.80098         2.99691
| 53>    H       -2.31907         0.70899         2.77387
| 54>    H       -3.67194        -1.06860         1.69487
| 55>    H       -2.09725        -2.77711        -0.29172
| 56>    H       -3.47625        -4.50079        -1.46276
| 57>    H       -7.27618        -3.00709         1.09211
| 58>    H       -5.87063        -5.75101        -2.35901
| 59>    H      -11.05928        -6.16699         0.10103
| 60>    H       -8.71602        -8.53908        -2.90200
| 61>    H      -13.37094        -7.46793        -3.48802
| 62>    H      -15.46305        -9.60596        -6.27344
| 63>    H      -14.39592       -11.39429        -7.67533
| 64>    H      -10.65549       -12.15073        -7.07519
| 65>    H      -13.11914       -12.84427        -8.77675
| 66>    H      -11.45503       -13.58759        -8.87983
| 67> *
| 68>
| 69>                          ****END OF INPUT****

CARTESIAN COORDINATES (ANGSTROEM)
---------------------------------
  C      0.642890   -0.502570    0.861010
  N      0.836970    0.529780    1.664590
  C     -0.219350    0.956000    2.340830
  C     -1.462840    0.358760    2.220070
  C     -1.560230   -0.725160    1.339780
  N     -0.485980   -1.146160    0.662030
  C     -2.817270   -1.415090    1.131470
  C     -2.953290   -2.438510    0.274080
  C     -4.206720   -3.116500    0.048000
  C     -4.321940   -4.155420   -0.884790
  N     -5.464540   -4.773360   -1.105030
  C     -6.550910   -4.385560   -0.422950
  C     -6.423840   -3.347550    0.519380
  N     -5.289250   -2.735160    0.744000
  C     -7.804250   -5.062440   -0.652220
  C     -8.263540   -5.805250   -1.724880
  C     -7.658180   -5.952900   -3.092440
  O     -8.375350   -5.998020   -4.058820
  O     -6.344770   -6.045190   -3.190050
  C     -9.583680   -6.300940   -1.502790
  C    -10.095090   -5.919360   -0.295520
  S     -9.008980   -4.965420    0.607450
  C    -10.330630   -7.164220   -2.415830
  C     -9.745660   -8.255350   -3.072450
  N    -10.422980   -8.996540   -3.917780
  C    -11.704870   -8.695690   -4.120660
  C    -12.315580   -7.674310   -3.386850
  N    -11.633020   -6.917790   -2.550280
  C    -12.455150   -9.471910   -5.114430
  N    -13.746210   -9.171240   -5.262210
  C    -14.415700   -9.861890   -6.168010
  C    -13.828200  -10.849380   -6.940240
  C    -12.469720  -11.098430   -6.710970
  N    -11.804860  -10.402960   -5.791640
  C    -11.677990  -12.096120   -7.421520
  C    -12.108720  -12.876670   -8.404360
  H      1.504710   -0.853370    0.307040
  H     -0.052620    1.800980    2.996910
  H     -2.319070    0.708990    2.773870
  H     -3.671940   -1.068600    1.694870
  H     -2.097250   -2.777110   -0.291720
  H     -3.476250   -4.500790   -1.462760
  H     -7.276180   -3.007090    1.092110
  H     -5.870630   -5.751010   -2.359010
  H    -11.059280   -6.166990    0.101030
  H     -8.716020   -8.539080   -2.902000
  H    -13.370940   -7.467930   -3.488020
  H    -15.463050   -9.605960   -6.273440
  H    -14.395920  -11.394290   -7.675330
  H    -10.655490  -12.150730   -7.075190
  H    -13.119140  -12.844270   -8.776750
  H    -11.455030  -13.587590   -8.879830

 Total Charge           Charge          ....    0
 Multiplicity           Mult            ....    1
 Number of Electrons    NEL             ....  254
 Basis Dimension        Dim             ....  588

ORBITAL ENERGIES
----------------

  NO   OCC          E(Eh)            E(eV)
   0   2.0000     -88.975276     -2421.1403
   1   2.0000     -19.221816      -523.0522
   2   2.0000     -19.179136      -521.8908
   3   2.0000     -14.458606      -393.4387
   4   2.0000     -14.443755      -393.0346
   5   2.0000     -14.413191      -392.2029
   6   2.0000     -14.410015      -392.1164
   7   2.0000     -14.404692      -391.9716
   8   2.0000     -14.401196      -391.8765
   9   2.0000     -14.401163      -391.8756
  10   2.0000     -14.395631      -391.7250
  11   2.0000     -10.388331      -282.6809
  12   2.0000     -10.355248      -281.7806
  13   2.0000     -10.341079      -281.3951
  14   2.0000     -10.339631      -281.3557
  15   2.0000     -10.338526      -281.3256
  16   2.0000     -10.336480      -281.2699
  17   2.0000     -10.333006      -281.1754
  18   2.0000     -10.331664      -281.1389
  19   2.0000     -10.324914      -280.9552
  20   2.0000     -10.324214      -280.9361
  21   2.0000     -10.318985      -280.7939
  22   2.0000     -10.313118      -280.6342
  23   2.0000     -10.310274      -280.5568
  24   2.0000     -10.307107      -280.4706
  25   2.0000     -10.300792      -280.2988
  26   2.0000     -10.297558      -280.2108
  27   2.0000     -10.296443      -280.1804
  28   2.0000     -10.293443      -280.0988
  29   2.0000     -10.292042      -280.0607
  30   2.0000     -10.291241      -280.0389
  31   2.0000     -10.289478      -279.9909
  32   2.0000     -10.289432      -279.9897
  33   2.0000     -10.277954      -279.6773
  34   2.0000     -10.272009      -279.5156
  35   2.0000     -10.269631      -279.4509
  36   2.0000      -8.071000      -219.6231
  37   2.0000      -6.040238      -164.3632
  38   2.0000      -6.035859      -164.2441
  39   2.0000      -6.033476      -164.1792
  40   2.0000      -1.159213       -31.5438
  41   2.0000      -1.106502       -30.1095
  42   2.0000      -1.083940       -29.4955
  43   2.0000      -1.078066       -29.3357
  44   2.0000      -1.073446       -29.2099
  45   2.0000      -1.057868       -28.7861
  46   2.0000      -1.028219       -27.9793
  47   2.0000      -1.000352       -27.2210
  48   2.0000      -0.984061       -26.7777
  49   2.0000      -0.980697       -26.6861
  50   2.0000      -0.971028       -26.4230
  51   2.0000      -0.926049       -25.1991
  52   2.0000      -0.902446       -24.5568
  53   2.0000      -0.898767       -24.4567
  54   2.0000      -0.879759       -23.9395
  55   2.0000      -0.867347       -23.6017
  56   2.0000      -0.851896       -23.1813
  57   2.0000      -0.838416       -22.8145
  58   2.0000      -0.820677       -22.3318
  59   2.0000      -0.786111       -21.3912
  60   2.0000      -0.774932       -21.0870
  61   2.0000      -0.755663       -20.5626
  62   2.0000      -0.747677       -20.3453
  63   2.0000      -0.747263       -20.3340
  64   2.0000      -0.734438       -19.9851
  65   2.0000      -0.720582       -19.6080
  66   2.0000      -0.707919       -19.2635
  67   2.0000      -0.700958       -19.0740
  68   2.0000      -0.681399       -18.5418
  69   2.0000      -0.668588       -18.1932
  70   2.0000      -0.658517       -17.9192
  71   2.0000      -0.654381       -17.8066
  72   2.0000      -0.650052       -17.6888
  73   2.0000      -0.626653       -17.0521
  74   2.0000      -0.622846       -16.9485
  75   2.0000      -0.612268       -16.6607
  76   2.0000      -0.599279       -16.3072
  77   2.0000      -0.593375       -16.1466
  78   2.0000      -0.583586       -15.8802
  79   2.0000      -0.577259       -15.7080
  80   2.0000      -0.572343       -15.5743
  81   2.0000      -0.561366       -15.2756
  82   2.0000      -0.553580       -15.0637
  83   2.0000      -0.549405       -14.9501
  84   2.0000      -0.544345       -14.8124
  85   2.0000      -0.534327       -14.5398
  86   2.0000      -0.526352       -14.3228
  87   2.0000      -0.525662       -14.3040
  88   2.0000      -0.523086       -14.2339
  89   2.0000      -0.521849       -14.2002
  90   2.0000      -0.515833       -14.0365
  91   2.0000      -0.510177       -13.8826
  92   2.0000      -0.505906       -13.7664
  93   2.0000      -0.503881       -13.7113
  94   2.0000      -0.501466       -13.6456
  95   2.0000      -0.496628       -13.5139
  96   2.0000      -0.491575       -13.3764
  97   2.0000      -0.487338       -13.2611
  98   2.0000      -0.477757       -13.0004
  99   2.0000      -0.476539       -12.9673
 100   2.0000      -0.462352       -12.5812
 101   2.0000      -0.458375       -12.4730
 102   2.0000      -0.453276       -12.3343
 103   2.0000      -0.444022       -12.0824
 104   2.0000      -0.438641       -11.9360
 105   2.0000      -0.432528       -11.7697
 106   2.0000      -0.420469       -11.4415
 107   2.0000      -0.410635       -11.1739
 108   2.0000      -0.399118       -10.8605
 109   2.0000      -0.397020       -10.8035
 110   2.0000      -0.389776       -10.6063
 111   2.0000      -0.376332       -10.2405
 112   2.0000      -0.372843       -10.1456
 113   2.0000      -0.372596       -10.1389
 114   2.0000      -0.369128       -10.0445
 115   2.0000      -0.361201        -9.8288
 116   2.0000      -0.358958        -9.7677
 117   2.0000      -0.352441        -9.5904
 118   2.0000      -0.348921        -9.4946
 119   2.0000      -0.335285        -9.1236
 120   2.0000      -0.328992        -8.9523
 121   2.0000      -0.325148        -8.8477
 122   2.0000      -0.320413        -8.7189
 123   2.0000      -0.317026        -8.6267
 124   2.0000      -0.297946        -8.1075
 125   2.0000      -0.297500        -8.0954
 126   2.0000      -0.281243        -7.6530
 127   0.0000      -0.076873        -2.0918
 128   0.0000      -0.031898        -0.8680
 129   0.0000      -0.028916        -0.7869
 130   0.0000      -0.019338        -0.5262
 131   0.0000      -0.012090        -0.3290

MULLIKEN ATOMIC CHARGES
-----------------------
   0 C :    0.073198
   1 N :   -0.104919
   2 C :    0.068295
   3 C :   -0.025894
   4 C :    0.026825
   5 N :   -0.091304
   6 C :    0.028345
   7 C :    0.029523
   8 C :    0.005853
   9 C :    0.062917
  10 N :   -0.129452
  11 C :    0.048726
  12 C :   -0.001356
  13 N :   -0.024849
  14 C :   -0.154514
  15 C :    0.022871
  16 C :    0.140662
  17 O :   -0.187012
  18 O :   -0.176097
  19 C :    0.087411
  20 C :   -0.073024
  21 S :    0.133582
  22 C :   -0.050092
  23 C :    0.050837
  24 N :   -0.002218
  25 C :   -0.017021
  26 C :    0.020277
  27 N :   -0.047170
  28 C :   -0.089830
  29 N :   -0.063302
  30 C :    0.077227
  31 C :   -0.049271
  32 C :    0.026652
  33 N :   -0.004987
  34 C :    0.038122
  35 C :   -0.004190
  36 H :    0.017007
  37 H :    0.013659
  38 H :   -0.002608
  39 H :   -0.000245
  40 H :    0.009275
  41 H :    0.017060
  42 H :    0.022240
  43 H :    0.185135
  44 H :    0.035797
  45 H :    0.000582
  46 H :    0.008030
  47 H :    0.003037
  48 H :   -0.010302
  49 H :    0.005468
  50 H :    0.016897
  51 H :    0.034148
Sum of atomic charges:   -0.0000000

LOEWDIN ATOMIC CHARGES
----------------------
   0 C :    0.047262
   1 N :   -0.091196
   2 C :    0.050824
   3 C :   -0.056778
   4 C :    0.029442
   5 N :   -0.087567
   6 C :   -0.002981
   7 C :   -0.003060
   8 C :   -0.009662
   9 C :    0.033514
  10 N :   -0.017310
  11 C :   -0.011890
  12 C :    0.010637
  13 N :   -0.028242
  14 C :   -0.183176
  15 C :   -0.077958
  16 C :    0.065979
  17 O :   -0.163727
  18 O :   -0.040320
  19 C :   -0.046841
  20 C :   -0.146947
  21 S :    0.465153
  22 C :    0.001502
  23 C :    0.017800
  24 N :   -0.018060
  25 C :   -0.032555
  26 C :    0.023662
  27 N :   -0.051070
  28 C :    0.021999
  29 N :   -0.089050
  30 C :    0.046311
  31 C :   -0.058877
  32 C :    0.036432
  33 N :   -0.062311
  34 C :   -0.024360
  35 C :   -0.019320
  36 H :    0.019397
  37 H :    0.027562
  38 H :    0.034921
  39 H :    0.032971
  40 H :    0.036498
  41 H :    0.034466
  42 H :    0.023947
  43 H :    0.032467
  44 H :    0.033426
  45 H :    0.023568
  46 H :    0.025689
  47 H :    0.025288
  48 H :    0.030942
  49 H :    0.039349
  50 H :    0.021379
  51 H :    0.030868

  Mayer bond orders larger than 0.100000
B(  0-C ,  1-N ) :   1.4995 B(  0-C ,  5-N ) :   1.5289 B(  0-C , 36-H ) :   0.9751
B(  1-N ,  2-C ) :   1.5469 B(  2-C ,  3-C ) :   1.3769 B(  2-C , 37-H ) :   0.9818
B(  3-C ,  4-C ) :   1.3498 B(  3-C , 38-H ) :   0.9777 B(  4-C ,  5-N ) :   1.5232
B(  4-C ,  6-C ) :   1.0514 B(  6-C ,  7-C ) :   1.7517 B(  6-C , 39-H ) :   0.9733
B(  7-C ,  8-C ) :   1.0438 B(  7-C , 40-H ) :   0.9708 B(  8-C ,  9-C ) :   1.3198
B(  8-C , 13-N ) :   1.4923 B(  9-C , 10-N ) :   1.4934 B(  9-C , 41-H ) :   0.9784
B( 10-N , 11-C ) :   1.4646 B( 10-N , 43-H ) :   0.1808 B( 11-C , 12-C ) :   1.2929
B( 11-C , 14-C ) :   1.0496 B( 12-C , 13-N ) :   1.6229 B( 12-C , 42-H ) :   0.9757
B( 14-C , 15-C ) :   1.5018 B( 14-C , 21-S ) :   1.1611 B( 15-C , 16-C ) :   0.8774
B( 15-C , 19-C ) :   1.2891 B( 16-C , 17-O ) :   2.1191 B( 16-C , 18-O ) :   1.3145
B( 18-O , 43-H ) :   0.8609 B( 19-C , 20-C ) :   1.5684 B( 19-C , 22-C ) :   0.9489
B( 20-C , 21-S ) :   1.1589 B( 20-C , 44-H ) :   0.9692 B( 22-C , 23-C ) :   1.3097
B( 22-C , 25-C ) :   0.1078 B( 22-C , 27-N ) :   1.5680 B( 23-C , 24-N ) :   1.5986
B( 23-C , 45-H ) :   0.9742 B( 24-N , 25-C ) :   1.5566 B( 25-C , 26-C ) :   1.3788
B( 25-C , 28-C ) :   0.9164 B( 25-C , 29-N ) :  -0.1128 B( 26-C , 27-N ) :   1.5398
B( 26-C , 46-H ) :   0.9628 B( 28-C , 29-N ) :   1.6214 B( 28-C , 33-N ) :   1.6149
B( 29-N , 30-C ) :   1.5355 B( 30-C , 31-C ) :   1.3974 B( 30-C , 47-H ) :   0.9794
B( 31-C , 32-C ) :   1.3466 B( 31-C , 48-H ) :   0.9686 B( 32-C , 33-N ) :   1.5001
B( 32-C , 34-C ) :   1.0677 B( 34-C , 35-C ) :   1.9382 B( 34-C , 49-H ) :   0.9610
B( 35-C , 50-H ) :   0.9485 B( 35-C , 51-H ) :   0.9514

-----------------------------------------------------------------------------
         ABSORPTION SPECTRUM VIA TRANSITION ELECTRIC DIPOLE MOMENTS
-----------------------------------------------------------------------------
State   Energy  Wavelength   fosc         T2         TX        TY        TZ
        (cm-1)    (nm)                  (au**2)     (au)      (au)      (au)
-----------------------------------------------------------------------------
   0   28486.6    351.0   1.305584090  15.08828  -3.13701  -2.07417  -0.97224
   1   31180.8    320.7   0.003353237   0.03540   0.00641  -0.14441   0.12045
   2   32231.2    310.3   0.004746670   0.04848  -0.04810  -0.14697   0.15675
   3   32395.9    308.7   0.009249564   0.09400  -0.30014   0.05539  -0.02899
   4   32714.9    305.7   0.332982294   3.35082  -1.37155  -1.04057  -0.62199
   5   34014.3    294.0   0.004779817   0.04626   0.12044   0.11527   0.13590
   6   34203.1    292.4   0.007211189   0.06941   0.11019   0.06322   0.23080
   7   35670.6    280.3   0.019282202   0.17796  -0.03981   0.01337   0.41976
   8   36566.2    273.5   0.008885385   0.08000   0.01663   0.12702  -0.25216
   9   37062.0    269.8   0.433315889   3.84904  -0.96541  -1.32243  -1.08084
  10   38791.0    257.8   0.067457887   0.57250   0.28420   0.12913   0.68925
  11   39000.6    256.4   0.521511010   4.40218   0.73523   1.16570   1.58202
  12   40026.5    249.8   0.157715681   1.29719  -0.58894  -0.72922  -0.64698

FINAL SINGLE POINT ENERGY     -1946.890528213260

DIPOLE MOMENT
-------------
                                X             Y             Z
Electronic contribution:     -1.95857       5.76193       8.96173
Nuclear contribution   :      1.70079      -5.49199      -7.41402
                        -----------------------------------------
Total Dipole Moment    :     -0.25778       0.26994       1.54771
                        -----------------------------------------
Magnitude (a.u.)       :      1.59208
Magnitude (Debye)      :      4.04675

Rotational constants in cm-1:     0.012865     0.000879     0.000833
Rotational constants in MHz :   385.684372    26.366039    24.982743

                             ****ORCA TERMINATED NORMALLY****
TOTAL RUN TIME: 0 days 0 hours 2 minutes 14 seconds 93 msec
