                         Program Version 4.2.0 -  RELEASE  -
|  1> # ORCA input file
|  2> # SCF done       -231.573424982173          0.000913456444
|  3> ! CAM-B3LYP def2-SVP def2/J RIJCOSX Grid4 TightSCF
|  4> %maxcore 5000
|  5> %tddft
|  6>     Mode sTDDFT
|  7>     Ethresh 5.0
|  8>     maxcore 5000
|  9> end
| 10>
| 11> %pal
| 12>   nprocs 6
| 13>   end
| 14> * xyz 0 1
| 15>    C      -21.62354        -2.54992        -2.94925
| 16>    N      -22.70194        -1.93966        -2.48751
| 17>    C      -22.58258        -0.64409        -2.23597
| 18>    C      -21.39836         0.04193        -2.44174
| 19>    C      -20.31789        -0.69801        -2.93697
| 20>    N      -20.44942        -2.00714        -3.18422
| 21>    C      -19.03596        -0.08093        -3.19840
| 22>    C      -18.01658        -0.75459        -3.75950
| 23>    C      -16.73656        -0.19182        -4.05465
| 24>    C      -15.63864        -0.81985        -4.61334
| 25>    C      -15.64167        -2.24475        -5.04202
| 26>    O      -15.31505        -2.60574        -6.13592
| 27>    O      -16.03724        -3.13345        -4.10943
| 28>    C      -14.54673         0.07035        -4.84783
| 29>    C      -14.84782         1.34783        -4.44674
| 30>    S      -16.42131         1.50517        -3.80630
| 31>    C      -13.27168        -0.29355        -5.41176
| 32>    S      -12.33729         0.93548        -6.23764
| 33>    C      -11.11125        -0.21469        -6.57480
| 34>    C      -11.40743        -1.47290        -6.06279
| 35>    C      -12.63215        -1.51319        -5.39899
| 36>    C      -10.31700        -2.46158        -6.40035
| 37>    C       -9.66294        -3.03272        -5.13964
| 38>    C      -10.86049        -3.58558        -7.28781
| 39>    C       -9.36559        -1.57108        -7.16648
| 40>    C       -9.86667        -0.26974        -7.24575
| 41>    S       -8.83903         0.77894        -8.12204
| 42>    C       -7.71172        -0.54035        -8.40079
| 43>    C       -8.15157        -1.72151        -7.81888
| 44>    C       -6.56499        -0.27804        -9.18723
| 45>    C       -5.59783        -1.17512        -9.49639
| 46>    C       -4.48869        -0.92506       -10.37092
| 47>    C       -3.28249        -1.73945       -10.09930
| 48>    C       -2.69610        -1.73440        -8.83470
| 49>    C       -1.53566        -2.45147        -8.56185
| 50>    C       -0.94268        -3.21182        -9.56336
| 51>    C       -1.53030        -3.26314       -10.82531
| 52>    C       -2.69022        -2.54128       -11.07694
| 53>    F       -3.23254        -2.60532       -12.29436
| 54>    F       -0.97264        -3.99903       -11.78779
| 55>    F        0.18036        -3.88500        -9.31544
| 56>    F       -0.98285        -2.40129        -7.34759
| 57>    F       -3.23005        -0.98843        -7.86264
| 58>    C       -4.49580        -0.02167       -11.40292
| 59>    C       -5.74862         0.60252       -11.87102
| 60>    C       -5.85416         1.98596       -12.02098
| 61>    C       -7.00532         2.58318       -12.52120
| 62>    C       -8.08766         1.79182       -12.89217
| 63>    C       -8.00445         0.40787       -12.75802
| 64>    C       -6.84452        -0.17024       -12.26022
| 65>    F       -6.78636        -1.49998       -12.15151
| 66>    F       -9.03824        -0.35774       -13.11231
| 67>    F       -9.19807         2.35360       -13.36859
| 68>    F       -7.07759         3.91007       -12.63896
| 69>    F       -4.84046         2.76761       -11.63587
| 70>    C       -3.32081         0.31757       -12.16256
| 71>    C       -2.01237         0.22269       -11.78863
| 72>    C       -1.09269         0.50406       -12.82521
| 73>    C        0.31015         0.37943       -12.79252
| 74>    C        1.01935        -0.17905       -11.65822
| 75>    C        2.05770        -1.06703       -11.70283
| 76>    C        2.51300        -1.44674       -10.42291
| 77>    C        1.84834        -0.85603        -9.38739
| 78>    S        0.62072         0.19756       -10.00107
| 79>    C        2.06806        -1.03768        -7.93047
| 80>   Cl        3.79275        -2.56832       -10.18196
| 81>    C        0.98451         0.74524       -13.95507
| 82>    C        0.33379         1.21700       -15.12101
| 83>    C       -1.07071         1.27827       -15.17171
| 84>    C       -1.74759         0.88989       -14.01925
| 85>    S       -3.47659         0.84225       -13.82985
| 86>    C       -1.80323         1.73837       -16.33538
| 87>    C       -2.97252         1.24239       -16.83583
| 88>    C       -3.45364         1.98384       -17.93699
| 89>    C       -2.67777         3.05099       -18.28315
| 90>    S       -1.30420         3.14610       -17.23396
| 91>    C       -2.88524         4.04294       -19.36790
| 92>   Cl       -4.90593         1.56224       -18.76092
| 93>    C        1.26996         1.53752       -16.14731
| 94>    C        2.55039         1.34238       -15.77246
| 95>    S        2.71488         0.73924       -14.16231
| 96>    H      -21.71623        -3.60907        -3.15462
| 97>    H      -23.46911        -0.15091        -1.85784
| 98>    H      -21.30805         1.09663        -2.23647
| 99>    H      -18.93163         0.96119        -2.92781
|100>    H      -18.18870        -1.78860        -4.02955
|101>    H      -16.28846        -2.72156        -3.27185
|102>    H      -14.20627         2.20549        -4.49817
|103>    H      -13.03612        -2.38825        -4.92562
|104>    H      -10.39112        -3.60411        -4.56965
|105>    H       -9.27984        -2.22978        -4.51358
|106>    H       -8.83832        -3.68725        -5.41065
|107>    H      -11.62113        -4.14748        -6.75225
|108>    H      -10.05660        -4.25944        -7.57347
|109>    H      -11.30808        -3.17215        -8.18837
|110>    H       -7.60155        -2.64193        -7.88441
|111>    H       -6.47777         0.73806        -9.54640
|112>    H       -5.62329        -2.15431        -9.03993
|113>    H       -1.70625        -0.00184       -10.78627
|114>    H        2.46405        -1.47219       -12.61049
|115>    H        3.05508        -0.67287        -7.64824
|116>    H        2.01935        -2.09533        -7.67426
|117>    H        1.31773        -0.50000        -7.35858
|118>    H       -3.46160         0.35983       -16.46766
|119>    H       -3.76273         3.77064       -19.94887
|120>    H       -2.01890         4.07972       -20.02715
|121>    H       -3.03291         5.03967       -18.95253
|122>    H        0.98848         1.89300       -17.12062
|123>    H        3.43754         1.50573       -16.35230
|124> *
|125>
|126>                          ****END OF INPUT****

CARTESIAN COORDINATES (ANGSTROEM)
---------------------------------
  C    -21.623540   -2.549920   -2.949250
  N    -22.701940   -1.939660   -2.487510
  C    -22.582580   -0.644090   -2.235970
  C    -21.398360    0.041930   -2.441740
  C    -20.317890   -0.698010   -2.936970
  N    -20.449420   -2.007140   -3.184220
  C    -19.035960   -0.080930   -3.198400
  C    -18.016580   -0.754590   -3.759500
  C    -16.736560   -0.191820   -4.054650
  C    -15.638640   -0.819850   -4.613340
  C    -15.641670   -2.244750   -5.042020
  O    -15.315050   -2.605740   -6.135920
  O    -16.037240   -3.133450   -4.109430
  C    -14.546730    0.070350   -4.847830
  C    -14.847820    1.347830   -4.446740
  S    -16.421310    1.505170   -3.806300
  C    -13.271680   -0.293550   -5.411760
  S    -12.337290    0.935480   -6.237640
  C    -11.111250   -0.214690   -6.574800
  C    -11.407430   -1.472900   -6.062790
  C    -12.632150   -1.513190   -5.398990
  C    -10.317000   -2.461580   -6.400350
  C     -9.662940   -3.032720   -5.139640
  C    -10.860490   -3.585580   -7.287810
  C     -9.365590   -1.571080   -7.166480
  C     -9.866670   -0.269740   -7.245750
  S     -8.839030    0.778940   -8.122040
  C     -7.711720   -0.540350   -8.400790
  C     -8.151570   -1.721510   -7.818880
  C     -6.564990   -0.278040   -9.187230
  C     -5.597830   -1.175120   -9.496390
  C     -4.488690   -0.925060  -10.370920
  C     -3.282490   -1.739450  -10.099300
  C     -2.696100   -1.734400   -8.834700
  C     -1.535660   -2.451470   -8.561850
  C     -0.942680   -3.211820   -9.563360
  C     -1.530300   -3.263140  -10.825310
  C     -2.690220   -2.541280  -11.076940
  F     -3.232540   -2.605320  -12.294360
  F     -0.972640   -3.999030  -11.787790
  F      0.180360   -3.885000   -9.315440
  F     -0.982850   -2.401290   -7.347590
  F     -3.230050   -0.988430   -7.862640
  C     -4.495800   -0.021670  -11.402920
  C     -5.748620    0.602520  -11.871020
  C     -5.854160    1.985960  -12.020980
  C     -7.005320    2.583180  -12.521200
  C     -8.087660    1.791820  -12.892170
  C     -8.004450    0.407870  -12.758020
  C     -6.844520   -0.170240  -12.260220
  F     -6.786360   -1.499980  -12.151510
  F     -9.038240   -0.357740  -13.112310
  F     -9.198070    2.353600  -13.368590
  F     -7.077590    3.910070  -12.638960
  F     -4.840460    2.767610  -11.635870
  C     -3.320810    0.317570  -12.162560
  C     -2.012370    0.222690  -11.788630
  C     -1.092690    0.504060  -12.825210
  C      0.310150    0.379430  -12.792520
  C      1.019350   -0.179050  -11.658220
  C      2.057700   -1.067030  -11.702830
  C      2.513000   -1.446740  -10.422910
  C      1.848340   -0.856030   -9.387390
  S      0.620720    0.197560  -10.001070
  C      2.068060   -1.037680   -7.930470
  Cl     3.792750   -2.568320  -10.181960
  C      0.984510    0.745240  -13.955070
  C      0.333790    1.217000  -15.121010
  C     -1.070710    1.278270  -15.171710
  C     -1.747590    0.889890  -14.019250
  S     -3.476590    0.842250  -13.829850
  C     -1.803230    1.738370  -16.335380
  C     -2.972520    1.242390  -16.835830
  C     -3.453640    1.983840  -17.936990
  C     -2.677770    3.050990  -18.283150
  S     -1.304200    3.146100  -17.233960
  C     -2.885240    4.042940  -19.367900
  Cl    -4.905930    1.562240  -18.760920
  C      1.269960    1.537520  -16.147310
  C      2.550390    1.342380  -15.772460
  S      2.714880    0.739240  -14.162310
  H    -21.716230   -3.609070   -3.154620
  H    -23.469110   -0.150910   -1.857840
  H    -21.308050    1.096630   -2.236470
  H    -18.931630    0.961190   -2.927810
  H    -18.188700   -1.788600   -4.029550
  H    -16.288460   -2.721560   -3.271850
  H    -14.206270    2.205490   -4.498170
  H    -13.036120   -2.388250   -4.925620
  H    -10.391120   -3.604110   -4.569650
  H     -9.279840   -2.229780   -4.513580
  H     -8.838320   -3.687250   -5.410650
  H    -11.621130   -4.147480   -6.752250
  H    -10.056600   -4.259440   -7.573470
  H    -11.308080   -3.172150   -8.188370
  H     -7.601550   -2.641930   -7.884410
  H     -6.477770    0.738060   -9.546400
  H     -5.623290   -2.154310   -9.039930
  H     -1.706250   -0.001840  -10.786270
  H      2.464050   -1.472190  -12.610490
  H      3.055080   -0.672870   -7.648240
  H      2.019350   -2.095330   -7.674260
  H      1.317730   -0.500000   -7.358580
  H     -3.461600    0.359830  -16.467660
  H     -3.762730    3.770640  -19.948870
  H     -2.018900    4.079720  -20.027150
  H     -3.032910    5.039670  -18.952530
  H      0.988480    1.893000  -17.120620
  H      3.437540    1.505730  -16.352300

 Total Charge           Charge          ....    0
 Multiplicity           Mult            ....    1
 Number of Electrons    NEL             ....  642
 Basis Dimension        Dim             .... 1310

ORBITAL ENERGIES
----------------

  NO   OCC          E(Eh)            E(eV)
   0   2.0000    -101.579242     -2764.1117
   1   2.0000    -101.579237     -2764.1116
   2   2.0000     -88.974025     -2421.1063
   3   2.0000     -88.962688     -2420.7978
   4   2.0000     -88.961040     -2420.7530
   5   2.0000     -88.959062     -2420.6992
   6   2.0000     -88.953760     -2420.5549
   7   2.0000     -88.948767     -2420.4190
   8   2.0000     -88.946344     -2420.3531
   9   2.0000     -24.809447      -675.0994
  10   2.0000     -24.807795      -675.0544
  11   2.0000     -24.805602      -674.9947
  12   2.0000     -24.804314      -674.9597
  13   2.0000     -24.801349      -674.8790
  14   2.0000     -24.801044      -674.8707
  15   2.0000     -24.800968      -674.8687
  16   2.0000     -24.800644      -674.8598
  17   2.0000     -24.800533      -674.8568
  18   2.0000     -24.800233      -674.8486
  19   2.0000     -19.266439      -524.2665
  20   2.0000     -19.204367      -522.5774
  21   2.0000     -14.413172      -392.2024
  22   2.0000     -14.408904      -392.0862
  23   2.0000     -10.410085      -283.2728
  24   2.0000     -10.389690      -282.7178
  25   2.0000     -10.387795      -282.6663
  26   2.0000     -10.385352      -282.5998
  27   2.0000     -10.383886      -282.5599
  28   2.0000     -10.383761      -282.5565
  29   2.0000     -10.383349      -282.5453
  30   2.0000     -10.383112      -282.5389
  31   2.0000     -10.382229      -282.5148
  32   2.0000     -10.381846      -282.5044
  33   2.0000     -10.381373      -282.4915
  34   2.0000     -10.336339      -281.2661
  35   2.0000     -10.334301      -281.2106
  36   2.0000     -10.326121      -280.9881
  37   2.0000     -10.323936      -280.9286
  38   2.0000     -10.314664      -280.6763
  39   2.0000     -10.313955      -280.6570
  40   2.0000     -10.313933      -280.6564
  41   2.0000     -10.313477      -280.6440
  42   2.0000     -10.309496      -280.5356
  43   2.0000     -10.308223      -280.5010
  44   2.0000     -10.307317      -280.4764
  45   2.0000     -10.305553      -280.4283
  46   2.0000     -10.304361      -280.3959
  47   2.0000     -10.304234      -280.3924
  48   2.0000     -10.304205      -280.3917
  49   2.0000     -10.303698      -280.3779
  50   2.0000     -10.303516      -280.3729
  51   2.0000     -10.302613      -280.3484
  52   2.0000     -10.302395      -280.3424
  53   2.0000     -10.301634      -280.3217
  54   2.0000     -10.301590      -280.3205
  55   2.0000     -10.300892      -280.3015
  56   2.0000     -10.300298      -280.2854
  57   2.0000     -10.299430      -280.2618
  58   2.0000     -10.299120      -280.2533
  59   2.0000     -10.295525      -280.1555
  60   2.0000     -10.294071      -280.1159
  61   2.0000     -10.293411      -280.0979
  62   2.0000     -10.292324      -280.0684
  63   2.0000     -10.291595      -280.0485
  64   2.0000     -10.290971      -280.0316
  65   2.0000     -10.289710      -279.9972
  66   2.0000     -10.284299      -279.8500
  67   2.0000     -10.283768      -279.8356
  68   2.0000     -10.279289      -279.7137
  69   2.0000     -10.278815      -279.7008
  70   2.0000     -10.276095      -279.6268
  71   2.0000     -10.275481      -279.6101
  72   2.0000     -10.274048      -279.5711
  73   2.0000     -10.273081      -279.5448
  74   2.0000     -10.272813      -279.5375
  75   2.0000     -10.272385      -279.5258
  76   2.0000     -10.271276      -279.4956
  77   2.0000     -10.270822      -279.4833
  78   2.0000     -10.269578      -279.4494
  79   2.0000     -10.263547      -279.2853
  80   2.0000     -10.259348      -279.1710
  81   2.0000      -9.534019      -259.4338
  82   2.0000      -9.533992      -259.4331
  83   2.0000      -8.069949      -219.5945
  84   2.0000      -8.057762      -219.2629
  85   2.0000      -8.056081      -219.2171
  86   2.0000      -8.053923      -219.1584
  87   2.0000      -8.049393      -219.0351
  88   2.0000      -8.043711      -218.8805
  89   2.0000      -8.042144      -218.8379
  90   2.0000      -7.304261      -198.7590
  91   2.0000      -7.304222      -198.7580
  92   2.0000      -7.294213      -198.4856
  93   2.0000      -7.294082      -198.4821
  94   2.0000      -7.293989      -198.4795
  95   2.0000      -7.293909      -198.4774
  96   2.0000      -6.039081      -164.3317
  97   2.0000      -6.034942      -164.2191
  98   2.0000      -6.032300      -164.1472
  99   2.0000      -6.026982      -164.0025
 100   2.0000      -6.025468      -163.9613
 101   2.0000      -6.023128      -163.8977
 102   2.0000      -6.023026      -163.8949
 103   2.0000      -6.021363      -163.8496
 104   2.0000      -6.019976      -163.8119
 105   2.0000      -6.019183      -163.7903
 106   2.0000      -6.018728      -163.7779
 107   2.0000      -6.018088      -163.7605
 108   2.0000      -6.016133      -163.7073
 109   2.0000      -6.014530      -163.6637
 110   2.0000      -6.013299      -163.6302
 111   2.0000      -6.011791      -163.5891
 112   2.0000      -6.011452      -163.5799
 113   2.0000      -6.009217      -163.5191
 114   2.0000      -6.007404      -163.4698
 115   2.0000      -6.005151      -163.4085
 116   2.0000      -6.003694      -163.3688
 117   2.0000      -1.335427       -36.3388
 118   2.0000      -1.332241       -36.2521
 119   2.0000      -1.326976       -36.1089
 120   2.0000      -1.324520       -36.0420
 121   2.0000      -1.320934       -35.9445
 122   2.0000      -1.318893       -35.8889
 123   2.0000      -1.312604       -35.7178
 124   2.0000      -1.309266       -35.6270
 125   2.0000      -1.307239       -35.5718
 126   2.0000      -1.305461       -35.5234
 127   2.0000      -1.188075       -32.3292
 128   2.0000      -1.103066       -30.0160
 129   2.0000      -1.083684       -29.4885
 130   2.0000      -1.012928       -27.5632
 131   2.0000      -1.009927       -27.4815
 132   2.0000      -1.004385       -27.3307
 133   2.0000      -0.999735       -27.2042
 134   2.0000      -0.998364       -27.1669
 135   2.0000      -0.992183       -26.9987
 136   2.0000      -0.989835       -26.9348
 137   2.0000      -0.984141       -26.7798
 138   2.0000      -0.973705       -26.4959
 139   2.0000      -0.972724       -26.4692
 140   2.0000      -0.945859       -25.7381
 141   2.0000      -0.940611       -25.5953
 142   2.0000      -0.935149       -25.4467
 143   2.0000      -0.926894       -25.2221
 144   2.0000      -0.913180       -24.8489
 145   2.0000      -0.905686       -24.6450
 146   2.0000      -0.895640       -24.3716
 147   2.0000      -0.886908       -24.1340
 148   2.0000      -0.885399       -24.0929
 149   2.0000      -0.881157       -23.9775
 150   2.0000      -0.870031       -23.6747
 151   2.0000      -0.860364       -23.4117
 152   2.0000      -0.859070       -23.3765
 153   2.0000      -0.857327       -23.3290
 154   2.0000      -0.851517       -23.1710
 155   2.0000      -0.845164       -22.9981
 156   2.0000      -0.841541       -22.8995
 157   2.0000      -0.833604       -22.6835
 158   2.0000      -0.828925       -22.5562
 159   2.0000      -0.826307       -22.4850
 160   2.0000      -0.820133       -22.3170
 161   2.0000      -0.807435       -21.9714
 162   2.0000      -0.804137       -21.8817
 163   2.0000      -0.802365       -21.8334
 164   2.0000      -0.790585       -21.5129
 165   2.0000      -0.780046       -21.2261
 166   2.0000      -0.773187       -21.0395
 167   2.0000      -0.773127       -21.0379
 168   2.0000      -0.769202       -20.9311
 169   2.0000      -0.755982       -20.5713
 170   2.0000      -0.746127       -20.3032
 171   2.0000      -0.745060       -20.2741
 172   2.0000      -0.742566       -20.2062
 173   2.0000      -0.741536       -20.1782
 174   2.0000      -0.738231       -20.0883
 175   2.0000      -0.727489       -19.7960
 176   2.0000      -0.720132       -19.5958
 177   2.0000      -0.706133       -19.2149
 178   2.0000      -0.703150       -19.1337
 179   2.0000      -0.694134       -18.8883
 180   2.0000      -0.688881       -18.7454
 181   2.0000      -0.685196       -18.6451
 182   2.0000      -0.681762       -18.5517
 183   2.0000      -0.679242       -18.4831
 184   2.0000      -0.675796       -18.3893
 185   2.0000      -0.672677       -18.3045
 186   2.0000      -0.667794       -18.1716
 187   2.0000      -0.664683       -18.0869
 188   2.0000      -0.656468       -17.8634
 189   2.0000      -0.649952       -17.6861
 190   2.0000      -0.647572       -17.6213
 191   2.0000      -0.642412       -17.4809
 192   2.0000      -0.641119       -17.4457
 193   2.0000      -0.635112       -17.2823
 194   2.0000      -0.629889       -17.1401
 195   2.0000      -0.626859       -17.0577
 196   2.0000      -0.626282       -17.0420
 197   2.0000      -0.625632       -17.0243
 198   2.0000      -0.623412       -16.9639
 199   2.0000      -0.622755       -16.9460
 200   2.0000      -0.622001       -16.9255
 201   2.0000      -0.619551       -16.8588
 202   2.0000      -0.615595       -16.7512
 203   2.0000      -0.610941       -16.6245
 204   2.0000      -0.606844       -16.5131
 205   2.0000      -0.603949       -16.4343
 206   2.0000      -0.602769       -16.4022
 207   2.0000      -0.597974       -16.2717
 208   2.0000      -0.595520       -16.2049
 209   2.0000      -0.593425       -16.1479
 210   2.0000      -0.587651       -15.9908
 211   2.0000      -0.586403       -15.9568
 212   2.0000      -0.580196       -15.7879
 213   2.0000      -0.579096       -15.7580
 214   2.0000      -0.577941       -15.7266
 215   2.0000      -0.574770       -15.6403
 216   2.0000      -0.569722       -15.5029
 217   2.0000      -0.566634       -15.4189
 218   2.0000      -0.564255       -15.3541
 219   2.0000      -0.559986       -15.2380
 220   2.0000      -0.550625       -14.9833
 221   2.0000      -0.549748       -14.9594
 222   2.0000      -0.549040       -14.9401
 223   2.0000      -0.546565       -14.8728
 224   2.0000      -0.546078       -14.8595
 225   2.0000      -0.543666       -14.7939
 226   2.0000      -0.541869       -14.7450
 227   2.0000      -0.540741       -14.7143
 228   2.0000      -0.537797       -14.6342
 229   2.0000      -0.535285       -14.5658
 230   2.0000      -0.530952       -14.4479
 231   2.0000      -0.525960       -14.3121
 232   2.0000      -0.524012       -14.2591
 233   2.0000      -0.523767       -14.2524
 234   2.0000      -0.522021       -14.2049
 235   2.0000      -0.521358       -14.1869
 236   2.0000      -0.520296       -14.1580
 237   2.0000      -0.519151       -14.1268
 238   2.0000      -0.517576       -14.0840
 239   2.0000      -0.516749       -14.0614
 240   2.0000      -0.515968       -14.0402
 241   2.0000      -0.514582       -14.0025
 242   2.0000      -0.514038       -13.9877
 243   2.0000      -0.513584       -13.9753
 244   2.0000      -0.507710       -13.8155
 245   2.0000      -0.506278       -13.7765
 246   2.0000      -0.505195       -13.7471
 247   2.0000      -0.501089       -13.6353
 248   2.0000      -0.497991       -13.5510
 249   2.0000      -0.496953       -13.5228
 250   2.0000      -0.491858       -13.3841
 251   2.0000      -0.490233       -13.3399
 252   2.0000      -0.490163       -13.3380
 253   2.0000      -0.489953       -13.3323
 254   2.0000      -0.485468       -13.2103
 255   2.0000      -0.483157       -13.1474
 256   2.0000      -0.477617       -12.9966
 257   2.0000      -0.475256       -12.9324
 258   2.0000      -0.475113       -12.9285
 259   2.0000      -0.471184       -12.8216
 260   2.0000      -0.470730       -12.8092
 261   2.0000      -0.470060       -12.7910
 262   2.0000      -0.469014       -12.7625
 263   2.0000      -0.466871       -12.7042
 264   2.0000      -0.464050       -12.6274
 265   2.0000      -0.463230       -12.6051
 266   2.0000      -0.462009       -12.5719
 267   2.0000      -0.460866       -12.5408
 268   2.0000      -0.460581       -12.5330
 269   2.0000      -0.459930       -12.5153
 270   2.0000      -0.456862       -12.4318
 271   2.0000      -0.454211       -12.3597
 272   2.0000      -0.451227       -12.2785
 273   2.0000      -0.448386       -12.2012
 274   2.0000      -0.446712       -12.1557
 275   2.0000      -0.445962       -12.1352
 276   2.0000      -0.437672       -11.9096
 277   2.0000      -0.437219       -11.8973
 278   2.0000      -0.435232       -11.8433
 279   2.0000      -0.431730       -11.7480
 280   2.0000      -0.427507       -11.6331
 281   2.0000      -0.427005       -11.6194
 282   2.0000      -0.425351       -11.5744
 283   2.0000      -0.421264       -11.4632
 284   2.0000      -0.420588       -11.4448
 285   2.0000      -0.418668       -11.3925
 286   2.0000      -0.415800       -11.3145
 287   2.0000      -0.410185       -11.1617
 288   2.0000      -0.409179       -11.1343
 289   2.0000      -0.407544       -11.0898
 290   2.0000      -0.401897       -10.9362
 291   2.0000      -0.400619       -10.9014
 292   2.0000      -0.399120       -10.8606
 293   2.0000      -0.396935       -10.8012
 294   2.0000      -0.388430       -10.5697
 295   2.0000      -0.380005       -10.3405
 296   2.0000      -0.376865       -10.2550
 297   2.0000      -0.374288       -10.1849
 298   2.0000      -0.372615       -10.1394
 299   2.0000      -0.371087       -10.0978
 300   2.0000      -0.368874       -10.0376
 301   2.0000      -0.361946        -9.8491
 302   2.0000      -0.357718        -9.7340
 303   2.0000      -0.344818        -9.3830
 304   2.0000      -0.338593        -9.2136
 305   2.0000      -0.328903        -8.9499
 306   2.0000      -0.327692        -8.9170
 307   2.0000      -0.325298        -8.8518
 308   2.0000      -0.323037        -8.7903
 309   2.0000      -0.321762        -8.7556
 310   2.0000      -0.318828        -8.6757
 311   2.0000      -0.317851        -8.6492
 312   2.0000      -0.312504        -8.5037
 313   2.0000      -0.311007        -8.4629
 314   2.0000      -0.305817        -8.3217
 315   2.0000      -0.295294        -8.0354
 316   2.0000      -0.291384        -7.9290
 317   2.0000      -0.289310        -7.8725
 318   2.0000      -0.272079        -7.4036
 319   2.0000      -0.244523        -6.6538
 320   2.0000      -0.227897        -6.2014
 321   0.0000      -0.069005        -1.8777
 322   0.0000      -0.062138        -1.6909
 323   0.0000      -0.032601        -0.8871
 324   0.0000      -0.018586        -0.5057
 325   0.0000       0.001007         0.0274

MULLIKEN ATOMIC CHARGES
-----------------------
   0 C :    0.075239
   1 N :   -0.107704
   2 C :    0.072151
   3 C :   -0.032551
   4 C :    0.025025
   5 N :   -0.097774
   6 C :   -0.010213
   7 C :    0.004721
   8 C :   -0.106775
   9 C :   -0.026558
  10 C :    0.138553
  11 O :   -0.157178
  12 O :   -0.163270
  13 C :    0.123773
  14 C :   -0.125581
  15 S :    0.136924
  16 C :   -0.104450
  17 S :    0.137120
  18 C :   -0.087512
  19 C :   -0.003412
  20 C :   -0.008223
  21 C :   -0.111580
  22 C :    0.103698
  23 C :    0.108140
  24 C :    0.003340
  25 C :   -0.083742
  26 S :    0.146512
  27 C :   -0.101919
  28 C :   -0.027104
  29 C :    0.090592
  30 C :   -0.025443
  31 C :    0.048118
  32 C :   -0.221119
  33 C :    0.207232
  34 C :    0.153600
  35 C :    0.148349
  36 C :    0.167364
  37 C :    0.236645
  38 F :   -0.154255
  39 F :   -0.156076
  40 F :   -0.153005
  41 F :   -0.161454
  42 F :   -0.158637
  43 C :    0.116198
  44 C :   -0.261194
  45 C :    0.212477
  46 C :    0.167423
  47 C :    0.135451
  48 C :    0.163867
  49 C :    0.244212
  50 F :   -0.155327
  51 F :   -0.156999
  52 F :   -0.154113
  53 F :   -0.157939
  54 F :   -0.157504
  55 C :   -0.099744
  56 C :   -0.018264
  57 C :    0.072310
  58 C :    0.160454
  59 C :   -0.223945
  60 C :    0.034907
  61 C :    0.092577
  62 C :   -0.277986
  63 S :    0.125519
  64 C :    0.126171
  65 Cl:   -0.086041
  66 C :   -0.178502
  67 C :    0.060398
  68 C :    0.133447
  69 C :   -0.125772
  70 S :    0.118484
  71 C :   -0.208212
  72 C :    0.030923
  73 C :    0.086730
  74 C :   -0.267045
  75 S :    0.136588
  76 C :    0.120103
  77 Cl:   -0.090229
  78 C :    0.003396
  79 C :   -0.047013
  80 S :    0.112021
  81 H :    0.019267
  82 H :    0.011853
  83 H :   -0.005418
  84 H :   -0.010695
  85 H :    0.022929
  86 H :    0.188177
  87 H :    0.033942
  88 H :   -0.011850
  89 H :    0.012305
  90 H :    0.019963
  91 H :    0.010110
  92 H :    0.019978
  93 H :    0.007201
  94 H :    0.026109
  95 H :   -0.023059
  96 H :   -0.005525
  97 H :   -0.012857
  98 H :   -0.018355
  99 H :   -0.006799
 100 H :    0.039838
 101 H :    0.037450
 102 H :    0.013559
 103 H :   -0.005099
 104 H :    0.024155
 105 H :    0.031283
 106 H :    0.037316
 107 H :   -0.012331
 108 H :    0.027171
Sum of atomic charges:    0.0000000

LOEWDIN ATOMIC CHARGES
----------------------
   0 C :    0.048817
   1 N :   -0.093750
   2 C :    0.051654
   3 C :   -0.061848
   4 C :    0.031539
   5 N :   -0.090968
   6 C :   -0.039084
   7 C :   -0.015214
   8 C :   -0.166420
   9 C :   -0.097060
  10 C :    0.076641
  11 O :   -0.136848
  12 O :   -0.027695
  13 C :   -0.060709
  14 C :   -0.183030
  15 S :    0.460131
  16 C :   -0.164103
  17 S :    0.436491
  18 C :   -0.199394
  19 C :   -0.034261
  20 C :   -0.041907
  21 C :   -0.034523
  22 C :   -0.024976
  23 C :   -0.021928
  24 C :   -0.037332
  25 C :   -0.190489
  26 S :    0.439156
  27 C :   -0.175329
  28 C :   -0.040278
  29 C :   -0.018883
  30 C :   -0.039891
  31 C :    0.000868
  32 C :   -0.077349
  33 C :    0.061146
  34 C :    0.019627
  35 C :    0.041324
  36 C :    0.027804
  37 C :    0.069427
  38 F :   -0.031156
  39 F :   -0.035838
  40 F :   -0.028438
  41 F :   -0.038426
  42 F :   -0.037970
  43 C :   -0.033069
  44 C :   -0.091784
  45 C :    0.053981
  46 C :    0.025429
  47 C :    0.040931
  48 C :    0.026732
  49 C :    0.069503
  50 F :   -0.032021
  51 F :   -0.037298
  52 F :   -0.032032
  53 F :   -0.037709
  54 F :   -0.037425
  55 C :   -0.151403
  56 C :   -0.060506
  57 C :   -0.042239
  58 C :   -0.051836
  59 C :   -0.177474
  60 C :   -0.070448
  61 C :   -0.179504
  62 C :   -0.202263
  63 S :    0.450719
  64 C :   -0.061352
  65 Cl:    0.129589
  66 C :   -0.147828
  67 C :   -0.041787
  68 C :   -0.055047
  69 C :   -0.141160
  70 S :    0.425522
  71 C :   -0.171012
  72 C :   -0.077423
  73 C :   -0.177464
  74 C :   -0.199654
  75 S :    0.445311
  76 C :   -0.061558
  77 Cl:    0.127288
  78 C :   -0.070725
  79 C :   -0.160487
  80 S :    0.415820
  81 H :    0.020273
  82 H :    0.027255
  83 H :    0.033554
  84 H :    0.022951
  85 H :    0.037788
  86 H :    0.095119
  87 H :    0.023818
  88 H :    0.030286
  89 H :    0.024455
  90 H :    0.029367
  91 H :    0.023536
  92 H :    0.027625
  93 H :    0.022179
  94 H :    0.032802
  95 H :    0.030068
  96 H :    0.030410
  97 H :    0.027529
  98 H :    0.010954
  99 H :    0.027476
 100 H :    0.041370
 101 H :    0.039182
 102 H :    0.031140
 103 H :    0.026911
 104 H :    0.033839
 105 H :    0.037634
 106 H :    0.039733
 107 H :    0.019211
 108 H :    0.025694

  Mayer bond orders larger than 0.100000
B(  0-C ,  1-N ) :   1.5013 B(  0-C ,  5-N ) :   1.5263 B(  0-C , 81-H ) :   0.9747
B(  1-N ,  2-C ) :   1.5440 B(  2-C ,  3-C ) :   1.3817 B(  2-C , 82-H ) :   0.9813
B(  3-C ,  4-C ) :   1.3446 B(  3-C , 83-H ) :   0.9766 B(  4-C ,  5-N ) :   1.5169
B(  4-C ,  6-C ) :   1.0828 B(  6-C ,  7-C ) :   1.7279 B(  6-C , 84-H ) :   0.9759
B(  7-C ,  8-C ) :   1.0988 B(  7-C , 85-H ) :   0.9543 B(  8-C ,  9-C ) :   1.5012
B(  8-C , 15-S ) :   1.1445 B(  9-C , 10-C ) :   0.8799 B(  9-C , 13-C ) :   1.2775
B( 10-C , 11-O ) :   2.2008 B( 10-C , 12-O ) :   1.2033 B( 12-O , 86-H ) :   0.9480
B( 13-C , 14-C ) :   1.5362 B( 13-C , 16-C ) :   1.0519 B( 14-C , 15-S ) :   1.1533
B( 14-C , 87-H ) :   0.9630 B( 16-C , 17-S ) :   1.1131 B( 16-C , 20-C ) :   1.5051
B( 17-S , 18-C ) :   1.0771 B( 18-C , 19-C ) :   1.5487 B( 18-C , 25-C ) :   1.1651
B( 19-C , 20-C ) :   1.3063 B( 19-C , 21-C ) :   0.9409 B( 20-C , 88-H ) :   0.9861
B( 21-C , 22-C ) :   1.0341 B( 21-C , 23-C ) :   1.0352 B( 21-C , 24-C ) :   0.9399
B( 22-C , 89-H ) :   0.9653 B( 22-C , 90-H ) :   0.9645 B( 22-C , 91-H ) :   0.9644
B( 23-C , 92-H ) :   0.9642 B( 23-C , 93-H ) :   0.9637 B( 23-C , 94-H ) :   0.9639
B( 24-C , 25-C ) :   1.5167 B( 24-C , 28-C ) :   1.3314 B( 25-C , 26-S ) :   1.0971
B( 26-S , 27-C ) :   1.0972 B( 27-C , 28-C ) :   1.4461 B( 27-C , 29-C ) :   1.1429
B( 28-C , 95-H ) :   0.9983 B( 29-C , 30-C ) :   1.6812 B( 29-C , 96-H ) :   0.9474
B( 30-C , 31-C ) :   1.1334 B( 30-C , 97-H ) :   0.9576 B( 31-C , 32-C ) :   0.9307
B( 31-C , 43-C ) :   1.7187 B( 32-C , 33-C ) :   1.3567 B( 32-C , 35-C ) :   0.1107
B( 32-C , 37-C ) :   1.3385 B( 33-C , 34-C ) :   1.2730 B( 33-C , 42-F ) :   1.1733
B( 34-C , 35-C ) :   1.2844 B( 34-C , 41-F ) :   1.1579 B( 35-C , 36-C ) :   1.2717
B( 35-C , 40-F ) :   1.1600 B( 36-C , 37-C ) :   1.2963 B( 36-C , 39-F ) :   1.1768
B( 37-C , 38-F ) :   1.1664 B( 43-C , 44-C ) :   0.9280 B( 43-C , 55-C ) :   1.0830
B( 44-C , 45-C ) :   1.3282 B( 44-C , 47-C ) :   0.1106 B( 44-C , 49-C ) :   1.3308
B( 45-C , 46-C ) :   1.2700 B( 45-C , 54-F ) :   1.1792 B( 46-C , 47-C ) :   1.2827
B( 46-C , 53-F ) :   1.1741 B( 47-C , 48-C ) :   1.2702 B( 47-C , 52-F ) :   1.1735
B( 48-C , 49-C ) :   1.2998 B( 48-C , 51-F ) :   1.1748 B( 49-C , 50-F ) :   1.1661
B( 55-C , 56-C ) :   1.5894 B( 55-C , 70-S ) :   1.0730 B( 56-C , 57-C ) :   1.1737
B( 56-C , 98-H ) :   0.9638 B( 57-C , 58-C ) :   1.3068 B( 57-C , 69-C ) :   1.2798
B( 58-C , 59-C ) :   0.9818 B( 58-C , 66-C ) :   1.4166 B( 59-C , 60-C ) :   1.5522
B( 59-C , 63-S ) :   1.1302 B( 60-C , 61-C ) :   1.2342 B( 60-C , 99-H ) :   0.9949
B( 61-C , 62-C ) :   1.5843 B( 61-C , 65-Cl) :   1.0371 B( 62-C , 63-S ) :   1.1323
B( 62-C , 64-C ) :   1.0932 B( 64-C ,100-H ) :   0.9491 B( 64-C ,101-H ) :   0.9464
B( 64-C ,102-H ) :   0.9413 B( 66-C , 67-C ) :   1.2748 B( 66-C , 80-S ) :   1.0724
B( 67-C , 68-C ) :   1.3088 B( 67-C , 78-C ) :   1.1851 B( 68-C , 69-C ) :   1.4141
B( 68-C , 71-C ) :   0.9823 B( 69-C , 70-S ) :   1.0621 B( 71-C , 72-C ) :   1.5550
B( 71-C , 75-S ) :   1.1318 B( 72-C , 73-C ) :   1.2193 B( 72-C ,103-H ) :   0.9947
B( 73-C , 74-C ) :   1.6068 B( 73-C , 77-Cl) :   1.0041 B( 74-C , 75-S ) :   1.1288
B( 74-C , 76-C ) :   1.0816 B( 76-C ,104-H ) :   0.9447 B( 76-C ,105-H ) :   0.9486
B( 76-C ,106-H ) :   0.9496 B( 78-C , 79-C ) :   1.6470 B( 78-C ,107-H ) :   0.9764
B( 79-C , 80-S ) :   1.1091 B( 79-C ,108-H ) :   0.9663

-----------------------------------------------------------------------------
         ABSORPTION SPECTRUM VIA TRANSITION ELECTRIC DIPOLE MOMENTS
-----------------------------------------------------------------------------
State   Energy  Wavelength   fosc         T2         TX        TY        TZ
        (cm-1)    (nm)                  (au**2)     (au)      (au)      (au)
-----------------------------------------------------------------------------
   0   19327.8    517.4   1.616044386  27.52621  -4.41939  -0.43569   2.79382
   1   23374.3    427.8   0.190118285   2.67770  -0.37738  -0.23570   1.57472
   2   23861.3    419.1   0.056418550   0.77840  -0.73126  -0.49075   0.05314
   3   28115.7    355.7   0.267695520   3.13450   1.11593  -0.20006  -1.35984
   4   28940.8    345.5   0.132607823   1.50846   0.05412   0.65000  -1.04069
   5   29718.8    336.5   0.959264593  10.62633   2.94620  -1.11750   0.83512
   6   32020.7    312.3   0.120344281   1.23729   0.18082   0.28180  -1.06074
   7   32505.6    307.6   0.223652664   2.26512  -1.32360  -0.52484   0.48758
   8   32927.4    303.7   0.005446155   0.05445   0.00616  -0.04739   0.22840
   9   32928.5    303.7   0.066953680   0.66939  -0.78158  -0.15971   0.18168
  10   33147.8    301.7   0.011246996   0.11170  -0.11618   0.26014  -0.17473
  11   33759.8    296.2   0.219856177   2.14395   1.24981   0.18181  -0.74085
  12   34302.3    291.5   0.026567144   0.25497   0.34684   0.07715  -0.35878
  13   34684.7    288.3   0.097524814   0.92566  -0.83681  -0.15142   0.44997
  14   34775.5    287.6   0.182739794   1.72996  -1.24039  -0.33986   0.27548
  15   35507.4    281.6   0.062332237   0.57792   0.64696  -0.03694  -0.39749
  16   35789.0    279.4   0.005505212   0.05064  -0.00717   0.05687  -0.21761
  17   36046.4    277.4   0.041876984   0.38246   0.57947  -0.20631   0.06416
  18   36355.9    275.1   0.021049475   0.19061   0.32455   0.17254   0.23560
  19   36842.4    271.4   0.135656738   1.21219  -0.44767  -0.45069   0.89925
  20   37025.8    270.1   0.216237713   1.92266  -1.30422   0.37249   0.28794
  21   37296.6    268.1   0.046942389   0.41435  -0.35660  -0.08991   0.52831
  22   37695.3    265.3   0.162630968   1.42034  -0.98584  -0.02003   0.66938
  23   38115.3    262.4   0.009253500   0.07992   0.21466   0.17312  -0.06226
  24   38513.3    259.7   0.046996101   0.40172   0.35917   0.06780  -0.51781
  25   38647.1    258.8   0.022936462   0.19538  -0.17889  -0.31201   0.25697
  26   38908.8    257.0   0.067180903   0.56843  -0.42944  -0.19492   0.58823
  27   39132.7    255.5   0.065217256   0.54865  -0.07105   0.10766  -0.72939
  28   39470.5    253.4   0.032827613   0.27381  -0.28202   0.39505  -0.19547
  29   39823.5    251.1   0.001075329   0.00889   0.01619  -0.09288   0.00039
  30   39961.0    250.2   0.090448085   0.74514   0.12596  -0.83873   0.16062
  31   40049.1    249.7   0.058727341   0.48275   0.34822   0.49014  -0.34821

FINAL SINGLE POINT ENERGY     -7187.789867456767

DIPOLE MOMENT
-------------
                                X             Y             Z
Electronic contribution:     78.40007       9.51799     -54.62148
Nuclear contribution   :    -78.93421      -8.11018      56.57321
                        -----------------------------------------
Total Dipole Moment    :     -0.53413       1.40781       1.95173
                        -----------------------------------------
Magnitude (a.u.)       :      2.46505
Magnitude (Debye)      :      6.26566

Rotational constants in cm-1:     0.001202     0.000215     0.000192
Rotational constants in MHz :    36.048882     6.457575     5.741140

                             ****ORCA TERMINATED NORMALLY****
TOTAL RUN TIME: 0 days 0 hours 11 minutes 18 seconds 529 msec
