                         Program Version 4.2.0 -  RELEASE  -
|  1> # ORCA input file
|  2> # SCF done       -157.973943996617          0.000650938486
|  3> ! CAM-B3LYP def2-SVP def2/J RIJCOSX Grid4 TightSCF
|  4> %maxcore 5000
|  5> %tddft
|  6>     Mode sTDDFT
|  7>     Ethresh 5.0
|  8>     maxcore 5000
|  9> end
| 10>
| 11> %pal
| 12>   nprocs 6
| 13>   end
| 14> * xyz 0 1
| 15>    C       -3.40539        -2.96860        -4.87828
| 16>    C       -3.27288        -2.59489        -3.56452
| 17>    C       -3.61109        -1.28169        -2.99490
| 18>    O       -3.47525        -1.02453        -1.81751
| 19>    O       -4.08495        -0.34786        -3.82307
| 20>    C       -2.74237        -3.67157        -2.76072
| 21>    C       -2.50320        -4.79427        -3.50571
| 22>    S       -2.90882        -4.57327        -5.15938
| 23>    N       -2.54652        -3.47739        -1.41874
| 24>    C       -2.05796        -4.29965        -0.46847
| 25>    S       -1.51348        -5.91126        -0.78618
| 26>    C       -1.12081        -6.10801         0.89597
| 27>    N       -0.58251        -7.33662         1.27191
| 28>    O       -0.30085        -7.50833         2.44368
| 29>    O       -0.43342        -8.15933         0.37880
| 30>    C       -1.39594        -4.99794         1.64708
| 31>    C       -1.93545        -3.94244         0.88853
| 32>    C       -2.32226        -2.65864         1.40168
| 33>    C       -2.27834        -2.28979         2.69805
| 34>    C       -2.67796        -1.00390         3.16068
| 35>    C       -2.68271        -0.57541         4.48198
| 36>    C       -2.26867        -1.42435         5.52084
| 37>    N       -1.92031        -2.16235         6.32670
| 38>    C       -3.14308         0.76111         4.62367
| 39>    C       -3.47384         1.30757         3.38866
| 40>    S       -3.24057         0.23809         2.06182
| 41>    S       -4.05387         2.94100         3.43558
| 42>    C       -3.85394         2.90157         5.15781
| 43>    C       -3.36767         1.70334         5.67113
| 44>    C       -3.24122         1.76298         7.08085
| 45>    C       -2.78304         0.73791         7.91615
| 46>    N       -2.41526        -0.06600         8.64906
| 47>    C       -3.63704         3.00059         7.60714
| 48>    S       -4.16490         4.10600         6.35022
| 49>    C       -3.63125         3.33726         8.96815
| 50>    C       -4.02356         4.52317         9.53779
| 51>    C       -4.02020         4.81302        10.92555
| 52>    C       -4.47328         6.05842        11.23975
| 53>    C       -4.85524         6.82726        10.12017
| 54>    S       -4.61779         5.90870         8.64500
| 55>    C       -5.35866         8.11455        10.09511
| 56>    C       -5.61329         8.96732        11.19357
| 57>    C       -6.12915        10.18031        10.85177
| 58>    C       -6.31139        10.36940         9.46013
| 59>    S       -5.77807         8.91683         8.60518
| 60>    C       -6.77192        11.43160         8.72620
| 61>    C       -7.33194        12.65714         9.15141
| 62>    C       -7.60119        13.71635         8.27879
| 63>    C       -8.17833        14.78262         9.00975
| 64>    C       -8.61026        16.03307         8.62760
| 65>    C       -9.15717        16.86592         9.61750
| 66>    C       -9.66747        18.15403         9.55757
| 67>    C      -10.10649        18.54436        10.86331
| 68>    C       -9.86651        17.49281        11.72751
| 69>    C       -9.26993        16.41823        10.99496
| 70>    C       -8.84135        15.17766        11.38004
| 71>    C       -8.28213        14.34005        10.38881
| 72>    C       -7.76782        13.06077        10.46106
| 73>    C      -10.69588        19.80789        11.23542
| 74>    C      -10.90776        20.83464        10.41656
| 75>    H       -3.76954        -2.39767        -5.71160
| 76>    H       -4.15671        -0.64272        -4.73916
| 77>    H       -2.11728        -5.74186        -3.19528
| 78>    H       -2.82467        -2.53261        -1.12669
| 79>    H       -1.20604        -4.96327         2.70390
| 80>    H       -2.68220        -1.92860         0.68760
| 81>    H       -1.93757        -2.96872         3.46692
| 82>    H       -3.28197         2.56138         9.63825
| 83>    H       -3.68493         4.08547        11.64331
| 84>    H       -4.54092         6.44059        12.24253
| 85>    H       -5.40602         8.66405        12.20427
| 86>    H       -6.34821        10.95007        11.56757
| 87>    H       -6.69847        11.32242         7.65047
| 88>    H       -7.39324        13.72436         7.22473
| 89>    H       -8.53677        16.36893         7.60289
| 90>    H       -9.72635        18.76367         8.67468
| 91>    H      -10.08699        17.47376        12.77935
| 92>    H       -8.91952        14.83813        12.40356
| 93>    H       -7.74256        12.45455        11.34662
| 94>    H      -10.97397        19.89013        12.27904
| 95>    H      -10.64657        20.80189         9.37268
| 96>    H      -11.35157        21.75061        10.76622
| 97> *
| 98>
| 99>                          ****END OF INPUT****

CARTESIAN COORDINATES (ANGSTROEM)
---------------------------------
  C     -3.405390   -2.968600   -4.878280
  C     -3.272880   -2.594890   -3.564520
  C     -3.611090   -1.281690   -2.994900
  O     -3.475250   -1.024530   -1.817510
  O     -4.084950   -0.347860   -3.823070
  C     -2.742370   -3.671570   -2.760720
  C     -2.503200   -4.794270   -3.505710
  S     -2.908820   -4.573270   -5.159380
  N     -2.546520   -3.477390   -1.418740
  C     -2.057960   -4.299650   -0.468470
  S     -1.513480   -5.911260   -0.786180
  C     -1.120810   -6.108010    0.895970
  N     -0.582510   -7.336620    1.271910
  O     -0.300850   -7.508330    2.443680
  O     -0.433420   -8.159330    0.378800
  C     -1.395940   -4.997940    1.647080
  C     -1.935450   -3.942440    0.888530
  C     -2.322260   -2.658640    1.401680
  C     -2.278340   -2.289790    2.698050
  C     -2.677960   -1.003900    3.160680
  C     -2.682710   -0.575410    4.481980
  C     -2.268670   -1.424350    5.520840
  N     -1.920310   -2.162350    6.326700
  C     -3.143080    0.761110    4.623670
  C     -3.473840    1.307570    3.388660
  S     -3.240570    0.238090    2.061820
  S     -4.053870    2.941000    3.435580
  C     -3.853940    2.901570    5.157810
  C     -3.367670    1.703340    5.671130
  C     -3.241220    1.762980    7.080850
  C     -2.783040    0.737910    7.916150
  N     -2.415260   -0.066000    8.649060
  C     -3.637040    3.000590    7.607140
  S     -4.164900    4.106000    6.350220
  C     -3.631250    3.337260    8.968150
  C     -4.023560    4.523170    9.537790
  C     -4.020200    4.813020   10.925550
  C     -4.473280    6.058420   11.239750
  C     -4.855240    6.827260   10.120170
  S     -4.617790    5.908700    8.645000
  C     -5.358660    8.114550   10.095110
  C     -5.613290    8.967320   11.193570
  C     -6.129150   10.180310   10.851770
  C     -6.311390   10.369400    9.460130
  S     -5.778070    8.916830    8.605180
  C     -6.771920   11.431600    8.726200
  C     -7.331940   12.657140    9.151410
  C     -7.601190   13.716350    8.278790
  C     -8.178330   14.782620    9.009750
  C     -8.610260   16.033070    8.627600
  C     -9.157170   16.865920    9.617500
  C     -9.667470   18.154030    9.557570
  C    -10.106490   18.544360   10.863310
  C     -9.866510   17.492810   11.727510
  C     -9.269930   16.418230   10.994960
  C     -8.841350   15.177660   11.380040
  C     -8.282130   14.340050   10.388810
  C     -7.767820   13.060770   10.461060
  C    -10.695880   19.807890   11.235420
  C    -10.907760   20.834640   10.416560
  H     -3.769540   -2.397670   -5.711600
  H     -4.156710   -0.642720   -4.739160
  H     -2.117280   -5.741860   -3.195280
  H     -2.824670   -2.532610   -1.126690
  H     -1.206040   -4.963270    2.703900
  H     -2.682200   -1.928600    0.687600
  H     -1.937570   -2.968720    3.466920
  H     -3.281970    2.561380    9.638250
  H     -3.684930    4.085470   11.643310
  H     -4.540920    6.440590   12.242530
  H     -5.406020    8.664050   12.204270
  H     -6.348210   10.950070   11.567570
  H     -6.698470   11.322420    7.650470
  H     -7.393240   13.724360    7.224730
  H     -8.536770   16.368930    7.602890
  H     -9.726350   18.763670    8.674680
  H    -10.086990   17.473760   12.779350
  H     -8.919520   14.838130   12.403560
  H     -7.742560   12.454550   11.346620
  H    -10.973970   19.890130   12.279040
  H    -10.646570   20.801890    9.372680
  H    -11.351570   21.750610   10.766220

 Total Charge           Charge          ....    0
 Multiplicity           Mult            ....    1
 Number of Electrons    NEL             ....  464
 Basis Dimension        Dim             ....  978

ORBITAL ENERGIES
----------------

  NO   OCC          E(Eh)            E(eV)
   0   2.0000     -88.991631     -2421.5854
   1   2.0000     -88.978778     -2421.2356
   2   2.0000     -88.972858     -2421.0745
   3   2.0000     -88.970936     -2421.0222
   4   2.0000     -88.968993     -2420.9694
   5   2.0000     -88.945895     -2420.3409
   6   2.0000     -88.942762     -2420.2556
   7   2.0000     -19.289448      -524.8926
   8   2.0000     -19.233795      -523.3782
   9   2.0000     -19.224165      -523.1161
  10   2.0000     -19.223794      -523.1060
  11   2.0000     -14.636242      -398.2724
  12   2.0000     -14.469330      -393.7305
  13   2.0000     -14.390265      -391.5790
  14   2.0000     -14.384899      -391.4330
  15   2.0000     -10.439206      -284.0652
  16   2.0000     -10.365705      -282.0652
  17   2.0000     -10.353008      -281.7197
  18   2.0000     -10.342809      -281.4421
  19   2.0000     -10.330088      -281.0960
  20   2.0000     -10.323828      -280.9257
  21   2.0000     -10.320471      -280.8343
  22   2.0000     -10.320303      -280.8297
  23   2.0000     -10.319543      -280.8091
  24   2.0000     -10.318228      -280.7733
  25   2.0000     -10.314403      -280.6692
  26   2.0000     -10.313070      -280.6329
  27   2.0000     -10.309718      -280.5417
  28   2.0000     -10.308111      -280.4980
  29   2.0000     -10.306394      -280.4512
  30   2.0000     -10.306102      -280.4433
  31   2.0000     -10.305953      -280.4392
  32   2.0000     -10.304479      -280.3991
  33   2.0000     -10.300519      -280.2914
  34   2.0000     -10.299957      -280.2761
  35   2.0000     -10.295171      -280.1458
  36   2.0000     -10.294113      -280.1171
  37   2.0000     -10.292239      -280.0661
  38   2.0000     -10.291822      -280.0547
  39   2.0000     -10.290449      -280.0174
  40   2.0000     -10.290116      -280.0083
  41   2.0000     -10.290037      -280.0061
  42   2.0000     -10.289661      -279.9959
  43   2.0000     -10.289227      -279.9841
  44   2.0000     -10.286700      -279.9153
  45   2.0000     -10.286373      -279.9064
  46   2.0000     -10.285317      -279.8777
  47   2.0000     -10.285158      -279.8734
  48   2.0000     -10.279728      -279.7256
  49   2.0000     -10.279095      -279.7084
  50   2.0000     -10.278601      -279.6950
  51   2.0000     -10.278396      -279.6894
  52   2.0000     -10.278037      -279.6796
  53   2.0000     -10.274038      -279.5708
  54   2.0000     -10.273541      -279.5573
  55   2.0000     -10.271867      -279.5117
  56   2.0000     -10.271790      -279.5096
  57   2.0000     -10.271489      -279.5014
  58   2.0000     -10.270694      -279.4798
  59   2.0000     -10.262549      -279.2581
  60   2.0000      -8.087559      -220.0737
  61   2.0000      -8.073948      -219.7033
  62   2.0000      -8.067975      -219.5408
  63   2.0000      -8.066050      -219.4884
  64   2.0000      -8.063863      -219.4289
  65   2.0000      -8.042095      -218.8365
  66   2.0000      -8.039347      -218.7618
  67   2.0000      -6.056780      -164.8134
  68   2.0000      -6.052321      -164.6920
  69   2.0000      -6.050065      -164.6306
  70   2.0000      -6.043633      -164.4556
  71   2.0000      -6.039149      -164.3336
  72   2.0000      -6.037962      -164.3013
  73   2.0000      -6.035598      -164.2370
  74   2.0000      -6.035486      -164.2339
  75   2.0000      -6.033729      -164.1861
  76   2.0000      -6.033516      -164.1803
  77   2.0000      -6.031463      -164.1244
  78   2.0000      -6.029207      -164.0631
  79   2.0000      -6.028792      -164.0518
  80   2.0000      -6.027634      -164.0203
  81   2.0000      -6.025409      -163.9597
  82   2.0000      -6.011876      -163.5914
  83   2.0000      -6.009123      -163.5166
  84   2.0000      -6.007751      -163.4792
  85   2.0000      -6.005110      -163.4074
  86   2.0000      -6.002982      -163.3494
  87   2.0000      -6.000106      -163.2712
  88   2.0000      -1.304461       -35.4962
  89   2.0000      -1.215738       -33.0819
  90   2.0000      -1.131082       -30.7783
  91   2.0000      -1.123444       -30.5705
  92   2.0000      -1.085286       -29.5321
  93   2.0000      -1.025684       -27.9103
  94   2.0000      -1.014806       -27.6143
  95   2.0000      -0.997263       -27.1369
  96   2.0000      -0.993318       -27.0296
  97   2.0000      -0.991231       -26.9728
  98   2.0000      -0.989834       -26.9348
  99   2.0000      -0.975189       -26.5362
 100   2.0000      -0.972645       -26.4670
 101   2.0000      -0.965487       -26.2722
 102   2.0000      -0.963732       -26.2245
 103   2.0000      -0.937704       -25.5162
 104   2.0000      -0.910763       -24.7831
 105   2.0000      -0.905783       -24.6476
 106   2.0000      -0.889181       -24.1959
 107   2.0000      -0.887659       -24.1544
 108   2.0000      -0.878287       -23.8994
 109   2.0000      -0.871463       -23.7137
 110   2.0000      -0.869346       -23.6561
 111   2.0000      -0.864873       -23.5344
 112   2.0000      -0.856363       -23.3028
 113   2.0000      -0.848705       -23.0944
 114   2.0000      -0.848068       -23.0771
 115   2.0000      -0.846235       -23.0272
 116   2.0000      -0.842403       -22.9229
 117   2.0000      -0.822737       -22.3878
 118   2.0000      -0.815577       -22.1930
 119   2.0000      -0.804098       -21.8806
 120   2.0000      -0.800410       -21.7803
 121   2.0000      -0.785933       -21.3863
 122   2.0000      -0.773067       -21.0362
 123   2.0000      -0.761038       -20.7089
 124   2.0000      -0.749776       -20.4024
 125   2.0000      -0.747868       -20.3505
 126   2.0000      -0.739076       -20.1113
 127   2.0000      -0.729604       -19.8535
 128   2.0000      -0.717268       -19.5178
 129   2.0000      -0.704692       -19.1756
 130   2.0000      -0.697809       -18.9883
 131   2.0000      -0.691210       -18.8088
 132   2.0000      -0.682712       -18.5775
 133   2.0000      -0.678828       -18.4719
 134   2.0000      -0.674046       -18.3417
 135   2.0000      -0.671905       -18.2835
 136   2.0000      -0.659955       -17.9583
 137   2.0000      -0.655276       -17.8310
 138   2.0000      -0.646328       -17.5875
 139   2.0000      -0.645718       -17.5709
 140   2.0000      -0.637434       -17.3455
 141   2.0000      -0.630978       -17.1698
 142   2.0000      -0.629033       -17.1169
 143   2.0000      -0.624811       -17.0020
 144   2.0000      -0.624042       -16.9810
 145   2.0000      -0.617570       -16.8049
 146   2.0000      -0.614186       -16.7128
 147   2.0000      -0.609802       -16.5936
 148   2.0000      -0.596277       -16.2255
 149   2.0000      -0.589236       -16.0339
 150   2.0000      -0.586430       -15.9576
 151   2.0000      -0.584362       -15.9013
 152   2.0000      -0.581264       -15.8170
 153   2.0000      -0.571780       -15.5589
 154   2.0000      -0.571698       -15.5567
 155   2.0000      -0.570853       -15.5337
 156   2.0000      -0.564688       -15.3659
 157   2.0000      -0.557871       -15.1804
 158   2.0000      -0.549496       -14.9525
 159   2.0000      -0.545736       -14.8502
 160   2.0000      -0.542273       -14.7560
 161   2.0000      -0.536305       -14.5936
 162   2.0000      -0.534607       -14.5474
 163   2.0000      -0.527169       -14.3450
 164   2.0000      -0.525820       -14.3083
 165   2.0000      -0.523640       -14.2490
 166   2.0000      -0.520119       -14.1532
 167   2.0000      -0.516087       -14.0434
 168   2.0000      -0.509587       -13.8666
 169   2.0000      -0.505042       -13.7429
 170   2.0000      -0.502914       -13.6850
 171   2.0000      -0.501597       -13.6491
 172   2.0000      -0.500094       -13.6083
 173   2.0000      -0.497656       -13.5419
 174   2.0000      -0.493484       -13.4284
 175   2.0000      -0.492720       -13.4076
 176   2.0000      -0.488336       -13.2883
 177   2.0000      -0.487782       -13.2732
 178   2.0000      -0.487185       -13.2570
 179   2.0000      -0.483357       -13.1528
 180   2.0000      -0.481680       -13.1072
 181   2.0000      -0.476577       -12.9683
 182   2.0000      -0.474062       -12.8999
 183   2.0000      -0.471081       -12.8188
 184   2.0000      -0.467131       -12.7113
 185   2.0000      -0.463677       -12.6173
 186   2.0000      -0.463126       -12.6023
 187   2.0000      -0.460927       -12.5425
 188   2.0000      -0.456198       -12.4138
 189   2.0000      -0.453660       -12.3447
 190   2.0000      -0.451349       -12.2818
 191   2.0000      -0.444775       -12.1029
 192   2.0000      -0.443612       -12.0713
 193   2.0000      -0.440559       -11.9882
 194   2.0000      -0.438217       -11.9245
 195   2.0000      -0.434211       -11.8155
 196   2.0000      -0.427876       -11.6431
 197   2.0000      -0.425786       -11.5862
 198   2.0000      -0.425126       -11.5683
 199   2.0000      -0.423983       -11.5372
 200   2.0000      -0.419475       -11.4145
 201   2.0000      -0.417864       -11.3707
 202   2.0000      -0.417556       -11.3623
 203   2.0000      -0.413675       -11.2567
 204   2.0000      -0.411880       -11.2078
 205   2.0000      -0.409980       -11.1561
 206   2.0000      -0.405832       -11.0433
 207   2.0000      -0.402896       -10.9634
 208   2.0000      -0.393751       -10.7145
 209   2.0000      -0.389033       -10.5861
 210   2.0000      -0.386851       -10.5267
 211   2.0000      -0.374346       -10.1865
 212   2.0000      -0.373809       -10.1719
 213   2.0000      -0.372519       -10.1368
 214   2.0000      -0.372276       -10.1302
 215   2.0000      -0.364658        -9.9229
 216   2.0000      -0.360093        -9.7986
 217   2.0000      -0.353724        -9.6253
 218   2.0000      -0.352735        -9.5984
 219   2.0000      -0.351098        -9.5538
 220   2.0000      -0.340868        -9.2755
 221   2.0000      -0.338225        -9.2036
 222   2.0000      -0.331901        -9.0315
 223   2.0000      -0.325507        -8.8575
 224   2.0000      -0.317919        -8.6510
 225   2.0000      -0.302790        -8.2393
 226   2.0000      -0.284744        -7.7483
 227   2.0000      -0.281016        -7.6468
 228   2.0000      -0.274749        -7.4763
 229   2.0000      -0.252285        -6.8650
 230   2.0000      -0.245112        -6.6698
 231   2.0000      -0.205046        -5.5796
 232   0.0000      -0.102285        -2.7833
 233   0.0000      -0.078231        -2.1288
 234   0.0000      -0.044664        -1.2154
 235   0.0000      -0.042052        -1.1443
 236   0.0000      -0.038780        -1.0552

MULLIKEN ATOMIC CHARGES
-----------------------
   0 C :   -0.151219
   1 C :   -0.027313
   2 C :    0.208611
   3 O :   -0.225325
   4 O :   -0.134155
   5 C :    0.116882
   6 C :   -0.213126
   7 S :    0.172015
   8 N :   -0.016659
   9 C :   -0.081473
  10 S :    0.122627
  11 C :   -0.002048
  12 N :    0.277987
  13 O :   -0.251259
  14 O :   -0.278015
  15 C :    0.014296
  16 C :    0.113702
  17 C :   -0.051524
  18 C :   -0.012242
  19 C :   -0.084159
  20 C :   -0.026135
  21 C :   -0.322165
  22 N :    0.205169
  23 C :    0.160191
  24 C :   -0.231057
  25 S :    0.148365
  26 S :    0.177784
  27 C :   -0.231587
  28 C :    0.166700
  29 C :   -0.034278
  30 C :   -0.326655
  31 N :    0.191763
  32 C :   -0.065051
  33 S :    0.135231
  34 C :   -0.057795
  35 C :   -0.021998
  36 C :    0.027191
  37 C :    0.032579
  38 C :   -0.037770
  39 S :    0.057464
  40 C :   -0.036200
  41 C :    0.008651
  42 C :    0.035175
  43 C :   -0.066761
  44 S :    0.085893
  45 C :    0.039271
  46 C :    0.066104
  47 C :   -0.035760
  48 C :    0.067500
  49 C :   -0.001649
  50 C :    0.048991
  51 C :   -0.020437
  52 C :    0.061944
  53 C :   -0.024875
  54 C :    0.061856
  55 C :   -0.006576
  56 C :    0.050711
  57 C :   -0.037027
  58 C :    0.011656
  59 C :   -0.024039
  60 H :    0.033828
  61 H :    0.183137
  62 H :    0.050414
  63 H :    0.170247
  64 H :    0.018070
  65 H :   -0.001770
  66 H :    0.012295
  67 H :    0.011638
  68 H :   -0.006528
  69 H :   -0.013518
  70 H :   -0.013918
  71 H :   -0.018430
  72 H :   -0.016829
  73 H :   -0.026706
  74 H :   -0.023789
  75 H :   -0.021179
  76 H :   -0.026115
  77 H :   -0.025284
  78 H :   -0.028059
  79 H :   -0.018044
  80 H :    0.008964
  81 H :    0.021599
Sum of atomic charges:   -0.0000000

LOEWDIN ATOMIC CHARGES
----------------------
   0 C :   -0.173492
   1 C :   -0.138764
   2 C :    0.104310
   3 O :   -0.169329
   4 O :   -0.010029
   5 C :    0.005738
   6 C :   -0.242951
   7 S :    0.495357
   8 N :    0.031896
   9 C :   -0.087916
  10 S :    0.461792
  11 C :   -0.217306
  12 N :    0.273887
  13 O :   -0.217506
  14 O :   -0.245098
  15 C :    0.011503
  16 C :   -0.110390
  17 C :   -0.019007
  18 C :   -0.041791
  19 C :   -0.126916
  20 C :   -0.100912
  21 C :   -0.040480
  22 N :   -0.039075
  23 C :   -0.064053
  24 C :   -0.332789
  25 S :    0.447470
  26 S :    0.416004
  27 C :   -0.342684
  28 C :   -0.059452
  29 C :   -0.113613
  30 C :   -0.041574
  31 N :   -0.049356
  32 C :   -0.127011
  33 S :    0.433647
  34 C :   -0.087364
  35 C :   -0.137945
  36 C :   -0.038785
  37 C :   -0.028023
  38 C :   -0.191289
  39 S :    0.364431
  40 C :   -0.167307
  41 C :   -0.032112
  42 C :   -0.032802
  43 C :   -0.155975
  44 S :    0.371911
  45 C :   -0.034955
  46 C :   -0.060521
  47 C :    0.012236
  48 C :   -0.059751
  49 C :    0.072938
  50 C :   -0.062643
  51 C :    0.050780
  52 C :   -0.057225
  53 C :    0.014837
  54 C :   -0.055548
  55 C :    0.067258
  56 C :   -0.057732
  57 C :    0.029767
  58 C :   -0.021272
  59 C :   -0.052294
  60 H :    0.023380
  61 H :    0.097583
  62 H :    0.016497
  63 H :    0.077748
  64 H :    0.048326
  65 H :    0.022263
  66 H :    0.041443
  67 H :    0.048608
  68 H :    0.036021
  69 H :    0.032295
  70 H :    0.032107
  71 H :    0.030089
  72 H :    0.032425
  73 H :    0.024337
  74 H :    0.035460
  75 H :    0.026025
  76 H :    0.024776
  77 H :    0.034759
  78 H :    0.022017
  79 H :    0.029850
  80 H :    0.018105
  81 H :    0.025163

  Mayer bond orders larger than 0.100000
B(  0-C ,  1-C ) :   1.4718 B(  0-C ,  7-S ) :   1.2551 B(  0-C , 60-H ) :   0.9659
B(  1-C ,  2-C ) :   0.9510 B(  1-C ,  5-C ) :   1.2206 B(  2-C ,  3-O ) :   1.9926
B(  2-C ,  4-O ) :   1.2925 B(  3-O , 63-H ) :   0.1228 B(  4-O , 61-H ) :   0.9530
B(  5-C ,  6-C ) :   1.5224 B(  5-C ,  8-N ) :   1.1741 B(  6-C ,  7-S ) :   1.1308
B(  6-C , 62-H ) :   0.9633 B(  8-N ,  9-C ) :   1.2558 B(  8-N , 63-H ) :   0.8278
B(  9-C , 10-S ) :   1.1335 B(  9-C , 16-C ) :   1.3340 B( 10-S , 11-C ) :   1.0621
B( 11-C , 12-N ) :   0.9839 B( 11-C , 15-C ) :   1.4794 B( 12-N , 13-O ) :   1.5295
B( 12-N , 14-O ) :   1.4973 B( 13-O , 14-O ) :   0.2517 B( 15-C , 16-C ) :   1.2487
B( 15-C , 64-H ) :   1.0008 B( 16-C , 17-C ) :   1.0772 B( 17-C , 18-C ) :   1.6961
B( 17-C , 65-H ) :   0.9683 B( 18-C , 19-C ) :   1.1736 B( 18-C , 66-H ) :   0.9646
B( 19-C , 20-C ) :   1.4887 B( 19-C , 25-S ) :   1.1139 B( 20-C , 21-C ) :   1.1773
B( 20-C , 23-C ) :   1.2424 B( 21-C , 22-N ) :   2.9822 B( 23-C , 24-C ) :   1.4154
B( 23-C , 28-C ) :   1.0521 B( 24-C , 25-S ) :   1.0881 B( 24-C , 26-S ) :   1.0845
B( 26-S , 27-C ) :   1.0759 B( 27-C , 28-C ) :   1.4056 B( 27-C , 33-S ) :   1.0842
B( 28-C , 29-C ) :   1.2669 B( 29-C , 30-C ) :   1.1946 B( 29-C , 32-C ) :   1.4368
B( 30-C , 31-N ) :   2.9707 B( 32-C , 33-S ) :   1.0975 B( 32-C , 34-C ) :   1.2357
B( 34-C , 35-C ) :   1.5405 B( 34-C , 67-H ) :   0.9604 B( 35-C , 36-C ) :   1.1512
B( 35-C , 39-S ) :   1.0459 B( 36-C , 37-C ) :   1.5794 B( 36-C , 68-H ) :   1.0009
B( 37-C , 38-C ) :   1.1948 B( 37-C , 69-H ) :   0.9931 B( 38-C , 39-S ) :   1.0307
B( 38-C , 40-C ) :   1.4939 B( 40-C , 41-C ) :   1.1907 B( 40-C , 44-S ) :   1.0667
B( 41-C , 42-C ) :   1.6021 B( 41-C , 70-H ) :   0.9937 B( 42-C , 43-C ) :   1.1464
B( 42-C , 71-H ) :   0.9916 B( 43-C , 44-S ) :   1.0233 B( 43-C , 45-C ) :   1.5684
B( 45-C , 46-C ) :   1.1715 B( 45-C , 72-H ) :   0.9504 B( 46-C , 47-C ) :   1.4378
B( 46-C , 57-C ) :   1.1231 B( 47-C , 48-C ) :   1.1156 B( 47-C , 73-H ) :   1.0200
B( 48-C , 49-C ) :   1.4263 B( 48-C , 56-C ) :   1.1303 B( 49-C , 50-C ) :   1.1399
B( 49-C , 74-H ) :   1.0059 B( 50-C , 51-C ) :   1.4294 B( 50-C , 54-C ) :   1.1261
B( 51-C , 52-C ) :   1.1460 B( 51-C , 75-H ) :   1.0084 B( 52-C , 53-C ) :   1.5067
B( 52-C , 58-C ) :   1.0851 B( 53-C , 54-C ) :   1.0827 B( 53-C , 76-H ) :   1.0169
B( 54-C , 55-C ) :   1.4738 B( 55-C , 56-C ) :   1.1135 B( 55-C , 77-H ) :   1.0052
B( 56-C , 57-C ) :   1.4576 B( 57-C , 78-H ) :   1.0058 B( 58-C , 59-C ) :   1.9339
B( 58-C , 79-H ) :   0.9662 B( 59-C , 80-H ) :   0.9529 B( 59-C , 81-H ) :   0.9491

-----------------------------------------------------------------------------
         ABSORPTION SPECTRUM VIA TRANSITION ELECTRIC DIPOLE MOMENTS
-----------------------------------------------------------------------------
State   Energy  Wavelength   fosc         T2         TX        TY        TZ
        (cm-1)    (nm)                  (au**2)     (au)      (au)      (au)
-----------------------------------------------------------------------------
   0    6704.8   1491.5   0.028752953   1.41181   0.42901  -1.10672  -0.05408
   1   14224.5    703.0   2.258286272  52.26596   2.51196  -6.62127  -1.45421
   2   15515.3    644.5   0.008321650   0.17657  -0.05757   0.35493  -0.21745
   3   22474.1    445.0   0.213912992   3.13350   0.63452  -1.47264  -0.74980
   4   23901.3    418.4   0.027525449   0.37913  -0.16056   0.21612  -0.55375
   5   24255.3    412.3   0.059192921   0.80341   0.03625   0.30646   0.84154
   6   24596.7    406.6   0.012049670   0.16128   0.13949  -0.20725   0.31443
   7   25667.0    389.6   0.063742754   0.81758  -0.35528  -0.06346  -0.82905
   8   26172.1    382.1   0.457078220   5.74948  -0.88508   2.20797   0.30161
   9   26662.4    375.1   0.649770953   8.02299   0.36818   0.17252   2.80315
  10   26992.2    370.5   0.106692950   1.30129  -0.43727   0.78877  -0.69851
  11   27247.0    367.0   0.235563547   2.84619   0.60654  -1.57419   0.01516
  12   28013.1    357.0   0.016270047   0.19121   0.14110  -0.40340  -0.09256
  13   28379.3    352.4   0.192265061   2.23036   0.24166  -0.06224   1.47244
  14   28475.7    351.2   0.187848237   2.17174  -0.28310   1.23380   0.75454
  15   29395.5    340.2   0.006828090   0.07647  -0.00582   0.13899   0.23899
  16   29906.0    334.4   0.010745781   0.11829   0.15896  -0.24269   0.18472
  17   30477.7    328.1   0.003332789   0.03600   0.14236  -0.10033   0.07528
  18   31767.4    314.8   0.008296977   0.08598  -0.09424   0.26593  -0.07990
  19   32179.2    310.8   0.133910139   1.36998  -0.22903   0.47518   1.04486
  20   33265.2    300.6   0.262774928   2.60058   0.60840  -1.48453  -0.16311
  21   33407.0    299.3   0.000069865   0.00069   0.01868  -0.00545  -0.01760
  22   33801.0    295.8   0.206291333   2.00922  -0.47856   1.24269   0.48573
  23   34431.2    290.4   0.080538955   0.77007  -0.17299   0.51852   0.68650
  24   34975.4    285.9   0.051499979   0.48475   0.26561  -0.64314  -0.02387
  25   35408.7    282.4   0.085971353   0.79932  -0.30733   0.63284  -0.55171
  26   35710.2    280.0   0.215667080   1.98823   0.54064  -1.26712   0.30059
  27   35822.3    279.2   0.097226473   0.89353  -0.37040   0.65593  -0.57104
  28   36001.2    277.8   0.045010174   0.41159   0.05028  -0.01646   0.63937
  29   36652.9    272.8   0.039319889   0.35317   0.16390  -0.50715  -0.26288
  30   37182.0    268.9   0.105421064   0.93341   0.29322  -0.70033  -0.59747
  31   37243.6    268.5   0.002539033   0.02244   0.01444   0.03330   0.14535
  32   37749.6    264.9   0.069512454   0.60621  -0.31194   0.71280   0.02859
  33   37852.3    264.2   0.013155699   0.11442   0.07544   0.01334   0.32947
  34   38100.0    262.5   0.234738477   2.02831  -0.49194   1.28045   0.38308
  35   38485.9    259.8   0.057012982   0.48769   0.25110  -0.61475  -0.21616
  36   38745.8    258.1   0.000496474   0.00422  -0.02375   0.05158  -0.03153
  37   39506.9    253.1   0.035387047   0.29488   0.19416  -0.46667   0.19851
  38   40041.0    249.7   0.000133698   0.00110  -0.01259   0.03040  -0.00406
  39   40097.4    249.4   0.033027272   0.27116   0.11506  -0.44760  -0.23996
  40   40310.3    248.1   0.050996571   0.41649   0.10074  -0.40341  -0.49355

FINAL SINGLE POINT ENERGY     -5031.364533030158

DIPOLE MOMENT
-------------
                                X             Y             Z
Electronic contribution:     31.05936     -85.74086     -40.95646
Nuclear contribution   :    -33.75787      91.06454      37.81661
                        -----------------------------------------
Total Dipole Moment    :     -2.69851       5.32367      -3.13985
                        -----------------------------------------
Magnitude (a.u.)       :      6.74404
Magnitude (Debye)      :     17.14199

Rotational constants in cm-1:     0.002346     0.000215     0.000197
Rotational constants in MHz :    70.326741     6.452862     5.916763

                             ****ORCA TERMINATED NORMALLY****
TOTAL RUN TIME: 0 days 0 hours 8 minutes 14 seconds 655 msec
