                         Program Version 4.2.0 -  RELEASE  -
|  1> # ORCA input file
|  2> # SCF done       -144.403805663654          0.000560536966
|  3> ! CAM-B3LYP def2-SVP def2/J RIJCOSX Grid4 TightSCF
|  4> %maxcore 5000
|  5> %tddft
|  6>     Mode sTDDFT
|  7>     Ethresh 5.0
|  8>     maxcore 5000
|  9> end
| 10>
| 11> %pal
| 12>   nprocs 6
| 13>   end
| 14> * xyz 0 1
| 15>    C       -0.73678        -3.53448        -6.31722
| 16>    N        0.00610        -2.71983        -5.58681
| 17>    C       -0.42163        -2.49064        -4.35133
| 18>    C       -1.57396        -3.06423        -3.85017
| 19>    C       -2.28839        -3.91401        -4.70802
| 20>    N       -1.84561        -4.13817        -5.95389
| 21>    C       -3.50113        -4.56517        -4.28280
| 22>    C       -4.19630        -5.40028        -5.08214
| 23>    C       -5.38894        -6.07880        -4.72470
| 24>    S       -6.12803        -5.87813        -3.14392
| 25>    C       -7.37158        -6.97440        -3.57740
| 26>    C       -7.22599        -7.46911        -4.87320
| 27>    C       -6.10716        -6.96004        -5.51815
| 28>    C       -8.33835        -8.43725        -5.20417
| 29>    C       -9.18780        -7.93121        -6.37330
| 30>    C       -7.78880        -9.83548        -5.49931
| 31>    C       -9.11668        -8.41434        -3.90881
| 32>    C       -8.52350        -7.54797        -2.98997
| 33>    S       -9.36413        -7.48431        -1.49738
| 34>    C      -10.53337        -8.64416        -2.10191
| 35>    C      -10.25126        -9.03295        -3.40370
| 36>    C      -11.60791        -9.10051        -1.29881
| 37>    C      -11.85381        -8.68825        -0.03460
| 38>    C      -12.91349        -9.17460         0.77601
| 39>    C      -13.25342        -8.76049         2.05411
| 40>    C      -12.56905        -7.62067         2.70281
| 41>    O      -11.38913        -7.40630         2.62836
| 42>    O      -13.37262        -6.76432         3.36796
| 43>    C      -14.36973        -9.47886         2.59186
| 44>    C      -14.86815       -10.38385         1.69273
| 45>    S      -14.01231       -10.40480         0.21096
| 46>    C      -14.86993        -9.36339         3.94151
| 47>    S      -16.53628        -9.78586         4.29331
| 48>    C      -16.27432        -9.45088         5.95677
| 49>    C      -14.97173        -9.04805         6.21993
| 50>    C      -14.17464        -9.00487         5.07663
| 51>    C      -14.78767        -8.74828         7.68818
| 52>    C      -13.73147        -9.65719         8.32098
| 53>    C      -14.43184        -7.27383         7.90208
| 54>    C      -16.17280        -9.06010         8.20627
| 55>    C      -17.00956        -9.46447         7.16923
| 56>    S      -18.59664        -9.83330         7.70201
| 57>    C      -18.14190        -9.43927         9.35078
| 58>    C      -16.81765        -9.04516         9.43768
| 59>    C      -19.06868        -9.53952        10.42255
| 60>    C      -20.34509        -9.95360        10.31305
| 61>    C      -21.23847       -10.04251        11.44377
| 62>    N      -20.78511        -9.66911        12.64689
| 63>    C      -21.62674        -9.76309        13.65706
| 64>    C      -22.92451       -10.22590        13.50925
| 65>    C      -23.31319       -10.59770        12.21746
| 66>    N      -22.46372       -10.49885        11.19927
| 67>    C      -24.65456       -11.10504        11.95062
| 68>    C      -25.05359       -11.49472        10.74669
| 69>    H       -0.39260        -3.72506        -7.32683
| 70>    H        0.18970        -1.82369        -3.75603
| 71>    H       -1.91431        -2.87265        -2.84494
| 72>    H       -3.83857        -4.35857        -3.27582
| 73>    H       -3.81945        -5.57935        -6.08045
| 74>    H       -5.80364        -7.20579        -6.51991
| 75>    H       -8.58715        -7.88312        -7.27825
| 76>    H       -9.57353        -6.93744        -6.15734
| 77>    H      -10.02667        -8.60165        -6.54337
| 78>    H       -7.16719        -9.81217        -6.39096
| 79>    H       -8.60750       -10.53267        -5.65965
| 80>    H       -7.18807       -10.18878        -4.66428
| 81>    H      -10.86150        -9.73947        -3.93738
| 82>    H      -12.25709        -9.83798        -1.75650
| 83>    H      -11.20715        -7.95675         0.43093
| 84>    H      -14.29511        -7.05447         3.37885
| 85>    H      -15.68787       -11.05786         1.84425
| 86>    H      -13.13093        -8.74638         5.06949
| 87>    H      -12.75880        -9.46502         7.87498
| 88>    H      -13.98822       -10.70240         8.16354
| 89>    H      -13.67083        -9.47030         9.39019
| 90>    H      -13.47771        -7.04808         7.43248
| 91>    H      -14.36208        -7.05697         8.96498
| 92>    H      -15.19502        -6.63365         7.46514
| 93>    H      -16.36245        -8.76529        10.37064
| 94>    H      -18.70141        -9.26049        11.40130
| 95>    H      -20.76453       -10.24875         9.36197
| 96>    H      -21.24138        -9.45494        14.62177
| 97>    H      -23.60104       -10.29793        14.34552
| 98>    H      -25.31572       -11.14896        12.80609
| 99>    H      -24.37840       -11.44279         9.90994
|100>    H      -26.04684       -11.86836        10.56571
|101> *
|102>
|103>                          ****END OF INPUT****

CARTESIAN COORDINATES (ANGSTROEM)
---------------------------------
  C     -0.736780   -3.534480   -6.317220
  N      0.006100   -2.719830   -5.586810
  C     -0.421630   -2.490640   -4.351330
  C     -1.573960   -3.064230   -3.850170
  C     -2.288390   -3.914010   -4.708020
  N     -1.845610   -4.138170   -5.953890
  C     -3.501130   -4.565170   -4.282800
  C     -4.196300   -5.400280   -5.082140
  C     -5.388940   -6.078800   -4.724700
  S     -6.128030   -5.878130   -3.143920
  C     -7.371580   -6.974400   -3.577400
  C     -7.225990   -7.469110   -4.873200
  C     -6.107160   -6.960040   -5.518150
  C     -8.338350   -8.437250   -5.204170
  C     -9.187800   -7.931210   -6.373300
  C     -7.788800   -9.835480   -5.499310
  C     -9.116680   -8.414340   -3.908810
  C     -8.523500   -7.547970   -2.989970
  S     -9.364130   -7.484310   -1.497380
  C    -10.533370   -8.644160   -2.101910
  C    -10.251260   -9.032950   -3.403700
  C    -11.607910   -9.100510   -1.298810
  C    -11.853810   -8.688250   -0.034600
  C    -12.913490   -9.174600    0.776010
  C    -13.253420   -8.760490    2.054110
  C    -12.569050   -7.620670    2.702810
  O    -11.389130   -7.406300    2.628360
  O    -13.372620   -6.764320    3.367960
  C    -14.369730   -9.478860    2.591860
  C    -14.868150  -10.383850    1.692730
  S    -14.012310  -10.404800    0.210960
  C    -14.869930   -9.363390    3.941510
  S    -16.536280   -9.785860    4.293310
  C    -16.274320   -9.450880    5.956770
  C    -14.971730   -9.048050    6.219930
  C    -14.174640   -9.004870    5.076630
  C    -14.787670   -8.748280    7.688180
  C    -13.731470   -9.657190    8.320980
  C    -14.431840   -7.273830    7.902080
  C    -16.172800   -9.060100    8.206270
  C    -17.009560   -9.464470    7.169230
  S    -18.596640   -9.833300    7.702010
  C    -18.141900   -9.439270    9.350780
  C    -16.817650   -9.045160    9.437680
  C    -19.068680   -9.539520   10.422550
  C    -20.345090   -9.953600   10.313050
  C    -21.238470  -10.042510   11.443770
  N    -20.785110   -9.669110   12.646890
  C    -21.626740   -9.763090   13.657060
  C    -22.924510  -10.225900   13.509250
  C    -23.313190  -10.597700   12.217460
  N    -22.463720  -10.498850   11.199270
  C    -24.654560  -11.105040   11.950620
  C    -25.053590  -11.494720   10.746690
  H     -0.392600   -3.725060   -7.326830
  H      0.189700   -1.823690   -3.756030
  H     -1.914310   -2.872650   -2.844940
  H     -3.838570   -4.358570   -3.275820
  H     -3.819450   -5.579350   -6.080450
  H     -5.803640   -7.205790   -6.519910
  H     -8.587150   -7.883120   -7.278250
  H     -9.573530   -6.937440   -6.157340
  H    -10.026670   -8.601650   -6.543370
  H     -7.167190   -9.812170   -6.390960
  H     -8.607500  -10.532670   -5.659650
  H     -7.188070  -10.188780   -4.664280
  H    -10.861500   -9.739470   -3.937380
  H    -12.257090   -9.837980   -1.756500
  H    -11.207150   -7.956750    0.430930
  H    -14.295110   -7.054470    3.378850
  H    -15.687870  -11.057860    1.844250
  H    -13.130930   -8.746380    5.069490
  H    -12.758800   -9.465020    7.874980
  H    -13.988220  -10.702400    8.163540
  H    -13.670830   -9.470300    9.390190
  H    -13.477710   -7.048080    7.432480
  H    -14.362080   -7.056970    8.964980
  H    -15.195020   -6.633650    7.465140
  H    -16.362450   -8.765290   10.370640
  H    -18.701410   -9.260490   11.401300
  H    -20.764530  -10.248750    9.361970
  H    -21.241380   -9.454940   14.621770
  H    -23.601040  -10.297930   14.345520
  H    -25.315720  -11.148960   12.806090
  H    -24.378400  -11.442790    9.909940
  H    -26.046840  -11.868360   10.565710

 Total Charge           Charge          ....    0
 Multiplicity           Mult            ....    1
 Number of Electrons    NEL             ....  414
 Basis Dimension        Dim             ....  936

ORBITAL ENERGIES
----------------

  NO   OCC          E(Eh)            E(eV)
   0   2.0000     -88.964007     -2420.8337
   1   2.0000     -88.963287     -2420.8141
   2   2.0000     -88.958145     -2420.6742
   3   2.0000     -88.958029     -2420.6710
   4   2.0000     -88.956313     -2420.6243
   5   2.0000     -19.250245      -523.8258
   6   2.0000     -19.193623      -522.2850
   7   2.0000     -14.396846      -391.7581
   8   2.0000     -14.395429      -391.7195
   9   2.0000     -14.395404      -391.7189
  10   2.0000     -14.392182      -391.6312
  11   2.0000     -10.398882      -282.9680
  12   2.0000     -10.331120      -281.1241
  13   2.0000     -10.320679      -280.8399
  14   2.0000     -10.317075      -280.7419
  15   2.0000     -10.316650      -280.7303
  16   2.0000     -10.315152      -280.6896
  17   2.0000     -10.311806      -280.5985
  18   2.0000     -10.307875      -280.4915
  19   2.0000     -10.307629      -280.4848
  20   2.0000     -10.302004      -280.3318
  21   2.0000     -10.301633      -280.3217
  22   2.0000     -10.300686      -280.2959
  23   2.0000     -10.300575      -280.2929
  24   2.0000     -10.299722      -280.2697
  25   2.0000     -10.299661      -280.2680
  26   2.0000     -10.298249      -280.2296
  27   2.0000     -10.298127      -280.2263
  28   2.0000     -10.296117      -280.1716
  29   2.0000     -10.292873      -280.0833
  30   2.0000     -10.291161      -280.0367
  31   2.0000     -10.287267      -279.9308
  32   2.0000     -10.287026      -279.9242
  33   2.0000     -10.281313      -279.7688
  34   2.0000     -10.279773      -279.7268
  35   2.0000     -10.277979      -279.6780
  36   2.0000     -10.277822      -279.6737
  37   2.0000     -10.276469      -279.6369
  38   2.0000     -10.276095      -279.6268
  39   2.0000     -10.274984      -279.5965
  40   2.0000     -10.273225      -279.5487
  41   2.0000     -10.273133      -279.5462
  42   2.0000     -10.271714      -279.5076
  43   2.0000     -10.271541      -279.5029
  44   2.0000     -10.270876      -279.4847
  45   2.0000     -10.269460      -279.4462
  46   2.0000     -10.269004      -279.4338
  47   2.0000     -10.266710      -279.3714
  48   2.0000     -10.266305      -279.3604
  49   2.0000     -10.264145      -279.3016
  50   2.0000     -10.264037      -279.2987
  51   2.0000     -10.262080      -279.2454
  52   2.0000     -10.261180      -279.2209
  53   2.0000     -10.259076      -279.1637
  54   2.0000      -8.059222      -219.3026
  55   2.0000      -8.058814      -219.2915
  56   2.0000      -8.053149      -219.1373
  57   2.0000      -8.052961      -219.1322
  58   2.0000      -8.051207      -219.0845
  59   2.0000      -6.028401      -164.0411
  60   2.0000      -6.028194      -164.0355
  61   2.0000      -6.024227      -163.9276
  62   2.0000      -6.024074      -163.9234
  63   2.0000      -6.022388      -163.8775
  64   2.0000      -6.022231      -163.8732
  65   2.0000      -6.021529      -163.8541
  66   2.0000      -6.020893      -163.8368
  67   2.0000      -6.020464      -163.8252
  68   2.0000      -6.018439      -163.7701
  69   2.0000      -6.018251      -163.7649
  70   2.0000      -6.016520      -163.7178
  71   2.0000      -6.015257      -163.6835
  72   2.0000      -6.015038      -163.6775
  73   2.0000      -6.013339      -163.6313
  74   2.0000      -1.174455       -31.9586
  75   2.0000      -1.089915       -29.6581
  76   2.0000      -1.070599       -29.1325
  77   2.0000      -1.066431       -29.0191
  78   2.0000      -1.010984       -27.5103
  79   2.0000      -1.009575       -27.4719
  80   2.0000      -0.994316       -27.0567
  81   2.0000      -0.973287       -26.4845
  82   2.0000      -0.970372       -26.4052
  83   2.0000      -0.969205       -26.3734
  84   2.0000      -0.965933       -26.2844
  85   2.0000      -0.928660       -25.2701
  86   2.0000      -0.924632       -25.1605
  87   2.0000      -0.902229       -24.5509
  88   2.0000      -0.895461       -24.3667
  89   2.0000      -0.890837       -24.2409
  90   2.0000      -0.875703       -23.8291
  91   2.0000      -0.868615       -23.6362
  92   2.0000      -0.862418       -23.4676
  93   2.0000      -0.850300       -23.1379
  94   2.0000      -0.845387       -23.0042
  95   2.0000      -0.834540       -22.7090
  96   2.0000      -0.827547       -22.5187
  97   2.0000      -0.826638       -22.4940
  98   2.0000      -0.822933       -22.3931
  99   2.0000      -0.819382       -22.2965
 100   2.0000      -0.816183       -22.2095
 101   2.0000      -0.782971       -21.3057
 102   2.0000      -0.775588       -21.1048
 103   2.0000      -0.773219       -21.0404
 104   2.0000      -0.770753       -20.9733
 105   2.0000      -0.748938       -20.3796
 106   2.0000      -0.739362       -20.1191
 107   2.0000      -0.731312       -19.9000
 108   2.0000      -0.728784       -19.8312
 109   2.0000      -0.712393       -19.3852
 110   2.0000      -0.702700       -19.1214
 111   2.0000      -0.699825       -19.0432
 112   2.0000      -0.695726       -18.9317
 113   2.0000      -0.692324       -18.8391
 114   2.0000      -0.674129       -18.3440
 115   2.0000      -0.671135       -18.2625
 116   2.0000      -0.664167       -18.0729
 117   2.0000      -0.644860       -17.5475
 118   2.0000      -0.636179       -17.3113
 119   2.0000      -0.632153       -17.2018
 120   2.0000      -0.628772       -17.1098
 121   2.0000      -0.623015       -16.9531
 122   2.0000      -0.620024       -16.8717
 123   2.0000      -0.617533       -16.8039
 124   2.0000      -0.610663       -16.6170
 125   2.0000      -0.607556       -16.5324
 126   2.0000      -0.598356       -16.2821
 127   2.0000      -0.595860       -16.2142
 128   2.0000      -0.585073       -15.9206
 129   2.0000      -0.578976       -15.7547
 130   2.0000      -0.570793       -15.5321
 131   2.0000      -0.556587       -15.1455
 132   2.0000      -0.550121       -14.9695
 133   2.0000      -0.548250       -14.9186
 134   2.0000      -0.542446       -14.7607
 135   2.0000      -0.538191       -14.6449
 136   2.0000      -0.535212       -14.5638
 137   2.0000      -0.533621       -14.5206
 138   2.0000      -0.530538       -14.4367
 139   2.0000      -0.528438       -14.3795
 140   2.0000      -0.525696       -14.3049
 141   2.0000      -0.525087       -14.2883
 142   2.0000      -0.521137       -14.1809
 143   2.0000      -0.517695       -14.0872
 144   2.0000      -0.513705       -13.9786
 145   2.0000      -0.512734       -13.9522
 146   2.0000      -0.508016       -13.8238
 147   2.0000      -0.507262       -13.8033
 148   2.0000      -0.505654       -13.7595
 149   2.0000      -0.502019       -13.6606
 150   2.0000      -0.499080       -13.5807
 151   2.0000      -0.493028       -13.4160
 152   2.0000      -0.490437       -13.3455
 153   2.0000      -0.489015       -13.3068
 154   2.0000      -0.482778       -13.1371
 155   2.0000      -0.481446       -13.1008
 156   2.0000      -0.477114       -12.9829
 157   2.0000      -0.476042       -12.9538
 158   2.0000      -0.472878       -12.8677
 159   2.0000      -0.471805       -12.8385
 160   2.0000      -0.470624       -12.8063
 161   2.0000      -0.468977       -12.7615
 162   2.0000      -0.466190       -12.6857
 163   2.0000      -0.462336       -12.5808
 164   2.0000      -0.461212       -12.5502
 165   2.0000      -0.458100       -12.4655
 166   2.0000      -0.455701       -12.4003
 167   2.0000      -0.453470       -12.3395
 168   2.0000      -0.450651       -12.2628
 169   2.0000      -0.442364       -12.0373
 170   2.0000      -0.440499       -11.9866
 171   2.0000      -0.435497       -11.8505
 172   2.0000      -0.432364       -11.7652
 173   2.0000      -0.430476       -11.7138
 174   2.0000      -0.426076       -11.5941
 175   2.0000      -0.424527       -11.5520
 176   2.0000      -0.422759       -11.5039
 177   2.0000      -0.422052       -11.4846
 178   2.0000      -0.418052       -11.3758
 179   2.0000      -0.412068       -11.2130
 180   2.0000      -0.410216       -11.1625
 181   2.0000      -0.401790       -10.9333
 182   2.0000      -0.399751       -10.8778
 183   2.0000      -0.398391       -10.8408
 184   2.0000      -0.397977       -10.8295
 185   2.0000      -0.396355       -10.7854
 186   2.0000      -0.390662       -10.6305
 187   2.0000      -0.385547       -10.4913
 188   2.0000      -0.370036       -10.0692
 189   2.0000      -0.367780       -10.0078
 190   2.0000      -0.361120        -9.8266
 191   2.0000      -0.356186        -9.6923
 192   2.0000      -0.351481        -9.5643
 193   2.0000      -0.346988        -9.4420
 194   2.0000      -0.337189        -9.1754
 195   2.0000      -0.324831        -8.8391
 196   2.0000      -0.324147        -8.8205
 197   2.0000      -0.321005        -8.7350
 198   2.0000      -0.318865        -8.6768
 199   2.0000      -0.317649        -8.6437
 200   2.0000      -0.315506        -8.5854
 201   2.0000      -0.313427        -8.5288
 202   2.0000      -0.313015        -8.5176
 203   2.0000      -0.295837        -8.0501
 204   2.0000      -0.276968        -7.5367
 205   2.0000      -0.237018        -6.4496
 206   2.0000      -0.225977        -6.1491
 207   0.0000      -0.062402        -1.6980
 208   0.0000      -0.048619        -1.3230
 209   0.0000      -0.026726        -0.7272
 210   0.0000      -0.016167        -0.4399
 211   0.0000      -0.000181        -0.0049

MULLIKEN ATOMIC CHARGES
-----------------------
   0 C :    0.068508
   1 N :   -0.115796
   2 C :    0.065498
   3 C :   -0.032386
   4 C :    0.029693
   5 N :   -0.098981
   6 C :   -0.027903
   7 C :    0.046436
   8 C :   -0.040023
   9 S :    0.138980
  10 C :   -0.079107
  11 C :    0.013083
  12 C :   -0.040943
  13 C :   -0.106436
  14 C :    0.105269
  15 C :    0.104752
  16 C :    0.017452
  17 C :   -0.082662
  18 S :    0.151007
  19 C :   -0.047377
  20 C :   -0.051508
  21 C :    0.009100
  22 C :   -0.010728
  23 C :   -0.110775
  24 C :   -0.008249
  25 C :    0.125756
  26 O :   -0.184839
  27 O :   -0.161843
  28 C :    0.118887
  29 C :   -0.129516
  30 S :    0.124414
  31 C :   -0.183129
  32 S :    0.145360
  33 C :   -0.086039
  34 C :    0.000887
  35 C :   -0.044054
  36 C :   -0.107129
  37 C :    0.102587
  38 C :    0.105258
  39 C :    0.013186
  40 C :   -0.084449
  41 S :    0.138547
  42 C :   -0.037300
  43 C :   -0.042960
  44 C :    0.041497
  45 C :    0.013202
  46 C :   -0.063572
  47 N :   -0.084552
  48 C :    0.077990
  49 C :   -0.051607
  50 C :    0.035219
  51 N :   -0.054870
  52 C :   -0.021178
  53 C :    0.036284
  54 H :    0.008938
  55 H :    0.006798
  56 H :   -0.010864
  57 H :   -0.019614
  58 H :    0.007494
  59 H :   -0.022083
  60 H :    0.010580
  61 H :    0.022337
  62 H :    0.009437
  63 H :    0.011005
  64 H :    0.009320
  65 H :    0.023136
  66 H :   -0.026174
  67 H :   -0.007784
  68 H :    0.024721
  69 H :    0.191388
  70 H :    0.026893
  71 H :    0.003462
  72 H :    0.013419
  73 H :    0.021956
  74 H :    0.011103
  75 H :    0.018204
  76 H :    0.010643
  77 H :    0.019396
  78 H :   -0.024043
  79 H :    0.004636
  80 H :   -0.015488
  81 H :    0.000844
  82 H :   -0.010457
  83 H :   -0.017852
  84 H :    0.036799
  85 H :    0.022912
Sum of atomic charges:    0.0000000

LOEWDIN ATOMIC CHARGES
----------------------
   0 C :    0.042563
   1 N :   -0.104382
   2 C :    0.046127
   3 C :   -0.067549
   4 C :    0.035863
   5 N :   -0.096803
   6 C :   -0.066237
   7 C :    0.007680
   8 C :   -0.170733
   9 S :    0.437130
  10 C :   -0.187277
  11 C :   -0.042751
  12 C :   -0.040976
  13 C :   -0.034409
  14 C :   -0.024202
  15 C :   -0.024447
  16 C :   -0.039733
  17 C :   -0.191641
  18 S :    0.449086
  19 C :   -0.166123
  20 C :   -0.049694
  21 C :   -0.030073
  22 C :   -0.055807
  23 C :   -0.130433
  24 C :   -0.120856
  25 C :    0.080301
  26 O :   -0.159841
  27 O :   -0.030740
  28 C :   -0.080264
  29 C :   -0.192050
  30 S :    0.450894
  31 C :   -0.189578
  32 S :    0.433720
  33 C :   -0.194284
  34 C :   -0.040731
  35 C :   -0.052268
  36 C :   -0.034289
  37 C :   -0.024318
  38 C :   -0.023426
  39 C :   -0.042158
  40 C :   -0.192630
  41 S :    0.436568
  42 C :   -0.167694
  43 C :   -0.044489
  44 C :   -0.001367
  45 C :   -0.058088
  46 C :    0.031724
  47 N :   -0.097723
  48 C :    0.048623
  49 C :   -0.077008
  50 C :    0.035382
  51 N :   -0.091321
  52 C :   -0.045537
  53 C :    0.004292
  54 H :    0.015993
  55 H :    0.024657
  56 H :    0.031475
  57 H :    0.019712
  58 H :    0.040677
  59 H :    0.031551
  60 H :    0.023628
  61 H :    0.030568
  62 H :    0.023077
  63 H :    0.023701
  64 H :    0.023006
  65 H :    0.030870
  66 H :    0.029326
  67 H :    0.026902
  68 H :    0.032940
  69 H :    0.090175
  70 H :    0.021264
  71 H :    0.035403
  72 H :    0.024834
  73 H :    0.030217
  74 H :    0.024001
  75 H :    0.026485
  76 H :    0.023619
  77 H :    0.029652
  78 H :    0.030841
  79 H :    0.038657
  80 H :    0.023488
  81 H :    0.023813
  82 H :    0.030641
  83 H :    0.026911
  84 H :    0.029670
  85 H :    0.026226

  Mayer bond orders larger than 0.100000
B(  0-C ,  1-N ) :   1.5047 B(  0-C ,  5-N ) :   1.5327 B(  0-C , 54-H ) :   0.9747
B(  1-N ,  2-C ) :   1.5338 B(  2-C ,  3-C ) :   1.3936 B(  2-C , 55-H ) :   0.9815
B(  3-C ,  4-C ) :   1.3311 B(  3-C , 56-H ) :   0.9764 B(  4-C ,  5-N ) :   1.5110
B(  4-C ,  6-C ) :   1.1045 B(  6-C ,  7-C ) :   1.6697 B(  6-C , 57-H ) :   0.9715
B(  7-C ,  8-C ) :   1.1351 B(  7-C , 58-H ) :   0.9741 B(  8-C ,  9-S ) :   1.0911
B(  8-C , 12-C ) :   1.4330 B(  9-S , 10-C ) :   1.0908 B( 10-C , 11-C ) :   1.5242
B( 10-C , 17-C ) :   1.1817 B( 11-C , 12-C ) :   1.2960 B( 11-C , 13-C ) :   0.9419
B( 12-C , 59-H ) :   1.0134 B( 13-C , 14-C ) :   1.0315 B( 13-C , 15-C ) :   1.0367
B( 13-C , 16-C ) :   0.9427 B( 14-C , 60-H ) :   0.9650 B( 14-C , 61-H ) :   0.9647
B( 14-C , 62-H ) :   0.9648 B( 15-C , 63-H ) :   0.9644 B( 15-C , 64-H ) :   0.9640
B( 15-C , 65-H ) :   0.9646 B( 16-C , 17-C ) :   1.5240 B( 16-C , 20-C ) :   1.2983
B( 17-C , 18-S ) :   1.0857 B( 18-S , 19-C ) :   1.1034 B( 19-C , 20-C ) :   1.4250
B( 19-C , 21-C ) :   1.1741 B( 20-C , 66-H ) :   1.0130 B( 21-C , 22-C ) :   1.6177
B( 21-C , 67-H ) :   0.9752 B( 22-C , 23-C ) :   1.1834 B( 22-C , 68-H ) :   0.9541
B( 23-C , 24-C ) :   1.5022 B( 23-C , 30-S ) :   1.1460 B( 24-C , 25-C ) :   0.9120
B( 24-C , 28-C ) :   1.2181 B( 25-C , 26-O ) :   2.1234 B( 25-C , 27-O ) :   1.2323
B( 27-O , 69-H ) :   0.9446 B( 28-C , 29-C ) :   1.5600 B( 28-C , 31-C ) :   1.0366
B( 29-C , 30-S ) :   1.1388 B( 29-C , 70-H ) :   0.9662 B( 31-C , 32-S ) :   1.1103
B( 31-C , 35-C ) :   1.4920 B( 32-S , 33-C ) :   1.0756 B( 33-C , 34-C ) :   1.5553
B( 33-C , 40-C ) :   1.1658 B( 34-C , 35-C ) :   1.2893 B( 34-C , 36-C ) :   0.9433
B( 35-C , 71-H ) :   0.9944 B( 36-C , 37-C ) :   1.0343 B( 36-C , 38-C ) :   1.0345
B( 36-C , 39-C ) :   0.9402 B( 37-C , 72-H ) :   0.9650 B( 37-C , 73-H ) :   0.9649
B( 37-C , 74-H ) :   0.9643 B( 38-C , 75-H ) :   0.9648 B( 38-C , 76-H ) :   0.9640
B( 38-C , 77-H ) :   0.9639 B( 39-C , 40-C ) :   1.5413 B( 39-C , 43-C ) :   1.2861
B( 40-C , 41-S ) :   1.0866 B( 41-S , 42-C ) :   1.0952 B( 42-C , 43-C ) :   1.4437
B( 42-C , 44-C ) :   1.1286 B( 43-C , 78-H ) :   1.0138 B( 44-C , 45-C ) :   1.6680
B( 44-C , 79-H ) :   0.9729 B( 45-C , 46-C ) :   1.0575 B( 45-C , 80-H ) :   0.9671
B( 46-C , 47-N ) :   1.5133 B( 46-C , 51-N ) :   1.5338 B( 47-N , 48-C ) :   1.5636
B( 48-C , 49-C ) :   1.3616 B( 48-C , 81-H ) :   0.9804 B( 49-C , 50-C ) :   1.3437
B( 49-C , 82-H ) :   0.9742 B( 50-C , 51-N ) :   1.5174 B( 50-C , 52-C ) :   1.0622
B( 52-C , 53-C ) :   1.9598 B( 52-C , 83-H ) :   0.9668 B( 53-C , 84-H ) :   0.9377
B( 53-C , 85-H ) :   0.9470

-----------------------------------------------------------------------------
         ABSORPTION SPECTRUM VIA TRANSITION ELECTRIC DIPOLE MOMENTS
-----------------------------------------------------------------------------
State   Energy  Wavelength   fosc         T2         TX        TY        TZ
        (cm-1)    (nm)                  (au**2)     (au)      (au)      (au)
-----------------------------------------------------------------------------
   0   20825.9    480.2   2.431371097  38.43470   4.83481   1.99655  -3.32764
   1   25100.5    398.4   1.132660643  14.85570  -2.03797   0.25507   3.26149
   2   26525.2    377.0   0.055482051   0.68860  -0.71072  -0.33555   0.26624
   3   28690.2    348.6   0.086737088   0.99528   0.45816   0.56741   0.68075
   4   29546.7    338.4   0.046398096   0.51697   0.61245   0.37263  -0.05499
   5   32265.0    309.9   0.015804204   0.16126  -0.20491   0.09337   0.33249
   6   32886.3    304.1   0.202461789   2.02677  -0.83768  -0.78679  -0.84025
   7   34120.6    293.1   0.002598029   0.02507   0.05295  -0.14541   0.03347
   8   34183.1    292.5   0.004984257   0.04800  -0.13135   0.15401  -0.08385
   9   34589.1    289.1   0.051083206   0.48620   0.47994   0.25803   0.43506
  10   35802.5    279.3   0.012841138   0.11808   0.25847   0.22534  -0.02221
  11   36353.1    275.1   0.005915324   0.05357  -0.07805   0.21485  -0.03626
  12   37122.2    269.4   0.006744620   0.05981  -0.19517  -0.14505  -0.02609
  13   38282.3    261.2   0.055163216   0.47438   0.59528   0.33081   0.10291
  14   38861.6    257.3   0.002598740   0.02201  -0.12671   0.00344  -0.07713
  15   39882.4    250.7   0.022487497   0.18562   0.27105   0.09798  -0.32025
  16   40141.6    249.1   0.067555813   0.55404  -0.19171  -0.42127  -0.58294

FINAL SINGLE POINT ENERGY     -4015.042008262784

DIPOLE MOMENT
-------------
                                X             Y             Z
Electronic contribution:     -1.02083       2.61823      -5.89659
Nuclear contribution   :     -0.94293      -3.87705       6.40143
                        -----------------------------------------
Total Dipole Moment    :     -1.96375      -1.25882       0.50484
                        -----------------------------------------
Magnitude (a.u.)       :      2.38659
Magnitude (Debye)      :      6.06623

Rotational constants in cm-1:     0.004383     0.000262     0.000249
Rotational constants in MHz :   131.389680     7.842881     7.461381

                             ****ORCA TERMINATED NORMALLY****
TOTAL RUN TIME: 0 days 0 hours 5 minutes 21 seconds 235 msec
