                         Program Version 4.2.0 -  RELEASE  -
|  1> # ORCA input file
|  2> # SCF done       -164.361966396251          0.000734563248
|  3> ! CAM-B3LYP def2-SVP def2/J RIJCOSX Grid4 TightSCF
|  4> %maxcore 5000
|  5> %tddft
|  6>     Mode sTDDFT
|  7>     Ethresh 5.0
|  8>     maxcore 5000
|  9> end
| 10>
| 11> %pal
| 12>   nprocs 6
| 13>   end
| 14> * xyz 0 1
| 15>    C        5.03477        -3.10746         2.44233
| 16>    C        6.08028        -2.64173         1.66443
| 17>    C        7.09040        -3.44119         1.10591
| 18>    N        7.95708        -3.99992         0.59292
| 19>    C        6.30887        -1.30423         1.30192
| 20>    N        6.60099        -0.24588         0.95288
| 21>    C        4.84942        -4.50201         2.84163
| 22>    C        3.67074        -4.58765         3.63579
| 23>    C        3.24634        -5.76797         4.16714
| 24>    C        3.99813        -6.94314         3.92727
| 25>    C        5.17718        -6.86539         3.13431
| 26>    C        5.59041        -5.62341         2.59328
| 27>    C        5.91948        -8.04046         2.90644
| 28>    C        5.51977        -9.23751         3.43718
| 29>    C        4.35849        -9.31301         4.21814
| 30>    C        3.61350        -8.18927         4.45686
| 31>    C        3.07209        -3.23908         3.75488
| 32>    O        2.05402        -2.95068         4.35893
| 33>    C        3.96154        -2.34613         2.99942
| 34>    C        3.77502        -0.97598         2.85057
| 35>    C        2.74670        -0.21767         3.36752
| 36>    C        2.68020         1.15874         3.14016
| 37>    C        1.71524         2.07695         3.56943
| 38>    C        1.94830         3.37360         3.15972
| 39>    C        3.10771         3.51470         2.39738
| 40>    S        3.90596         1.97571         2.20215
| 41>    C        3.67598         4.65284         1.80863
| 42>    C        3.25247         5.98050         1.78373
| 43>    C        4.09913         6.81605         1.08297
| 44>    C        5.22146         6.18185         0.54092
| 45>    S        5.16840         4.48104         0.92905
| 46>    C        6.21974         6.79676        -0.22040
| 47>    C        7.37940         6.28517        -0.75137
| 48>    S        8.35414         7.38527        -1.76398
| 49>    C        9.60559         6.20313        -2.09631
| 50>    C        9.26960         5.00738        -1.41915
| 51>    C        8.05721         5.03929        -0.69902
| 52>    N        7.93031         3.80782        -0.15396
| 53>    N        8.95281         3.01465        -0.48040
| 54>    C        9.77307         3.70585        -1.23931
| 55>    C       10.70435         6.32729        -2.90840
| 56>    C       11.11026         7.40997        -3.68544
| 57>    C       12.13559         7.37317        -4.60749
| 58>    C       12.87227         6.26313        -5.04913
| 59>    C       13.91454         6.29091        -5.98517
| 60>    C       14.44843         5.05670        -6.29401
| 61>    C       13.83990         4.00278        -5.61270
| 62>    S       12.58061         4.61015        -4.57178
| 63>    C       14.08147         2.62483        -5.63316
| 64>    C       15.02042         1.88302        -6.35724
| 65>    C       14.95808         0.53221        -6.11229
| 66>    C       13.96922         0.15809        -5.18605
| 67>    S       13.11190         1.57578        -4.62969
| 68>    C       13.68178        -1.12775        -4.75255
| 69>    C       12.71293        -1.51506        -3.83986
| 70>    S       11.60917        -0.41330        -3.00860
| 71>    C       10.79522        -1.67735        -2.12619
| 72>    C       11.35808        -2.90914        -2.46001
| 73>    C       12.41385        -2.81501        -3.40266
| 74>    N       12.84419        -4.07787        -3.61528
| 75>    N       12.14283        -4.96282        -2.88020
| 76>    C       11.25546        -4.29842        -2.18613
| 77>    C        9.72428        -1.42667        -1.22390
| 78>    C        9.24465        -0.20927        -0.94336
| 79>    H        2.34954        -5.81004         4.76772
| 80>    H        6.48930        -5.59419         1.99697
| 81>    H        6.81413        -7.97742         2.30374
| 82>    H        6.09775       -10.13213         3.25755
| 83>    H        4.05622       -10.26454         4.63058
| 84>    H        2.71727        -8.24137         5.05841
| 85>    H        4.51509        -0.44412         2.26452
| 86>    H        1.97201        -0.68374         3.95777
| 87>    H        0.87253         1.77479         4.16551
| 88>    H        1.30943         4.20544         3.39844
| 89>    H        2.34879         6.30582         2.26660
| 90>    H        3.92977         7.87121         0.95794
| 91>    H        6.03889         7.84464        -0.42998
| 92>    H        7.19458         3.42945         0.42038
| 93>    H       10.67208         3.26847        -1.62456
| 94>    H       11.31156         5.43521        -2.92236
| 95>    H       10.57918         8.34494        -3.55937
| 96>    H       12.39958         8.30366        -5.09432
| 97>    H       14.25965         7.21375        -6.41804
| 98>    H       15.25212         4.90749        -6.99280
| 99>    H       15.71625         2.34298        -7.03583
|100>    H       15.60102        -0.19461        -6.57719
|101>    H       14.28412        -1.92124        -5.17861
|102>    H       13.57848        -4.40832        -4.21862
|103>    H       10.58131        -4.80298        -1.52502
|104>    H        9.30226        -2.30917        -0.75906
|105>    H        9.65675         0.68065        -1.39007
|106>    H        8.42788        -0.06655        -0.25837
|107> *
|108>
|109>                          ****END OF INPUT****

CARTESIAN COORDINATES (ANGSTROEM)
---------------------------------
  C      5.034770   -3.107460    2.442330
  C      6.080280   -2.641730    1.664430
  C      7.090400   -3.441190    1.105910
  N      7.957080   -3.999920    0.592920
  C      6.308870   -1.304230    1.301920
  N      6.600990   -0.245880    0.952880
  C      4.849420   -4.502010    2.841630
  C      3.670740   -4.587650    3.635790
  C      3.246340   -5.767970    4.167140
  C      3.998130   -6.943140    3.927270
  C      5.177180   -6.865390    3.134310
  C      5.590410   -5.623410    2.593280
  C      5.919480   -8.040460    2.906440
  C      5.519770   -9.237510    3.437180
  C      4.358490   -9.313010    4.218140
  C      3.613500   -8.189270    4.456860
  C      3.072090   -3.239080    3.754880
  O      2.054020   -2.950680    4.358930
  C      3.961540   -2.346130    2.999420
  C      3.775020   -0.975980    2.850570
  C      2.746700   -0.217670    3.367520
  C      2.680200    1.158740    3.140160
  C      1.715240    2.076950    3.569430
  C      1.948300    3.373600    3.159720
  C      3.107710    3.514700    2.397380
  S      3.905960    1.975710    2.202150
  C      3.675980    4.652840    1.808630
  C      3.252470    5.980500    1.783730
  C      4.099130    6.816050    1.082970
  C      5.221460    6.181850    0.540920
  S      5.168400    4.481040    0.929050
  C      6.219740    6.796760   -0.220400
  C      7.379400    6.285170   -0.751370
  S      8.354140    7.385270   -1.763980
  C      9.605590    6.203130   -2.096310
  C      9.269600    5.007380   -1.419150
  C      8.057210    5.039290   -0.699020
  N      7.930310    3.807820   -0.153960
  N      8.952810    3.014650   -0.480400
  C      9.773070    3.705850   -1.239310
  C     10.704350    6.327290   -2.908400
  C     11.110260    7.409970   -3.685440
  C     12.135590    7.373170   -4.607490
  C     12.872270    6.263130   -5.049130
  C     13.914540    6.290910   -5.985170
  C     14.448430    5.056700   -6.294010
  C     13.839900    4.002780   -5.612700
  S     12.580610    4.610150   -4.571780
  C     14.081470    2.624830   -5.633160
  C     15.020420    1.883020   -6.357240
  C     14.958080    0.532210   -6.112290
  C     13.969220    0.158090   -5.186050
  S     13.111900    1.575780   -4.629690
  C     13.681780   -1.127750   -4.752550
  C     12.712930   -1.515060   -3.839860
  S     11.609170   -0.413300   -3.008600
  C     10.795220   -1.677350   -2.126190
  C     11.358080   -2.909140   -2.460010
  C     12.413850   -2.815010   -3.402660
  N     12.844190   -4.077870   -3.615280
  N     12.142830   -4.962820   -2.880200
  C     11.255460   -4.298420   -2.186130
  C      9.724280   -1.426670   -1.223900
  C      9.244650   -0.209270   -0.943360
  H      2.349540   -5.810040    4.767720
  H      6.489300   -5.594190    1.996970
  H      6.814130   -7.977420    2.303740
  H      6.097750  -10.132130    3.257550
  H      4.056220  -10.264540    4.630580
  H      2.717270   -8.241370    5.058410
  H      4.515090   -0.444120    2.264520
  H      1.972010   -0.683740    3.957770
  H      0.872530    1.774790    4.165510
  H      1.309430    4.205440    3.398440
  H      2.348790    6.305820    2.266600
  H      3.929770    7.871210    0.957940
  H      6.038890    7.844640   -0.429980
  H      7.194580    3.429450    0.420380
  H     10.672080    3.268470   -1.624560
  H     11.311560    5.435210   -2.922360
  H     10.579180    8.344940   -3.559370
  H     12.399580    8.303660   -5.094320
  H     14.259650    7.213750   -6.418040
  H     15.252120    4.907490   -6.992800
  H     15.716250    2.342980   -7.035830
  H     15.601020   -0.194610   -6.577190
  H     14.284120   -1.921240   -5.178610
  H     13.578480   -4.408320   -4.218620
  H     10.581310   -4.802980   -1.525020
  H      9.302260   -2.309170   -0.759060
  H      9.656750    0.680650   -1.390070
  H      8.427880   -0.066550   -0.258370

 Total Charge           Charge          ....    0
 Multiplicity           Mult            ....    1
 Number of Electrons    NEL             ....  480
 Basis Dimension        Dim             .... 1060

ORBITAL ENERGIES
----------------

  NO   OCC          E(Eh)            E(eV)
   0   2.0000     -88.985354     -2421.4146
   1   2.0000     -88.979715     -2421.2612
   2   2.0000     -88.970276     -2421.0043
   3   2.0000     -88.957490     -2420.6564
   4   2.0000     -88.955534     -2420.6031
   5   2.0000     -88.930645     -2419.9259
   6   2.0000     -19.161312      -521.4058
   7   2.0000     -14.510366      -394.8471
   8   2.0000     -14.490445      -394.3051
   9   2.0000     -14.451987      -393.2586
  10   2.0000     -14.434547      -392.7840
  11   2.0000     -14.376529      -391.2052
  12   2.0000     -14.375376      -391.1739
  13   2.0000     -10.350584      -281.6537
  14   2.0000     -10.348667      -281.6015
  15   2.0000     -10.346174      -281.5337
  16   2.0000     -10.338780      -281.3325
  17   2.0000     -10.335535      -281.2442
  18   2.0000     -10.329378      -281.0767
  19   2.0000     -10.327943      -281.0376
  20   2.0000     -10.327178      -281.0168
  21   2.0000     -10.326822      -281.0071
  22   2.0000     -10.319976      -280.8208
  23   2.0000     -10.317529      -280.7542
  24   2.0000     -10.317382      -280.7502
  25   2.0000     -10.314826      -280.6807
  26   2.0000     -10.313403      -280.6420
  27   2.0000     -10.311859      -280.6000
  28   2.0000     -10.306183      -280.4455
  29   2.0000     -10.303886      -280.3830
  30   2.0000     -10.303297      -280.3670
  31   2.0000     -10.301763      -280.3252
  32   2.0000     -10.298637      -280.2402
  33   2.0000     -10.298009      -280.2231
  34   2.0000     -10.294853      -280.1372
  35   2.0000     -10.290274      -280.0126
  36   2.0000     -10.288009      -279.9510
  37   2.0000     -10.287254      -279.9304
  38   2.0000     -10.286263      -279.9034
  39   2.0000     -10.285391      -279.8797
  40   2.0000     -10.285293      -279.8770
  41   2.0000     -10.284605      -279.8583
  42   2.0000     -10.283752      -279.8351
  43   2.0000     -10.283428      -279.8263
  44   2.0000     -10.280492      -279.7464
  45   2.0000     -10.279231      -279.7121
  46   2.0000     -10.278027      -279.6793
  47   2.0000     -10.276774      -279.6452
  48   2.0000     -10.272743      -279.5355
  49   2.0000     -10.269387      -279.4442
  50   2.0000     -10.259773      -279.1826
  51   2.0000     -10.259443      -279.1736
  52   2.0000     -10.259316      -279.1702
  53   2.0000     -10.254605      -279.0420
  54   2.0000     -10.253874      -279.0221
  55   2.0000     -10.253823      -279.0207
  56   2.0000     -10.253379      -279.0086
  57   2.0000     -10.252950      -278.9970
  58   2.0000     -10.252724      -278.9908
  59   2.0000     -10.252496      -278.9846
  60   2.0000     -10.251713      -278.9633
  61   2.0000     -10.244556      -278.7685
  62   2.0000     -10.233933      -278.4795
  63   2.0000     -10.231302      -278.4079
  64   2.0000      -8.080059      -219.8696
  65   2.0000      -8.075505      -219.7457
  66   2.0000      -8.065605      -219.4763
  67   2.0000      -8.052906      -219.1307
  68   2.0000      -8.051622      -219.0958
  69   2.0000      -8.026360      -218.4084
  70   2.0000      -6.049651      -164.6194
  71   2.0000      -6.045289      -164.5007
  72   2.0000      -6.045071      -164.4947
  73   2.0000      -6.041797      -164.4057
  74   2.0000      -6.040855      -164.3800
  75   2.0000      -6.036986      -164.2747
  76   2.0000      -6.035017      -164.2212
  77   2.0000      -6.030896      -164.1090
  78   2.0000      -6.027425      -164.0146
  79   2.0000      -6.022711      -163.8863
  80   2.0000      -6.021046      -163.8410
  81   2.0000      -6.018635      -163.7754
  82   2.0000      -6.017060      -163.7325
  83   2.0000      -6.013886      -163.6462
  84   2.0000      -6.013241      -163.6286
  85   2.0000      -5.995771      -163.1532
  86   2.0000      -5.991746      -163.0437
  87   2.0000      -5.988057      -162.9433
  88   2.0000      -1.165173       -31.7060
  89   2.0000      -1.149730       -31.2857
  90   2.0000      -1.073803       -29.2197
  91   2.0000      -1.023130       -27.8408
  92   2.0000      -1.009262       -27.4634
  93   2.0000      -0.993974       -27.0474
  94   2.0000      -0.992860       -27.0171
  95   2.0000      -0.983591       -26.7649
  96   2.0000      -0.977167       -26.5901
  97   2.0000      -0.959538       -26.1104
  98   2.0000      -0.957952       -26.0672
  99   2.0000      -0.955901       -26.0114
 100   2.0000      -0.946258       -25.7490
 101   2.0000      -0.929377       -25.2896
 102   2.0000      -0.928719       -25.2717
 103   2.0000      -0.921454       -25.0740
 104   2.0000      -0.909591       -24.7512
 105   2.0000      -0.894128       -24.3305
 106   2.0000      -0.889476       -24.2039
 107   2.0000      -0.882883       -24.0245
 108   2.0000      -0.878443       -23.9037
 109   2.0000      -0.866922       -23.5901
 110   2.0000      -0.860693       -23.4206
 111   2.0000      -0.859199       -23.3800
 112   2.0000      -0.850917       -23.1546
 113   2.0000      -0.845748       -23.0140
 114   2.0000      -0.843084       -22.9415
 115   2.0000      -0.840724       -22.8772
 116   2.0000      -0.838931       -22.8285
 117   2.0000      -0.834553       -22.7093
 118   2.0000      -0.816144       -22.2084
 119   2.0000      -0.807407       -21.9707
 120   2.0000      -0.803571       -21.8663
 121   2.0000      -0.790068       -21.4988
 122   2.0000      -0.786640       -21.4056
 123   2.0000      -0.774955       -21.0876
 124   2.0000      -0.758567       -20.6417
 125   2.0000      -0.743029       -20.2188
 126   2.0000      -0.727270       -19.7900
 127   2.0000      -0.720649       -19.6098
 128   2.0000      -0.716606       -19.4998
 129   2.0000      -0.714642       -19.4464
 130   2.0000      -0.706671       -19.2295
 131   2.0000      -0.704804       -19.1787
 132   2.0000      -0.699921       -19.0458
 133   2.0000      -0.697149       -18.9704
 134   2.0000      -0.682862       -18.5816
 135   2.0000      -0.674351       -18.3500
 136   2.0000      -0.668156       -18.1815
 137   2.0000      -0.665746       -18.1159
 138   2.0000      -0.662949       -18.0398
 139   2.0000      -0.658426       -17.9167
 140   2.0000      -0.653436       -17.7809
 141   2.0000      -0.643278       -17.5045
 142   2.0000      -0.639676       -17.4065
 143   2.0000      -0.632573       -17.2132
 144   2.0000      -0.632383       -17.2080
 145   2.0000      -0.626950       -17.0602
 146   2.0000      -0.617275       -16.7969
 147   2.0000      -0.607591       -16.5334
 148   2.0000      -0.603625       -16.4255
 149   2.0000      -0.593682       -16.1549
 150   2.0000      -0.590664       -16.0728
 151   2.0000      -0.586457       -15.9583
 152   2.0000      -0.581571       -15.8254
 153   2.0000      -0.580760       -15.8033
 154   2.0000      -0.572276       -15.5724
 155   2.0000      -0.568882       -15.4801
 156   2.0000      -0.568052       -15.4575
 157   2.0000      -0.566849       -15.4247
 158   2.0000      -0.558941       -15.2095
 159   2.0000      -0.554254       -15.0820
 160   2.0000      -0.549844       -14.9620
 161   2.0000      -0.546000       -14.8574
 162   2.0000      -0.545327       -14.8391
 163   2.0000      -0.538869       -14.6634
 164   2.0000      -0.533860       -14.5271
 165   2.0000      -0.529355       -14.4045
 166   2.0000      -0.521764       -14.1979
 167   2.0000      -0.519749       -14.1431
 168   2.0000      -0.518301       -14.1037
 169   2.0000      -0.513390       -13.9701
 170   2.0000      -0.510239       -13.8843
 171   2.0000      -0.507253       -13.8031
 172   2.0000      -0.507058       -13.7978
 173   2.0000      -0.500878       -13.6296
 174   2.0000      -0.499450       -13.5907
 175   2.0000      -0.493718       -13.4347
 176   2.0000      -0.491364       -13.3707
 177   2.0000      -0.489472       -13.3192
 178   2.0000      -0.488990       -13.3061
 179   2.0000      -0.485662       -13.2155
 180   2.0000      -0.482980       -13.1425
 181   2.0000      -0.479743       -13.0545
 182   2.0000      -0.478298       -13.0152
 183   2.0000      -0.476833       -12.9753
 184   2.0000      -0.476304       -12.9609
 185   2.0000      -0.473163       -12.8754
 186   2.0000      -0.470977       -12.8159
 187   2.0000      -0.468198       -12.7403
 188   2.0000      -0.466335       -12.6896
 189   2.0000      -0.463771       -12.6199
 190   2.0000      -0.460790       -12.5387
 191   2.0000      -0.458276       -12.4703
 192   2.0000      -0.457172       -12.4403
 193   2.0000      -0.453665       -12.3449
 194   2.0000      -0.452053       -12.3010
 195   2.0000      -0.444133       -12.0855
 196   2.0000      -0.443334       -12.0637
 197   2.0000      -0.443236       -12.0611
 198   2.0000      -0.438259       -11.9256
 199   2.0000      -0.436255       -11.8711
 200   2.0000      -0.433848       -11.8056
 201   2.0000      -0.428144       -11.6504
 202   2.0000      -0.425842       -11.5878
 203   2.0000      -0.424227       -11.5438
 204   2.0000      -0.421671       -11.4742
 205   2.0000      -0.418865       -11.3979
 206   2.0000      -0.417661       -11.3651
 207   2.0000      -0.410172       -11.1613
 208   2.0000      -0.405458       -11.0331
 209   2.0000      -0.403709       -10.9855
 210   2.0000      -0.401043       -10.9129
 211   2.0000      -0.398227       -10.8363
 212   2.0000      -0.393367       -10.7040
 213   2.0000      -0.388758       -10.5786
 214   2.0000      -0.382711       -10.4141
 215   2.0000      -0.380349       -10.3498
 216   2.0000      -0.380196       -10.3457
 217   2.0000      -0.378302       -10.2941
 218   2.0000      -0.369518       -10.0551
 219   2.0000      -0.367586       -10.0025
 220   2.0000      -0.363446        -9.8899
 221   2.0000      -0.361756        -9.8439
 222   2.0000      -0.358102        -9.7444
 223   2.0000      -0.355548        -9.6750
 224   2.0000      -0.342245        -9.3130
 225   2.0000      -0.341615        -9.2958
 226   2.0000      -0.337070        -9.1721
 227   2.0000      -0.333737        -9.0814
 228   2.0000      -0.330434        -8.9916
 229   2.0000      -0.326605        -8.8874
 230   2.0000      -0.321130        -8.7384
 231   2.0000      -0.306365        -8.3366
 232   2.0000      -0.301343        -8.2000
 233   2.0000      -0.283632        -7.7180
 234   2.0000      -0.283503        -7.7145
 235   2.0000      -0.275330        -7.4921
 236   2.0000      -0.260130        -7.0785
 237   2.0000      -0.252481        -6.8704
 238   2.0000      -0.223248        -6.0749
 239   2.0000      -0.186049        -5.0627
 240   0.0000      -0.122168        -3.3243
 241   0.0000      -0.078047        -2.1238
 242   0.0000      -0.050763        -1.3813
 243   0.0000      -0.030087        -0.8187
 244   0.0000      -0.017479        -0.4756

MULLIKEN ATOMIC CHARGES
-----------------------
   0 C :    0.350102
   1 C :   -0.411622
   2 C :   -0.151606
   3 N :    0.059151
   4 C :   -0.150306
   5 N :    0.058177
   6 C :    0.043550
   7 C :    0.008976
   8 C :   -0.101634
   9 C :    0.098451
  10 C :    0.100361
  11 C :   -0.104788
  12 C :   -0.025664
  13 C :    0.028830
  14 C :    0.031899
  15 C :   -0.023084
  16 C :    0.128701
  17 O :   -0.179718
  18 C :   -0.102291
  19 C :   -0.067894
  20 C :   -0.013168
  21 C :    0.003095
  22 C :   -0.000100
  23 C :    0.030534
  24 C :   -0.050758
  25 S :    0.069764
  26 C :    0.007147
  27 C :   -0.003106
  28 C :    0.037240
  29 C :   -0.068738
  30 S :    0.046440
  31 C :    0.070369
  32 C :   -0.210981
  33 S :    0.099939
  34 C :    0.013481
  35 C :   -0.043505
  36 C :    0.190912
  37 N :   -0.018286
  38 N :   -0.078555
  39 C :    0.008912
  40 C :   -0.100996
  41 C :    0.049861
  42 C :   -0.002919
  43 C :   -0.017242
  44 C :    0.014090
  45 C :    0.036042
  46 C :   -0.053869
  47 S :    0.070266
  48 C :    0.002897
  49 C :    0.007694
  50 C :    0.051413
  51 C :   -0.071002
  52 S :    0.094489
  53 C :    0.024444
  54 C :   -0.145805
  55 S :    0.111478
  56 C :   -0.040638
  57 C :   -0.006112
  58 C :    0.164208
  59 N :   -0.028518
  60 N :   -0.061898
  61 C :    0.035004
  62 C :   -0.005201
  63 C :    0.021067
  64 H :   -0.027648
  65 H :   -0.023240
  66 H :   -0.023740
  67 H :   -0.019924
  68 H :   -0.019869
  69 H :   -0.027951
  70 H :    0.004563
  71 H :    0.001574
  72 H :   -0.018103
  73 H :   -0.021250
  74 H :   -0.016650
  75 H :   -0.012699
  76 H :   -0.011521
  77 H :    0.159064
  78 H :   -0.004965
  79 H :    0.002034
  80 H :   -0.005544
  81 H :   -0.014333
  82 H :   -0.012008
  83 H :   -0.009481
  84 H :   -0.007809
  85 H :   -0.003243
  86 H :   -0.006852
  87 H :    0.142722
  88 H :    0.034888
  89 H :    0.015351
  90 H :    0.034019
  91 H :    0.063637
Sum of atomic charges:   -0.0000000

LOEWDIN ATOMIC CHARGES
----------------------
   0 C :    0.070452
   1 C :   -0.209216
   2 C :   -0.004163
   3 N :   -0.133825
   4 C :   -0.000224
   5 N :   -0.120304
   6 C :   -0.016303
   7 C :   -0.044655
   8 C :    0.012835
   9 C :   -0.013091
  10 C :   -0.010967
  11 C :   -0.002387
  12 C :   -0.013425
  13 C :   -0.027570
  14 C :   -0.026373
  15 C :   -0.015413
  16 C :    0.075001
  17 O :   -0.177107
  18 C :   -0.134641
  19 C :    0.017776
  20 C :   -0.084747
  21 C :   -0.112970
  22 C :   -0.076033
  23 C :   -0.023535
  24 C :   -0.222494
  25 S :    0.414476
  26 C :   -0.139343
  27 C :   -0.073855
  28 C :   -0.020317
  29 C :   -0.199359
  30 S :    0.422050
  31 C :   -0.031270
  32 C :   -0.193513
  33 S :    0.392603
  34 C :   -0.106253
  35 C :   -0.107463
  36 C :   -0.008946
  37 N :    0.122692
  38 N :   -0.061104
  39 C :   -0.029993
  40 C :   -0.108393
  41 C :    0.005468
  42 C :   -0.083814
  43 C :   -0.122159
  44 C :   -0.059418
  45 C :   -0.021298
  46 C :   -0.215957
  47 S :    0.435671
  48 C :   -0.132768
  49 C :   -0.063503
  50 C :   -0.003355
  51 C :   -0.196248
  52 S :    0.410605
  53 C :   -0.004791
  54 C :   -0.216917
  55 S :    0.445080
  56 C :   -0.079940
  57 C :   -0.106016
  58 C :    0.010208
  59 N :    0.105068
  60 N :   -0.056175
  61 C :    0.000645
  62 C :   -0.061389
  63 C :    0.058276
  64 H :    0.032781
  65 H :    0.033196
  66 H :    0.028783
  67 H :    0.026631
  68 H :    0.026504
  69 H :    0.027493
  70 H :    0.022898
  71 H :    0.034518
  72 H :    0.030997
  73 H :    0.029074
  74 H :    0.031547
  75 H :    0.032888
  76 H :    0.040081
  77 H :    0.063069
  78 H :    0.019696
  79 H :    0.009817
  80 H :    0.032463
  81 H :    0.035301
  82 H :    0.033301
  83 H :    0.033806
  84 H :    0.034880
  85 H :    0.037017
  86 H :    0.043833
  87 H :    0.090670
  88 H :    0.039234
  89 H :    0.046559
  90 H :    0.019449
  91 H :    0.037609

  Mayer bond orders larger than 0.100000
B(  0-C ,  1-C ) :   1.4382 B(  0-C ,  6-C ) :   0.9559 B(  0-C , 18-C ) :   1.2433
B(  1-C ,  2-C ) :   1.1868 B(  1-C ,  4-C ) :   1.1901 B(  2-C ,  3-N ) :   2.8444
B(  4-C ,  5-N ) :   2.8216 B(  6-C ,  7-C ) :   1.2181 B(  6-C , 11-C ) :   1.4816
B(  7-C ,  8-C ) :   1.4972 B(  7-C , 16-C ) :   0.9197 B(  8-C ,  9-C ) :   1.1540
B(  8-C , 64-H ) :   1.0147 B(  9-C , 10-C ) :   1.2743 B(  9-C , 15-C ) :   1.2535
B( 10-C , 11-C ) :   1.1793 B( 10-C , 12-C ) :   1.2520 B( 11-C , 65-H ) :   0.9885
B( 12-C , 13-C ) :   1.4759 B( 12-C , 66-H ) :   0.9955 B( 13-C , 14-C ) :   1.2718
B( 13-C , 67-H ) :   0.9875 B( 14-C , 15-C ) :   1.4778 B( 14-C , 68-H ) :   0.9877
B( 15-C , 69-H ) :   0.9962 B( 16-C , 17-O ) :   2.1877 B( 16-C , 18-C ) :   0.9916
B( 18-C , 19-C ) :   1.2863 B( 19-C , 20-C ) :   1.4760 B( 19-C , 70-H ) :   0.9371
B( 20-C , 21-C ) :   1.2233 B( 20-C , 71-H ) :   0.9849 B( 21-C , 22-C ) :   1.3396
B( 21-C , 25-S ) :   1.1207 B( 22-C , 23-C ) :   1.3617 B( 22-C , 72-H ) :   0.9999
B( 23-C , 24-C ) :   1.3931 B( 23-C , 73-H ) :   0.9959 B( 24-C , 25-S ) :   1.0658
B( 24-C , 26-C ) :   1.2396 B( 26-C , 27-C ) :   1.3854 B( 26-C , 30-S ) :   1.1258
B( 27-C , 28-C ) :   1.3710 B( 27-C , 74-H ) :   0.9946 B( 28-C , 29-C ) :   1.3501
B( 28-C , 75-H ) :   0.9984 B( 29-C , 30-S ) :   1.0399 B( 29-C , 31-C ) :   1.3168
B( 31-C , 32-C ) :   1.5133 B( 31-C , 76-H ) :   0.9306 B( 32-C , 33-S ) :   1.0188
B( 32-C , 36-C ) :   1.1476 B( 33-S , 34-C ) :   1.0785 B( 34-C , 35-C ) :   1.1582
B( 34-C , 40-C ) :   1.5029 B( 35-C , 36-C ) :   1.3513 B( 35-C , 39-C ) :   1.2320
B( 36-C , 37-N ) :   1.2105 B( 37-N , 38-N ) :   1.1648 B( 37-N , 77-H ) :   0.9241
B( 38-N , 39-C ) :   1.6566 B( 39-C , 78-H ) :   0.9876 B( 40-C , 41-C ) :   1.2731
B( 40-C , 79-H ) :   0.9322 B( 41-C , 42-C ) :   1.4887 B( 41-C , 80-H ) :   0.9722
B( 42-C , 43-C ) :   1.2867 B( 42-C , 81-H ) :   0.9636 B( 43-C , 44-C ) :   1.3191
B( 43-C , 47-S ) :   1.1108 B( 44-C , 45-C ) :   1.4114 B( 44-C , 82-H ) :   0.9997
B( 45-C , 46-C ) :   1.3449 B( 45-C , 83-H ) :   0.9956 B( 46-C , 47-S ) :   1.0615
B( 46-C , 48-C ) :   1.2913 B( 48-C , 49-C ) :   1.3209 B( 48-C , 52-S ) :   1.1229
B( 49-C , 50-C ) :   1.4434 B( 49-C , 84-H ) :   0.9961 B( 50-C , 51-C ) :   1.2651
B( 50-C , 85-H ) :   0.9988 B( 51-C , 52-S ) :   1.0461 B( 51-C , 53-C ) :   1.3836
B( 53-C , 54-C ) :   1.3903 B( 53-C , 86-H ) :   0.9717 B( 54-C , 55-S ) :   1.0192
B( 54-C , 58-C ) :   1.2541 B( 55-S , 56-C ) :   1.1617 B( 56-C , 57-C ) :   1.2850
B( 56-C , 62-C ) :   1.1855 B( 57-C , 58-C ) :   1.2744 B( 57-C , 61-C ) :   1.1650
B( 58-C , 59-N ) :   1.2195 B( 59-N , 60-N ) :   1.1099 B( 59-N , 87-H ) :   0.9453
B( 60-N , 61-C ) :   1.7467 B( 61-C , 88-H ) :   0.9946 B( 62-C , 63-C ) :   1.7986
B( 62-C , 89-H ) :   0.9528 B( 63-C , 90-H ) :   0.9608 B( 63-C , 91-H ) :   0.9290

-----------------------------------------------------------------------------
         ABSORPTION SPECTRUM VIA TRANSITION ELECTRIC DIPOLE MOMENTS
-----------------------------------------------------------------------------
State   Energy  Wavelength   fosc         T2         TX        TY        TZ
        (cm-1)    (nm)                  (au**2)     (au)      (au)      (au)
-----------------------------------------------------------------------------
   0    3268.5   3059.5   0.138551306  13.95520  -2.95717  -0.16726   2.27649
   1    8202.9   1219.1   0.105081014   4.21727  -1.37290   1.25631   0.86838
   2   11992.5    833.9   1.246748093  34.22514   0.82639   5.61465  -1.42055
   3   15642.0    639.3   0.206390802   4.34385   0.34117   1.98367  -0.54085
   4   17073.3    585.7   0.085295495   1.64469  -0.86111   0.83255   0.45830
   5   19207.4    520.6   0.023892906   0.40952  -0.52436   0.14030   0.33895
   6   19680.9    508.1   1.614329255  27.00372  -4.21517  -0.07361   3.03819
   7   20693.8    483.2   0.002214764   0.03523   0.05404  -0.14434   0.10714
   8   21912.8    456.4   0.160548948   2.41204   1.19749  -0.00985  -0.98892
   9   22963.0    435.5   0.177086729   2.53883   0.45923   1.34364  -0.72289
  10   24106.0    414.8   0.108805285   1.48594  -0.89069  -0.41120   0.72355
  11   24705.4    404.8   0.053801006   0.71693   0.43791  -0.71782   0.09944
  12   25344.0    394.6   0.000516403   0.00671   0.00294  -0.08161  -0.00628
  13   25590.5    390.8   0.054302217   0.69858  -0.33434   0.58644   0.49283
  14   25910.5    385.9   0.042613168   0.54143  -0.35514   0.62270  -0.16598
  15   27393.7    365.0   0.069663148   0.83720  -0.53432   0.63476   0.38572
  16   28161.6    355.1   0.030990409   0.36228   0.13006   0.56449  -0.16344
  17   28461.8    351.3   0.012217526   0.14132   0.10268  -0.35306   0.07827
  18   28745.5    347.9   0.065278935   0.74762   0.02107   0.77465  -0.38352
  19   28944.6    345.5   0.004481963   0.05098  -0.17472   0.13551   0.04567
  20   29271.6    341.6   0.010202545   0.11475  -0.07779   0.32913  -0.01917
  21   29393.0    340.2   0.043293280   0.48490   0.15994  -0.67160   0.09095
  22   29586.5    338.0   0.068615132   0.76349  -0.21794   0.84206  -0.08316
  23   30482.6    328.1   0.017604992   0.19013   0.30519   0.11974  -0.28750
  24   30766.6    325.0   0.041712590   0.44634   0.11610   0.62341  -0.21029
  25   30950.4    323.1   0.029874718   0.31777  -0.15059  -0.50077   0.21052
  26   31027.6    322.3   0.000104333   0.00111   0.00987   0.02828  -0.01450
  27   31240.9    320.1   0.000538981   0.00568   0.06062  -0.02553  -0.03679
  28   31542.8    317.0   0.082111614   0.85700   0.57720  -0.61402  -0.38318
  29   31689.2    315.6   0.016845995   0.17501  -0.24017   0.23231   0.25171
  30   31751.4    314.9   0.001647628   0.01708  -0.09229   0.03206   0.08682
  31   32340.3    309.2   0.034454798   0.35074  -0.31770  -0.36427   0.34222
  32   32661.0    306.2   0.189694574   1.91206  -0.17411  -1.28940   0.46817
  33   33377.2    299.6   0.000680889   0.00672  -0.01909  -0.07815  -0.01563
  34   33497.5    298.5   0.276706735   2.71946   0.32247   1.48693  -0.63601
  35   34101.0    293.2   0.296919575   2.86647   0.59174  -1.57071  -0.22180
  36   34170.8    292.6   0.056206668   0.54151  -0.32631   0.64246   0.14924
  37   34256.7    291.9   0.003931232   0.03778   0.06192  -0.16778  -0.07613
  38   34459.7    290.2   0.048769944   0.46593   0.28842  -0.57445  -0.22965
  39   34970.1    286.0   0.006108497   0.05751  -0.07598  -0.13036   0.18638
  40   35015.8    285.6   0.005125056   0.04818  -0.17527  -0.01531   0.13127
  41   35102.5    284.9   0.023432875   0.21977   0.19633  -0.40601  -0.12799
  42   35321.4    283.1   0.015435975   0.14387  -0.24399  -0.16896   0.23620
  43   35460.2    282.0   0.227965701   2.11643  -0.29532   1.42449   0.00697
  44   35840.3    279.0   0.000328083   0.00301   0.03806  -0.01260  -0.03751
  45   35915.7    278.4   0.008339498   0.07644  -0.19135  -0.10307   0.17089
  46   35982.3    277.9   0.159587807   1.46011   0.78726   0.65337  -0.64299
  47   36407.0    274.7   0.212270584   1.91947  -0.80712   1.07857   0.32360
  48   36898.9    271.0   0.065374948   0.58328   0.60759  -0.20076  -0.41689
  49   36915.4    270.9   0.006346288   0.05660   0.20907  -0.09472  -0.06257
  50   37310.5    268.0   0.146868740   1.29591  -0.19804  -1.07303   0.32448
  51   37487.4    266.8   0.025142447   0.22080   0.24534   0.32580  -0.23338
  52   37746.0    264.9   0.022071265   0.19250  -0.15659   0.40439  -0.06670
  53   37876.6    264.0   0.000477298   0.00415  -0.06302   0.01076   0.00783
  54   38023.4    263.0   0.012901512   0.11170  -0.22427  -0.16851   0.18169
  55   38706.1    258.4   0.003797864   0.03230  -0.08511   0.15261   0.04207
  56   38828.1    257.5   0.015651971   0.13271   0.28021  -0.16727  -0.16191
  57   39210.6    255.0   0.048505528   0.40725   0.48486   0.22520  -0.34850
  58   39568.8    252.7   0.031275990   0.26022   0.26075   0.28246  -0.33533
  59   39971.9    250.2   0.072170416   0.59440  -0.64719  -0.06584   0.41377
  60   40215.1    248.7   0.010502443   0.08598  -0.01390   0.27924  -0.08836

FINAL SINGLE POINT ENERGY     -4749.251569443907

DIPOLE MOMENT
-------------
                                X             Y             Z
Electronic contribution:      4.89379      13.11343      -6.02719
Nuclear contribution   :      0.29217     -10.31463       1.30214
                        -----------------------------------------
Total Dipole Moment    :      5.18596       2.79880      -4.72505
                        -----------------------------------------
Magnitude (a.u.)       :      7.55338
Magnitude (Debye)      :     19.19917

Rotational constants in cm-1:     0.001105     0.000565     0.000375
Rotational constants in MHz :    33.126468    16.948086    11.244040

                             ****ORCA TERMINATED NORMALLY****
TOTAL RUN TIME: 0 days 0 hours 8 minutes 31 seconds 168 msec
