                         Program Version 4.2.0 -  RELEASE  -
|  1> # ORCA input file
|  2> # SCF done       -150.586650467611          0.000858727403
|  3> ! CAM-B3LYP def2-SVP def2/J RIJCOSX Grid4 TightSCF
|  4> %maxcore 5000
|  5> %tddft
|  6>     Mode sTDDFT
|  7>     Ethresh 5.0
|  8>     maxcore 5000
|  9> end
| 10>
| 11> %pal
| 12>   nprocs 6
| 13>   end
| 14> * xyz 0 1
| 15>    O       -1.43001         3.15754        -2.09393
| 16>    N       -2.09158         3.19077        -0.93482
| 17>    C       -1.23356         3.46222         0.01768
| 18>    C       -1.60127         3.57016         1.37760
| 19>    N       -1.88268         3.65738         2.48186
| 20>    C        0.07929         3.61753        -0.52833
| 21>    C       -0.12813         3.40681        -1.88716
| 22>    C        0.78533         3.44076        -2.95435
| 23>    N        1.54118         3.48103        -3.81401
| 24>    C        1.30761         3.91345         0.19155
| 25>    O        1.41471         4.17184         1.36412
| 26>    O        2.36965         3.86980        -0.64967
| 27>    N        3.59411         4.19595        -0.05046
| 28>    C        4.63946         3.37282        -0.37076
| 29>    S        4.50977         2.29281        -1.70740
| 30>    C        6.15181         1.79471        -1.42340
| 31>    N        6.69184         0.81982        -2.26887
| 32>    O        7.84440         0.47844        -2.07704
| 33>    O        5.95879         0.37916        -3.13768
| 34>    C        6.74360         2.43159        -0.36784
| 35>    C        5.88868         3.36287         0.26181
| 36>    C        6.22007         4.19291         1.37946
| 37>    C        7.37361         4.10596         2.09210
| 38>    C        7.68494         4.94158         3.18061
| 39>    C        8.83183         4.83598         3.92404
| 40>    C        9.21765         5.64448         5.02368
| 41>    C       10.41127         5.30306         5.57961
| 42>    C       11.04046         4.19993         4.95667
| 43>    S       10.06220         3.61728         3.62649
| 44>    C       12.23660         3.60195         5.29380
| 45>    C       13.12500         3.96165         6.33688
| 46>    C       14.22023         3.16376         6.42922
| 47>    C       14.26874         2.11897         5.46630
| 48>    S       12.84922         2.21267         4.42628
| 49>    C       15.23278         1.16193         5.33627
| 50>    C       15.20186         0.14044         4.35164
| 51>    C       16.10903        -0.84889         4.21649
| 52>    C       17.30680        -1.00001         5.10138
| 53>    C       15.94213        -1.89443         3.14638
| 54>    N       17.16362        -2.06642         2.39805
| 55>    C       17.62043        -3.27429         1.98677
| 56>    C       18.62815        -3.46354         1.12469
| 57>    O       19.01233        -4.76179         0.84764
| 58>    C       20.02215        -4.97820         0.00867
| 59>    O       20.67805        -4.13191        -0.55164
| 60>    C       20.23287        -6.42659        -0.14958
| 61>    C       19.51389        -7.51130         0.44267
| 62>    N       20.01222        -8.65980         0.04884
| 63>    O       21.02783        -8.40663        -0.77737
| 64>    C       21.18310        -7.07816        -0.91653
| 65>    C       22.19935        -6.56046        -1.74088
| 66>    N       23.02838        -6.14942        -2.41398
| 67>    C       18.42230        -7.41002         1.33178
| 68>    N       17.54101        -7.29855         2.05238
| 69>    H        3.43279         4.41051         0.93884
| 70>    H        7.75799         2.23203        -0.07618
| 71>    H        5.49277         4.94116         1.66292
| 72>    H        8.10913         3.35648         1.83454
| 73>    H        6.98128         5.71653         3.45433
| 74>    H        8.59580         6.45298         5.36547
| 75>    H       10.85405         5.80820         6.41921
| 76>    H       12.92702         4.79629         6.98522
| 77>    H       15.00123         3.28288         7.15944
| 78>    H       16.05885         1.19076         6.03193
| 79>    H       14.35982         0.17176         3.67080
| 80>    H       17.95127        -0.12389         5.03645
| 81>    H       17.88531        -1.87266         4.81164
| 82>    H       17.00365        -1.11195         6.14183
| 83>    H       15.10556        -1.62498         2.48722
| 84>    H       15.70415        -2.85492         3.61656
| 85>    H       17.51641        -1.24984         1.92307
| 86>    H       17.14603        -4.13904         2.43035
| 87>    H       19.18310        -2.68806         0.61958
| 88> *
| 89>
| 90>                          ****END OF INPUT****

CARTESIAN COORDINATES (ANGSTROEM)
---------------------------------
  O     -1.430010    3.157540   -2.093930
  N     -2.091580    3.190770   -0.934820
  C     -1.233560    3.462220    0.017680
  C     -1.601270    3.570160    1.377600
  N     -1.882680    3.657380    2.481860
  C      0.079290    3.617530   -0.528330
  C     -0.128130    3.406810   -1.887160
  C      0.785330    3.440760   -2.954350
  N      1.541180    3.481030   -3.814010
  C      1.307610    3.913450    0.191550
  O      1.414710    4.171840    1.364120
  O      2.369650    3.869800   -0.649670
  N      3.594110    4.195950   -0.050460
  C      4.639460    3.372820   -0.370760
  S      4.509770    2.292810   -1.707400
  C      6.151810    1.794710   -1.423400
  N      6.691840    0.819820   -2.268870
  O      7.844400    0.478440   -2.077040
  O      5.958790    0.379160   -3.137680
  C      6.743600    2.431590   -0.367840
  C      5.888680    3.362870    0.261810
  C      6.220070    4.192910    1.379460
  C      7.373610    4.105960    2.092100
  C      7.684940    4.941580    3.180610
  C      8.831830    4.835980    3.924040
  C      9.217650    5.644480    5.023680
  C     10.411270    5.303060    5.579610
  C     11.040460    4.199930    4.956670
  S     10.062200    3.617280    3.626490
  C     12.236600    3.601950    5.293800
  C     13.125000    3.961650    6.336880
  C     14.220230    3.163760    6.429220
  C     14.268740    2.118970    5.466300
  S     12.849220    2.212670    4.426280
  C     15.232780    1.161930    5.336270
  C     15.201860    0.140440    4.351640
  C     16.109030   -0.848890    4.216490
  C     17.306800   -1.000010    5.101380
  C     15.942130   -1.894430    3.146380
  N     17.163620   -2.066420    2.398050
  C     17.620430   -3.274290    1.986770
  C     18.628150   -3.463540    1.124690
  O     19.012330   -4.761790    0.847640
  C     20.022150   -4.978200    0.008670
  O     20.678050   -4.131910   -0.551640
  C     20.232870   -6.426590   -0.149580
  C     19.513890   -7.511300    0.442670
  N     20.012220   -8.659800    0.048840
  O     21.027830   -8.406630   -0.777370
  C     21.183100   -7.078160   -0.916530
  C     22.199350   -6.560460   -1.740880
  N     23.028380   -6.149420   -2.413980
  C     18.422300   -7.410020    1.331780
  N     17.541010   -7.298550    2.052380
  H      3.432790    4.410510    0.938840
  H      7.757990    2.232030   -0.076180
  H      5.492770    4.941160    1.662920
  H      8.109130    3.356480    1.834540
  H      6.981280    5.716530    3.454330
  H      8.595800    6.452980    5.365470
  H     10.854050    5.808200    6.419210
  H     12.927020    4.796290    6.985220
  H     15.001230    3.282880    7.159440
  H     16.058850    1.190760    6.031930
  H     14.359820    0.171760    3.670800
  H     17.951270   -0.123890    5.036450
  H     17.885310   -1.872660    4.811640
  H     17.003650   -1.111950    6.141830
  H     15.105560   -1.624980    2.487220
  H     15.704150   -2.854920    3.616560
  H     17.516410   -1.249840    1.923070
  H     17.146030   -4.139040    2.430350
  H     19.183100   -2.688060    0.619580

 Total Charge           Charge          ....    0
 Multiplicity           Mult            ....    1
 Number of Electrons    NEL             ....  398
 Basis Dimension        Dim             ....  863

ORBITAL ENERGIES
----------------

  NO   OCC          E(Eh)            E(eV)
   0   2.0000     -88.986076     -2421.4342
   1   2.0000     -88.945581     -2420.3323
   2   2.0000     -88.944936     -2420.3147
   3   2.0000     -19.394304      -527.7459
   4   2.0000     -19.370241      -527.0910
   5   2.0000     -19.352689      -526.6134
   6   2.0000     -19.290215      -524.9134
   7   2.0000     -19.271858      -524.4139
   8   2.0000     -19.233034      -523.3575
   9   2.0000     -19.232342      -523.3386
  10   2.0000     -19.222971      -523.0836
  11   2.0000     -14.644755      -398.5041
  12   2.0000     -14.534866      -395.5138
  13   2.0000     -14.526868      -395.2962
  14   2.0000     -14.513633      -394.9360
  15   2.0000     -14.468566      -393.7097
  16   2.0000     -14.451400      -393.2426
  17   2.0000     -14.443951      -393.0399
  18   2.0000     -14.436123      -392.8269
  19   2.0000     -14.431179      -392.6923
  20   2.0000     -10.473000      -284.9848
  21   2.0000     -10.443728      -284.1883
  22   2.0000     -10.429848      -283.8106
  23   2.0000     -10.414245      -283.3860
  24   2.0000     -10.404477      -283.1202
  25   2.0000     -10.380322      -282.4629
  26   2.0000     -10.373542      -282.2784
  27   2.0000     -10.369647      -282.1724
  28   2.0000     -10.363858      -282.0149
  29   2.0000     -10.348197      -281.5888
  30   2.0000     -10.343908      -281.4720
  31   2.0000     -10.340611      -281.3823
  32   2.0000     -10.338846      -281.3343
  33   2.0000     -10.335540      -281.2443
  34   2.0000     -10.313358      -280.6407
  35   2.0000     -10.313075      -280.6330
  36   2.0000     -10.312887      -280.6279
  37   2.0000     -10.311498      -280.5901
  38   2.0000     -10.310238      -280.5558
  39   2.0000     -10.309169      -280.5268
  40   2.0000     -10.308254      -280.5018
  41   2.0000     -10.307090      -280.4702
  42   2.0000     -10.300736      -280.2973
  43   2.0000     -10.291539      -280.0470
  44   2.0000     -10.290725      -280.0249
  45   2.0000     -10.289747      -279.9982
  46   2.0000     -10.287980      -279.9502
  47   2.0000     -10.286618      -279.9131
  48   2.0000     -10.284877      -279.8657
  49   2.0000     -10.283163      -279.8191
  50   2.0000     -10.280598      -279.7493
  51   2.0000     -10.280101      -279.7358
  52   2.0000     -10.271065      -279.4899
  53   2.0000     -10.266779      -279.3732
  54   2.0000      -8.081383      -219.9056
  55   2.0000      -8.041923      -218.8318
  56   2.0000      -8.041283      -218.8144
  57   2.0000      -6.051138      -164.6598
  58   2.0000      -6.046584      -164.5359
  59   2.0000      -6.042776      -164.4323
  60   2.0000      -6.011674      -163.5860
  61   2.0000      -6.011022      -163.5682
  62   2.0000      -6.007733      -163.4787
  63   2.0000      -6.007098      -163.4615
  64   2.0000      -6.002708      -163.3420
  65   2.0000      -6.002064      -163.3245
  66   2.0000      -1.335941       -36.3528
  67   2.0000      -1.314109       -35.7587
  68   2.0000      -1.312261       -35.7084
  69   2.0000      -1.284944       -34.9651
  70   2.0000      -1.219051       -33.1721
  71   2.0000      -1.177532       -32.0423
  72   2.0000      -1.132988       -30.8302
  73   2.0000      -1.121514       -30.5179
  74   2.0000      -1.056303       -28.7435
  75   2.0000      -1.051086       -28.6015
  76   2.0000      -1.042487       -28.3675
  77   2.0000      -1.034795       -28.1582
  78   2.0000      -1.033528       -28.1237
  79   2.0000      -1.022609       -27.8266
  80   2.0000      -1.018336       -27.7103
  81   2.0000      -0.999861       -27.2076
  82   2.0000      -0.997570       -27.1453
  83   2.0000      -0.996727       -27.1223
  84   2.0000      -0.975113       -26.5342
  85   2.0000      -0.974834       -26.5266
  86   2.0000      -0.958883       -26.0925
  87   2.0000      -0.922843       -25.1118
  88   2.0000      -0.917843       -24.9758
  89   2.0000      -0.893509       -24.3136
  90   2.0000      -0.881194       -23.9785
  91   2.0000      -0.871376       -23.7114
  92   2.0000      -0.860559       -23.4170
  93   2.0000      -0.849316       -23.1111
  94   2.0000      -0.847153       -23.0522
  95   2.0000      -0.833000       -22.6671
  96   2.0000      -0.822561       -22.3830
  97   2.0000      -0.819132       -22.2897
  98   2.0000      -0.813999       -22.1500
  99   2.0000      -0.801678       -21.8148
 100   2.0000      -0.798121       -21.7180
 101   2.0000      -0.793350       -21.5881
 102   2.0000      -0.780949       -21.2507
 103   2.0000      -0.770638       -20.9701
 104   2.0000      -0.757560       -20.6142
 105   2.0000      -0.748132       -20.3577
 106   2.0000      -0.743119       -20.2213
 107   2.0000      -0.726866       -19.7790
 108   2.0000      -0.711085       -19.3496
 109   2.0000      -0.705220       -19.1900
 110   2.0000      -0.689444       -18.7607
 111   2.0000      -0.673814       -18.3354
 112   2.0000      -0.669805       -18.2263
 113   2.0000      -0.658518       -17.9192
 114   2.0000      -0.654860       -17.8197
 115   2.0000      -0.650466       -17.7001
 116   2.0000      -0.645296       -17.5594
 117   2.0000      -0.636426       -17.3180
 118   2.0000      -0.632665       -17.2157
 119   2.0000      -0.630953       -17.1691
 120   2.0000      -0.630081       -17.1454
 121   2.0000      -0.626000       -17.0343
 122   2.0000      -0.622330       -16.9345
 123   2.0000      -0.616954       -16.7882
 124   2.0000      -0.610572       -16.6145
 125   2.0000      -0.609676       -16.5901
 126   2.0000      -0.607300       -16.5255
 127   2.0000      -0.605196       -16.4682
 128   2.0000      -0.603005       -16.4086
 129   2.0000      -0.589971       -16.0539
 130   2.0000      -0.586971       -15.9723
 131   2.0000      -0.573975       -15.6187
 132   2.0000      -0.571984       -15.5645
 133   2.0000      -0.569144       -15.4872
 134   2.0000      -0.565540       -15.3891
 135   2.0000      -0.561783       -15.2869
 136   2.0000      -0.558157       -15.1882
 137   2.0000      -0.551667       -15.0116
 138   2.0000      -0.545875       -14.8540
 139   2.0000      -0.543645       -14.7933
 140   2.0000      -0.535817       -14.5803
 141   2.0000      -0.529178       -14.3997
 142   2.0000      -0.523454       -14.2439
 143   2.0000      -0.512649       -13.9499
 144   2.0000      -0.511082       -13.9073
 145   2.0000      -0.506781       -13.7902
 146   2.0000      -0.502223       -13.6662
 147   2.0000      -0.500536       -13.6203
 148   2.0000      -0.498261       -13.5584
 149   2.0000      -0.494267       -13.4497
 150   2.0000      -0.492992       -13.4150
 151   2.0000      -0.491897       -13.3852
 152   2.0000      -0.488978       -13.3058
 153   2.0000      -0.488742       -13.2993
 154   2.0000      -0.480300       -13.0696
 155   2.0000      -0.476114       -12.9557
 156   2.0000      -0.474357       -12.9079
 157   2.0000      -0.474007       -12.8984
 158   2.0000      -0.472628       -12.8609
 159   2.0000      -0.470468       -12.8021
 160   2.0000      -0.468151       -12.7390
 161   2.0000      -0.467620       -12.7246
 162   2.0000      -0.467059       -12.7093
 163   2.0000      -0.463950       -12.6247
 164   2.0000      -0.462100       -12.5744
 165   2.0000      -0.460767       -12.5381
 166   2.0000      -0.460467       -12.5299
 167   2.0000      -0.456456       -12.4208
 168   2.0000      -0.454089       -12.3564
 169   2.0000      -0.449182       -12.2229
 170   2.0000      -0.447797       -12.1852
 171   2.0000      -0.440670       -11.9912
 172   2.0000      -0.439721       -11.9654
 173   2.0000      -0.434252       -11.8166
 174   2.0000      -0.432263       -11.7625
 175   2.0000      -0.425826       -11.5873
 176   2.0000      -0.422089       -11.4856
 177   2.0000      -0.420027       -11.4295
 178   2.0000      -0.419002       -11.4016
 179   2.0000      -0.417746       -11.3674
 180   2.0000      -0.405690       -11.0394
 181   2.0000      -0.401014       -10.9121
 182   2.0000      -0.397291       -10.8108
 183   2.0000      -0.396562       -10.7910
 184   2.0000      -0.395434       -10.7603
 185   2.0000      -0.394300       -10.7295
 186   2.0000      -0.380881       -10.3643
 187   2.0000      -0.377703       -10.2778
 188   2.0000      -0.373693       -10.1687
 189   2.0000      -0.372850       -10.1458
 190   2.0000      -0.362042        -9.8517
 191   2.0000      -0.361515        -9.8373
 192   2.0000      -0.341902        -9.3036
 193   2.0000      -0.329368        -8.9625
 194   2.0000      -0.326666        -8.8890
 195   2.0000      -0.305393        -8.3102
 196   2.0000      -0.273342        -7.4380
 197   2.0000      -0.261696        -7.1211
 198   2.0000      -0.212919        -5.7938
 199   0.0000      -0.095696        -2.6040
 200   0.0000      -0.078596        -2.1387
 201   0.0000      -0.065876        -1.7926
 202   0.0000      -0.057281        -1.5587
 203   0.0000      -0.047660        -1.2969

MULLIKEN ATOMIC CHARGES
-----------------------
   0 O :   -0.125628
   1 N :    0.079017
   2 C :   -0.185339
   3 C :   -0.163107
   4 N :    0.263372
   5 C :    0.043945
   6 C :    0.022364
   7 C :   -0.150039
   8 N :    0.263672
   9 C :    0.194413
  10 O :   -0.163160
  11 O :   -0.249197
  12 N :    0.037817
  13 C :   -0.097130
  14 S :    0.204433
  15 C :   -0.019607
  16 N :    0.279432
  17 O :   -0.252627
  18 O :   -0.266588
  19 C :    0.003951
  20 C :    0.132875
  21 C :   -0.054870
  22 C :    0.018108
  23 C :   -0.021354
  24 C :   -0.013512
  25 C :    0.033868
  26 C :    0.029231
  27 C :   -0.048137
  28 S :    0.064475
  29 C :   -0.045631
  30 C :    0.026387
  31 C :    0.034708
  32 C :   -0.011476
  33 S :    0.068324
  34 C :   -0.026011
  35 C :   -0.002415
  36 C :   -0.227274
  37 C :    0.097821
  38 C :    0.236219
  39 N :   -0.194169
  40 C :    0.083494
  41 C :    0.065872
  42 O :   -0.244149
  43 C :    0.179496
  44 O :   -0.178931
  45 C :    0.040649
  46 C :   -0.190046
  47 N :    0.070225
  48 O :   -0.135775
  49 C :   -0.009062
  50 C :   -0.145361
  51 N :    0.244824
  52 C :   -0.151618
  53 N :    0.231060
  54 H :    0.172592
  55 H :    0.013390
  56 H :   -0.028042
  57 H :    0.000447
  58 H :   -0.019988
  59 H :   -0.013686
  60 H :   -0.012613
  61 H :   -0.013724
  62 H :   -0.011300
  63 H :   -0.018176
  64 H :   -0.015803
  65 H :    0.030228
  66 H :    0.017529
  67 H :    0.030682
  68 H :    0.009188
  69 H :    0.026257
  70 H :    0.115960
  71 H :    0.026337
  72 H :    0.012886
Sum of atomic charges:   -0.0000000

LOEWDIN ATOMIC CHARGES
----------------------
   0 O :    0.082484
   1 N :    0.030130
   2 C :   -0.042633
   3 C :   -0.033340
   4 N :    0.018522
   5 C :   -0.080909
   6 C :    0.043868
   7 C :   -0.046114
   8 N :    0.034705
   9 C :    0.090779
  10 O :   -0.136969
  11 O :   -0.038075
  12 N :    0.074545
  13 C :   -0.130326
  14 S :    0.474480
  15 C :   -0.212072
  16 N :    0.274012
  17 O :   -0.218834
  18 O :   -0.232045
  19 C :    0.005876
  20 C :   -0.099294
  21 C :   -0.040127
  22 C :   -0.022005
  23 C :   -0.064932
  24 C :   -0.139364
  25 C :   -0.037343
  26 C :   -0.027569
  27 C :   -0.182114
  28 S :    0.363613
  29 C :   -0.175305
  30 C :   -0.032379
  31 C :   -0.030937
  32 C :   -0.141000
  33 S :    0.364253
  34 C :   -0.055913
  35 C :   -0.057674
  36 C :   -0.033375
  37 C :   -0.055846
  38 C :    0.047826
  39 N :   -0.019852
  40 C :    0.018496
  41 C :   -0.048575
  42 O :   -0.025923
  43 C :    0.078217
  44 O :   -0.159725
  45 C :   -0.069898
  46 C :   -0.057033
  47 N :    0.020509
  48 O :    0.073599
  49 C :    0.033476
  50 C :   -0.038321
  51 N :    0.019974
  52 C :   -0.027197
  53 N :   -0.011466
  54 H :    0.076497
  55 H :    0.045201
  56 H :    0.022977
  57 H :    0.022133
  58 H :    0.031262
  59 H :    0.033117
  60 H :    0.032158
  61 H :    0.031761
  62 H :    0.033706
  63 H :    0.030615
  64 H :    0.019375
  65 H :    0.037756
  66 H :    0.030860
  67 H :    0.036992
  68 H :    0.020886
  69 H :    0.036098
  70 H :    0.077669
  71 H :    0.037780
  72 H :    0.018278

  Mayer bond orders larger than 0.100000
B(  0-O ,  1-N ) :   1.0208 B(  0-O ,  6-C ) :   1.1968 B(  1-N ,  2-C ) :   1.7093
B(  1-N ,  6-C ) :   0.1018 B(  2-C ,  3-C ) :   1.1590 B(  2-C ,  5-C ) :   1.2415
B(  3-C ,  4-N ) :   3.0634 B(  5-C ,  6-C ) :   1.5107 B(  5-C ,  9-C ) :   0.9154
B(  6-C ,  7-C ) :   1.1394 B(  7-C ,  8-N ) :   3.0267 B(  9-C , 10-O ) :   2.1355
B(  9-C , 11-O ) :   1.1526 B( 11-O , 12-N ) :   0.9122 B( 12-N , 13-C ) :   1.1583
B( 12-N , 54-H ) :   0.8770 B( 13-C , 14-S ) :   1.1464 B( 13-C , 20-C ) :   1.3855
B( 14-S , 15-C ) :   1.0702 B( 15-C , 16-N ) :   0.9723 B( 15-C , 19-C ) :   1.5011
B( 16-N , 17-O ) :   1.5324 B( 16-N , 18-O ) :   1.5103 B( 17-O , 18-O ) :   0.2564
B( 19-C , 20-C ) :   1.2241 B( 19-C , 55-H ) :   0.9977 B( 20-C , 21-C ) :   1.0639
B( 21-C , 22-C ) :   1.6771 B( 21-C , 56-H ) :   0.9804 B( 22-C , 23-C ) :   1.1452
B( 22-C , 57-H ) :   0.9685 B( 23-C , 24-C ) :   1.5701 B( 23-C , 58-H ) :   0.9855
B( 24-C , 25-C ) :   1.1357 B( 24-C , 28-S ) :   1.0326 B( 25-C , 26-C ) :   1.5960
B( 25-C , 59-H ) :   0.9995 B( 26-C , 27-C ) :   1.1842 B( 26-C , 60-H ) :   0.9938
B( 27-C , 28-S ) :   1.0378 B( 27-C , 29-C ) :   1.5244 B( 29-C , 30-C ) :   1.1753
B( 29-C , 33-S ) :   1.0440 B( 30-C , 31-C ) :   1.6091 B( 30-C , 61-H ) :   0.9943
B( 31-C , 32-C ) :   1.1218 B( 31-C , 62-H ) :   0.9987 B( 32-C , 33-S ) :   1.0230
B( 32-C , 34-C ) :   1.6323 B( 34-C , 35-C ) :   1.1056 B( 34-C , 63-H ) :   0.9694
B( 35-C , 36-C ) :   1.7584 B( 35-C , 64-H ) :   0.9650 B( 36-C , 37-C ) :   1.0734
B( 36-C , 38-C ) :   1.0577 B( 37-C , 65-H ) :   0.9457 B( 37-C , 66-H ) :   0.9515
B( 37-C , 67-H ) :   0.9440 B( 38-C , 39-N ) :   0.9805 B( 38-C , 68-H ) :   0.9381
B( 38-C , 69-H ) :   0.9209 B( 39-N , 40-C ) :   1.1895 B( 39-N , 70-H ) :   0.9463
B( 40-C , 41-C ) :   1.6943 B( 40-C , 71-H ) :   0.9541 B( 41-C , 42-O ) :   0.9312
B( 41-C , 72-H ) :   0.9884 B( 42-O , 43-C ) :   1.2391 B( 43-C , 44-O ) :   2.1362
B( 43-C , 45-C ) :   0.8782 B( 45-C , 46-C ) :   1.2241 B( 45-C , 49-C ) :   1.5506
B( 46-C , 47-N ) :   1.7023 B( 46-C , 52-C ) :   1.1623 B( 47-N , 48-O ) :   1.0283
B( 47-N , 49-C ) :   0.1041 B( 48-O , 49-C ) :   1.1753 B( 49-C , 50-C ) :   1.1341
B( 50-C , 51-N ) :   3.0341 B( 52-C , 53-N ) :   3.0364

-----------------------------------------------------------------------------
         ABSORPTION SPECTRUM VIA TRANSITION ELECTRIC DIPOLE MOMENTS
-----------------------------------------------------------------------------
State   Energy  Wavelength   fosc         T2         TX        TY        TZ
        (cm-1)    (nm)                  (au**2)     (au)      (au)      (au)
-----------------------------------------------------------------------------
   0   14552.2    687.2   0.185511682   4.19681  -1.88861   0.43695  -0.66259
   1   16356.2    611.4   1.324008632  26.64915   4.51822  -1.59684   1.91963
   2   21867.5    457.3   0.126142375   1.89906  -1.03506   0.85439   0.31260
   3   24044.1    415.9   0.043003234   0.58880   0.31506  -0.49729  -0.49217
   4   24287.5    411.7   0.006912749   0.09370  -0.14484  -0.26967   0.00037
   5   24702.9    404.8   0.021917102   0.29209  -0.52080  -0.00548  -0.14431
   6   25365.0    394.2   0.021446669   0.27836  -0.35457   0.27169   0.28075
   7   25655.4    389.8   0.178777040   2.29408   0.76511  -0.91472  -0.93379
   8   27305.2    366.2   0.049502191   0.59683  -0.13386  -0.46309  -0.60371
   9   29513.1    338.8   0.698635211   7.79313  -0.05182   2.03527   1.91001
  10   29863.3    334.9   0.032264861   0.35569  -0.35971  -0.34993  -0.32225
  11   30475.7    328.1   0.013493455   0.14576  -0.11520   0.27112   0.24287
  12   31152.2    321.0   0.013418692   0.14181   0.25092  -0.20496  -0.19193
  13   31814.3    314.3   0.018744417   0.19397   0.17484  -0.28408  -0.28757
  14   32751.3    305.3   0.015678989   0.15760  -0.36344   0.13121   0.09108
  15   33224.5    301.0   0.135864734   1.34625   0.82408  -0.70259  -0.41653
  16   33430.4    299.1   0.001255600   0.01236  -0.09456  -0.03313  -0.04823
  17   33516.7    298.4   0.036010350   0.35371  -0.41418   0.36797   0.21622
  18   34304.5    291.5   0.105459031   1.01206  -0.27537  -0.67828  -0.69005
  19   35348.1    282.9   0.005782122   0.05385   0.04132   0.00521  -0.22829
  20   36892.2    271.1   0.082203916   0.73356  -0.73635   0.39797  -0.18156
  21   37313.2    268.0   0.003012546   0.02658   0.11399   0.03657   0.11067
  22   37663.4    265.5   0.000353889   0.00309  -0.02831   0.04783  -0.00210
  23   37814.9    264.4   0.026101058   0.22723  -0.08910  -0.30509  -0.35527
  24   37938.4    263.6   0.039851356   0.34581   0.17424  -0.41564  -0.37775
  25   38200.5    261.8   0.020872508   0.17988   0.00325  -0.27319  -0.32440
  26   39567.8    252.7   0.002356225   0.01960   0.09660  -0.09958  -0.01889

FINAL SINGLE POINT ENERGY     -3592.463140512065

DIPOLE MOMENT
-------------
                                X             Y             Z
Electronic contribution:    -47.98507     -12.13394     -41.54634
Nuclear contribution   :     47.04704      14.74406      44.07996
                        -----------------------------------------
Total Dipole Moment    :     -0.93803       2.61012       2.53362
                        -----------------------------------------
Magnitude (a.u.)       :      3.75658
Magnitude (Debye)      :      9.54846

Rotational constants in cm-1:     0.001709     0.000313     0.000273
Rotational constants in MHz :    51.227450     9.375835     8.198687

                             ****ORCA TERMINATED NORMALLY****
TOTAL RUN TIME: 0 days 0 hours 9 minutes 45 seconds 799 msec
