                         Program Version 4.2.0 -  RELEASE  -
|  1> # ORCA input file
|  2> # SCF done       -176.330487440022          0.000955548910
|  3> ! CAM-B3LYP def2-SVP def2/J RIJCOSX Grid4 TightSCF
|  4> %maxcore 5000
|  5> %tddft
|  6>     Mode sTDDFT
|  7>     Ethresh 5.0
|  8>     maxcore 5000
|  9> end
| 10>
| 11> %pal
| 12>   nprocs 6
| 13>   end
| 14> * xyz 0 1
| 15>    O       11.25671        -6.30185        -0.84771
| 16>    N       12.03664        -6.29080         0.23332
| 17>    C       11.63662        -5.30975         1.00624
| 18>    C       12.24489        -5.01016         2.24398
| 19>    N       12.72584        -4.76685         3.25293
| 20>    C       10.52956        -4.62084         0.40973
| 21>    C       10.34399        -5.31831        -0.77269
| 22>    C        9.45229        -5.16188        -1.85052
| 23>    N        8.78378        -5.04988        -2.77273
| 24>    C        9.87008        -3.46498         1.02217
| 25>    O       10.24979        -2.97419         2.06284
| 26>    O        8.83513        -3.00879         0.30665
| 27>    C        8.15004        -1.91681         0.74589
| 28>    S        8.66118        -1.00989         2.12154
| 29>    C        7.38472         0.11208         1.85642
| 30>    C        6.61757        -0.17772         0.77739
| 31>    C        5.44013         0.62990         0.34477
| 32>    C        7.04456        -1.37148         0.10808
| 33>    C        6.40090        -1.88031        -1.06569
| 34>    C        6.52835        -3.14330        -1.53438
| 35>    C        5.98991        -3.65625        -2.74441
| 36>    C        5.21452        -3.01789        -3.66172
| 37>    C        4.85964        -3.65267        -4.87691
| 38>    O        5.36277        -4.87964        -5.16225
| 39>    C        4.07669        -3.25349        -5.95164
| 40>    C        3.22959        -2.17554        -6.46454
| 41>    O        2.91607        -1.11451        -5.99028
| 42>    N        2.82069        -2.64766        -7.71297
| 43>    C        3.31070        -3.90263        -8.06674
| 44>    O        3.07484        -4.47501        -9.09911
| 45>    C        4.12737        -4.28978        -6.91230
| 46>    C        4.94245        -5.28649        -6.39474
| 47>    C        5.39949        -6.52188        -6.89668
| 48>    C        6.24104        -7.29483        -6.14169
| 49>    C        6.83333        -8.50691        -6.50172
| 50>    C        7.67471        -9.17626        -5.63523
| 51>    C        8.40737       -10.36502        -5.84667
| 52>    C        9.17234       -10.74826        -4.78000
| 53>    C        9.06402        -9.88634        -3.66995
| 54>    S        7.98167        -8.57046        -4.01649
| 55>    C        9.67474        -9.96062        -2.42307
| 56>    C       10.63520       -10.86141        -1.93296
| 57>    C       11.03017       -10.59733        -0.64744
| 58>    C       10.38470        -9.49084        -0.06265
| 59>    S        9.26697        -8.77960        -1.20402
| 60>    C       10.56428        -8.95304         1.20456
| 61>    C        9.80186        -7.87775         1.63335
| 62>    C        9.95754        -7.15785         2.80395
| 63>    C        9.20502        -5.99914         3.18592
| 64>    C        8.17972        -5.40138         2.47710
| 65>    C        7.42468        -4.30345         2.92942
| 66>    N        6.75078        -3.41240         3.19972
| 67>    C        7.75392        -5.75866         1.18817
| 68>    N        7.39626        -5.92487         0.10555
| 69>    C        9.74224        -5.51475         4.45037
| 70>    C       10.78132        -6.38471         4.86495
| 71>    C       10.94708        -7.45611         3.85946
| 72>    O       11.73406        -8.37943         3.89557
| 73>    C       11.51504        -6.16519         6.00246
| 74>    C       11.21358        -5.02859         6.76254
| 75>    C       10.18427        -4.16064         6.33083
| 76>    C        9.43703        -4.38443         5.18098
| 77>    S        9.99598        -2.80799         7.40365
| 78>    C       11.28201        -3.42108         8.40738
| 79>    C       11.82771        -4.57789         7.96255
| 80>   Br       11.77957        -2.48141         9.95089
| 81>    H        7.26864         0.93508         2.53331
| 82>    H        5.28948         1.46376         1.02449
| 83>    H        4.54139         0.01555         0.33921
| 84>    H        5.59224         1.02340        -0.65956
| 85>    H        5.76664        -1.17687        -1.58649
| 86>    H        7.10492        -3.85333        -0.96203
| 87>    H        6.27210        -4.67700        -2.96428
| 88>    H        4.84349        -2.01390        -3.52771
| 89>    H        2.21337        -2.11479        -8.31907
| 90>    H        5.07315        -6.80830        -7.88437
| 91>    H        6.49296        -6.91515        -5.15870
| 92>    H        6.65172        -8.92953        -7.48016
| 93>    H        8.35630       -10.90003        -6.77864
| 94>    H        9.79663       -11.62360        -4.76409
| 95>    H       11.01999       -11.66898        -2.52985
| 96>    H       11.76157       -11.17027        -0.10606
| 97>    H       11.32286        -9.36586         1.85205
| 98>    H        9.01770        -7.55570         0.95634
| 99>    H       12.30784        -6.83717         6.29010
|100>    H        8.67274        -3.68631         4.88304
|101>    H       12.63156        -5.09207         8.45696
|102> *
|103>
|104>                          ****END OF INPUT****

CARTESIAN COORDINATES (ANGSTROEM)
---------------------------------
  O     11.256710   -6.301850   -0.847710
  N     12.036640   -6.290800    0.233320
  C     11.636620   -5.309750    1.006240
  C     12.244890   -5.010160    2.243980
  N     12.725840   -4.766850    3.252930
  C     10.529560   -4.620840    0.409730
  C     10.343990   -5.318310   -0.772690
  C      9.452290   -5.161880   -1.850520
  N      8.783780   -5.049880   -2.772730
  C      9.870080   -3.464980    1.022170
  O     10.249790   -2.974190    2.062840
  O      8.835130   -3.008790    0.306650
  C      8.150040   -1.916810    0.745890
  S      8.661180   -1.009890    2.121540
  C      7.384720    0.112080    1.856420
  C      6.617570   -0.177720    0.777390
  C      5.440130    0.629900    0.344770
  C      7.044560   -1.371480    0.108080
  C      6.400900   -1.880310   -1.065690
  C      6.528350   -3.143300   -1.534380
  C      5.989910   -3.656250   -2.744410
  C      5.214520   -3.017890   -3.661720
  C      4.859640   -3.652670   -4.876910
  O      5.362770   -4.879640   -5.162250
  C      4.076690   -3.253490   -5.951640
  C      3.229590   -2.175540   -6.464540
  O      2.916070   -1.114510   -5.990280
  N      2.820690   -2.647660   -7.712970
  C      3.310700   -3.902630   -8.066740
  O      3.074840   -4.475010   -9.099110
  C      4.127370   -4.289780   -6.912300
  C      4.942450   -5.286490   -6.394740
  C      5.399490   -6.521880   -6.896680
  C      6.241040   -7.294830   -6.141690
  C      6.833330   -8.506910   -6.501720
  C      7.674710   -9.176260   -5.635230
  C      8.407370  -10.365020   -5.846670
  C      9.172340  -10.748260   -4.780000
  C      9.064020   -9.886340   -3.669950
  S      7.981670   -8.570460   -4.016490
  C      9.674740   -9.960620   -2.423070
  C     10.635200  -10.861410   -1.932960
  C     11.030170  -10.597330   -0.647440
  C     10.384700   -9.490840   -0.062650
  S      9.266970   -8.779600   -1.204020
  C     10.564280   -8.953040    1.204560
  C      9.801860   -7.877750    1.633350
  C      9.957540   -7.157850    2.803950
  C      9.205020   -5.999140    3.185920
  C      8.179720   -5.401380    2.477100
  C      7.424680   -4.303450    2.929420
  N      6.750780   -3.412400    3.199720
  C      7.753920   -5.758660    1.188170
  N      7.396260   -5.924870    0.105550
  C      9.742240   -5.514750    4.450370
  C     10.781320   -6.384710    4.864950
  C     10.947080   -7.456110    3.859460
  O     11.734060   -8.379430    3.895570
  C     11.515040   -6.165190    6.002460
  C     11.213580   -5.028590    6.762540
  C     10.184270   -4.160640    6.330830
  C      9.437030   -4.384430    5.180980
  S      9.995980   -2.807990    7.403650
  C     11.282010   -3.421080    8.407380
  C     11.827710   -4.577890    7.962550
  Br    11.779570   -2.481410    9.950890
  H      7.268640    0.935080    2.533310
  H      5.289480    1.463760    1.024490
  H      4.541390    0.015550    0.339210
  H      5.592240    1.023400   -0.659560
  H      5.766640   -1.176870   -1.586490
  H      7.104920   -3.853330   -0.962030
  H      6.272100   -4.677000   -2.964280
  H      4.843490   -2.013900   -3.527710
  H      2.213370   -2.114790   -8.319070
  H      5.073150   -6.808300   -7.884370
  H      6.492960   -6.915150   -5.158700
  H      6.651720   -8.929530   -7.480160
  H      8.356300  -10.900030   -6.778640
  H      9.796630  -11.623600   -4.764090
  H     11.019990  -11.668980   -2.529850
  H     11.761570  -11.170270   -0.106060
  H     11.322860   -9.365860    1.852050
  H      9.017700   -7.555700    0.956340
  H     12.307840   -6.837170    6.290100
  H      8.672740   -3.686310    4.883040
  H     12.631560   -5.092070    8.456960

 Total Charge           Charge          ....    0
 Multiplicity           Mult            ....    1
 Number of Electrons    NEL             ....  506
 Basis Dimension        Dim             .... 1063

ORBITAL ENERGIES
----------------

  NO   OCC          E(Eh)            E(eV)
   0   2.0000    -482.874334    -13139.6786
   1   2.0000     -88.969496     -2420.9831
   2   2.0000     -88.964907     -2420.8582
   3   2.0000     -88.961619     -2420.7687
   4   2.0000     -88.951230     -2420.4860
   5   2.0000     -62.552060     -1702.1281
   6   2.0000     -56.385991     -1534.3408
   7   2.0000     -56.383310     -1534.2679
   8   2.0000     -56.383270     -1534.2668
   9   2.0000     -19.370647      -527.1021
  10   2.0000     -19.318104      -525.6723
  11   2.0000     -19.305025      -525.3164
  12   2.0000     -19.244319      -523.6645
  13   2.0000     -19.208974      -522.7028
  14   2.0000     -19.205081      -522.5968
  15   2.0000     -19.200780      -522.4798
  16   2.0000     -14.511167      -394.8689
  17   2.0000     -14.450548      -393.2194
  18   2.0000     -14.448048      -393.1514
  19   2.0000     -14.430591      -392.6764
  20   2.0000     -14.414197      -392.2303
  21   2.0000     -14.402582      -391.9142
  22   2.0000     -10.449850      -284.3549
  23   2.0000     -10.419050      -283.5168
  24   2.0000     -10.398323      -282.9527
  25   2.0000     -10.394685      -282.8538
  26   2.0000     -10.379115      -282.4301
  27   2.0000     -10.362293      -281.9723
  28   2.0000     -10.358757      -281.8761
  29   2.0000     -10.356982      -281.8278
  30   2.0000     -10.350231      -281.6441
  31   2.0000     -10.348734      -281.6034
  32   2.0000     -10.346345      -281.5384
  33   2.0000     -10.344951      -281.5004
  34   2.0000     -10.343768      -281.4682
  35   2.0000     -10.330725      -281.1133
  36   2.0000     -10.328690      -281.0580
  37   2.0000     -10.328528      -281.0535
  38   2.0000     -10.328394      -281.0499
  39   2.0000     -10.325109      -280.9605
  40   2.0000     -10.324727      -280.9501
  41   2.0000     -10.321384      -280.8591
  42   2.0000     -10.314232      -280.6645
  43   2.0000     -10.313895      -280.6554
  44   2.0000     -10.310192      -280.5546
  45   2.0000     -10.309272      -280.5296
  46   2.0000     -10.309260      -280.5292
  47   2.0000     -10.309071      -280.5241
  48   2.0000     -10.306797      -280.4622
  49   2.0000     -10.300195      -280.2826
  50   2.0000     -10.297008      -280.1958
  51   2.0000     -10.295172      -280.1459
  52   2.0000     -10.294850      -280.1371
  53   2.0000     -10.291037      -280.0333
  54   2.0000     -10.290088      -280.0075
  55   2.0000     -10.289335      -279.9870
  56   2.0000     -10.285419      -279.8805
  57   2.0000     -10.283068      -279.8165
  58   2.0000     -10.282989      -279.8144
  59   2.0000     -10.282241      -279.7940
  60   2.0000     -10.280464      -279.7457
  61   2.0000     -10.278542      -279.6934
  62   2.0000     -10.278121      -279.6819
  63   2.0000     -10.277970      -279.6778
  64   2.0000     -10.275795      -279.6186
  65   2.0000     -10.274205      -279.5753
  66   2.0000     -10.273623      -279.5595
  67   2.0000     -10.271027      -279.4889
  68   2.0000     -10.262091      -279.2457
  69   2.0000     -10.261825      -279.2385
  70   2.0000      -8.781491      -238.9565
  71   2.0000      -8.065739      -219.4799
  72   2.0000      -8.060651      -219.3415
  73   2.0000      -8.057608      -219.2587
  74   2.0000      -8.045900      -218.9401
  75   2.0000      -6.617716      -180.0772
  76   2.0000      -6.603258      -179.6838
  77   2.0000      -6.603083      -179.6790
  78   2.0000      -6.035317      -164.2293
  79   2.0000      -6.031204      -164.1174
  80   2.0000      -6.030171      -164.0893
  81   2.0000      -6.027304      -164.0113
  82   2.0000      -6.026935      -164.0012
  83   2.0000      -6.026135      -163.9795
  84   2.0000      -6.023015      -163.8946
  85   2.0000      -6.022034      -163.8679
  86   2.0000      -6.018858      -163.7814
  87   2.0000      -6.015486      -163.6897
  88   2.0000      -6.010699      -163.5594
  89   2.0000      -6.007978      -163.4854
  90   2.0000      -2.733600       -74.3850
  91   2.0000      -2.729518       -74.2740
  92   2.0000      -2.729444       -74.2720
  93   2.0000      -2.717931       -73.9587
  94   2.0000      -2.717908       -73.9580
  95   2.0000      -1.313210       -35.7343
  96   2.0000      -1.247656       -33.9504
  97   2.0000      -1.224215       -33.3126
  98   2.0000      -1.151596       -31.3365
  99   2.0000      -1.144971       -31.1562
 100   2.0000      -1.130697       -30.7678
 101   2.0000      -1.114168       -30.3181
 102   2.0000      -1.038888       -28.2696
 103   2.0000      -1.035552       -28.1788
 104   2.0000      -1.024151       -27.8686
 105   2.0000      -1.019321       -27.7371
 106   2.0000      -1.013017       -27.5656
 107   2.0000      -1.003738       -27.3131
 108   2.0000      -0.997048       -27.1311
 109   2.0000      -0.995202       -27.0808
 110   2.0000      -0.988196       -26.8902
 111   2.0000      -0.979740       -26.6601
 112   2.0000      -0.975941       -26.5567
 113   2.0000      -0.959887       -26.1198
 114   2.0000      -0.942819       -25.6554
 115   2.0000      -0.930724       -25.3263
 116   2.0000      -0.920145       -25.0384
 117   2.0000      -0.919738       -25.0273
 118   2.0000      -0.909038       -24.7362
 119   2.0000      -0.896278       -24.3890
 120   2.0000      -0.894897       -24.3514
 121   2.0000      -0.879244       -23.9254
 122   2.0000      -0.870842       -23.6968
 123   2.0000      -0.867709       -23.6116
 124   2.0000      -0.866278       -23.5726
 125   2.0000      -0.865529       -23.5522
 126   2.0000      -0.844412       -22.9776
 127   2.0000      -0.840512       -22.8715
 128   2.0000      -0.831732       -22.6326
 129   2.0000      -0.819804       -22.3080
 130   2.0000      -0.814604       -22.1665
 131   2.0000      -0.803467       -21.8635
 132   2.0000      -0.794265       -21.6130
 133   2.0000      -0.789771       -21.4908
 134   2.0000      -0.778200       -21.1759
 135   2.0000      -0.770215       -20.9586
 136   2.0000      -0.762808       -20.7570
 137   2.0000      -0.753258       -20.4972
 138   2.0000      -0.746732       -20.3196
 139   2.0000      -0.742049       -20.1922
 140   2.0000      -0.737127       -20.0582
 141   2.0000      -0.729563       -19.8524
 142   2.0000      -0.714018       -19.4294
 143   2.0000      -0.708373       -19.2758
 144   2.0000      -0.698564       -19.0089
 145   2.0000      -0.684243       -18.6192
 146   2.0000      -0.682385       -18.5686
 147   2.0000      -0.678263       -18.4565
 148   2.0000      -0.665080       -18.0978
 149   2.0000      -0.662325       -18.0228
 150   2.0000      -0.649365       -17.6701
 151   2.0000      -0.647889       -17.6299
 152   2.0000      -0.642902       -17.4942
 153   2.0000      -0.637225       -17.3398
 154   2.0000      -0.635831       -17.3018
 155   2.0000      -0.630847       -17.1662
 156   2.0000      -0.629700       -17.1350
 157   2.0000      -0.622494       -16.9389
 158   2.0000      -0.609879       -16.5956
 159   2.0000      -0.607068       -16.5192
 160   2.0000      -0.601921       -16.3791
 161   2.0000      -0.599390       -16.3102
 162   2.0000      -0.593936       -16.1618
 163   2.0000      -0.592567       -16.1246
 164   2.0000      -0.588984       -16.0271
 165   2.0000      -0.586762       -15.9666
 166   2.0000      -0.581910       -15.8346
 167   2.0000      -0.581755       -15.8304
 168   2.0000      -0.576918       -15.6987
 169   2.0000      -0.568013       -15.4564
 170   2.0000      -0.563448       -15.3322
 171   2.0000      -0.559088       -15.2135
 172   2.0000      -0.549989       -14.9660
 173   2.0000      -0.549151       -14.9432
 174   2.0000      -0.543835       -14.7985
 175   2.0000      -0.540412       -14.7053
 176   2.0000      -0.536287       -14.5931
 177   2.0000      -0.534061       -14.5325
 178   2.0000      -0.531981       -14.4759
 179   2.0000      -0.530263       -14.4292
 180   2.0000      -0.526984       -14.3400
 181   2.0000      -0.518721       -14.1151
 182   2.0000      -0.517322       -14.0771
 183   2.0000      -0.516584       -14.0570
 184   2.0000      -0.512600       -13.9485
 185   2.0000      -0.511338       -13.9142
 186   2.0000      -0.507197       -13.8015
 187   2.0000      -0.503784       -13.7087
 188   2.0000      -0.501343       -13.6422
 189   2.0000      -0.499072       -13.5804
 190   2.0000      -0.497814       -13.5462
 191   2.0000      -0.496577       -13.5125
 192   2.0000      -0.496071       -13.4988
 193   2.0000      -0.489157       -13.3106
 194   2.0000      -0.487936       -13.2774
 195   2.0000      -0.484915       -13.1952
 196   2.0000      -0.484057       -13.1719
 197   2.0000      -0.480995       -13.0885
 198   2.0000      -0.480139       -13.0653
 199   2.0000      -0.478913       -13.0319
 200   2.0000      -0.478503       -13.0207
 201   2.0000      -0.477676       -12.9982
 202   2.0000      -0.476144       -12.9565
 203   2.0000      -0.473062       -12.8727
 204   2.0000      -0.464485       -12.6393
 205   2.0000      -0.462690       -12.5904
 206   2.0000      -0.458753       -12.4833
 207   2.0000      -0.457123       -12.4389
 208   2.0000      -0.454724       -12.3737
 209   2.0000      -0.452670       -12.3178
 210   2.0000      -0.450230       -12.2514
 211   2.0000      -0.448087       -12.1931
 212   2.0000      -0.444877       -12.1057
 213   2.0000      -0.444220       -12.0878
 214   2.0000      -0.441703       -12.0194
 215   2.0000      -0.440145       -11.9770
 216   2.0000      -0.437876       -11.9152
 217   2.0000      -0.434506       -11.8235
 218   2.0000      -0.433171       -11.7872
 219   2.0000      -0.429849       -11.6968
 220   2.0000      -0.428787       -11.6679
 221   2.0000      -0.425526       -11.5792
 222   2.0000      -0.421933       -11.4814
 223   2.0000      -0.420038       -11.4298
 224   2.0000      -0.416299       -11.3281
 225   2.0000      -0.413155       -11.2425
 226   2.0000      -0.412612       -11.2277
 227   2.0000      -0.411372       -11.1940
 228   2.0000      -0.408558       -11.1174
 229   2.0000      -0.399002       -10.8574
 230   2.0000      -0.395653       -10.7663
 231   2.0000      -0.393014       -10.6945
 232   2.0000      -0.379425       -10.3247
 233   2.0000      -0.375682       -10.2228
 234   2.0000      -0.371351       -10.1050
 235   2.0000      -0.369703       -10.0601
 236   2.0000      -0.368963       -10.0400
 237   2.0000      -0.366179        -9.9642
 238   2.0000      -0.364025        -9.9056
 239   2.0000      -0.359476        -9.7819
 240   2.0000      -0.358104        -9.7445
 241   2.0000      -0.352043        -9.5796
 242   2.0000      -0.342132        -9.3099
 243   2.0000      -0.341774        -9.3002
 244   2.0000      -0.334449        -9.1008
 245   2.0000      -0.320912        -8.7325
 246   2.0000      -0.315763        -8.5924
 247   2.0000      -0.299334        -8.1453
 248   2.0000      -0.290797        -7.9130
 249   2.0000      -0.286748        -7.8028
 250   2.0000      -0.279514        -7.6060
 251   2.0000      -0.250838        -6.8257
 252   2.0000      -0.225970        -6.1489
 253   0.0000      -0.121800        -3.3143
 254   0.0000      -0.077039        -2.0963
 255   0.0000      -0.069526        -1.8919
 256   0.0000      -0.052988        -1.4419
 257   0.0000      -0.046970        -1.2781

MULLIKEN ATOMIC CHARGES
-----------------------
   0 O :   -0.136349
   1 N :    0.077928
   2 C :   -0.214994
   3 C :   -0.172371
   4 N :    0.268394
   5 C :    0.095292
   6 C :   -0.041966
   7 C :   -0.135272
   8 N :    0.252144
   9 C :    0.222177
  10 O :   -0.178666
  11 O :   -0.219718
  12 C :   -0.029479
  13 S :    0.162616
  14 C :   -0.120154
  15 C :   -0.076001
  16 C :    0.114009
  17 C :    0.116214
  18 C :    0.011207
  19 C :   -0.006530
  20 C :    0.065195
  21 C :   -0.033904
  22 C :    0.105558
  23 O :   -0.218536
  24 C :   -0.046162
  25 C :    0.159730
  26 O :   -0.141687
  27 N :   -0.167335
  28 C :    0.158055
  29 O :   -0.142740
  30 C :   -0.015956
  31 C :    0.076312
  32 C :   -0.003922
  33 C :   -0.006379
  34 C :    0.040317
  35 C :   -0.045392
  36 C :    0.059214
  37 C :    0.018791
  38 C :   -0.019046
  39 S :    0.111852
  40 C :   -0.050074
  41 C :    0.048344
  42 C :    0.021889
  43 C :    0.007981
  44 S :    0.082546
  45 C :    0.011551
  46 C :   -0.104227
  47 C :   -0.094584
  48 C :    0.314734
  49 C :   -0.379634
  50 C :   -0.215286
  51 N :    0.150186
  52 C :   -0.181151
  53 N :    0.097376
  54 C :    0.031534
  55 C :   -0.016798
  56 C :    0.145818
  57 O :   -0.151034
  58 C :   -0.064336
  59 C :    0.125925
  60 C :   -0.089948
  61 C :   -0.016886
  62 S :    0.176390
  63 C :   -0.121663
  64 C :    0.035792
  65 Br:    0.012160
  66 H :    0.012025
  67 H :    0.009799
  68 H :    0.033027
  69 H :    0.029310
  70 H :   -0.019562
  71 H :    0.000734
  72 H :    0.020604
  73 H :    0.004348
  74 H :    0.137251
  75 H :    0.014433
  76 H :    0.043590
  77 H :    0.000496
  78 H :    0.000937
  79 H :   -0.003670
  80 H :   -0.004721
  81 H :    0.000414
  82 H :    0.016640
  83 H :    0.021692
  84 H :   -0.016941
  85 H :   -0.012925
  86 H :   -0.006528
Sum of atomic charges:   -0.0000000

LOEWDIN ATOMIC CHARGES
----------------------
   0 O :    0.077287
   1 N :    0.025009
   2 C :   -0.048574
   3 C :   -0.030356
   4 N :    0.005896
   5 C :   -0.076568
   6 C :    0.031344
   7 C :   -0.030020
   8 N :    0.013520
   9 C :    0.088457
  10 O :   -0.145525
  11 O :   -0.007105
  12 C :   -0.104447
  13 S :    0.475797
  14 C :   -0.201474
  15 C :   -0.050602
  16 C :   -0.044687
  17 C :   -0.083960
  18 C :    0.015318
  19 C :   -0.037445
  20 C :    0.036417
  21 C :   -0.061169
  22 C :    0.094794
  23 O :    0.017014
  24 C :   -0.111780
  25 C :    0.083837
  26 O :   -0.161531
  27 N :   -0.008020
  28 C :    0.082533
  29 O :   -0.161296
  30 C :   -0.077697
  31 C :    0.052955
  32 C :   -0.003055
  33 C :   -0.033379
  34 C :   -0.007107
  35 C :   -0.154963
  36 C :   -0.006358
  37 C :   -0.040849
  38 C :   -0.139971
  39 S :    0.423769
  40 C :   -0.200453
  41 C :   -0.004810
  42 C :   -0.047363
  43 C :   -0.099281
  44 S :    0.418951
  45 C :   -0.069489
  46 C :    0.026582
  47 C :   -0.120995
  48 C :    0.072843
  49 C :   -0.185968
  50 C :   -0.028971
  51 N :   -0.068132
  52 C :   -0.014905
  53 N :   -0.088542
  54 C :   -0.021122
  55 C :   -0.046226
  56 C :    0.079964
  57 O :   -0.150355
  58 C :    0.026512
  59 C :   -0.029639
  60 C :   -0.143518
  61 C :   -0.005442
  62 S :    0.426880
  63 C :   -0.275184
  64 C :   -0.068428
  65 Br:    0.128829
  66 H :    0.021193
  67 H :    0.034296
  68 H :    0.037590
  69 H :    0.034049
  70 H :    0.027798
  71 H :    0.024667
  72 H :    0.034672
  73 H :    0.038912
  74 H :    0.093933
  75 H :    0.047270
  76 H :    0.028034
  77 H :    0.039531
  78 H :    0.039318
  79 H :    0.035746
  80 H :    0.036086
  81 H :    0.039087
  82 H :    0.040483
  83 H :    0.023628
  84 H :    0.039071
  85 H :    0.039177
  86 H :    0.037712

  Mayer bond orders larger than 0.100000
B(  0-O ,  1-N ) :   1.0227 B(  0-O ,  6-C ) :   1.1754 B(  1-N ,  2-C ) :   1.6893
B(  1-N ,  6-C ) :   0.1040 B(  2-C ,  3-C ) :   1.1753 B(  2-C ,  5-C ) :   1.2409
B(  3-C ,  4-N ) :   3.0241 B(  5-C ,  6-C ) :   1.4880 B(  5-C ,  9-C ) :   0.8748
B(  6-C ,  7-C ) :   1.1608 B(  7-C ,  8-N ) :   2.9943 B(  9-C , 10-O ) :   2.0941
B(  9-C , 11-O ) :   1.1903 B( 11-O , 12-C ) :   1.0056 B( 12-C , 13-S ) :   1.1842
B( 12-C , 17-C ) :   1.4390 B( 13-S , 14-C ) :   1.1044 B( 14-C , 15-C ) :   1.6198
B( 14-C , 66-H ) :   0.9635 B( 15-C , 16-C ) :   1.0966 B( 15-C , 17-C ) :   1.2170
B( 16-C , 67-H ) :   0.9503 B( 16-C , 68-H ) :   0.9460 B( 16-C , 69-H ) :   0.9419
B( 17-C , 18-C ) :   1.1136 B( 18-C , 19-C ) :   1.6829 B( 18-C , 70-H ) :   0.9484
B( 19-C , 20-C ) :   1.1559 B( 19-C , 71-H ) :   0.9715 B( 20-C , 21-C ) :   1.6054
B( 20-C , 72-H ) :   0.9689 B( 21-C , 22-C ) :   1.2192 B( 21-C , 73-H ) :   0.9540
B( 22-C , 23-O ) :   1.1578 B( 22-C , 24-C ) :   1.3366 B( 23-O , 31-C ) :   1.1238
B( 24-C , 25-C ) :   0.8872 B( 24-C , 30-C ) :   1.2978 B( 25-C , 26-O ) :   2.2744
B( 25-C , 27-N ) :   1.0670 B( 27-N , 28-C ) :   1.0842 B( 27-N , 74-H ) :   0.9145
B( 28-C , 29-O ) :   2.2724 B( 28-C , 30-C ) :   0.8775 B( 30-C , 31-C ) :   1.3552
B( 31-C , 32-C ) :   1.2198 B( 32-C , 33-C ) :   1.5413 B( 32-C , 75-H ) :   0.9737
B( 33-C , 34-C ) :   1.1829 B( 33-C , 76-H ) :   0.9696 B( 34-C , 35-C ) :   1.5087
B( 34-C , 77-H ) :   0.9876 B( 35-C , 36-C ) :   1.1763 B( 35-C , 39-S ) :   1.0390
B( 36-C , 37-C ) :   1.5453 B( 36-C , 78-H ) :   0.9990 B( 37-C , 38-C ) :   1.2240
B( 37-C , 79-H ) :   0.9963 B( 38-C , 39-S ) :   1.1102 B( 38-C , 40-C ) :   1.4055
B( 40-C , 41-C ) :   1.2567 B( 40-C , 44-S ) :   1.0556 B( 41-C , 42-C ) :   1.4919
B( 41-C , 80-H ) :   0.9954 B( 42-C , 43-C ) :   1.2215 B( 42-C , 81-H ) :   1.0021
B( 43-C , 44-S ) :   1.0964 B( 43-C , 45-C ) :   1.3501 B( 45-C , 46-C ) :   1.3214
B( 45-C , 82-H ) :   0.9845 B( 46-C , 47-C ) :   1.3956 B( 46-C , 83-H ) :   0.9402
B( 47-C , 48-C ) :   1.1612 B( 47-C , 56-C ) :   0.9551 B( 48-C , 49-C ) :   1.5143
B( 48-C , 54-C ) :   0.9994 B( 49-C , 50-C ) :   1.1488 B( 49-C , 52-C ) :   1.1856
B( 50-C , 51-N ) :   2.9298 B( 52-C , 53-N ) :   2.8244 B( 54-C , 55-C ) :   1.2661
B( 54-C , 61-C ) :   1.4178 B( 55-C , 56-C ) :   0.9325 B( 55-C , 58-C ) :   1.4388
B( 56-C , 57-O ) :   2.2156 B( 58-C , 59-C ) :   1.2324 B( 58-C , 84-H ) :   1.0155
B( 59-C , 60-C ) :   1.3182 B( 59-C , 64-C ) :   1.1637 B( 60-C , 61-C ) :   1.3224
B( 60-C , 62-S ) :   1.0812 B( 61-C , 85-H ) :   0.9782 B( 62-S , 63-C ) :   1.0864
B( 63-C , 64-C ) :   1.6164 B( 63-C , 65-Br) :   1.0118 B( 64-C , 86-H ) :   1.0003

-----------------------------------------------------------------------------
         ABSORPTION SPECTRUM VIA TRANSITION ELECTRIC DIPOLE MOMENTS
-----------------------------------------------------------------------------
State   Energy  Wavelength   fosc         T2         TX        TY        TZ
        (cm-1)    (nm)                  (au**2)     (au)      (au)      (au)
-----------------------------------------------------------------------------
   0    8476.7   1179.7   0.449519047  17.45815  -1.87912   0.98235  -3.60029
   1   14841.7    673.8   0.335187102   7.43496   0.12303   1.57451   2.22278
   2   15265.4    655.1   0.161195093   3.47632   0.12978   1.24678   1.38023
   3   19208.0    520.6   0.548051461   9.39322   0.38692  -2.47568  -1.76480
   4   20183.8    495.4   0.122860847   2.00394   0.96229  -0.50431   0.90753
   5   21790.7    458.9   0.314956907   4.75833  -1.23578   1.79748  -0.01583
   6   22175.1    451.0   0.105618510   1.56801   0.78365  -0.82206   0.52737
   7   23264.6    429.8   0.471656414   6.67429   0.89470   1.08823   2.16554
   8   23827.4    419.7   0.048181359   0.66570  -0.25170   0.15354   0.76077
   9   24569.9    407.0   0.240739551   3.22567   0.43974   0.64566   1.61723
  10   25017.8    399.7   0.479021742   6.30350   1.89644  -1.27520   1.03966
  11   25502.6    392.1   0.282157466   3.64236  -0.80023   0.68434  -1.59175
  12   26051.8    383.9   0.009053302   0.11440   0.07085   0.32130  -0.07842
  13   26283.2    380.5   0.001699971   0.02129   0.13131  -0.06364   0.00054
  14   26989.4    370.5   0.048970666   0.59734  -0.10305  -0.00291  -0.76597
  15   27583.3    362.5   0.028588315   0.34121   0.48433   0.12434   0.30194
  16   27732.7    360.6   0.132003339   1.56700   0.94334   0.02013   0.82262
  17   28660.7    348.9   0.205644601   2.36214  -0.04946  -0.82672  -1.29469
  18   29029.0    344.5   0.024816490   0.28144   0.24880  -0.46466  -0.06023
  19   29835.8    335.2   0.097417269   1.07491  -0.34160  -0.25755  -0.94440
  20   30095.1    332.3   0.163027977   1.78337   0.27554   0.63801   1.14035
  21   30784.3    324.8   0.030938132   0.33086  -0.50432   0.16648  -0.22092
  22   31018.8    322.4   0.000173262   0.00184   0.00669  -0.00525  -0.04203
  23   31132.6    321.2   0.106344587   1.12454   0.59506   0.32010   0.81730
  24   31570.7    316.7   0.009542452   0.09951   0.00376  -0.29458  -0.11277
  25   32198.1    310.6   0.087263117   0.89223  -0.50011   0.76645  -0.23382
  26   32357.2    309.1   0.000414896   0.00422  -0.03643  -0.04929   0.02155
  27   32534.6    307.4   0.058080243   0.58770  -0.20968  -0.27897  -0.68258
  28   32710.7    305.7   0.009969771   0.10034   0.17698  -0.06274   0.25511
  29   33129.1    301.8   0.071820049   0.71369  -0.58648   0.05472  -0.60559
  30   34013.6    294.0   0.049414086   0.47827   0.31746  -0.58113  -0.19943
  31   34114.1    293.1   0.014596275   0.14086   0.21517  -0.27062  -0.14603
  32   34383.3    290.8   0.003585322   0.03433   0.16823   0.02959   0.07179
  33   34824.3    287.2   0.008767711   0.08289   0.18849  -0.17817   0.12494
  34   34877.7    286.7   0.091438166   0.86309  -0.39830  -0.19344  -0.81672
  35   35441.3    282.2   0.087760818   0.81520   0.66405   0.14100   0.59528
  36   35702.9    280.1   0.034580379   0.31886  -0.40430   0.08909  -0.38401
  37   35921.2    278.4   0.049864093   0.45700  -0.07446  -0.43891  -0.50873
  38   35983.3    277.9   0.005614177   0.05136   0.17799  -0.01604   0.13938
  39   36200.6    276.2   0.113655191   1.03359   0.78776  -0.50248   0.40068
  40   36596.0    273.3   0.010967903   0.09867   0.11219   0.10648   0.27339
  41   36745.6    272.1   0.001577046   0.01413  -0.09301   0.01967  -0.07135
  42   37399.6    267.4   0.024697825   0.21740   0.10724   0.26050   0.37154
  43   37611.6    265.9   0.000642588   0.00562   0.01778  -0.00517   0.07267
  44   37755.8    264.9   0.022209018   0.19365   0.27238  -0.28566   0.19457
  45   37900.8    263.8   0.007982637   0.06934   0.02559   0.03571  -0.25963
  46   38162.8    262.0   0.012153384   0.10484   0.02674  -0.04764   0.31915
  47   38288.4    261.2   0.023730537   0.20404   0.21092  -0.03742   0.39768
  48   38644.2    258.8   0.036075666   0.30733  -0.38303   0.29550  -0.27074
  49   38740.4    258.1   0.015902838   0.13514   0.16181   0.05915   0.32474
  50   38834.8    257.5   0.007357128   0.06237  -0.19639   0.11734  -0.10015
  51   39012.0    256.3   0.016384863   0.13827   0.18625  -0.19100   0.25903
  52   39230.2    254.9   0.018710030   0.15701   0.30706  -0.25016   0.01218
  53   39346.8    254.2   0.029084634   0.24335   0.02228  -0.06101  -0.48901
  54   39816.0    251.2   0.019048768   0.15750  -0.21993   0.32871   0.03288
  55   40096.5    249.4   0.086586729   0.71092  -0.64465   0.24255  -0.48633

FINAL SINGLE POINT ENERGY     -6859.541642992465

DIPOLE MOMENT
-------------
                                X             Y             Z
Electronic contribution:     48.17127      26.67237     119.79716
Nuclear contribution   :    -47.40659     -28.70280    -121.80814
                        -----------------------------------------
Total Dipole Moment    :      0.76468      -2.03043      -2.01098
                        -----------------------------------------
Magnitude (a.u.)       :      2.95828
Magnitude (Debye)      :      7.51934

Rotational constants in cm-1:     0.001633     0.000538     0.000423
Rotational constants in MHz :    48.962617    16.143220    12.671732

                             ****ORCA TERMINATED NORMALLY****
TOTAL RUN TIME: 0 days 0 hours 10 minutes 42 seconds 307 msec
