                         Program Version 4.2.0 -  RELEASE  -
|  1> # ORCA input file
|  2> # SCF done       -175.146704569247          0.000727078927
|  3> ! CAM-B3LYP def2-SVP def2/J RIJCOSX Grid4 TightSCF
|  4> %maxcore 5000
|  5> %tddft
|  6>     Mode sTDDFT
|  7>     Ethresh 5.0
|  8>     maxcore 5000
|  9> end
| 10>
| 11> %pal
| 12>   nprocs 6
| 13>   end
| 14> * xyz 0 1
| 15>    C        2.81756       -11.88375        -0.09116
| 16>    O        2.63241       -11.86992        -1.29332
| 17>    N        2.24579       -12.86119         0.70291
| 18>    C        1.41297       -13.87499         0.07753
| 19>    C        2.39822       -12.96821         2.06805
| 20>    O        1.87289       -13.85347         2.70043
| 21>    N        3.18301       -12.01089         2.68221
| 22>    C        3.32815       -12.14608         4.12215
| 23>    C        3.81670       -10.96474         2.04140
| 24>    O        4.48233       -10.16870         2.69019
| 25>    C        3.63995       -10.89209         0.60781
| 26>    C        4.20360        -9.92850        -0.19888
| 27>    C        5.02328        -8.82620         0.05621
| 28>    S        5.60018        -8.31568         1.61802
| 29>    C        6.42942        -6.96604         0.91804
| 30>    C        6.25785        -6.90133        -0.46651
| 31>    C        5.47982        -7.95144        -0.94773
| 32>    C        5.13923        -8.10867        -2.39700
| 33>    C        5.99105        -7.19363        -3.27563
| 34>    C        6.06257        -5.77131        -2.69575
| 35>    N        4.78031        -5.11533        -2.51327
| 36>    C        6.79118        -5.81572        -1.34888
| 37>    C        7.13898        -6.12529         1.82383
| 38>    C        8.07152        -5.18632         1.55465
| 39>    C        8.68644        -4.43001         2.60507
| 40>    C        9.65957        -3.51284         2.47955
| 41>    C       10.32255        -3.11819         1.19872
| 42>    C       10.16752        -2.78289         3.69664
| 43>    N       11.51643        -3.19095         4.04195
| 44>    C       11.93630        -4.46842         4.01751
| 45>    C       13.10783        -4.89874         4.56358
| 46>    C       13.55321        -6.22597         4.47609
| 47>    C       14.69715        -6.70297         5.06557
| 48>    C       15.20801        -8.01959         5.01310
| 49>    C       16.36154        -8.20234         5.71658
| 50>    C       16.82289        -7.03941         6.37083
| 51>    S       15.75764        -5.69856         6.05241
| 52>    C       17.93937        -6.90751         7.18252
| 53>    C       18.88184        -7.89401         7.52725
| 54>    C       19.86190        -7.45359         8.37238
| 55>    C       19.73788        -6.09743         8.73791
| 56>    S       18.34383        -5.39277         7.96255
| 57>    C       20.54124        -5.32601         9.56464
| 58>    C       21.61771        -5.81556        10.28623
| 59>    C       22.46865        -5.09564        11.10833
| 60>    C       23.22341        -5.80075        12.16012
| 61>    O       23.35204        -7.00242        12.29135
| 62>    C       23.74519        -4.73993        13.04915
| 63>    C       24.43247        -4.85693        14.22054
| 64>    C       24.79709        -3.68684        14.92672
| 65>    C       24.43508        -2.41470        14.39886
| 66>    C       24.79224        -1.25348        15.11057
| 67>    C       25.47885        -1.37129        16.28670
| 68>    C       25.84614        -2.61214        16.82136
| 69>    C       25.50546        -3.75000        16.14300
| 70>    F       25.82176        -0.25944        16.96935
| 71>    C       23.73008        -2.32488        13.17419
| 72>    C       23.39472        -3.47022        12.50761
| 73>    C       22.70424        -3.68873        11.23393
| 74>    C       22.51993        -2.72193        10.26808
| 75>    C       22.15608        -2.99129         8.93550
| 76>    N       21.92013        -3.15362         7.82249
| 77>    C       22.78807        -1.35553        10.46349
| 78>    N       22.96686        -0.22459        10.56703
| 79>    H        1.42488       -13.69562        -0.99467
| 80>    H        0.39600       -13.80630         0.46285
| 81>    H        1.80737       -14.86447         0.30527
| 82>    H        3.78749       -13.10605         4.35581
| 83>    H        2.34762       -12.10409         4.59506
| 84>    H        3.95486       -11.32946         4.47139
| 85>    H        3.94189       -10.06466        -1.24468
| 86>    H        4.07745        -7.87926        -2.54026
| 87>    H        5.28433        -9.14502        -2.70908
| 88>    H        5.57330        -7.16696        -4.28430
| 89>    H        7.00561        -7.59031        -3.34366
| 90>    H        6.63773        -5.14005        -3.38519
| 91>    H        4.22726        -5.60471        -1.81835
| 92>    H        4.25751        -5.10249        -3.38173
| 93>    H        6.66452        -4.84927        -0.85736
| 94>    H        7.85841        -5.97865        -1.52418
| 95>    H        6.90056        -6.31494         2.86439
| 96>    H        8.38403        -4.99302         0.54293
| 97>    H        8.30191        -4.63146         3.59821
| 98>    H       10.20782        -3.87448         0.42918
| 99>    H       11.38498        -2.94999         1.36670
|100>    H        9.89270        -2.18584         0.82987
|101>    H        9.49044        -2.95234         4.54540
|102>    H       10.19443        -1.70826         3.49105
|103>    H       12.06091        -2.54055         4.58968
|104>    H       11.28771        -5.15703         3.49300
|105>    H       13.73224        -4.19656         5.10021
|106>    H       12.95390        -6.92957         3.91284
|107>    H       14.70681        -8.79244         4.45703
|108>    H       16.88591        -9.13805         5.78637
|109>    H       18.82172        -8.89880         7.14862
|110>    H       20.66423        -8.07113         8.73267
|111>    H       20.26905        -4.28550         9.66681
|112>    H       21.77463        -6.88748        10.31609
|113>    H       24.69550        -5.82985        14.60823
|114>    H       24.52846        -0.28030        14.72667
|115>    H       26.38792        -2.64395        17.75342
|116>    H       25.77694        -4.71884        16.53510
|117>    H       23.46681        -1.34787        12.80115
|118> *
|119>
|120>                          ****END OF INPUT****

CARTESIAN COORDINATES (ANGSTROEM)
---------------------------------
  C      2.817560  -11.883750   -0.091160
  O      2.632410  -11.869920   -1.293320
  N      2.245790  -12.861190    0.702910
  C      1.412970  -13.874990    0.077530
  C      2.398220  -12.968210    2.068050
  O      1.872890  -13.853470    2.700430
  N      3.183010  -12.010890    2.682210
  C      3.328150  -12.146080    4.122150
  C      3.816700  -10.964740    2.041400
  O      4.482330  -10.168700    2.690190
  C      3.639950  -10.892090    0.607810
  C      4.203600   -9.928500   -0.198880
  C      5.023280   -8.826200    0.056210
  S      5.600180   -8.315680    1.618020
  C      6.429420   -6.966040    0.918040
  C      6.257850   -6.901330   -0.466510
  C      5.479820   -7.951440   -0.947730
  C      5.139230   -8.108670   -2.397000
  C      5.991050   -7.193630   -3.275630
  C      6.062570   -5.771310   -2.695750
  N      4.780310   -5.115330   -2.513270
  C      6.791180   -5.815720   -1.348880
  C      7.138980   -6.125290    1.823830
  C      8.071520   -5.186320    1.554650
  C      8.686440   -4.430010    2.605070
  C      9.659570   -3.512840    2.479550
  C     10.322550   -3.118190    1.198720
  C     10.167520   -2.782890    3.696640
  N     11.516430   -3.190950    4.041950
  C     11.936300   -4.468420    4.017510
  C     13.107830   -4.898740    4.563580
  C     13.553210   -6.225970    4.476090
  C     14.697150   -6.702970    5.065570
  C     15.208010   -8.019590    5.013100
  C     16.361540   -8.202340    5.716580
  C     16.822890   -7.039410    6.370830
  S     15.757640   -5.698560    6.052410
  C     17.939370   -6.907510    7.182520
  C     18.881840   -7.894010    7.527250
  C     19.861900   -7.453590    8.372380
  C     19.737880   -6.097430    8.737910
  S     18.343830   -5.392770    7.962550
  C     20.541240   -5.326010    9.564640
  C     21.617710   -5.815560   10.286230
  C     22.468650   -5.095640   11.108330
  C     23.223410   -5.800750   12.160120
  O     23.352040   -7.002420   12.291350
  C     23.745190   -4.739930   13.049150
  C     24.432470   -4.856930   14.220540
  C     24.797090   -3.686840   14.926720
  C     24.435080   -2.414700   14.398860
  C     24.792240   -1.253480   15.110570
  C     25.478850   -1.371290   16.286700
  C     25.846140   -2.612140   16.821360
  C     25.505460   -3.750000   16.143000
  F     25.821760   -0.259440   16.969350
  C     23.730080   -2.324880   13.174190
  C     23.394720   -3.470220   12.507610
  C     22.704240   -3.688730   11.233930
  C     22.519930   -2.721930   10.268080
  C     22.156080   -2.991290    8.935500
  N     21.920130   -3.153620    7.822490
  C     22.788070   -1.355530   10.463490
  N     22.966860   -0.224590   10.567030
  H      1.424880  -13.695620   -0.994670
  H      0.396000  -13.806300    0.462850
  H      1.807370  -14.864470    0.305270
  H      3.787490  -13.106050    4.355810
  H      2.347620  -12.104090    4.595060
  H      3.954860  -11.329460    4.471390
  H      3.941890  -10.064660   -1.244680
  H      4.077450   -7.879260   -2.540260
  H      5.284330   -9.145020   -2.709080
  H      5.573300   -7.166960   -4.284300
  H      7.005610   -7.590310   -3.343660
  H      6.637730   -5.140050   -3.385190
  H      4.227260   -5.604710   -1.818350
  H      4.257510   -5.102490   -3.381730
  H      6.664520   -4.849270   -0.857360
  H      7.858410   -5.978650   -1.524180
  H      6.900560   -6.314940    2.864390
  H      8.384030   -4.993020    0.542930
  H      8.301910   -4.631460    3.598210
  H     10.207820   -3.874480    0.429180
  H     11.384980   -2.949990    1.366700
  H      9.892700   -2.185840    0.829870
  H      9.490440   -2.952340    4.545400
  H     10.194430   -1.708260    3.491050
  H     12.060910   -2.540550    4.589680
  H     11.287710   -5.157030    3.493000
  H     13.732240   -4.196560    5.100210
  H     12.953900   -6.929570    3.912840
  H     14.706810   -8.792440    4.457030
  H     16.885910   -9.138050    5.786370
  H     18.821720   -8.898800    7.148620
  H     20.664230   -8.071130    8.732670
  H     20.269050   -4.285500    9.666810
  H     21.774630   -6.887480   10.316090
  H     24.695500   -5.829850   14.608230
  H     24.528460   -0.280300   14.726670
  H     26.387920   -2.643950   17.753420
  H     25.776940   -4.718840   16.535100
  H     23.466810   -1.347870   12.801150

 Total Charge           Charge          ....    0
 Multiplicity           Mult            ....    1
 Number of Electrons    NEL             ....  470
 Basis Dimension        Dim             .... 1103

ORBITAL ENERGIES
----------------

  NO   OCC          E(Eh)            E(eV)
   0   2.0000     -88.963984     -2420.8331
   1   2.0000     -88.957100     -2420.6458
   2   2.0000     -88.947910     -2420.3957
   3   2.0000     -24.764756      -673.8833
   4   2.0000     -19.206940      -522.6474
   5   2.0000     -19.198315      -522.4127
   6   2.0000     -19.196634      -522.3670
   7   2.0000     -19.177493      -521.8461
   8   2.0000     -14.469137      -393.7252
   9   2.0000     -14.465319      -393.6213
  10   2.0000     -14.463496      -393.5717
  11   2.0000     -14.392242      -391.6328
  12   2.0000     -14.382458      -391.3666
  13   2.0000     -14.379591      -391.2886
  14   2.0000     -10.415859      -283.4299
  15   2.0000     -10.396123      -282.8929
  16   2.0000     -10.390004      -282.7264
  17   2.0000     -10.346969      -281.5553
  18   2.0000     -10.346188      -281.5341
  19   2.0000     -10.337916      -281.3090
  20   2.0000     -10.329720      -281.0860
  21   2.0000     -10.329211      -281.0721
  22   2.0000     -10.319807      -280.8162
  23   2.0000     -10.314819      -280.6805
  24   2.0000     -10.311660      -280.5945
  25   2.0000     -10.310370      -280.5594
  26   2.0000     -10.309911      -280.5469
  27   2.0000     -10.308962      -280.5211
  28   2.0000     -10.306484      -280.4537
  29   2.0000     -10.305238      -280.4198
  30   2.0000     -10.304742      -280.4063
  31   2.0000     -10.303845      -280.3819
  32   2.0000     -10.303099      -280.3616
  33   2.0000     -10.301002      -280.3045
  34   2.0000     -10.300905      -280.3019
  35   2.0000     -10.300318      -280.2859
  36   2.0000     -10.298789      -280.2443
  37   2.0000     -10.297489      -280.2089
  38   2.0000     -10.296726      -280.1882
  39   2.0000     -10.294570      -280.1295
  40   2.0000     -10.292967      -280.0859
  41   2.0000     -10.291548      -280.0473
  42   2.0000     -10.290264      -280.0123
  43   2.0000     -10.290168      -280.0097
  44   2.0000     -10.288183      -279.9557
  45   2.0000     -10.287309      -279.9319
  46   2.0000     -10.287246      -279.9302
  47   2.0000     -10.283882      -279.8387
  48   2.0000     -10.281999      -279.7874
  49   2.0000     -10.281411      -279.7714
  50   2.0000     -10.281031      -279.7611
  51   2.0000     -10.279944      -279.7315
  52   2.0000     -10.276027      -279.6249
  53   2.0000     -10.275998      -279.6241
  54   2.0000     -10.275144      -279.6009
  55   2.0000     -10.274879      -279.5937
  56   2.0000     -10.274794      -279.5914
  57   2.0000     -10.271754      -279.5086
  58   2.0000     -10.271318      -279.4968
  59   2.0000     -10.268825      -279.4289
  60   2.0000     -10.266164      -279.3565
  61   2.0000     -10.262336      -279.2524
  62   2.0000     -10.260066      -279.1906
  63   2.0000     -10.253508      -279.0121
  64   2.0000      -8.057272      -219.2495
  65   2.0000      -8.053282      -219.1409
  66   2.0000      -8.044285      -218.8961
  67   2.0000      -6.026493      -163.9892
  68   2.0000      -6.022869      -163.8906
  69   2.0000      -6.022085      -163.8693
  70   2.0000      -6.019802      -163.8072
  71   2.0000      -6.018931      -163.7834
  72   2.0000      -6.014425      -163.6608
  73   2.0000      -6.013858      -163.6454
  74   2.0000      -6.009778      -163.5344
  75   2.0000      -6.005549      -163.4193
  76   2.0000      -1.278532       -34.7906
  77   2.0000      -1.173068       -31.9208
  78   2.0000      -1.140990       -31.0479
  79   2.0000      -1.132833       -30.8260
  80   2.0000      -1.091157       -29.6919
  81   2.0000      -1.067243       -29.0412
  82   2.0000      -1.045317       -28.4445
  83   2.0000      -1.022377       -27.8203
  84   2.0000      -1.006517       -27.3887
  85   2.0000      -1.001970       -27.2650
  86   2.0000      -0.985306       -26.8115
  87   2.0000      -0.981986       -26.7212
  88   2.0000      -0.977781       -26.6068
  89   2.0000      -0.970902       -26.4196
  90   2.0000      -0.960266       -26.1302
  91   2.0000      -0.946824       -25.7644
  92   2.0000      -0.943932       -25.6857
  93   2.0000      -0.925240       -25.1771
  94   2.0000      -0.916554       -24.9407
  95   2.0000      -0.905709       -24.6456
  96   2.0000      -0.901050       -24.5188
  97   2.0000      -0.890638       -24.2355
  98   2.0000      -0.884756       -24.0754
  99   2.0000      -0.868464       -23.6321
 100   2.0000      -0.864933       -23.5360
 101   2.0000      -0.859316       -23.3832
 102   2.0000      -0.853209       -23.2170
 103   2.0000      -0.848672       -23.0935
 104   2.0000      -0.836564       -22.7641
 105   2.0000      -0.833118       -22.6703
 106   2.0000      -0.825662       -22.4674
 107   2.0000      -0.821716       -22.3600
 108   2.0000      -0.811778       -22.0896
 109   2.0000      -0.808672       -22.0051
 110   2.0000      -0.802949       -21.8493
 111   2.0000      -0.795944       -21.6587
 112   2.0000      -0.792217       -21.5573
 113   2.0000      -0.781976       -21.2787
 114   2.0000      -0.762470       -20.7479
 115   2.0000      -0.751458       -20.4482
 116   2.0000      -0.736689       -20.0463
 117   2.0000      -0.730081       -19.8665
 118   2.0000      -0.728442       -19.8219
 119   2.0000      -0.719951       -19.5909
 120   2.0000      -0.716298       -19.4914
 121   2.0000      -0.708723       -19.2853
 122   2.0000      -0.696474       -18.9520
 123   2.0000      -0.695360       -18.9217
 124   2.0000      -0.684806       -18.6345
 125   2.0000      -0.681680       -18.5494
 126   2.0000      -0.673286       -18.3211
 127   2.0000      -0.664503       -18.0820
 128   2.0000      -0.655497       -17.8370
 129   2.0000      -0.650048       -17.6887
 130   2.0000      -0.646747       -17.5989
 131   2.0000      -0.641604       -17.4589
 132   2.0000      -0.636169       -17.3110
 133   2.0000      -0.631321       -17.1791
 134   2.0000      -0.621892       -16.9225
 135   2.0000      -0.616811       -16.7843
 136   2.0000      -0.608995       -16.5716
 137   2.0000      -0.606199       -16.4955
 138   2.0000      -0.605064       -16.4646
 139   2.0000      -0.600281       -16.3345
 140   2.0000      -0.599535       -16.3142
 141   2.0000      -0.595644       -16.2083
 142   2.0000      -0.592340       -16.1184
 143   2.0000      -0.587974       -15.9996
 144   2.0000      -0.584058       -15.8930
 145   2.0000      -0.582115       -15.8402
 146   2.0000      -0.569034       -15.4842
 147   2.0000      -0.561585       -15.2815
 148   2.0000      -0.558737       -15.2040
 149   2.0000      -0.554796       -15.0968
 150   2.0000      -0.551186       -14.9985
 151   2.0000      -0.548250       -14.9186
 152   2.0000      -0.546389       -14.8680
 153   2.0000      -0.541266       -14.7286
 154   2.0000      -0.537533       -14.6270
 155   2.0000      -0.536770       -14.6063
 156   2.0000      -0.536564       -14.6007
 157   2.0000      -0.535723       -14.5778
 158   2.0000      -0.532266       -14.4837
 159   2.0000      -0.531170       -14.4539
 160   2.0000      -0.525995       -14.3130
 161   2.0000      -0.522424       -14.2159
 162   2.0000      -0.520628       -14.1670
 163   2.0000      -0.517079       -14.0704
 164   2.0000      -0.515856       -14.0372
 165   2.0000      -0.510128       -13.8813
 166   2.0000      -0.507343       -13.8055
 167   2.0000      -0.505959       -13.7678
 168   2.0000      -0.503290       -13.6952
 169   2.0000      -0.502497       -13.6736
 170   2.0000      -0.501018       -13.6334
 171   2.0000      -0.500326       -13.6145
 172   2.0000      -0.498739       -13.5714
 173   2.0000      -0.496874       -13.5206
 174   2.0000      -0.494248       -13.4492
 175   2.0000      -0.493691       -13.4340
 176   2.0000      -0.486869       -13.2484
 177   2.0000      -0.483548       -13.1580
 178   2.0000      -0.483283       -13.1508
 179   2.0000      -0.479828       -13.0568
 180   2.0000      -0.479003       -13.0343
 181   2.0000      -0.473322       -12.8797
 182   2.0000      -0.472380       -12.8541
 183   2.0000      -0.471705       -12.8357
 184   2.0000      -0.470083       -12.7916
 185   2.0000      -0.469622       -12.7791
 186   2.0000      -0.468272       -12.7423
 187   2.0000      -0.467222       -12.7138
 188   2.0000      -0.465839       -12.6761
 189   2.0000      -0.462312       -12.5801
 190   2.0000      -0.461356       -12.5541
 191   2.0000      -0.456203       -12.4139
 192   2.0000      -0.455590       -12.3972
 193   2.0000      -0.450920       -12.2701
 194   2.0000      -0.449204       -12.2235
 195   2.0000      -0.446800       -12.1580
 196   2.0000      -0.442250       -12.0342
 197   2.0000      -0.437906       -11.9160
 198   2.0000      -0.432093       -11.7578
 199   2.0000      -0.431001       -11.7281
 200   2.0000      -0.425010       -11.5651
 201   2.0000      -0.423687       -11.5291
 202   2.0000      -0.418926       -11.3996
 203   2.0000      -0.414147       -11.2695
 204   2.0000      -0.413850       -11.2614
 205   2.0000      -0.410873       -11.1804
 206   2.0000      -0.409294       -11.1374
 207   2.0000      -0.407729       -11.0949
 208   2.0000      -0.405470       -11.0334
 209   2.0000      -0.404051       -10.9948
 210   2.0000      -0.399330       -10.8663
 211   2.0000      -0.393592       -10.7102
 212   2.0000      -0.389204       -10.5908
 213   2.0000      -0.385941       -10.5020
 214   2.0000      -0.381951       -10.3934
 215   2.0000      -0.376400       -10.2424
 216   2.0000      -0.371729       -10.1153
 217   2.0000      -0.360462        -9.8087
 218   2.0000      -0.356709        -9.7065
 219   2.0000      -0.355395        -9.6708
 220   2.0000      -0.349494        -9.5102
 221   2.0000      -0.342230        -9.3125
 222   2.0000      -0.342068        -9.3082
 223   2.0000      -0.332627        -9.0512
 224   2.0000      -0.330625        -8.9968
 225   2.0000      -0.326334        -8.8800
 226   2.0000      -0.322971        -8.7885
 227   2.0000      -0.316666        -8.6169
 228   2.0000      -0.312788        -8.5114
 229   2.0000      -0.303217        -8.2509
 230   2.0000      -0.287105        -7.8125
 231   2.0000      -0.275988        -7.5100
 232   2.0000      -0.269903        -7.3444
 233   2.0000      -0.265763        -7.2318
 234   2.0000      -0.209918        -5.7122
 235   0.0000      -0.092025        -2.5041
 236   0.0000      -0.083421        -2.2700
 237   0.0000      -0.041443        -1.1277
 238   0.0000      -0.022848        -0.6217
 239   0.0000      -0.021048        -0.5727

MULLIKEN ATOMIC CHARGES
-----------------------
   0 C :    0.191710
   1 O :   -0.220726
   2 N :   -0.281556
   3 C :    0.141721
   4 C :    0.219870
   5 O :   -0.225298
   6 N :   -0.284500
   7 C :    0.144298
   8 C :    0.220462
   9 O :   -0.246148
  10 C :   -0.170332
  11 C :   -0.018476
  12 C :   -0.070732
  13 S :    0.201250
  14 C :   -0.100749
  15 C :   -0.102984
  16 C :   -0.077352
  17 C :    0.092380
  18 C :    0.076297
  19 C :   -0.021335
  20 N :   -0.184107
  21 C :    0.147036
  22 C :    0.031758
  23 C :   -0.004916
  24 C :    0.033494
  25 C :   -0.256508
  26 C :    0.104201
  27 C :    0.227650
  28 N :   -0.158256
  29 C :    0.077844
  30 C :   -0.031496
  31 C :    0.017897
  32 C :   -0.055976
  33 C :    0.060784
  34 C :    0.004127
  35 C :   -0.015201
  36 S :    0.090342
  37 C :   -0.078229
  38 C :    0.038108
  39 C :    0.012584
  40 C :   -0.042564
  41 S :    0.128425
  42 C :    0.034059
  43 C :    0.027008
  44 C :   -0.144673
  45 C :    0.138580
  46 O :   -0.172049
  47 C :    0.007603
  48 C :   -0.094588
  49 C :    0.105122
  50 C :    0.105976
  51 C :   -0.104176
  52 C :    0.301822
  53 C :   -0.032925
  54 C :   -0.015860
  55 F :   -0.199212
  56 C :   -0.100045
  57 C :    0.045961
  58 C :    0.292135
  59 C :   -0.354632
  60 C :   -0.224366
  61 N :    0.149172
  62 C :   -0.177036
  63 N :    0.118501
  64 H :    0.055528
  65 H :    0.037074
  66 H :    0.037777
  67 H :    0.037323
  68 H :    0.038283
  69 H :    0.053224
  70 H :    0.026007
  71 H :    0.016736
  72 H :    0.035836
  73 H :   -0.002746
  74 H :   -0.000239
  75 H :   -0.007097
  76 H :    0.094395
  77 H :    0.092376
  78 H :    0.025431
  79 H :    0.021957
  80 H :   -0.011803
  81 H :   -0.011210
  82 H :   -0.019904
  83 H :    0.022667
  84 H :    0.024651
  85 H :    0.035743
  86 H :    0.020137
  87 H :    0.020017
  88 H :    0.130852
  89 H :    0.023121
  90 H :   -0.005549
  91 H :   -0.008039
  92 H :   -0.008871
  93 H :   -0.011125
  94 H :   -0.012087
  95 H :   -0.002245
  96 H :   -0.002888
  97 H :   -0.001576
  98 H :   -0.022461
  99 H :   -0.008126
 100 H :   -0.005470
 101 H :   -0.016935
 102 H :   -0.011934
Sum of atomic charges:   -0.0000000

LOEWDIN ATOMIC CHARGES
----------------------
   0 C :    0.085401
   1 O :   -0.203193
   2 N :   -0.038620
   3 C :    0.041637
   4 C :    0.094005
   5 O :   -0.194398
   6 N :   -0.037412
   7 C :    0.041406
   8 C :    0.089438
   9 O :   -0.216083
  10 C :   -0.161485
  11 C :    0.078121
  12 C :   -0.203207
  13 S :    0.520803
  14 C :   -0.162693
  15 C :   -0.067019
  16 C :   -0.021715
  17 C :   -0.033697
  18 C :   -0.038414
  19 C :    0.014182
  20 N :   -0.101435
  21 C :   -0.030617
  22 C :   -0.034813
  23 C :   -0.020619
  24 C :   -0.039571
  25 C :   -0.040642
  26 C :   -0.049181
  27 C :    0.049477
  28 N :    0.012111
  29 C :    0.071802
  30 C :   -0.125380
  31 C :    0.003396
  32 C :   -0.188354
  33 C :   -0.004641
  34 C :   -0.058603
  35 C :   -0.135043
  36 S :    0.387986
  37 C :   -0.215117
  38 C :   -0.004562
  39 C :   -0.058730
  40 C :   -0.097891
  41 S :    0.411704
  42 C :   -0.081433
  43 C :    0.057103
  44 C :   -0.123854
  45 C :    0.074769
  46 O :   -0.173720
  47 C :   -0.053608
  48 C :    0.022797
  49 C :   -0.021917
  50 C :    0.000823
  51 C :   -0.044623
  52 C :    0.087971
  53 C :   -0.045794
  54 C :    0.000701
  55 F :   -0.073444
  56 C :    0.001557
  57 C :   -0.011884
  58 C :    0.066694
  59 C :   -0.166839
  60 C :   -0.024845
  61 N :   -0.072919
  62 C :   -0.019523
  63 N :   -0.080197
  64 H :    0.034048
  65 H :    0.030682
  66 H :    0.030916
  67 H :    0.030968
  68 H :    0.031223
  69 H :    0.032757
  70 H :    0.048819
  71 H :    0.031552
  72 H :    0.040086
  73 H :    0.022550
  74 H :    0.023878
  75 H :    0.021281
  76 H :    0.050618
  77 H :    0.054737
  78 H :    0.035274
  79 H :    0.031353
  80 H :    0.028578
  81 H :    0.026371
  82 H :    0.027676
  83 H :    0.031045
  84 H :    0.034012
  85 H :    0.042680
  86 H :    0.023199
  87 H :    0.033926
  88 H :    0.085774
  89 H :    0.035040
  90 H :    0.020650
  91 H :    0.036548
  92 H :    0.035555
  93 H :    0.032462
  94 H :    0.033445
  95 H :    0.035401
  96 H :    0.030833
  97 H :    0.036248
  98 H :    0.035349
  99 H :    0.040859
 100 H :    0.038056
 101 H :    0.032545
 102 H :    0.036855

  Mayer bond orders larger than 0.100000
B(  0-C ,  1-O ) :   2.0896 B(  0-C ,  2-N ) :   1.0741 B(  0-C , 10-C ) :   0.9537
B(  2-N ,  3-C ) :   0.9347 B(  2-N ,  4-C ) :   1.0680 B(  3-C , 64-H ) :   0.9548
B(  3-C , 65-H ) :   0.9773 B(  3-C , 66-H ) :   0.9750 B(  4-C ,  5-O ) :   2.0886
B(  4-C ,  6-N ) :   1.0566 B(  6-N ,  7-C ) :   0.9354 B(  6-N ,  8-C ) :   1.0981
B(  7-C , 67-H ) :   0.9763 B(  7-C , 68-H ) :   0.9755 B(  7-C , 69-H ) :   0.9550
B(  8-C ,  9-O ) :   1.9877 B(  8-C , 10-C ) :   0.9996 B( 10-C , 11-C ) :   1.5997
B( 11-C , 12-C ) :   1.2229 B( 11-C , 70-H ) :   0.9351 B( 12-C , 13-S ) :   1.0961
B( 12-C , 16-C ) :   1.3573 B( 13-S , 14-C ) :   1.1422 B( 14-C , 15-C ) :   1.4049
B( 14-C , 22-C ) :   1.0992 B( 15-C , 16-C ) :   1.4068 B( 15-C , 21-C ) :   1.0478
B( 16-C , 17-C ) :   1.0517 B( 17-C , 18-C ) :   1.0705 B( 17-C , 71-H ) :   0.9061
B( 17-C , 72-H ) :   0.9090 B( 18-C , 19-C ) :   1.0247 B( 18-C , 73-H ) :   0.9282
B( 18-C , 74-H ) :   0.9351 B( 19-C , 20-N ) :   1.1050 B( 19-C , 21-C ) :   1.0445
B( 19-C , 75-H ) :   0.9185 B( 20-N , 76-H ) :   0.9732 B( 20-N , 77-H ) :   0.9730
B( 21-C , 78-H ) :   0.9057 B( 21-C , 79-H ) :   0.9036 B( 22-C , 23-C ) :   1.7061
B( 22-C , 80-H ) :   0.9570 B( 23-C , 24-C ) :   1.1052 B( 23-C , 81-H ) :   0.9670
B( 24-C , 25-C ) :   1.7426 B( 24-C , 82-H ) :   0.9754 B( 25-C , 26-C ) :   1.0744
B( 25-C , 27-C ) :   1.0432 B( 26-C , 83-H ) :   0.9523 B( 26-C , 84-H ) :   0.9466
B( 26-C , 85-H ) :   0.9455 B( 27-C , 28-N ) :   0.9773 B( 27-C , 86-H ) :   0.9400
B( 27-C , 87-H ) :   0.9332 B( 28-N , 29-C ) :   1.2711 B( 28-N , 88-H ) :   0.9358
B( 29-C , 30-C ) :   1.5371 B( 29-C , 89-H ) :   0.9650 B( 30-C , 31-C ) :   1.2161
B( 30-C , 90-H ) :   0.9659 B( 31-C , 32-C ) :   1.5346 B( 31-C , 91-H ) :   0.9794
B( 32-C , 33-C ) :   1.1767 B( 32-C , 36-S ) :   1.0125 B( 33-C , 34-C ) :   1.5484
B( 33-C , 92-H ) :   0.9985 B( 34-C , 35-C ) :   1.2240 B( 34-C , 93-H ) :   0.9946
B( 35-C , 36-S ) :   1.0998 B( 35-C , 37-C ) :   1.4240 B( 37-C , 38-C ) :   1.2511
B( 37-C , 41-S ) :   1.0418 B( 38-C , 39-C ) :   1.5206 B( 38-C , 94-H ) :   0.9924
B( 39-C , 40-C ) :   1.2296 B( 39-C , 95-H ) :   0.9906 B( 40-C , 41-S ) :   1.1158
B( 40-C , 42-C ) :   1.4013 B( 42-C , 43-C ) :   1.3262 B( 42-C , 96-H ) :   0.9472
B( 43-C , 44-C ) :   1.4489 B( 43-C , 97-H ) :   0.9442 B( 44-C , 45-C ) :   0.9819
B( 44-C , 58-C ) :   1.1212 B( 45-C , 46-O ) :   2.2298 B( 45-C , 47-C ) :   0.9164
B( 47-C , 48-C ) :   1.4863 B( 47-C , 57-C ) :   1.2183 B( 48-C , 49-C ) :   1.1739
B( 48-C , 98-H ) :   1.0156 B( 49-C , 50-C ) :   1.2658 B( 49-C , 54-C ) :   1.2404
B( 50-C , 51-C ) :   1.2031 B( 50-C , 56-C ) :   1.1894 B( 51-C , 52-C ) :   1.4382
B( 51-C , 99-H ) :   1.0076 B( 52-C , 53-C ) :   1.2610 B( 52-C , 55-F ) :   1.0792
B( 53-C , 54-C ) :   1.4522 B( 53-C ,100-H ) :   0.9925 B( 54-C ,101-H ) :   0.9967
B( 56-C , 57-C ) :   1.4730 B( 56-C ,102-H ) :   0.9935 B( 57-C , 58-C ) :   0.9858
B( 58-C , 59-C ) :   1.5685 B( 59-C , 60-C ) :   1.1681 B( 59-C , 62-C ) :   1.1406
B( 60-C , 61-N ) :   3.0127 B( 62-C , 63-N ) :   2.9649

-----------------------------------------------------------------------------
         ABSORPTION SPECTRUM VIA TRANSITION ELECTRIC DIPOLE MOMENTS
-----------------------------------------------------------------------------
State   Energy  Wavelength   fosc         T2         TX        TY        TZ
        (cm-1)    (nm)                  (au**2)     (au)      (au)      (au)
-----------------------------------------------------------------------------
   0   12161.0    822.3   1.637646559  44.33301  -5.38265  -1.22247  -3.72367
   1   19094.6    523.7   0.000292120   0.00504  -0.04370  -0.05216  -0.02015
   2   21972.8    455.1   0.092893502   1.39180   0.76783  -0.72767   0.52225
   3   23716.3    421.7   0.366240320   5.08388  -2.08126   0.22658  -0.83719
   4   24559.8    407.2   1.097194645  14.70735  -1.86180  -3.34150   0.27470
   5   25589.6    390.8   0.162467351   2.09016  -0.06385  -1.44022   0.10880
   6   27329.3    365.9   0.171592227   2.06702  -0.08800  -1.28515  -0.63848
   7   27805.5    359.6   0.054838696   0.64928   0.19064   0.49741   0.60458
   8   28830.0    346.9   0.000185654   0.00212   0.01627  -0.03360   0.02695
   9   29049.0    344.2   0.044230930   0.50127   0.30392  -0.14610   0.62254
  10   30196.3    331.2   0.003766900   0.04107   0.00004   0.20006  -0.03233
  11   30681.8    325.9   0.002415926   0.02592  -0.00960  -0.13372  -0.08917
  12   30923.1    323.4   0.040580783   0.43203  -0.05031   0.59273   0.27958
  13   31301.2    319.5   0.029884357   0.31431  -0.09155  -0.30660   0.46035
  14   32049.0    312.0   0.155454528   1.59685  -0.09441  -1.03359  -0.72085
  15   32283.1    309.8   0.096482060   0.98389  -0.36785   0.26316  -0.88280
  16   32473.6    307.9   0.000635483   0.00644   0.00862  -0.07902  -0.01116
  17   33130.2    301.8   0.028810048   0.28628  -0.24743  -0.18404  -0.43725
  18   33251.7    300.7   0.027670623   0.27396  -0.08875  -0.17675   0.48460
  19   33436.7    299.1   0.009310731   0.09167  -0.11142  -0.14686  -0.24019
  20   34143.2    292.9   0.387627800   3.73755  -0.77882  -0.37241  -1.72982
  21   35028.6    285.5   0.012604488   0.11846   0.25612  -0.01247  -0.22959
  22   36114.4    276.9   0.011826224   0.10781   0.06038   0.32266   0.00697
  23   36442.8    274.4   0.033685681   0.30431  -0.29025  -0.46658   0.04864
  24   36540.7    273.7   0.001878956   0.01693   0.08983   0.08979  -0.02822
  25   36564.1    273.5   0.001967397   0.01771   0.13108   0.02303  -0.00105
  26   37191.0    268.9   0.118273836   1.04695   0.77889   0.32442   0.57883
  27   37406.9    267.3   0.149011221   1.31142  -0.61734   0.68883  -0.67514
  28   37849.7    264.2   0.108175771   0.94090  -0.33040   0.17098  -0.89582
  29   38371.9    260.6   0.364878021   3.13047   0.66012  -1.07201   1.24318
  30   39074.6    255.9   0.000777170   0.00655   0.03582   0.00214   0.07253
  31   39694.6    251.9   0.290646370   2.41051   0.72924   0.36459   1.32129
  32   39865.6    250.8   0.020341660   0.16798   0.02168   0.28384   0.29486
  33   40271.8    248.3   0.045512874   0.37206  -0.03324  -0.01707   0.60882

FINAL SINGLE POINT ENERGY     -3848.909911889544

DIPOLE MOMENT
-------------
                                X             Y             Z
Electronic contribution:    100.77666      14.04082      83.76287
Nuclear contribution   :   -107.03981     -15.07990     -87.79133
                        -----------------------------------------
Total Dipole Moment    :     -6.26315      -1.03908      -4.02846
                        -----------------------------------------
Magnitude (a.u.)       :      7.51899
Magnitude (Debye)      :     19.11176

Rotational constants in cm-1:     0.002278     0.000177     0.000170
Rotational constants in MHz :    68.294739     5.295684     5.082774

                             ****ORCA TERMINATED NORMALLY****
TOTAL RUN TIME: 0 days 0 hours 13 minutes 38 seconds 829 msec
