                         Program Version 4.2.0 -  RELEASE  -
|  1> # ORCA input file
|  2> # SCF done       -198.598751929324          0.000591775895
|  3> ! CAM-B3LYP def2-SVP def2/J RIJCOSX Grid4 TightSCF
|  4> %maxcore 5000
|  5> %tddft
|  6>     Mode sTDDFT
|  7>     Ethresh 5.0
|  8>     maxcore 5000
|  9> end
| 10>
| 11> %pal
| 12>   nprocs 6
| 13>   end
| 14> * xyz 0 1
| 15>    C       -2.17289       -13.42923        -0.57210
| 16>    C       -2.91270       -13.24362         0.55843
| 17>    S       -2.31653       -11.99210         1.58806
| 18>    C       -1.02708       -11.70735         0.49833
| 19>    C       -1.08306       -12.54355        -0.61006
| 20>    C        0.03153       -12.21871        -1.50738
| 21>    O        0.29811       -12.68197        -2.59156
| 22>    C        0.82865       -11.18741        -0.76535
| 23>    C        0.06343       -10.77220         0.40059
| 24>    C        0.15731        -9.62007         1.14037
| 25>    C       -0.75542        -9.35294         2.18330
| 26>    N       -1.49649        -9.12814         3.02942
| 27>    C        1.05708        -8.56796         0.89674
| 28>    N        1.74300        -7.66345         0.72214
| 29>    C        2.07545       -10.88339        -1.21354
| 30>    C        3.13196       -10.23933        -0.53031
| 31>    C        3.34708       -10.13029         0.83447
| 32>    C        4.51513        -9.43785         1.12965
| 33>    C        5.20751        -9.01415        -0.02174
| 34>    S        4.43418        -9.49841        -1.45702
| 35>    C        6.34668        -8.27745         0.38874
| 36>    C        6.37390        -8.23328         1.79294
| 37>    C        5.22107        -8.95832         2.30473
| 38>    C        4.84800        -9.12507         3.60580
| 39>    C        3.67499        -9.83071         3.94793
| 40>    N        2.72052       -10.40879         4.21218
| 41>    C        5.60216        -8.61034         4.68107
| 42>    N        6.21725        -8.20143         5.55788
| 43>    C        7.45070        -7.50036         2.29234
| 44>    C        8.23966        -6.98644         1.28068
| 45>    S        7.64750        -7.42057        -0.31332
| 46>    C        9.39183        -6.16493         1.41513
| 47>    C       10.15158        -5.62485         0.41273
| 48>    C       11.20155        -4.80970         0.88820
| 49>    C       11.22817        -4.74688         2.29259
| 50>    S        9.96388        -5.70070         3.00810
| 51>    C       12.14808        -3.99793         3.01701
| 52>    O       11.99850        -4.09382         4.36216
| 53>    C       12.97302        -3.64022         5.26935
| 54>    C       13.06588        -3.23830         2.26604
| 55>    C       13.05082        -3.31815         0.83336
| 56>    C       12.15260        -4.09692         0.12360
| 57>    O       12.03406        -4.27477        -1.21394
| 58>    C       12.93782        -3.67989        -2.11610
| 59>    S       14.27445        -2.26328         0.14279
| 60>    C       14.75544        -1.70927         1.72437
| 61>    C       14.04305        -2.31647         2.71881
| 62>    C       15.75595        -0.70989         1.85555
| 63>    C       16.42714        -0.06408         0.83435
| 64>    C       17.31129         0.89959         1.31802
| 65>    C       17.31676         0.98181         2.72015
| 66>    S       16.23427        -0.12901         3.44202
| 67>    C       18.21835         1.99855         3.11259
| 68>    C       18.78267         2.57104         1.94992
| 69>    C       18.24677         1.88221         0.78788
| 70>    C       18.55793         2.08647        -0.52362
| 71>    C       17.95169         1.33783        -1.55541
| 72>    N       17.45760         0.73018        -2.39303
| 73>    C       19.51584         3.03042        -0.95460
| 74>    N       20.30220         3.77037        -1.33847
| 75>    C       19.65007         3.62056         2.22426
| 76>    C       19.77000         3.85965         3.58636
| 77>    S       18.78584         2.73149         4.53529
| 78>    C       20.52494         4.78586         4.33593
| 79>    C       21.23561         5.88644         3.95274
| 80>    C       21.99665         6.70958         4.88963
| 81>    C       22.26200         6.49708         6.21907
| 82>    C       23.03082         7.42662         6.95211
| 83>    N       23.64952         8.18022         7.55691
| 84>    C       21.85160         5.39415         6.99112
| 85>    N       21.55894         4.52158         7.67882
| 86>    C       22.47733         7.83409         4.13712
| 87>    C       22.08935         7.75346         2.80807
| 88>    C       22.53995         8.83707         2.03664
| 89>    C       23.25959         9.71003         2.79843
| 90>    S       23.40513         9.24016         4.45397
| 91>    C       21.30121         6.53043         2.60684
| 92>    O       20.79190         6.15854         1.57267
| 93>    H       -2.39645       -14.15363        -1.33301
| 94>    H       -3.79788       -13.77217         0.85427
| 95>    H        2.29568       -11.23670        -2.21653
| 96>    H        2.69932       -10.57729         1.56640
| 97>    H        7.66224        -7.33210         3.33294
| 98>    H        9.96620        -5.78918        -0.63315
| 99>    H       13.97728        -3.96091         4.98045
|100>    H       12.70984        -4.10050         6.22173
|101>    H       12.93934        -2.55257         5.38477
|102>    H       13.96871        -3.98287        -1.91694
|103>    H       12.86594        -2.58950        -2.10487
|104>    H       12.64070        -4.04648        -3.09786
|105>    H       14.22089        -2.06360         3.74640
|106>    H       16.25890        -0.29238        -0.20270
|107>    H       20.16969         4.20516         1.48693
|108>    H       20.51021         4.57900         5.40024
|109>    H       22.34572         8.96086         0.98751
|110>    H       23.72688        10.62233         2.48248
|111> *
|112>
|113>                          ****END OF INPUT****

CARTESIAN COORDINATES (ANGSTROEM)
---------------------------------
  C     -2.172890  -13.429230   -0.572100
  C     -2.912700  -13.243620    0.558430
  S     -2.316530  -11.992100    1.588060
  C     -1.027080  -11.707350    0.498330
  C     -1.083060  -12.543550   -0.610060
  C      0.031530  -12.218710   -1.507380
  O      0.298110  -12.681970   -2.591560
  C      0.828650  -11.187410   -0.765350
  C      0.063430  -10.772200    0.400590
  C      0.157310   -9.620070    1.140370
  C     -0.755420   -9.352940    2.183300
  N     -1.496490   -9.128140    3.029420
  C      1.057080   -8.567960    0.896740
  N      1.743000   -7.663450    0.722140
  C      2.075450  -10.883390   -1.213540
  C      3.131960  -10.239330   -0.530310
  C      3.347080  -10.130290    0.834470
  C      4.515130   -9.437850    1.129650
  C      5.207510   -9.014150   -0.021740
  S      4.434180   -9.498410   -1.457020
  C      6.346680   -8.277450    0.388740
  C      6.373900   -8.233280    1.792940
  C      5.221070   -8.958320    2.304730
  C      4.848000   -9.125070    3.605800
  C      3.674990   -9.830710    3.947930
  N      2.720520  -10.408790    4.212180
  C      5.602160   -8.610340    4.681070
  N      6.217250   -8.201430    5.557880
  C      7.450700   -7.500360    2.292340
  C      8.239660   -6.986440    1.280680
  S      7.647500   -7.420570   -0.313320
  C      9.391830   -6.164930    1.415130
  C     10.151580   -5.624850    0.412730
  C     11.201550   -4.809700    0.888200
  C     11.228170   -4.746880    2.292590
  S      9.963880   -5.700700    3.008100
  C     12.148080   -3.997930    3.017010
  O     11.998500   -4.093820    4.362160
  C     12.973020   -3.640220    5.269350
  C     13.065880   -3.238300    2.266040
  C     13.050820   -3.318150    0.833360
  C     12.152600   -4.096920    0.123600
  O     12.034060   -4.274770   -1.213940
  C     12.937820   -3.679890   -2.116100
  S     14.274450   -2.263280    0.142790
  C     14.755440   -1.709270    1.724370
  C     14.043050   -2.316470    2.718810
  C     15.755950   -0.709890    1.855550
  C     16.427140   -0.064080    0.834350
  C     17.311290    0.899590    1.318020
  C     17.316760    0.981810    2.720150
  S     16.234270   -0.129010    3.442020
  C     18.218350    1.998550    3.112590
  C     18.782670    2.571040    1.949920
  C     18.246770    1.882210    0.787880
  C     18.557930    2.086470   -0.523620
  C     17.951690    1.337830   -1.555410
  N     17.457600    0.730180   -2.393030
  C     19.515840    3.030420   -0.954600
  N     20.302200    3.770370   -1.338470
  C     19.650070    3.620560    2.224260
  C     19.770000    3.859650    3.586360
  S     18.785840    2.731490    4.535290
  C     20.524940    4.785860    4.335930
  C     21.235610    5.886440    3.952740
  C     21.996650    6.709580    4.889630
  C     22.262000    6.497080    6.219070
  C     23.030820    7.426620    6.952110
  N     23.649520    8.180220    7.556910
  C     21.851600    5.394150    6.991120
  N     21.558940    4.521580    7.678820
  C     22.477330    7.834090    4.137120
  C     22.089350    7.753460    2.808070
  C     22.539950    8.837070    2.036640
  C     23.259590    9.710030    2.798430
  S     23.405130    9.240160    4.453970
  C     21.301210    6.530430    2.606840
  O     20.791900    6.158540    1.572670
  H     -2.396450  -14.153630   -1.333010
  H     -3.797880  -13.772170    0.854270
  H      2.295680  -11.236700   -2.216530
  H      2.699320  -10.577290    1.566400
  H      7.662240   -7.332100    3.332940
  H      9.966200   -5.789180   -0.633150
  H     13.977280   -3.960910    4.980450
  H     12.709840   -4.100500    6.221730
  H     12.939340   -2.552570    5.384770
  H     13.968710   -3.982870   -1.916940
  H     12.865940   -2.589500   -2.104870
  H     12.640700   -4.046480   -3.097860
  H     14.220890   -2.063600    3.746400
  H     16.258900   -0.292380   -0.202700
  H     20.169690    4.205160    1.486930
  H     20.510210    4.579000    5.400240
  H     22.345720    8.960860    0.987510
  H     23.726880   10.622330    2.482480

 Total Charge           Charge          ....    0
 Multiplicity           Mult            ....    1
 Number of Electrons    NEL             ....  582
 Basis Dimension        Dim             .... 1214

ORBITAL ENERGIES
----------------

  NO   OCC          E(Eh)            E(eV)
   0   2.0000     -88.999808     -2421.8079
   1   2.0000     -88.998618     -2421.7755
   2   2.0000     -88.994327     -2421.6588
   3   2.0000     -88.991913     -2421.5931
   4   2.0000     -88.990011     -2421.5413
   5   2.0000     -88.988035     -2421.4875
   6   2.0000     -88.964470     -2420.8463
   7   2.0000     -88.957972     -2420.6695
   8   2.0000     -19.260032      -524.0921
   9   2.0000     -19.258168      -524.0414
  10   2.0000     -19.225065      -523.1406
  11   2.0000     -19.218614      -522.9651
  12   2.0000     -14.436674      -392.8419
  13   2.0000     -14.432562      -392.7300
  14   2.0000     -14.431659      -392.7054
  15   2.0000     -14.430377      -392.6705
  16   2.0000     -14.423156      -392.4740
  17   2.0000     -14.418879      -392.3576
  18   2.0000     -14.418688      -392.3524
  19   2.0000     -14.415338      -392.2613
  20   2.0000     -10.379867      -282.4505
  21   2.0000     -10.372889      -282.2607
  22   2.0000     -10.371902      -282.2338
  23   2.0000     -10.365922      -282.0711
  24   2.0000     -10.358228      -281.8617
  25   2.0000     -10.353007      -281.7196
  26   2.0000     -10.352771      -281.7132
  27   2.0000     -10.351618      -281.6818
  28   2.0000     -10.349004      -281.6107
  29   2.0000     -10.348729      -281.6032
  30   2.0000     -10.348724      -281.6031
  31   2.0000     -10.348212      -281.5892
  32   2.0000     -10.346619      -281.5458
  33   2.0000     -10.341497      -281.4064
  34   2.0000     -10.339650      -281.3562
  35   2.0000     -10.339584      -281.3544
  36   2.0000     -10.337365      -281.2940
  37   2.0000     -10.336762      -281.2776
  38   2.0000     -10.332940      -281.1736
  39   2.0000     -10.331955      -281.1468
  40   2.0000     -10.331899      -281.1453
  41   2.0000     -10.331647      -281.1384
  42   2.0000     -10.330754      -281.1141
  43   2.0000     -10.330492      -281.1070
  44   2.0000     -10.330445      -281.1057
  45   2.0000     -10.329983      -281.0931
  46   2.0000     -10.329169      -281.0710
  47   2.0000     -10.328235      -281.0456
  48   2.0000     -10.325978      -280.9841
  49   2.0000     -10.325776      -280.9787
  50   2.0000     -10.324995      -280.9574
  51   2.0000     -10.324102      -280.9331
  52   2.0000     -10.322901      -280.9004
  53   2.0000     -10.320761      -280.8422
  54   2.0000     -10.320321      -280.8302
  55   2.0000     -10.320124      -280.8248
  56   2.0000     -10.318358      -280.7768
  57   2.0000     -10.316692      -280.7315
  58   2.0000     -10.316385      -280.7231
  59   2.0000     -10.316115      -280.7158
  60   2.0000     -10.310918      -280.5744
  61   2.0000     -10.310568      -280.5648
  62   2.0000     -10.309231      -280.5284
  63   2.0000     -10.308646      -280.5125
  64   2.0000     -10.307990      -280.4947
  65   2.0000     -10.307980      -280.4944
  66   2.0000     -10.304730      -280.4060
  67   2.0000     -10.303794      -280.3805
  68   2.0000     -10.303274      -280.3663
  69   2.0000     -10.303095      -280.3615
  70   2.0000     -10.302142      -280.3355
  71   2.0000     -10.301258      -280.3115
  72   2.0000     -10.300486      -280.2905
  73   2.0000     -10.299291      -280.2580
  74   2.0000     -10.298402      -280.2338
  75   2.0000     -10.297265      -280.2028
  76   2.0000     -10.288769      -279.9716
  77   2.0000     -10.285006      -279.8692
  78   2.0000      -8.094223      -220.2550
  79   2.0000      -8.093328      -220.2307
  80   2.0000      -8.089085      -220.1152
  81   2.0000      -8.086401      -220.0422
  82   2.0000      -8.084620      -219.9937
  83   2.0000      -8.082636      -219.9397
  84   2.0000      -8.059391      -219.3072
  85   2.0000      -8.052809      -219.1281
  86   2.0000      -6.063489      -164.9959
  87   2.0000      -6.062388      -164.9660
  88   2.0000      -6.059406      -164.8848
  89   2.0000      -6.058319      -164.8552
  90   2.0000      -6.058236      -164.8530
  91   2.0000      -6.056502      -164.8058
  92   2.0000      -6.055922      -164.7900
  93   2.0000      -6.055678      -164.7834
  94   2.0000      -6.054115      -164.7408
  95   2.0000      -6.053943      -164.7362
  96   2.0000      -6.051932      -164.6814
  97   2.0000      -6.051556      -164.6712
  98   2.0000      -6.051506      -164.6698
  99   2.0000      -6.049315      -164.6102
 100   2.0000      -6.048713      -164.5939
 101   2.0000      -6.047324      -164.5561
 102   2.0000      -6.047170      -164.5519
 103   2.0000      -6.045237      -164.4993
 104   2.0000      -6.029350      -164.0669
 105   2.0000      -6.025068      -163.9504
 106   2.0000      -6.022529      -163.8813
 107   2.0000      -6.020306      -163.8209
 108   2.0000      -6.018403      -163.7691
 109   2.0000      -6.014070      -163.6512
 110   2.0000      -1.164031       -31.6749
 111   2.0000      -1.162628       -31.6367
 112   2.0000      -1.140870       -31.0446
 113   2.0000      -1.134206       -30.8633
 114   2.0000      -1.053680       -28.6721
 115   2.0000      -1.048038       -28.5186
 116   2.0000      -1.032717       -28.1017
 117   2.0000      -1.030085       -28.0301
 118   2.0000      -1.027347       -27.9555
 119   2.0000      -1.023019       -27.8378
 120   2.0000      -1.014247       -27.5991
 121   2.0000      -1.012569       -27.5534
 122   2.0000      -1.011089       -27.5131
 123   2.0000      -1.010055       -27.4850
 124   2.0000      -1.008334       -27.4381
 125   2.0000      -1.006397       -27.3854
 126   2.0000      -0.999268       -27.1915
 127   2.0000      -0.998656       -27.1748
 128   2.0000      -0.994511       -27.0620
 129   2.0000      -0.985770       -26.8242
 130   2.0000      -0.969415       -26.3791
 131   2.0000      -0.965517       -26.2730
 132   2.0000      -0.962443       -26.1894
 133   2.0000      -0.958061       -26.0702
 134   2.0000      -0.930360       -25.3164
 135   2.0000      -0.922536       -25.1035
 136   2.0000      -0.913015       -24.8444
 137   2.0000      -0.907268       -24.6880
 138   2.0000      -0.903834       -24.5946
 139   2.0000      -0.887212       -24.1423
 140   2.0000      -0.885286       -24.0899
 141   2.0000      -0.882361       -24.0103
 142   2.0000      -0.875802       -23.8318
 143   2.0000      -0.866784       -23.5864
 144   2.0000      -0.865814       -23.5600
 145   2.0000      -0.859565       -23.3900
 146   2.0000      -0.856530       -23.3074
 147   2.0000      -0.854583       -23.2544
 148   2.0000      -0.850476       -23.1426
 149   2.0000      -0.843317       -22.9478
 150   2.0000      -0.822241       -22.3743
 151   2.0000      -0.815178       -22.1821
 152   2.0000      -0.808559       -22.0020
 153   2.0000      -0.797127       -21.6909
 154   2.0000      -0.788388       -21.4531
 155   2.0000      -0.780003       -21.2250
 156   2.0000      -0.775196       -21.0942
 157   2.0000      -0.770439       -20.9647
 158   2.0000      -0.764592       -20.8056
 159   2.0000      -0.756155       -20.5760
 160   2.0000      -0.753378       -20.5005
 161   2.0000      -0.732943       -19.9444
 162   2.0000      -0.715352       -19.4657
 163   2.0000      -0.709281       -19.3005
 164   2.0000      -0.705965       -19.2103
 165   2.0000      -0.696821       -18.9615
 166   2.0000      -0.694846       -18.9077
 167   2.0000      -0.691038       -18.8041
 168   2.0000      -0.687863       -18.7177
 169   2.0000      -0.683613       -18.6021
 170   2.0000      -0.679442       -18.4886
 171   2.0000      -0.673673       -18.3316
 172   2.0000      -0.671551       -18.2738
 173   2.0000      -0.669317       -18.2130
 174   2.0000      -0.667440       -18.1620
 175   2.0000      -0.647402       -17.6167
 176   2.0000      -0.642699       -17.4887
 177   2.0000      -0.637123       -17.3370
 178   2.0000      -0.635004       -17.2793
 179   2.0000      -0.630754       -17.1637
 180   2.0000      -0.627705       -17.0807
 181   2.0000      -0.623121       -16.9560
 182   2.0000      -0.620603       -16.8875
 183   2.0000      -0.618528       -16.8310
 184   2.0000      -0.616106       -16.7651
 185   2.0000      -0.610829       -16.6215
 186   2.0000      -0.610179       -16.6038
 187   2.0000      -0.601328       -16.3630
 188   2.0000      -0.599487       -16.3129
 189   2.0000      -0.595715       -16.2102
 190   2.0000      -0.579175       -15.7602
 191   2.0000      -0.572657       -15.5828
 192   2.0000      -0.571151       -15.5418
 193   2.0000      -0.570388       -15.5210
 194   2.0000      -0.564788       -15.3687
 195   2.0000      -0.560431       -15.2501
 196   2.0000      -0.556338       -15.1387
 197   2.0000      -0.552663       -15.0387
 198   2.0000      -0.549833       -14.9617
 199   2.0000      -0.547761       -14.9053
 200   2.0000      -0.543986       -14.8026
 201   2.0000      -0.542826       -14.7711
 202   2.0000      -0.541513       -14.7353
 203   2.0000      -0.540034       -14.6951
 204   2.0000      -0.536688       -14.6040
 205   2.0000      -0.529263       -14.4020
 206   2.0000      -0.525202       -14.2915
 207   2.0000      -0.524164       -14.2632
 208   2.0000      -0.518374       -14.1057
 209   2.0000      -0.517646       -14.0859
 210   2.0000      -0.515728       -14.0337
 211   2.0000      -0.511063       -13.9067
 212   2.0000      -0.509712       -13.8700
 213   2.0000      -0.507372       -13.8063
 214   2.0000      -0.507133       -13.7998
 215   2.0000      -0.506019       -13.7695
 216   2.0000      -0.505140       -13.7456
 217   2.0000      -0.501979       -13.6595
 218   2.0000      -0.501400       -13.6438
 219   2.0000      -0.498338       -13.5605
 220   2.0000      -0.496256       -13.5038
 221   2.0000      -0.491113       -13.3639
 222   2.0000      -0.489572       -13.3219
 223   2.0000      -0.488799       -13.3009
 224   2.0000      -0.485305       -13.2058
 225   2.0000      -0.483483       -13.1562
 226   2.0000      -0.479834       -13.0570
 227   2.0000      -0.479073       -13.0362
 228   2.0000      -0.477625       -12.9968
 229   2.0000      -0.476676       -12.9710
 230   2.0000      -0.472392       -12.8544
 231   2.0000      -0.471377       -12.8268
 232   2.0000      -0.468944       -12.7606
 233   2.0000      -0.467562       -12.7230
 234   2.0000      -0.466337       -12.6897
 235   2.0000      -0.461834       -12.5671
 236   2.0000      -0.460641       -12.5347
 237   2.0000      -0.459431       -12.5018
 238   2.0000      -0.458548       -12.4777
 239   2.0000      -0.456982       -12.4351
 240   2.0000      -0.455334       -12.3903
 241   2.0000      -0.453832       -12.3494
 242   2.0000      -0.452517       -12.3136
 243   2.0000      -0.450694       -12.2640
 244   2.0000      -0.449857       -12.2412
 245   2.0000      -0.448065       -12.1925
 246   2.0000      -0.446965       -12.1625
 247   2.0000      -0.445983       -12.1358
 248   2.0000      -0.444660       -12.0998
 249   2.0000      -0.444108       -12.0848
 250   2.0000      -0.443424       -12.0662
 251   2.0000      -0.441803       -12.0221
 252   2.0000      -0.440700       -11.9921
 253   2.0000      -0.439338       -11.9550
 254   2.0000      -0.435797       -11.8586
 255   2.0000      -0.432819       -11.7776
 256   2.0000      -0.431505       -11.7418
 257   2.0000      -0.431153       -11.7323
 258   2.0000      -0.429276       -11.6812
 259   2.0000      -0.428933       -11.6719
 260   2.0000      -0.427917       -11.6442
 261   2.0000      -0.426655       -11.6099
 262   2.0000      -0.425448       -11.5770
 263   2.0000      -0.419772       -11.4226
 264   2.0000      -0.415330       -11.3017
 265   2.0000      -0.414148       -11.2696
 266   2.0000      -0.411910       -11.2086
 267   2.0000      -0.411113       -11.1870
 268   2.0000      -0.408906       -11.1269
 269   2.0000      -0.406738       -11.0679
 270   2.0000      -0.396283       -10.7834
 271   2.0000      -0.384792       -10.4707
 272   2.0000      -0.371951       -10.1213
 273   2.0000      -0.359812        -9.7910
 274   2.0000      -0.358936        -9.7671
 275   2.0000      -0.351950        -9.5771
 276   2.0000      -0.349545        -9.5116
 277   2.0000      -0.348774        -9.4906
 278   2.0000      -0.346434        -9.4269
 279   2.0000      -0.346134        -9.4188
 280   2.0000      -0.341757        -9.2997
 281   2.0000      -0.337095        -9.1728
 282   2.0000      -0.330580        -8.9955
 283   2.0000      -0.326161        -8.8753
 284   2.0000      -0.320840        -8.7305
 285   2.0000      -0.311886        -8.4869
 286   2.0000      -0.308502        -8.3948
 287   2.0000      -0.303105        -8.2479
 288   2.0000      -0.271312        -7.3828
 289   2.0000      -0.263622        -7.1735
 290   2.0000      -0.237703        -6.4682
 291   0.0000      -0.115968        -3.1556
 292   0.0000      -0.108794        -2.9604
 293   0.0000      -0.090263        -2.4562
 294   0.0000      -0.086726        -2.3599
 295   0.0000      -0.069082        -1.8798

MULLIKEN ATOMIC CHARGES
-----------------------
   0 C :    0.016222
   1 C :   -0.053498
   2 S :    0.224967
   3 C :   -0.178849
   4 C :    0.030780
   5 C :    0.141013
   6 O :   -0.138120
   7 C :   -0.141754
   8 C :    0.245016
   9 C :   -0.329823
  10 C :   -0.189468
  11 N :    0.164000
  12 C :   -0.199862
  13 N :    0.173601
  14 C :    0.072100
  15 C :   -0.111842
  16 C :   -0.004679
  17 C :   -0.006719
  18 C :   -0.070019
  19 S :    0.208860
  20 C :   -0.106615
  21 C :    0.023832
  22 C :    0.305548
  23 C :   -0.287293
  24 C :   -0.186895
  25 N :    0.170242
  26 C :   -0.190551
  27 N :    0.179098
  28 C :   -0.065466
  29 C :   -0.033199
  30 S :    0.194235
  31 C :   -0.020273
  32 C :   -0.085956
  33 C :    0.067183
  34 C :   -0.111427
  35 S :    0.151230
  36 C :    0.124863
  37 O :   -0.311035
  38 C :    0.183806
  39 C :    0.067381
  40 C :   -0.128922
  41 C :    0.117891
  42 O :   -0.308955
  43 C :    0.167540
  44 S :    0.076945
  45 C :    0.006938
  46 C :   -0.108415
  47 C :   -0.039490
  48 C :   -0.066680
  49 C :    0.025739
  50 C :   -0.105189
  51 S :    0.185643
  52 C :   -0.079536
  53 C :   -0.012613
  54 C :    0.308878
  55 C :   -0.293660
  56 C :   -0.190206
  57 N :    0.174688
  58 C :   -0.191378
  59 N :    0.192104
  60 C :    0.000006
  61 C :   -0.116249
  62 S :    0.202180
  63 C :    0.029409
  64 C :   -0.096850
  65 C :    0.245934
  66 C :   -0.342204
  67 C :   -0.204264
  68 N :    0.161525
  69 C :   -0.177728
  70 N :    0.150568
  71 C :   -0.154225
  72 C :    0.020650
  73 C :    0.017099
  74 C :   -0.051111
  75 S :    0.221877
  76 C :    0.166525
  77 O :   -0.138565
  78 H :    0.006926
  79 H :    0.043294
  80 H :    0.022066
  81 H :    0.025380
  82 H :    0.017981
  83 H :   -0.010768
  84 H :    0.029483
  85 H :    0.042836
  86 H :    0.034304
  87 H :    0.037830
  88 H :    0.041870
  89 H :    0.041640
  90 H :   -0.032623
  91 H :    0.016145
  92 H :    0.036774
  93 H :    0.006131
  94 H :    0.009779
  95 H :    0.044414
Sum of atomic charges:   -0.0000000

LOEWDIN ATOMIC CHARGES
----------------------
   0 C :   -0.035958
   1 C :   -0.153691
   2 S :    0.514295
   3 C :   -0.172923
   4 C :   -0.072378
   5 C :    0.082240
   6 O :   -0.138758
   7 C :   -0.090464
   8 C :    0.052916
   9 C :   -0.140192
  10 C :   -0.033806
  11 N :   -0.040264
  12 C :   -0.017736
  13 N :   -0.044860
  14 C :    0.038521
  15 C :   -0.186139
  16 C :    0.007275
  17 C :   -0.069074
  18 C :   -0.157237
  19 S :    0.494130
  20 C :   -0.187296
  21 C :   -0.056323
  22 C :    0.083509
  23 C :   -0.097059
  24 C :   -0.013002
  25 N :   -0.032723
  26 C :   -0.017494
  27 N :   -0.028210
  28 C :   -0.035490
  29 C :   -0.165293
  30 S :    0.485128
  31 C :   -0.172886
  32 C :   -0.048199
  33 C :   -0.057434
  34 C :   -0.170576
  35 S :    0.427872
  36 C :    0.025989
  37 O :   -0.104532
  38 C :    0.080639
  39 C :   -0.071598
  40 C :   -0.182594
  41 C :    0.027095
  42 O :   -0.101498
  43 C :    0.065804
  44 S :    0.406903
  45 C :   -0.180104
  46 C :   -0.058236
  47 C :   -0.162895
  48 C :   -0.038734
  49 C :   -0.052522
  50 C :   -0.191179
  51 S :    0.477190
  52 C :   -0.159716
  53 C :   -0.077076
  54 C :    0.076894
  55 C :   -0.093113
  56 C :   -0.014709
  57 N :   -0.031621
  58 C :   -0.022503
  59 N :   -0.015077
  60 C :    0.016250
  61 C :   -0.179502
  62 S :    0.493579
  63 C :    0.034541
  64 C :   -0.093410
  65 C :    0.063619
  66 C :   -0.145874
  67 C :   -0.034596
  68 N :   -0.045620
  69 C :   -0.024646
  70 N :   -0.050867
  71 C :   -0.177956
  72 C :   -0.067278
  73 C :   -0.034152
  74 C :   -0.151590
  75 S :    0.511157
  76 C :    0.086200
  77 O :   -0.129546
  78 H :    0.042610
  79 H :    0.030561
  80 H :    0.045830
  81 H :    0.042285
  82 H :    0.038703
  83 H :    0.028248
  84 H :    0.018233
  85 H :    0.033259
  86 H :    0.016034
  87 H :    0.014461
  88 H :    0.014100
  89 H :    0.032549
  90 H :    0.021060
  91 H :    0.037553
  92 H :    0.043403
  93 H :    0.042625
  94 H :    0.043902
  95 H :    0.031044

  Mayer bond orders larger than 0.100000
B(  0-C ,  1-C ) :   1.5459 B(  0-C ,  4-C ) :   1.2738 B(  0-C , 78-H ) :   1.0076
B(  1-C ,  2-S ) :   1.1675 B(  1-C , 79-H ) :   0.9685 B(  2-S ,  3-C ) :   1.1578
B(  3-C ,  4-C ) :   1.4391 B(  3-C ,  8-C ) :   1.0901 B(  4-C ,  5-C ) :   0.9428
B(  5-C ,  6-O ) :   2.2607 B(  5-C ,  7-C ) :   0.9334 B(  7-C ,  8-C ) :   1.0322
B(  7-C , 14-C ) :   1.7066 B(  8-C ,  9-C ) :   1.6442 B(  9-C , 10-C ) :   1.1237
B(  9-C , 12-C ) :   1.1767 B( 10-C , 11-N ) :   3.0091 B( 12-C , 13-N ) :   2.9970
B( 14-C , 15-C ) :   1.1195 B( 14-C , 80-H ) :   0.9273 B( 15-C , 16-C ) :   1.4072
B( 15-C , 19-S ) :   1.0863 B( 16-C , 17-C ) :   1.3511 B( 16-C , 81-H ) :   0.9813
B( 17-C , 18-C ) :   1.4186 B( 17-C , 22-C ) :   0.9997 B( 18-C , 19-S ) :   1.1527
B( 18-C , 20-C ) :   1.1919 B( 20-C , 21-C ) :   1.4472 B( 20-C , 30-S ) :   1.1130
B( 21-C , 22-C ) :   0.9926 B( 21-C , 28-C ) :   1.2920 B( 22-C , 23-C ) :   1.7184
B( 23-C , 24-C ) :   1.1352 B( 23-C , 26-C ) :   1.1313 B( 24-C , 25-N ) :   2.9831
B( 26-C , 27-N ) :   2.9956 B( 28-C , 29-C ) :   1.4593 B( 28-C , 82-H ) :   0.9922
B( 29-C , 30-S ) :   1.1181 B( 29-C , 31-C ) :   1.1559 B( 31-C , 32-C ) :   1.5318
B( 31-C , 35-S ) :   1.0726 B( 32-C , 33-C ) :   1.1893 B( 32-C , 83-H ) :   1.0024
B( 33-C , 34-C ) :   1.3791 B( 33-C , 41-C ) :   1.2644 B( 34-C , 35-S ) :   1.0394
B( 34-C , 36-C ) :   1.3885 B( 36-C , 37-O ) :   1.2600 B( 36-C , 39-C ) :   1.2357
B( 37-O , 38-C ) :   0.9463 B( 38-C , 84-H ) :   0.9678 B( 38-C , 85-H ) :   0.9740
B( 38-C , 86-H ) :   0.9682 B( 39-C , 40-C ) :   1.2592 B( 39-C , 46-C ) :   1.1661
B( 40-C , 41-C ) :   1.4005 B( 40-C , 44-S ) :   0.9986 B( 41-C , 42-O ) :   1.2336
B( 42-O , 43-C ) :   0.9398 B( 43-C , 87-H ) :   0.9673 B( 43-C , 88-H ) :   0.9668
B( 43-C , 89-H ) :   0.9757 B( 44-S , 45-C ) :   1.0607 B( 45-C , 46-C ) :   1.5683
B( 45-C , 47-C ) :   1.1573 B( 46-C , 90-H ) :   0.9899 B( 47-C , 48-C ) :   1.4541
B( 47-C , 51-S ) :   1.1133 B( 48-C , 49-C ) :   1.2927 B( 48-C , 91-H ) :   0.9897
B( 49-C , 50-C ) :   1.4467 B( 49-C , 54-C ) :   0.9940 B( 50-C , 51-S ) :   1.1061
B( 50-C , 52-C ) :   1.2002 B( 52-C , 53-C ) :   1.3840 B( 52-C , 62-S ) :   1.1650
B( 53-C , 54-C ) :   0.9974 B( 53-C , 60-C ) :   1.3140 B( 54-C , 55-C ) :   1.7162
B( 55-C , 56-C ) :   1.1354 B( 55-C , 58-C ) :   1.1347 B( 56-C , 57-N ) :   2.9890
B( 58-C , 59-N ) :   2.9968 B( 60-C , 61-C ) :   1.4124 B( 60-C , 92-H ) :   0.9725
B( 61-C , 62-S ) :   1.0754 B( 61-C , 63-C ) :   1.1952 B( 63-C , 64-C ) :   1.6422
B( 63-C , 93-H ) :   0.9117 B( 64-C , 65-C ) :   1.0819 B( 64-C , 76-C ) :   0.9225
B( 65-C , 66-C ) :   1.6261 B( 65-C , 71-C ) :   1.0944 B( 66-C , 67-C ) :   1.1460
B( 66-C , 69-C ) :   1.1411 B( 67-C , 68-N ) :   3.0028 B( 69-C , 70-N ) :   2.9659
B( 71-C , 72-C ) :   1.4381 B( 71-C , 75-S ) :   1.1432 B( 72-C , 73-C ) :   1.2718
B( 72-C , 76-C ) :   0.9719 B( 73-C , 74-C ) :   1.5413 B( 73-C , 94-H ) :   1.0077
B( 74-C , 75-S ) :   1.1686 B( 74-C , 95-H ) :   0.9680 B( 76-C , 77-O ) :   2.1826

-----------------------------------------------------------------------------
         ABSORPTION SPECTRUM VIA TRANSITION ELECTRIC DIPOLE MOMENTS
-----------------------------------------------------------------------------
State   Energy  Wavelength   fosc         T2         TX        TY        TZ
        (cm-1)    (nm)                  (au**2)     (au)      (au)      (au)
-----------------------------------------------------------------------------
   0   12041.0    830.5   0.521679963  14.26319   2.81889   2.46751   0.47794
   1   12781.8    782.4   0.054137452   1.39438   1.11099   0.39069   0.08631
   2   16944.9    590.1   0.008772624   0.17044  -0.20263  -0.02565   0.35878
   3   17870.8    559.6   0.042681938   0.78628  -0.65308  -0.59176   0.09787
   4   19716.8    507.2   1.019381892  17.02067   3.59662   1.98069   0.40229
   5   20856.2    479.5   0.878253322  13.86307  -2.19548  -2.84288  -0.98029
   6   23012.6    434.5   0.024445013   0.34970   0.47940   0.32451   0.12073
   7   23845.7    419.4   0.397693167   5.49053   1.68193   1.39594  -0.84439
   8   24892.0    401.7   0.344132967   4.55137  -1.42776  -1.44584  -0.64994
   9   25444.2    393.0   0.027850806   0.36035   0.50387   0.27814   0.17060
  10   25967.9    385.1   0.260081997   3.29723  -0.87296  -1.40876  -0.74200
  11   26246.9    381.0   0.353541701   4.43444  -1.90810  -0.77538  -0.43860
  12   27188.7    367.8   0.069512274   0.84168  -0.35414  -0.47411   0.70106
  13   27511.7    363.5   0.030296828   0.36254   0.20486   0.25346  -0.50629
  14   27734.5    360.6   0.083724888   0.99383   0.06455   0.21917   0.97037
  15   28974.6    345.1   0.160619381   1.82497  -1.00959  -0.81010  -0.38656
  16   29335.9    340.9   0.038258743   0.42934  -0.17090  -0.62660  -0.08669
  17   29920.2    334.2   0.401579626   4.41859   1.23899   1.37193  -1.00065
  18   30122.7    332.0   0.013530227   0.14787   0.32975  -0.00914  -0.19762
  19   30900.2    323.6   0.039381834   0.41958  -0.35566  -0.30918  -0.44440
  20   31015.2    322.4   0.056179956   0.59632   0.17277  -0.23965  -0.71347
  21   31156.5    321.0   0.069439493   0.73372   0.36678   0.41434  -0.65385
  22   31395.8    318.5   0.400325597   4.19776   0.85184   0.78213  -1.69127
  23   31520.4    317.3   0.163192049   1.70444  -0.18009  -0.96500  -0.86068
  24   31548.3    317.0   0.187643102   1.95809  -0.24751  -0.29265  -1.34580
  25   31563.7    316.8   0.082366278   0.85909   0.02601  -0.46031  -0.80407
  26   32106.2    311.5   0.236569868   2.42575   1.10836   1.09307  -0.04980
  27   32374.1    308.9   0.074181402   0.75435   0.53998   0.21244  -0.64626
  28   32456.0    308.1   0.393861146   3.99507  -0.97209  -0.25125  -1.72829
  29   32850.4    304.4   0.115009378   1.15257   0.34354  -0.05466   1.01566
  30   32889.7    304.0   0.240870498   2.41101   0.79402   1.27038  -0.40826
  31   33052.6    302.5   0.246572098   2.45592   0.81731   1.11865  -0.73249
  32   33529.3    298.2   0.088202707   0.86603   0.29205   0.86400  -0.18503
  33   33976.3    294.3   0.186466516   1.80676   0.92469   0.96396  -0.14998
  34   34281.4    291.7   0.009386591   0.09014   0.09789  -0.26792   0.09370
  35   34345.0    291.2   0.198867648   1.90623   0.37338   0.32671   1.28844
  36   34683.6    288.3   0.014861795   0.14107  -0.09172   0.32365   0.16704
  37   34823.2    287.2   0.086723855   0.81987  -0.39090  -0.74752  -0.32907
  38   35008.4    285.6   0.141469718   1.33035   0.44784   0.55858  -0.90431
  39   35169.6    284.3   0.007369785   0.06899  -0.09998   0.22650   0.08768
  40   35478.0    281.9   0.114448738   1.06201  -0.02710   0.04248  -1.02930
  41   35829.5    279.1   0.029830650   0.27409  -0.11833   0.22428   0.45803
  42   36015.0    277.7   0.041460082   0.37899   0.01014  -0.30031  -0.53730
  43   36190.6    276.3   0.082141550   0.74721  -0.20480  -0.18953  -0.81813
  44   36840.7    271.4   0.073971727   0.66102   0.17333  -0.19713   0.76949
  45   36957.4    270.6   0.006333844   0.05642  -0.16868  -0.13402  -0.10003
  46   37061.0    269.8   0.170350273   1.51322  -0.33525  -0.50356  -1.07110
  47   37294.6    268.1   0.068631981   0.60584   0.12665   0.67243   0.37100
  48   37490.4    266.7   0.009355752   0.08216  -0.17811  -0.12661   0.18548
  49   37584.2    266.1   0.051792920   0.45367   0.15381   0.07008  -0.65200
  50   38046.2    262.8   0.040559396   0.35096  -0.37472  -0.32890  -0.31995
  51   38414.6    260.3   0.011899364   0.10198  -0.00272   0.09617   0.30450
  52   38542.0    259.5   0.016186612   0.13826  -0.32292  -0.12612   0.13446
  53   39182.1    255.2   0.005549654   0.04663   0.16965   0.00494  -0.13351
  54   39427.7    253.6   0.052961528   0.44222   0.33855   0.38093   0.42719
  55   39762.4    251.5   0.022067049   0.18270  -0.37506  -0.20471  -0.01138
  56   39898.2    250.6   0.050708856   0.41841  -0.25808  -0.16626  -0.56936
  57   40196.0    248.8   0.038727440   0.31718   0.39621   0.35918  -0.17661

FINAL SINGLE POINT ENERGY     -6140.502737232577

DIPOLE MOMENT
-------------
                                X             Y             Z
Electronic contribution:     -4.71631       2.26333       6.54046
Nuclear contribution   :      5.20137      -3.01443      -8.43533
                        -----------------------------------------
Total Dipole Moment    :      0.48506      -0.75111      -1.89487
                        -----------------------------------------
Magnitude (a.u.)       :      2.09522
Magnitude (Debye)      :      5.32564

Rotational constants in cm-1:     0.002538     0.000130     0.000126
Rotational constants in MHz :    76.073795     3.896755     3.790730

                             ****ORCA TERMINATED NORMALLY****
TOTAL RUN TIME: 0 days 0 hours 9 minutes 52 seconds 153 msec
