                         Program Version 4.2.0 -  RELEASE  -
|  1> # ORCA input file
|  2> # SCF done       -185.110310082283          0.000842316547
|  3> ! CAM-B3LYP def2-SVP def2/J RIJCOSX Grid4 TightSCF
|  4> %maxcore 5000
|  5> %tddft
|  6>     Mode sTDDFT
|  7>     Ethresh 5.0
|  8>     maxcore 5000
|  9> end
| 10>
| 11> %pal
| 12>   nprocs 6
| 13>   end
| 14> * xyz 0 1
| 15>    C        0.98541         4.36436         5.30941
| 16>    C       -0.22447         3.89763         4.88653
| 17>    S       -0.14563         2.35580         4.11193
| 18>    C        1.55270         2.32517         4.33539
| 19>    C        2.01189         3.45698         4.99511
| 20>    C        3.46145         3.34033         5.17985
| 21>    O        4.21897         4.09624         5.74235
| 22>    C        3.83834         2.07262         4.47192
| 23>    C        2.61896         1.39290         4.06400
| 24>    C        2.40215         0.09044         3.69334
| 25>    C        1.09129        -0.36499         3.42771
| 26>    N        0.03270        -0.74707         3.20429
| 27>    C        3.33810        -0.95408         3.60473
| 28>    N        4.00549        -1.88534         3.51593
| 29>    C        5.15624         1.77909         4.34714
| 30>    C        5.79736         0.80181         3.54587
| 31>    C        5.44689         0.29398         2.30801
| 32>    C        6.34115        -0.67900         1.86322
| 33>    C        7.37710        -0.92395         2.78843
| 34>    S        7.29365         0.09410         4.15021
| 35>    C        8.14542        -2.00948         2.33065
| 36>    C        7.62281        -2.45025         1.09267
| 37>    C        6.47244        -1.61443         0.76273
| 38>    C        5.65505        -1.72220        -0.32504
| 39>    C        4.54185        -0.87427        -0.49973
| 40>    N        3.64118        -0.17832        -0.63992
| 41>    C        5.87402        -2.68007        -1.33581
| 42>    N        6.06175        -3.45639        -2.15888
| 43>    C        8.27179        -3.57355         0.60814
| 44>    C        9.25058        -4.04461         1.49378
| 45>    S        9.40763        -2.99486         2.89837
| 46>    C        9.94913        -5.25767         1.39403
| 47>    C       10.54596        -5.91938         2.44528
| 48>    C       11.08957        -7.22829         2.46050
| 49>    C       11.34596        -7.72175         3.71089
| 50>    C       11.01699        -6.82471         4.74508
| 51>    S       10.50763        -5.29327         4.07736
| 52>    C       10.87383        -6.97653         6.11922
| 53>    C       11.18299        -8.01025         7.01987
| 54>    C       10.71624        -7.79123         8.28961
| 55>    C        9.98497        -6.59065         8.44947
| 56>    S       10.00579        -5.70467         6.94446
| 57>    C        9.31683        -6.15042         9.57722
| 58>    C        8.42740        -5.06968         9.62970
| 59>    C        7.87455        -4.33449         8.57425
| 60>    C        6.99654        -3.36274         9.00388
| 61>    C        6.84426        -3.31253        10.40933
| 62>    S        7.80248        -4.50788        11.18586
| 63>    C        5.92614        -2.29314        10.71752
| 64>    C        5.48606        -1.69820         9.50182
| 65>    C        6.14075        -2.35453         8.39458
| 66>    C        5.98764        -2.09553         7.06162
| 67>    C        6.69962        -2.78742         6.06105
| 68>    N        7.29267        -3.33219         5.24359
| 69>    C        5.10144        -1.11060         6.58268
| 70>    N        4.38832        -0.31893         6.15835
| 71>    C        4.57642        -0.67094         9.68780
| 72>    C        4.29708        -0.44570        11.02880
| 73>    S        5.20091        -1.56496        12.07613
| 74>    C        3.47306         0.49078        11.67655
| 75>    C        2.65932         1.47730        11.18494
| 76>    C        1.91656         2.38460        12.05465
| 77>    C        1.85124         2.43091        13.42555
| 78>    C        1.05843         3.40549        14.06834
| 79>    N        0.41716         4.19331        14.60226
| 80>    C        2.50445         1.57952        14.33570
| 81>    N        3.00311         0.93117        15.14285
| 82>    C        1.21122         3.28950        11.18862
| 83>    C        1.45055         2.99497         9.85653
| 84>    C        0.77898         3.85361         8.97125
| 85>    C        0.04894         4.78060         9.65486
| 86>    S        0.15760         4.62891        11.37247
| 87>    C        2.35491         1.84099         9.77028
| 88>    O        2.73493         1.31012         8.74743
| 89>    H        1.13464         5.30455         5.80863
| 90>    H       -1.18090         4.37263         4.98855
| 91>    H        5.81124         2.40007         4.95257
| 92>    H        4.59293         0.64355         1.75566
| 93>    H        8.03062        -4.08299        -0.30761
| 94>    H        9.91353        -5.76408         0.43844
| 95>    H       11.23010        -7.78689         1.55179
| 96>    H       11.70389        -8.71679         3.90751
| 97>    H       11.73114        -8.88574         6.72001
| 98>    H       10.84510        -8.48111         9.10511
| 99>    H        9.47823        -6.70242        10.49347
|100>    H        8.06946        -4.53370         7.53923
|101>    H        4.11939        -0.09500         8.90321
|102>    H        3.51036         0.41075        12.75697
|103>    H        0.83647         3.78968         7.90034
|104>    H       -0.56189         5.56316         9.24872
|105> *
|106>
|107>                          ****END OF INPUT****

CARTESIAN COORDINATES (ANGSTROEM)
---------------------------------
  C      0.985410    4.364360    5.309410
  C     -0.224470    3.897630    4.886530
  S     -0.145630    2.355800    4.111930
  C      1.552700    2.325170    4.335390
  C      2.011890    3.456980    4.995110
  C      3.461450    3.340330    5.179850
  O      4.218970    4.096240    5.742350
  C      3.838340    2.072620    4.471920
  C      2.618960    1.392900    4.064000
  C      2.402150    0.090440    3.693340
  C      1.091290   -0.364990    3.427710
  N      0.032700   -0.747070    3.204290
  C      3.338100   -0.954080    3.604730
  N      4.005490   -1.885340    3.515930
  C      5.156240    1.779090    4.347140
  C      5.797360    0.801810    3.545870
  C      5.446890    0.293980    2.308010
  C      6.341150   -0.679000    1.863220
  C      7.377100   -0.923950    2.788430
  S      7.293650    0.094100    4.150210
  C      8.145420   -2.009480    2.330650
  C      7.622810   -2.450250    1.092670
  C      6.472440   -1.614430    0.762730
  C      5.655050   -1.722200   -0.325040
  C      4.541850   -0.874270   -0.499730
  N      3.641180   -0.178320   -0.639920
  C      5.874020   -2.680070   -1.335810
  N      6.061750   -3.456390   -2.158880
  C      8.271790   -3.573550    0.608140
  C      9.250580   -4.044610    1.493780
  S      9.407630   -2.994860    2.898370
  C      9.949130   -5.257670    1.394030
  C     10.545960   -5.919380    2.445280
  C     11.089570   -7.228290    2.460500
  C     11.345960   -7.721750    3.710890
  C     11.016990   -6.824710    4.745080
  S     10.507630   -5.293270    4.077360
  C     10.873830   -6.976530    6.119220
  C     11.182990   -8.010250    7.019870
  C     10.716240   -7.791230    8.289610
  C      9.984970   -6.590650    8.449470
  S     10.005790   -5.704670    6.944460
  C      9.316830   -6.150420    9.577220
  C      8.427400   -5.069680    9.629700
  C      7.874550   -4.334490    8.574250
  C      6.996540   -3.362740    9.003880
  C      6.844260   -3.312530   10.409330
  S      7.802480   -4.507880   11.185860
  C      5.926140   -2.293140   10.717520
  C      5.486060   -1.698200    9.501820
  C      6.140750   -2.354530    8.394580
  C      5.987640   -2.095530    7.061620
  C      6.699620   -2.787420    6.061050
  N      7.292670   -3.332190    5.243590
  C      5.101440   -1.110600    6.582680
  N      4.388320   -0.318930    6.158350
  C      4.576420   -0.670940    9.687800
  C      4.297080   -0.445700   11.028800
  S      5.200910   -1.564960   12.076130
  C      3.473060    0.490780   11.676550
  C      2.659320    1.477300   11.184940
  C      1.916560    2.384600   12.054650
  C      1.851240    2.430910   13.425550
  C      1.058430    3.405490   14.068340
  N      0.417160    4.193310   14.602260
  C      2.504450    1.579520   14.335700
  N      3.003110    0.931170   15.142850
  C      1.211220    3.289500   11.188620
  C      1.450550    2.994970    9.856530
  C      0.778980    3.853610    8.971250
  C      0.048940    4.780600    9.654860
  S      0.157600    4.628910   11.372470
  C      2.354910    1.840990    9.770280
  O      2.734930    1.310120    8.747430
  H      1.134640    5.304550    5.808630
  H     -1.180900    4.372630    4.988550
  H      5.811240    2.400070    4.952570
  H      4.592930    0.643550    1.755660
  H      8.030620   -4.082990   -0.307610
  H      9.913530   -5.764080    0.438440
  H     11.230100   -7.786890    1.551790
  H     11.703890   -8.716790    3.907510
  H     11.731140   -8.885740    6.720010
  H     10.845100   -8.481110    9.105110
  H      9.478230   -6.702420   10.493470
  H      8.069460   -4.533700    7.539230
  H      4.119390   -0.095000    8.903210
  H      3.510360    0.410750   12.756970
  H      0.836470    3.789680    7.900340
  H     -0.561890    5.563160    9.248720

 Total Charge           Charge          ....    0
 Multiplicity           Mult            ....    1
 Number of Electrons    NEL             ....  552
 Basis Dimension        Dim             .... 1148

ORBITAL ENERGIES
----------------

  NO   OCC          E(Eh)            E(eV)
   0   2.0000     -88.991223     -2421.5743
   1   2.0000     -88.989349     -2421.5233
   2   2.0000     -88.986884     -2421.4562
   3   2.0000     -88.984966     -2421.4040
   4   2.0000     -88.984761     -2421.3985
   5   2.0000     -88.984240     -2421.3843
   6   2.0000     -88.959655     -2420.7153
   7   2.0000     -88.959462     -2420.7100
   8   2.0000     -19.220290      -523.0107
   9   2.0000     -19.212237      -522.7916
  10   2.0000     -14.432815      -392.7369
  11   2.0000     -14.430961      -392.6864
  12   2.0000     -14.424803      -392.5189
  13   2.0000     -14.424193      -392.5022
  14   2.0000     -14.417623      -392.3235
  15   2.0000     -14.412987      -392.1973
  16   2.0000     -14.410516      -392.1301
  17   2.0000     -14.410211      -392.1218
  18   2.0000     -10.374525      -282.3052
  19   2.0000     -10.365998      -282.0731
  20   2.0000     -10.365524      -282.0602
  21   2.0000     -10.357642      -281.8458
  22   2.0000     -10.353594      -281.7356
  23   2.0000     -10.346978      -281.5556
  24   2.0000     -10.346792      -281.5505
  25   2.0000     -10.345197      -281.5071
  26   2.0000     -10.343776      -281.4684
  27   2.0000     -10.341479      -281.4059
  28   2.0000     -10.339441      -281.3505
  29   2.0000     -10.334425      -281.2140
  30   2.0000     -10.333199      -281.1807
  31   2.0000     -10.332628      -281.1651
  32   2.0000     -10.332379      -281.1583
  33   2.0000     -10.329610      -281.0830
  34   2.0000     -10.328728      -281.0590
  35   2.0000     -10.326948      -281.0105
  36   2.0000     -10.325421      -280.9690
  37   2.0000     -10.324712      -280.9497
  38   2.0000     -10.324067      -280.9322
  39   2.0000     -10.323927      -280.9283
  40   2.0000     -10.323825      -280.9256
  41   2.0000     -10.323575      -280.9187
  42   2.0000     -10.323569      -280.9186
  43   2.0000     -10.323091      -280.9056
  44   2.0000     -10.322970      -280.9023
  45   2.0000     -10.322603      -280.8923
  46   2.0000     -10.320601      -280.8378
  47   2.0000     -10.319186      -280.7993
  48   2.0000     -10.318196      -280.7724
  49   2.0000     -10.317882      -280.7639
  50   2.0000     -10.314768      -280.6791
  51   2.0000     -10.314640      -280.6756
  52   2.0000     -10.314179      -280.6631
  53   2.0000     -10.311689      -280.5953
  54   2.0000     -10.310479      -280.5624
  55   2.0000     -10.308340      -280.5042
  56   2.0000     -10.304491      -280.3995
  57   2.0000     -10.304369      -280.3961
  58   2.0000     -10.303715      -280.3783
  59   2.0000     -10.302844      -280.3546
  60   2.0000     -10.302138      -280.3354
  61   2.0000     -10.301654      -280.3223
  62   2.0000     -10.301613      -280.3211
  63   2.0000     -10.301090      -280.3069
  64   2.0000     -10.300908      -280.3020
  65   2.0000     -10.300827      -280.2998
  66   2.0000     -10.299904      -280.2746
  67   2.0000     -10.299474      -280.2629
  68   2.0000     -10.298200      -280.2283
  69   2.0000     -10.298110      -280.2258
  70   2.0000     -10.295285      -280.1490
  71   2.0000     -10.293891      -280.1110
  72   2.0000     -10.293855      -280.1100
  73   2.0000     -10.293559      -280.1020
  74   2.0000      -8.085750      -220.0244
  75   2.0000      -8.083771      -219.9706
  76   2.0000      -8.081245      -219.9019
  77   2.0000      -8.079373      -219.8509
  78   2.0000      -8.079049      -219.8421
  79   2.0000      -8.078851      -219.8367
  80   2.0000      -8.056211      -219.2206
  81   2.0000      -8.055935      -219.2131
  82   2.0000      -6.054883      -164.7617
  83   2.0000      -6.053081      -164.7127
  84   2.0000      -6.050805      -164.6508
  85   2.0000      -6.050519      -164.6430
  86   2.0000      -6.049043      -164.6028
  87   2.0000      -6.048708      -164.5937
  88   2.0000      -6.048243      -164.5811
  89   2.0000      -6.048221      -164.5805
  90   2.0000      -6.048176      -164.5792
  91   2.0000      -6.046338      -164.5292
  92   2.0000      -6.045925      -164.5180
  93   2.0000      -6.044083      -164.4679
  94   2.0000      -6.043953      -164.4643
  95   2.0000      -6.043626      -164.4554
  96   2.0000      -6.043527      -164.4527
  97   2.0000      -6.041968      -164.4103
  98   2.0000      -6.041523      -164.3982
  99   2.0000      -6.041415      -164.3953
 100   2.0000      -6.025927      -163.9738
 101   2.0000      -6.025651      -163.9663
 102   2.0000      -6.021648      -163.8574
 103   2.0000      -6.021378      -163.8500
 104   2.0000      -6.017130      -163.7344
 105   2.0000      -6.016977      -163.7303
 106   2.0000      -1.135078       -30.8871
 107   2.0000      -1.127558       -30.6824
 108   2.0000      -1.046490       -28.4764
 109   2.0000      -1.040861       -28.3233
 110   2.0000      -1.027019       -27.9466
 111   2.0000      -1.025460       -27.9042
 112   2.0000      -1.023552       -27.8523
 113   2.0000      -1.016920       -27.6718
 114   2.0000      -1.014574       -27.6080
 115   2.0000      -1.010693       -27.5023
 116   2.0000      -1.007149       -27.4059
 117   2.0000      -1.003525       -27.3073
 118   2.0000      -1.002129       -27.2693
 119   2.0000      -1.000062       -27.2131
 120   2.0000      -0.995574       -27.0909
 121   2.0000      -0.993300       -27.0291
 122   2.0000      -0.988732       -26.9048
 123   2.0000      -0.985823       -26.8256
 124   2.0000      -0.964388       -26.2423
 125   2.0000      -0.959664       -26.1138
 126   2.0000      -0.957178       -26.0461
 127   2.0000      -0.952154       -25.9094
 128   2.0000      -0.924560       -25.1586
 129   2.0000      -0.918411       -24.9912
 130   2.0000      -0.905151       -24.6304
 131   2.0000      -0.901483       -24.5306
 132   2.0000      -0.897219       -24.4146
 133   2.0000      -0.885594       -24.0982
 134   2.0000      -0.879397       -23.9296
 135   2.0000      -0.874478       -23.7958
 136   2.0000      -0.868468       -23.6322
 137   2.0000      -0.859809       -23.3966
 138   2.0000      -0.857437       -23.3320
 139   2.0000      -0.854295       -23.2466
 140   2.0000      -0.852361       -23.1939
 141   2.0000      -0.851092       -23.1594
 142   2.0000      -0.849725       -23.1222
 143   2.0000      -0.833395       -22.6778
 144   2.0000      -0.823973       -22.4214
 145   2.0000      -0.801749       -21.8167
 146   2.0000      -0.791966       -21.5505
 147   2.0000      -0.782579       -21.2950
 148   2.0000      -0.774730       -21.0815
 149   2.0000      -0.770213       -20.9585
 150   2.0000      -0.764254       -20.7964
 151   2.0000      -0.759958       -20.6795
 152   2.0000      -0.746676       -20.3181
 153   2.0000      -0.733879       -19.9699
 154   2.0000      -0.713347       -19.4111
 155   2.0000      -0.706882       -19.2352
 156   2.0000      -0.699930       -19.0461
 157   2.0000      -0.695366       -18.9219
 158   2.0000      -0.690236       -18.7823
 159   2.0000      -0.687007       -18.6944
 160   2.0000      -0.684792       -18.6341
 161   2.0000      -0.677937       -18.4476
 162   2.0000      -0.674464       -18.3531
 163   2.0000      -0.669892       -18.2287
 164   2.0000      -0.666033       -18.1237
 165   2.0000      -0.664176       -18.0732
 166   2.0000      -0.655567       -17.8389
 167   2.0000      -0.641807       -17.4644
 168   2.0000      -0.641249       -17.4493
 169   2.0000      -0.636219       -17.3124
 170   2.0000      -0.632632       -17.2148
 171   2.0000      -0.628454       -17.1011
 172   2.0000      -0.624529       -16.9943
 173   2.0000      -0.619949       -16.8697
 174   2.0000      -0.615976       -16.7615
 175   2.0000      -0.614729       -16.7276
 176   2.0000      -0.610549       -16.6139
 177   2.0000      -0.602577       -16.3970
 178   2.0000      -0.599580       -16.3154
 179   2.0000      -0.594768       -16.1845
 180   2.0000      -0.593225       -16.1425
 181   2.0000      -0.577743       -15.7212
 182   2.0000      -0.572222       -15.5710
 183   2.0000      -0.566643       -15.4191
 184   2.0000      -0.559388       -15.2217
 185   2.0000      -0.550796       -14.9879
 186   2.0000      -0.549048       -14.9403
 187   2.0000      -0.548245       -14.9185
 188   2.0000      -0.543008       -14.7760
 189   2.0000      -0.542064       -14.7503
 190   2.0000      -0.539972       -14.6934
 191   2.0000      -0.538029       -14.6405
 192   2.0000      -0.534001       -14.5309
 193   2.0000      -0.530689       -14.4408
 194   2.0000      -0.523657       -14.2494
 195   2.0000      -0.521806       -14.1991
 196   2.0000      -0.518196       -14.1008
 197   2.0000      -0.515465       -14.0265
 198   2.0000      -0.513926       -13.9846
 199   2.0000      -0.511240       -13.9116
 200   2.0000      -0.508892       -13.8476
 201   2.0000      -0.504439       -13.7265
 202   2.0000      -0.503724       -13.7070
 203   2.0000      -0.502524       -13.6744
 204   2.0000      -0.500708       -13.6250
 205   2.0000      -0.497936       -13.5495
 206   2.0000      -0.496606       -13.5133
 207   2.0000      -0.495932       -13.4950
 208   2.0000      -0.494782       -13.4637
 209   2.0000      -0.490755       -13.3541
 210   2.0000      -0.490176       -13.3384
 211   2.0000      -0.488630       -13.2963
 212   2.0000      -0.483701       -13.1622
 213   2.0000      -0.481204       -13.0942
 214   2.0000      -0.479585       -13.0502
 215   2.0000      -0.477813       -13.0019
 216   2.0000      -0.476217       -12.9585
 217   2.0000      -0.473567       -12.8864
 218   2.0000      -0.469365       -12.7721
 219   2.0000      -0.468196       -12.7403
 220   2.0000      -0.467792       -12.7293
 221   2.0000      -0.465557       -12.6684
 222   2.0000      -0.462097       -12.5743
 223   2.0000      -0.458864       -12.4863
 224   2.0000      -0.456150       -12.4125
 225   2.0000      -0.456047       -12.4097
 226   2.0000      -0.454058       -12.3555
 227   2.0000      -0.453124       -12.3301
 228   2.0000      -0.451381       -12.2827
 229   2.0000      -0.448647       -12.2083
 230   2.0000      -0.448459       -12.2032
 231   2.0000      -0.447179       -12.1684
 232   2.0000      -0.446083       -12.1385
 233   2.0000      -0.444135       -12.0855
 234   2.0000      -0.443335       -12.0638
 235   2.0000      -0.442115       -12.0306
 236   2.0000      -0.441070       -12.0021
 237   2.0000      -0.438719       -11.9382
 238   2.0000      -0.437717       -11.9109
 239   2.0000      -0.434879       -11.8337
 240   2.0000      -0.434265       -11.8170
 241   2.0000      -0.432943       -11.7810
 242   2.0000      -0.430340       -11.7101
 243   2.0000      -0.428278       -11.6540
 244   2.0000      -0.426992       -11.6190
 245   2.0000      -0.424840       -11.5605
 246   2.0000      -0.422708       -11.5025
 247   2.0000      -0.421041       -11.4571
 248   2.0000      -0.418488       -11.3876
 249   2.0000      -0.413919       -11.2633
 250   2.0000      -0.411735       -11.2039
 251   2.0000      -0.408533       -11.1168
 252   2.0000      -0.404263       -11.0005
 253   2.0000      -0.403775       -10.9873
 254   2.0000      -0.401042       -10.9129
 255   2.0000      -0.395157       -10.7528
 256   2.0000      -0.386698       -10.5226
 257   2.0000      -0.375044       -10.2055
 258   2.0000      -0.361255        -9.8302
 259   2.0000      -0.355047        -9.6613
 260   2.0000      -0.350877        -9.5478
 261   2.0000      -0.344898        -9.3852
 262   2.0000      -0.343718        -9.3530
 263   2.0000      -0.342890        -9.3305
 264   2.0000      -0.340788        -9.2733
 265   2.0000      -0.337525        -9.1845
 266   2.0000      -0.335423        -9.1273
 267   2.0000      -0.331601        -9.0233
 268   2.0000      -0.323270        -8.7966
 269   2.0000      -0.315030        -8.5724
 270   2.0000      -0.312605        -8.5064
 271   2.0000      -0.305482        -8.3126
 272   2.0000      -0.302125        -8.2213
 273   2.0000      -0.283304        -7.7091
 274   2.0000      -0.259338        -7.0570
 275   2.0000      -0.219307        -5.9676
 276   0.0000      -0.120004        -3.2655
 277   0.0000      -0.105033        -2.8581
 278   0.0000      -0.087877        -2.3912
 279   0.0000      -0.081858        -2.2275
 280   0.0000      -0.078297        -2.1306

MULLIKEN ATOMIC CHARGES
-----------------------
   0 C :    0.010785
   1 C :   -0.064630
   2 S :    0.224610
   3 C :   -0.181114
   4 C :    0.026418
   5 C :    0.139590
   6 O :   -0.138101
   7 C :   -0.097549
   8 C :    0.284812
   9 C :   -0.323302
  10 C :   -0.210724
  11 N :    0.157731
  12 C :   -0.186042
  13 N :    0.166750
  14 C :    0.049622
  15 C :   -0.111541
  16 C :    0.012023
  17 C :   -0.006209
  18 C :   -0.060027
  19 S :    0.181517
  20 C :   -0.087132
  21 C :    0.033397
  22 C :    0.299168
  23 C :   -0.285944
  24 C :   -0.188550
  25 N :    0.170930
  26 C :   -0.192062
  27 N :    0.168133
  28 C :   -0.029773
  29 C :   -0.079171
  30 S :    0.204341
  31 C :    0.035042
  32 C :   -0.052253
  33 C :    0.039278
  34 C :    0.036814
  35 C :   -0.021889
  36 S :    0.056449
  37 C :   -0.044111
  38 C :    0.042453
  39 C :    0.031453
  40 C :   -0.036453
  41 S :    0.063340
  42 C :    0.036005
  43 C :   -0.087471
  44 C :   -0.048107
  45 C :   -0.002981
  46 C :   -0.111794
  47 S :    0.186710
  48 C :   -0.075031
  49 C :   -0.019274
  50 C :    0.332869
  51 C :   -0.320220
  52 C :   -0.187968
  53 N :    0.177552
  54 C :   -0.147106
  55 N :    0.162876
  56 C :   -0.012924
  57 C :   -0.119034
  58 S :    0.198361
  59 C :    0.039113
  60 C :   -0.099966
  61 C :    0.245719
  62 C :   -0.351426
  63 C :   -0.207677
  64 N :    0.159866
  65 C :   -0.167656
  66 N :    0.143932
  67 C :   -0.157565
  68 C :    0.033714
  69 C :    0.031673
  70 C :   -0.052354
  71 S :    0.219390
  72 C :    0.169837
  73 O :   -0.146001
  74 H :    0.005335
  75 H :    0.040281
  76 H :    0.022944
  77 H :    0.016862
  78 H :    0.006553
  79 H :    0.004175
  80 H :   -0.001763
  81 H :   -0.007735
  82 H :   -0.006439
  83 H :   -0.006633
  84 H :   -0.012143
  85 H :    0.030435
  86 H :    0.032996
  87 H :   -0.003929
  88 H :   -0.019898
  89 H :    0.037819
Sum of atomic charges:    0.0000000

LOEWDIN ATOMIC CHARGES
----------------------
   0 C :   -0.045336
   1 C :   -0.160416
   2 S :    0.514655
   3 C :   -0.165930
   4 C :   -0.074385
   5 C :    0.085578
   6 O :   -0.140497
   7 C :   -0.077252
   8 C :    0.061223
   9 C :   -0.132661
  10 C :   -0.032548
  11 N :   -0.047166
  12 C :   -0.010877
  13 N :   -0.058735
  14 C :    0.042229
  15 C :   -0.179259
  16 C :    0.005740
  17 C :   -0.066803
  18 C :   -0.154296
  19 S :    0.485810
  20 C :   -0.186161
  21 C :   -0.057562
  22 C :    0.086981
  23 C :   -0.102078
  24 C :   -0.014119
  25 N :   -0.035611
  26 C :   -0.015378
  27 N :   -0.036986
  28 C :   -0.017029
  29 C :   -0.165574
  30 S :    0.507372
  31 C :   -0.049251
  32 C :   -0.161112
  33 C :   -0.019398
  34 C :   -0.038647
  35 C :   -0.163828
  36 S :    0.385606
  37 C :   -0.184577
  38 C :   -0.026964
  39 C :   -0.035503
  40 C :   -0.135057
  41 S :    0.413054
  42 C :   -0.088778
  43 C :   -0.146544
  44 C :   -0.051305
  45 C :   -0.046264
  46 C :   -0.206082
  47 S :    0.463823
  48 C :   -0.149522
  49 C :   -0.085022
  50 C :    0.081633
  51 C :   -0.101463
  52 C :   -0.013603
  53 N :   -0.045221
  54 C :   -0.005960
  55 N :   -0.022815
  56 C :    0.015795
  57 C :   -0.183851
  58 S :    0.484305
  59 C :    0.035640
  60 C :   -0.100560
  61 C :    0.065186
  62 C :   -0.149599
  63 C :   -0.034711
  64 N :   -0.049692
  65 C :   -0.024520
  66 N :   -0.053734
  67 C :   -0.177897
  68 C :   -0.066756
  69 C :   -0.036592
  70 C :   -0.156104
  71 S :    0.508990
  72 C :    0.088639
  73 O :   -0.135026
  74 H :    0.039335
  75 H :    0.028818
  76 H :    0.044470
  77 H :    0.042577
  78 H :    0.041570
  79 H :    0.045866
  80 H :    0.036801
  81 H :    0.034864
  82 H :    0.035572
  83 H :    0.034844
  84 H :    0.034892
  85 H :    0.020720
  86 H :    0.040253
  87 H :    0.042514
  88 H :    0.039018
  89 H :    0.028247

  Mayer bond orders larger than 0.100000
B(  0-C ,  1-C ) :   1.5319 B(  0-C ,  4-C ) :   1.2777 B(  0-C , 74-H ) :   0.9990
B(  1-C ,  2-S ) :   1.1699 B(  1-C , 75-H ) :   0.9699 B(  2-S ,  3-C ) :   1.1551
B(  3-C ,  4-C ) :   1.4539 B(  3-C ,  8-C ) :   1.0832 B(  4-C ,  5-C ) :   0.9404
B(  5-C ,  6-O ) :   2.2610 B(  5-C ,  7-C ) :   0.9399 B(  7-C ,  8-C ) :   1.0374
B(  7-C , 14-C ) :   1.7244 B(  8-C ,  9-C ) :   1.6385 B(  9-C , 10-C ) :   1.1238
B(  9-C , 12-C ) :   1.1874 B( 10-C , 11-N ) :   3.0031 B( 12-C , 13-N ) :   2.9583
B( 14-C , 15-C ) :   1.0808 B( 14-C , 76-H ) :   0.9221 B( 15-C , 16-C ) :   1.4286
B( 15-C , 19-S ) :   1.0880 B( 16-C , 17-C ) :   1.3251 B( 16-C , 77-H ) :   0.9894
B( 17-C , 18-C ) :   1.4115 B( 17-C , 22-C ) :   1.0097 B( 18-C , 19-S ) :   1.1348
B( 18-C , 20-C ) :   1.2165 B( 20-C , 21-C ) :   1.3778 B( 20-C , 30-S ) :   1.1486
B( 21-C , 22-C ) :   0.9905 B( 21-C , 28-C ) :   1.3524 B( 22-C , 23-C ) :   1.7129
B( 23-C , 24-C ) :   1.1344 B( 23-C , 26-C ) :   1.1338 B( 24-C , 25-N ) :   2.9896
B( 26-C , 27-N ) :   2.9935 B( 28-C , 29-C ) :   1.3544 B( 28-C , 78-H ) :   1.0010
B( 29-C , 30-S ) :   1.1126 B( 29-C , 31-C ) :   1.2042 B( 31-C , 32-C ) :   1.5354
B( 31-C , 79-H ) :   0.9721 B( 32-C , 33-C ) :   1.1610 B( 32-C , 36-S ) :   1.0414
B( 33-C , 34-C ) :   1.5772 B( 33-C , 80-H ) :   0.9978 B( 34-C , 35-C ) :   1.2079
B( 34-C , 81-H ) :   0.9944 B( 35-C , 36-S ) :   1.0645 B( 35-C , 37-C ) :   1.4528
B( 37-C , 38-C ) :   1.2166 B( 37-C , 41-S ) :   1.0516 B( 38-C , 39-C ) :   1.5565
B( 38-C , 82-H ) :   0.9963 B( 39-C , 40-C ) :   1.1769 B( 39-C , 83-H ) :   0.9973
B( 40-C , 41-S ) :   1.0631 B( 40-C , 42-C ) :   1.5323 B( 42-C , 43-C ) :   1.2120
B( 42-C , 84-H ) :   0.9570 B( 43-C , 44-C ) :   1.3561 B( 43-C , 47-S ) :   1.1057
B( 44-C , 45-C ) :   1.3864 B( 44-C , 85-H ) :   0.9558 B( 45-C , 46-C ) :   1.3950
B( 45-C , 50-C ) :   0.9924 B( 46-C , 47-S ) :   1.0834 B( 46-C , 48-C ) :   1.2535
B( 48-C , 49-C ) :   1.3435 B( 48-C , 58-S ) :   1.1614 B( 49-C , 50-C ) :   1.0128
B( 49-C , 56-C ) :   1.3174 B( 50-C , 51-C ) :   1.6865 B( 51-C , 52-C ) :   1.1531
B( 51-C , 54-C ) :   1.1653 B( 52-C , 53-N ) :   2.9615 B( 54-C , 55-N ) :   2.8725
B( 56-C , 57-C ) :   1.3923 B( 56-C , 86-H ) :   0.9646 B( 57-C , 58-S ) :   1.0601
B( 57-C , 59-C ) :   1.2345 B( 59-C , 60-C ) :   1.6097 B( 59-C , 87-H ) :   0.9071
B( 60-C , 61-C ) :   1.0963 B( 60-C , 72-C ) :   0.9260 B( 61-C , 62-C ) :   1.6142
B( 61-C , 67-C ) :   1.0885 B( 62-C , 63-C ) :   1.1517 B( 62-C , 65-C ) :   1.1412
B( 63-C , 64-N ) :   3.0007 B( 65-C , 66-N ) :   2.9560 B( 67-C , 68-C ) :   1.4403
B( 67-C , 71-S ) :   1.1424 B( 68-C , 69-C ) :   1.2771 B( 68-C , 72-C ) :   0.9786
B( 69-C , 70-C ) :   1.5354 B( 69-C , 88-H ) :   1.0048 B( 70-C , 71-S ) :   1.1655
B( 70-C , 89-H ) :   0.9694 B( 72-C , 73-O ) :   2.1459 B( 73-O , 86-H ) :   0.1074

-----------------------------------------------------------------------------
         ABSORPTION SPECTRUM VIA TRANSITION ELECTRIC DIPOLE MOMENTS
-----------------------------------------------------------------------------
State   Energy  Wavelength   fosc         T2         TX        TY        TZ
        (cm-1)    (nm)                  (au**2)     (au)      (au)      (au)
-----------------------------------------------------------------------------
   0    6555.0   1525.5   0.181575509   9.11923   1.09002  -0.61072  -2.74920
   1    9633.2   1038.1   0.158392676   5.41303  -1.06297   1.50730  -1.41816
   2   13795.8    724.9   0.312788586   7.46413  -0.85249   0.50669   2.54571
   3   14935.9    669.5   0.141090416   3.10987  -1.12803   1.32963   0.26363
   4   17129.2    583.8   0.223019608   4.28629   1.50513  -1.29174  -0.59353
   5   17846.5    560.3   0.513877128   9.47942  -2.18088   1.68791   1.36900
   6   18618.9    537.1   0.240828093   4.25823   1.01894  -1.75258   0.38529
   7   20512.5    487.5   0.031989770   0.51341  -0.27811   0.52765  -0.39706
   8   21883.4    457.0   0.096611579   1.45342  -0.73097   0.73893   0.61081
   9   22326.8    447.9   1.129593255  16.65602   2.69361  -3.04018  -0.39726
  10   23964.0    417.3   0.170148661   2.33746   0.55893  -1.33848  -0.48324
  11   24080.7    415.3   0.113087800   1.54604  -0.75044   0.21023   0.96886
  12   24420.0    409.5   0.085728579   1.15573  -0.53061   0.14620   0.92348
  13   25483.6    392.4   0.016181512   0.20904  -0.25658   0.02322   0.37772
  14   26070.9    383.6   0.003777451   0.04770  -0.10543  -0.03899   0.18725
  15   27065.6    369.5   0.059649616   0.72555  -0.02536   0.54239   0.65629
  16   27591.4    362.4   0.324647805   3.87360   1.22159  -1.08655   1.09577
  17   27838.1    359.2   0.082146470   0.97146  -0.36571   0.46914  -0.78589
  18   28099.4    355.9   0.003260596   0.03820   0.03786   0.14522   0.12522
  19   28424.7    351.8   0.074648005   0.86457   0.15204  -0.16905  -0.90159
  20   28621.8    349.4   0.123407004   1.41945   0.22910  -0.20863   1.15041
  21   28781.7    347.4   0.064231377   0.73469   0.31908  -0.77429   0.18265
  22   29105.4    343.6   0.056628158   0.64052  -0.32381   0.64920   0.33795
  23   30082.7    332.4   0.034897253   0.38190   0.22980  -0.01941  -0.57334
  24   30167.9    331.5   0.260600145   2.84384   0.18383  -0.08746   1.67403
  25   30357.4    329.4   0.090114881   0.97726  -0.97872   0.04738  -0.13084
  26   30555.0    327.3   0.007873077   0.08483   0.21858   0.17790  -0.07351
  27   30608.9    326.7   0.002968980   0.03193   0.04316   0.12610  -0.11903
  28   30723.8    325.5   0.030836534   0.33042   0.34524   0.35685  -0.28963
  29   30789.6    324.8   0.058681795   0.62744   0.57009  -0.53833  -0.11245
  30   31117.1    321.4   0.050954439   0.53909   0.03638  -0.21765  -0.70028
  31   31324.5    319.2   0.003104687   0.03263  -0.04401   0.03112  -0.17241
  32   31467.2    317.8   0.136500880   1.42808   0.44987  -0.64101   0.90266
  33   31626.9    316.2   0.204052868   2.12404  -0.73427   1.12005   0.57477
  34   31921.3    313.3   0.298421268   3.07769  -1.12028   0.97190  -0.93705
  35   32019.9    312.3   0.109298772   1.12375   0.40426  -0.67989  -0.70574
  36   32238.1    310.2   0.119984908   1.22527  -0.52724   0.41316   0.88124
  37   32306.5    309.5   0.178690659   1.82090  -0.27449  -0.27579  -1.29209
  38   32523.2    307.5   0.258607586   2.61772   0.88743  -1.33896  -0.19331
  39   32844.0    304.5   0.109783880   1.10042  -0.21366  -0.03363   1.02647
  40   33173.7    301.4   0.127106938   1.26140   0.30586  -0.64573  -0.86653
  41   33400.7    299.4   0.468699773   4.61972   0.43723   0.74046   1.96984
  42   33554.5    298.0   0.134002671   1.31474   0.31813  -0.79910   0.75827
  43   33906.1    294.9   0.411343851   3.99395   1.14513  -0.83096   1.41143
  44   34073.7    293.5   0.047805907   0.46189  -0.15003   0.64444   0.15517
  45   34131.5    293.0   0.141089301   1.36086   0.14608  -1.04269  -0.50231
  46   34387.2    290.8   0.072723287   0.69623  -0.28951  -0.13183  -0.77138
  47   34538.8    289.5   0.068272711   0.65075  -0.31348   0.70596  -0.23259
  48   34565.8    289.3   0.037160264   0.35392  -0.37349   0.38751   0.25350
  49   34692.2    288.2   0.027370576   0.25973  -0.23378   0.33601   0.30361
  50   34948.4    286.1   0.101719774   0.95819   0.44363  -0.86871  -0.08202
  51   35304.9    283.2   0.053166754   0.49577  -0.25460   0.17696   0.63216
  52   35547.2    281.3   0.009027069   0.08360  -0.14839   0.03445   0.24575
  53   35944.3    278.2   0.016860431   0.15442   0.17013   0.31834   0.15538
  54   36090.0    277.1   0.121727435   1.11039   0.10465  -0.12413   1.04117
  55   36148.1    276.6   0.013677639   0.12457   0.16479  -0.16991  -0.26180
  56   36222.5    276.1   0.035965522   0.32688  -0.17526   0.40495   0.36356
  57   36409.4    274.7   0.015281981   0.13818   0.08701  -0.36130  -0.00844
  58   36573.3    273.4   0.003071965   0.02765   0.06704   0.05401  -0.14227
  59   36676.6    272.7   0.020066451   0.18012   0.08088  -0.34456   0.23421
  60   36861.9    271.3   0.021685152   0.19367   0.04154   0.19829   0.39067
  61   37061.6    269.8   0.020073914   0.17831  -0.09382  -0.33977  -0.23252
  62   37284.3    268.2   0.014818912   0.13085  -0.08809  -0.31498   0.15451
  63   37436.7    267.1   0.046596539   0.40976  -0.53439   0.28305   0.20993
  64   37709.8    265.2   0.049195005   0.42948  -0.54352   0.35412  -0.09310
  65   37982.2    263.3   0.076505814   0.66312   0.46470  -0.65869  -0.11529
  66   38251.8    261.4   0.006922008   0.05957  -0.11009   0.20394  -0.07657
  67   38280.3    261.2   0.004498925   0.03869  -0.14601  -0.01518   0.13093
  68   38332.8    260.9   0.030053114   0.25810  -0.05258  -0.42649  -0.27100
  69   38439.8    260.1   0.012516476   0.10720   0.20480  -0.09393   0.23754
  70   38565.8    259.3   0.026237472   0.22397   0.10204   0.30880   0.34380
  71   38613.7    259.0   0.010631310   0.09064  -0.07734   0.23124   0.17660
  72   38962.4    256.7   0.017090943   0.14441   0.27897  -0.22255  -0.13061
  73   39046.7    256.1   0.004045065   0.03410  -0.13491  -0.06214  -0.10974
  74   39252.7    254.8   0.014827833   0.12436  -0.32208  -0.05139  -0.13409
  75   39259.3    254.7   0.005304660   0.04448   0.08481   0.16795  -0.09530
  76   39402.8    253.8   0.005792355   0.04840  -0.08276   0.16201   0.12369
  77   39736.2    251.7   0.025347644   0.21000   0.20064  -0.22757  -0.34345
  78   39895.4    250.7   0.046051811   0.38001   0.22572  -0.31228  -0.48119
  79   39972.2    250.2   0.003789905   0.03121  -0.12993   0.10042   0.06517
  80   40192.9    248.8   0.001373006   0.01125  -0.01518  -0.09685  -0.04045
  81   40327.3    248.0   0.021063621   0.17195   0.19891  -0.15817  -0.32768

FINAL SINGLE POINT ENERGY     -5912.838566476061

DIPOLE MOMENT
-------------
                                X             Y             Z
Electronic contribution:     -8.11226      11.31702       6.70444
Nuclear contribution   :     11.35379     -13.19691      -6.58436
                        -----------------------------------------
Total Dipole Moment    :      3.24153      -1.87989       0.12008
                        -----------------------------------------
Magnitude (a.u.)       :      3.74912
Magnitude (Debye)      :      9.52951

Rotational constants in cm-1:     0.001043     0.000563     0.000384
Rotational constants in MHz :    31.256656    16.877819    11.524343

                             ****ORCA TERMINATED NORMALLY****
TOTAL RUN TIME: 0 days 0 hours 11 minutes 19 seconds 173 msec
