                         Program Version 4.2.0 -  RELEASE  -
|  1> # ORCA input file
|  2> # SCF done       -189.388879410319          0.000204644132
|  3> ! CAM-B3LYP def2-SVP def2/J RIJCOSX Grid4 TightSCF
|  4> %maxcore 5000
|  5> %tddft
|  6>     Mode sTDDFT
|  7>     Ethresh 5.0
|  8>     maxcore 5000
|  9> end
| 10>
| 11> %pal
| 12>   nprocs 6
| 13>   end
| 14> * xyz 0 1
| 15>    C       -2.75019        -0.38683        -0.66825
| 16>    C       -3.42479        -0.93335         0.38342
| 17>    S       -2.40038        -1.62617         1.58868
| 18>    C       -1.02270        -1.19729         0.66715
| 19>    C       -1.36274        -0.53770        -0.50759
| 20>    C       -0.13365        -0.17869        -1.22346
| 21>    O       -0.00319         0.44451        -2.25105
| 22>    C        0.97039        -0.79751        -0.41806
| 23>    C        0.40572        -1.28309         0.83102
| 24>    C        1.02849        -1.54952         2.02497
| 25>    C        0.28128        -1.91981         3.16372
| 26>    N       -0.32183        -2.21712         4.09292
| 27>    C        2.40214        -1.39230         2.27644
| 28>    N        3.51028        -1.24504         2.54011
| 29>    C        2.20874        -0.87425        -0.97456
| 30>    C        3.30722        -1.68456        -0.61173
| 31>    C        3.32570        -2.86516         0.11390
| 32>    C        4.60620        -3.39222         0.23212
| 33>    C        5.58481        -2.60879        -0.41786
| 34>    S        4.91558        -1.24665        -1.18735
| 35>    C        6.84700        -3.21102        -0.21438
| 36>    C        6.67144        -4.36860         0.56598
| 37>    C        5.25740        -4.51199         0.88094
| 38>    C        4.67515        -5.47382         1.65611
| 39>    C        3.28541        -5.48007         1.89645
| 40>    N        2.15258        -5.47275         2.07412
| 41>    C        5.42964        -6.50369         2.25343
| 42>    N        6.05937        -7.33737         2.72752
| 43>    C        7.86045        -5.03960         0.82585
| 44>    C        8.95393        -4.40856         0.24874
| 45>    S        8.48759        -2.95514        -0.62282
| 46>    C       10.32019        -4.80771         0.29991
| 47>    C       10.72856        -5.97904         0.89934
| 48>    C       12.04594        -6.42062         0.97510
| 49>    C       13.12383        -5.67980         0.30405
| 50>    C       12.95486        -4.49952        -0.33051
| 51>    S       11.44787        -3.69260        -0.45770
| 52>    C       14.29364        -6.47034         0.47099
| 53>    C       13.98027        -7.61950         1.19679
| 54>    C       15.10706        -8.44743         1.39601
| 55>    C       16.22017        -7.91707         0.82562
| 56>    S       15.95258        -6.40048         0.03275
| 57>    C       12.58339        -7.59520         1.54740
| 58>    C       11.99148        -8.60735         2.33626
| 59>    C       10.80077        -8.56645         2.99621
| 60>    C       10.29005        -9.63235         3.77334
| 61>    C       10.82449       -10.89987         3.98201
| 62>    C       10.03928       -11.66543         4.83261
| 63>    C        8.88645       -10.98870         5.28075
| 64>    S        8.77872        -9.40706         4.64241
| 65>    C        8.17338       -11.84415         6.14791
| 66>    C        8.87476       -13.07120         6.25304
| 67>    C       10.06191       -12.99806         5.42193
| 68>    C       11.00849       -13.95873         5.21841
| 69>    C       12.12382       -13.73219         4.38444
| 70>    N       13.03318       -13.54529         3.71059
| 71>    C       10.95979       -15.24318         5.80272
| 72>    N       10.95757       -16.30027         6.24541
| 73>    C        8.26705       -13.97677         7.11065
| 74>    C        7.10111       -13.46988         7.67100
| 75>    S        6.76455       -11.82428         7.09580
| 76>    C        6.16180       -13.99518         8.57968
| 77>    C        6.11752       -15.17698         9.26532
| 78>    C        5.02397       -15.52723        10.16834
| 79>    C        3.88451       -14.82745        10.47856
| 80>    C        2.94809       -15.35843        11.39132
| 81>    N        2.18080       -15.78134        12.13235
| 82>    C        3.50006       -13.57073         9.97509
| 83>    N        3.11771       -12.55052         9.61034
| 84>    C        5.35090       -16.81442        10.71622
| 85>    C        6.55707       -17.28122        10.21803
| 86>    C        6.91513       -18.53908        10.72999
| 87>    C        5.97145       -18.99487        11.60268
| 88>    S        4.63971       -17.91646        11.82023
| 89>    C        7.10950       -16.29128         9.28345
| 90>    O        8.15541       -16.37842         8.67765
| 91>    H       -3.21781         0.09704        -1.50548
| 92>    H       -4.48641        -0.96611         0.53274
| 93>    H        2.34175        -0.26001        -1.86055
| 94>    H        2.43573        -3.33566         0.49038
| 95>    H        7.92626        -5.93863         1.40916
| 96>    H        9.95473        -6.61005         1.30549
| 97>    H       13.76887        -3.97228        -0.80227
| 98>    H       15.10293        -9.38249         1.92579
| 99>    H       17.21147        -8.32609         0.81696
|100>    H       12.60068        -9.49406         2.45151
|101>    H       10.20095        -7.66915         2.99005
|102>    H       11.74041       -11.23467         3.53267
|103>    H        8.63496       -14.96074         7.34165
|104>    H        5.33332       -13.31947         8.76037
|105>    H        7.81118       -19.07071        10.46882
|106>    H        5.97437       -19.92010        12.14527
|107> *
|108>
|109>                          ****END OF INPUT****

CARTESIAN COORDINATES (ANGSTROEM)
---------------------------------
  C     -2.750190   -0.386830   -0.668250
  C     -3.424790   -0.933350    0.383420
  S     -2.400380   -1.626170    1.588680
  C     -1.022700   -1.197290    0.667150
  C     -1.362740   -0.537700   -0.507590
  C     -0.133650   -0.178690   -1.223460
  O     -0.003190    0.444510   -2.251050
  C      0.970390   -0.797510   -0.418060
  C      0.405720   -1.283090    0.831020
  C      1.028490   -1.549520    2.024970
  C      0.281280   -1.919810    3.163720
  N     -0.321830   -2.217120    4.092920
  C      2.402140   -1.392300    2.276440
  N      3.510280   -1.245040    2.540110
  C      2.208740   -0.874250   -0.974560
  C      3.307220   -1.684560   -0.611730
  C      3.325700   -2.865160    0.113900
  C      4.606200   -3.392220    0.232120
  C      5.584810   -2.608790   -0.417860
  S      4.915580   -1.246650   -1.187350
  C      6.847000   -3.211020   -0.214380
  C      6.671440   -4.368600    0.565980
  C      5.257400   -4.511990    0.880940
  C      4.675150   -5.473820    1.656110
  C      3.285410   -5.480070    1.896450
  N      2.152580   -5.472750    2.074120
  C      5.429640   -6.503690    2.253430
  N      6.059370   -7.337370    2.727520
  C      7.860450   -5.039600    0.825850
  C      8.953930   -4.408560    0.248740
  S      8.487590   -2.955140   -0.622820
  C     10.320190   -4.807710    0.299910
  C     10.728560   -5.979040    0.899340
  C     12.045940   -6.420620    0.975100
  C     13.123830   -5.679800    0.304050
  C     12.954860   -4.499520   -0.330510
  S     11.447870   -3.692600   -0.457700
  C     14.293640   -6.470340    0.470990
  C     13.980270   -7.619500    1.196790
  C     15.107060   -8.447430    1.396010
  C     16.220170   -7.917070    0.825620
  S     15.952580   -6.400480    0.032750
  C     12.583390   -7.595200    1.547400
  C     11.991480   -8.607350    2.336260
  C     10.800770   -8.566450    2.996210
  C     10.290050   -9.632350    3.773340
  C     10.824490  -10.899870    3.982010
  C     10.039280  -11.665430    4.832610
  C      8.886450  -10.988700    5.280750
  S      8.778720   -9.407060    4.642410
  C      8.173380  -11.844150    6.147910
  C      8.874760  -13.071200    6.253040
  C     10.061910  -12.998060    5.421930
  C     11.008490  -13.958730    5.218410
  C     12.123820  -13.732190    4.384440
  N     13.033180  -13.545290    3.710590
  C     10.959790  -15.243180    5.802720
  N     10.957570  -16.300270    6.245410
  C      8.267050  -13.976770    7.110650
  C      7.101110  -13.469880    7.671000
  S      6.764550  -11.824280    7.095800
  C      6.161800  -13.995180    8.579680
  C      6.117520  -15.176980    9.265320
  C      5.023970  -15.527230   10.168340
  C      3.884510  -14.827450   10.478560
  C      2.948090  -15.358430   11.391320
  N      2.180800  -15.781340   12.132350
  C      3.500060  -13.570730    9.975090
  N      3.117710  -12.550520    9.610340
  C      5.350900  -16.814420   10.716220
  C      6.557070  -17.281220   10.218030
  C      6.915130  -18.539080   10.729990
  C      5.971450  -18.994870   11.602680
  S      4.639710  -17.916460   11.820230
  C      7.109500  -16.291280    9.283450
  O      8.155410  -16.378420    8.677650
  H     -3.217810    0.097040   -1.505480
  H     -4.486410   -0.966110    0.532740
  H      2.341750   -0.260010   -1.860550
  H      2.435730   -3.335660    0.490380
  H      7.926260   -5.938630    1.409160
  H      9.954730   -6.610050    1.305490
  H     13.768870   -3.972280   -0.802270
  H     15.102930   -9.382490    1.925790
  H     17.211470   -8.326090    0.816960
  H     12.600680   -9.494060    2.451510
  H     10.200950   -7.669150    2.990050
  H     11.740410  -11.234670    3.532670
  H      8.634960  -14.960740    7.341650
  H      5.333320  -13.319470    8.760370
  H      7.811180  -19.070710   10.468820
  H      5.974370  -19.920100   12.145270

 Total Charge           Charge          ....    0
 Multiplicity           Mult            ....    1
 Number of Electrons    NEL             ....  564
 Basis Dimension        Dim             .... 1176

ORBITAL ENERGIES
----------------

  NO   OCC          E(Eh)            E(eV)
   0   2.0000     -89.001379     -2421.8507
   1   2.0000     -88.999162     -2421.7903
   2   2.0000     -88.989942     -2421.5394
   3   2.0000     -88.989613     -2421.5305
   4   2.0000     -88.987514     -2421.4733
   5   2.0000     -88.985201     -2421.4104
   6   2.0000     -88.982812     -2421.3454
   7   2.0000     -88.964529     -2420.8479
   8   2.0000     -19.221457      -523.0424
   9   2.0000     -19.216829      -522.9165
  10   2.0000     -14.440599      -392.9487
  11   2.0000     -14.437128      -392.8542
  12   2.0000     -14.428759      -392.6265
  13   2.0000     -14.423528      -392.4842
  14   2.0000     -14.422265      -392.4498
  15   2.0000     -14.417695      -392.3254
  16   2.0000     -14.415028      -392.2529
  17   2.0000     -14.411013      -392.1436
  18   2.0000     -10.375623      -282.3351
  19   2.0000     -10.372847      -282.2595
  20   2.0000     -10.371396      -282.2200
  21   2.0000     -10.361635      -281.9544
  22   2.0000     -10.360281      -281.9176
  23   2.0000     -10.354534      -281.7612
  24   2.0000     -10.349575      -281.6263
  25   2.0000     -10.348972      -281.6098
  26   2.0000     -10.347645      -281.5737
  27   2.0000     -10.344540      -281.4893
  28   2.0000     -10.342479      -281.4332
  29   2.0000     -10.341566      -281.4083
  30   2.0000     -10.341323      -281.4017
  31   2.0000     -10.339705      -281.3577
  32   2.0000     -10.339475      -281.3514
  33   2.0000     -10.339471      -281.3513
  34   2.0000     -10.339398      -281.3493
  35   2.0000     -10.337187      -281.2891
  36   2.0000     -10.330581      -281.1094
  37   2.0000     -10.330550      -281.1086
  38   2.0000     -10.329496      -281.0799
  39   2.0000     -10.327386      -281.0225
  40   2.0000     -10.324843      -280.9533
  41   2.0000     -10.324811      -280.9524
  42   2.0000     -10.323990      -280.9301
  43   2.0000     -10.322827      -280.8984
  44   2.0000     -10.322424      -280.8874
  45   2.0000     -10.321125      -280.8521
  46   2.0000     -10.320891      -280.8457
  47   2.0000     -10.319770      -280.8152
  48   2.0000     -10.318649      -280.7847
  49   2.0000     -10.317936      -280.7653
  50   2.0000     -10.316255      -280.7196
  51   2.0000     -10.315999      -280.7126
  52   2.0000     -10.315652      -280.7032
  53   2.0000     -10.312759      -280.6244
  54   2.0000     -10.312478      -280.6168
  55   2.0000     -10.310839      -280.5722
  56   2.0000     -10.310423      -280.5609
  57   2.0000     -10.310230      -280.5556
  58   2.0000     -10.306561      -280.4558
  59   2.0000     -10.305749      -280.4337
  60   2.0000     -10.304074      -280.3881
  61   2.0000     -10.301489      -280.3178
  62   2.0000     -10.300795      -280.2989
  63   2.0000     -10.299871      -280.2737
  64   2.0000     -10.298706      -280.2420
  65   2.0000     -10.298422      -280.2343
  66   2.0000     -10.298063      -280.2245
  67   2.0000     -10.296145      -280.1723
  68   2.0000     -10.295814      -280.1633
  69   2.0000     -10.294007      -280.1142
  70   2.0000     -10.293970      -280.1132
  71   2.0000     -10.293377      -280.0970
  72   2.0000     -10.292320      -280.0683
  73   2.0000     -10.288578      -279.9665
  74   2.0000     -10.282283      -279.7952
  75   2.0000     -10.281870      -279.7839
  76   2.0000      -8.095836      -220.2989
  77   2.0000      -8.093877      -220.2456
  78   2.0000      -8.085293      -220.0120
  79   2.0000      -8.084662      -219.9948
  80   2.0000      -8.082268      -219.9297
  81   2.0000      -8.079878      -219.8647
  82   2.0000      -8.077268      -219.7936
  83   2.0000      -8.059973      -219.3230
  84   2.0000      -6.065170      -165.0417
  85   2.0000      -6.063053      -164.9841
  86   2.0000      -6.060904      -164.9256
  87   2.0000      -6.058893      -164.8709
  88   2.0000      -6.058128      -164.8500
  89   2.0000      -6.056345      -164.8015
  90   2.0000      -6.054907      -164.7624
  91   2.0000      -6.053985      -164.7373
  92   2.0000      -6.051353      -164.6657
  93   2.0000      -6.050354      -164.6385
  94   2.0000      -6.049320      -164.6104
  95   2.0000      -6.049052      -164.6031
  96   2.0000      -6.047254      -164.5542
  97   2.0000      -6.047223      -164.5533
  98   2.0000      -6.047026      -164.5480
  99   2.0000      -6.046591      -164.5361
 100   2.0000      -6.044907      -164.4903
 101   2.0000      -6.044807      -164.4875
 102   2.0000      -6.042301      -164.4194
 103   2.0000      -6.041977      -164.4106
 104   2.0000      -6.039862      -164.3530
 105   2.0000      -6.029439      -164.0694
 106   2.0000      -6.025154      -163.9528
 107   2.0000      -6.021973      -163.8662
 108   2.0000      -1.136999       -30.9393
 109   2.0000      -1.132533       -30.8178
 110   2.0000      -1.055157       -28.7123
 111   2.0000      -1.042286       -28.3621
 112   2.0000      -1.032798       -28.1039
 113   2.0000      -1.030626       -28.0448
 114   2.0000      -1.024779       -27.8856
 115   2.0000      -1.019624       -27.7454
 116   2.0000      -1.018618       -27.7180
 117   2.0000      -1.016066       -27.6486
 118   2.0000      -1.012277       -27.5455
 119   2.0000      -1.008497       -27.4426
 120   2.0000      -1.004807       -27.3422
 121   2.0000      -1.002940       -27.2914
 122   2.0000      -0.997496       -27.1433
 123   2.0000      -0.995327       -27.0842
 124   2.0000      -0.991156       -26.9707
 125   2.0000      -0.984365       -26.7859
 126   2.0000      -0.968431       -26.3523
 127   2.0000      -0.962765       -26.1982
 128   2.0000      -0.961564       -26.1655
 129   2.0000      -0.954318       -25.9683
 130   2.0000      -0.939102       -25.5543
 131   2.0000      -0.927556       -25.2401
 132   2.0000      -0.918560       -24.9953
 133   2.0000      -0.910444       -24.7744
 134   2.0000      -0.903103       -24.5747
 135   2.0000      -0.899852       -24.4862
 136   2.0000      -0.890088       -24.2205
 137   2.0000      -0.887135       -24.1402
 138   2.0000      -0.875797       -23.8317
 139   2.0000      -0.868507       -23.6333
 140   2.0000      -0.867672       -23.6106
 141   2.0000      -0.860013       -23.4021
 142   2.0000      -0.856682       -23.3115
 143   2.0000      -0.852490       -23.1974
 144   2.0000      -0.849161       -23.1069
 145   2.0000      -0.847382       -23.0584
 146   2.0000      -0.828630       -22.5482
 147   2.0000      -0.811065       -22.0702
 148   2.0000      -0.802794       -21.8451
 149   2.0000      -0.790614       -21.5137
 150   2.0000      -0.785823       -21.3833
 151   2.0000      -0.779744       -21.2179
 152   2.0000      -0.772604       -21.0236
 153   2.0000      -0.765955       -20.8427
 154   2.0000      -0.758889       -20.6504
 155   2.0000      -0.750639       -20.4259
 156   2.0000      -0.736753       -20.0481
 157   2.0000      -0.733150       -19.9500
 158   2.0000      -0.712625       -19.3915
 159   2.0000      -0.705785       -19.2054
 160   2.0000      -0.702887       -19.1265
 161   2.0000      -0.700654       -19.0658
 162   2.0000      -0.690830       -18.7985
 163   2.0000      -0.688613       -18.7381
 164   2.0000      -0.684158       -18.6169
 165   2.0000      -0.675230       -18.3740
 166   2.0000      -0.672610       -18.3027
 167   2.0000      -0.670785       -18.2530
 168   2.0000      -0.663602       -18.0575
 169   2.0000      -0.663087       -18.0435
 170   2.0000      -0.660179       -17.9644
 171   2.0000      -0.643606       -17.5134
 172   2.0000      -0.637998       -17.3608
 173   2.0000      -0.636515       -17.3204
 174   2.0000      -0.629911       -17.1407
 175   2.0000      -0.629277       -17.1235
 176   2.0000      -0.625994       -17.0342
 177   2.0000      -0.619418       -16.8552
 178   2.0000      -0.616992       -16.7892
 179   2.0000      -0.613366       -16.6905
 180   2.0000      -0.608900       -16.5690
 181   2.0000      -0.602406       -16.3923
 182   2.0000      -0.600677       -16.3453
 183   2.0000      -0.594333       -16.1726
 184   2.0000      -0.588022       -16.0009
 185   2.0000      -0.581232       -15.8161
 186   2.0000      -0.572669       -15.5831
 187   2.0000      -0.567134       -15.4325
 188   2.0000      -0.564332       -15.3563
 189   2.0000      -0.559354       -15.2208
 190   2.0000      -0.555399       -15.1132
 191   2.0000      -0.550905       -14.9909
 192   2.0000      -0.545857       -14.8535
 193   2.0000      -0.545539       -14.8449
 194   2.0000      -0.539539       -14.6816
 195   2.0000      -0.537195       -14.6178
 196   2.0000      -0.534323       -14.5397
 197   2.0000      -0.530796       -14.4437
 198   2.0000      -0.529222       -14.4009
 199   2.0000      -0.528069       -14.3695
 200   2.0000      -0.526027       -14.3139
 201   2.0000      -0.524483       -14.2719
 202   2.0000      -0.516502       -14.0547
 203   2.0000      -0.515180       -14.0188
 204   2.0000      -0.513100       -13.9622
 205   2.0000      -0.510886       -13.9019
 206   2.0000      -0.508066       -13.8252
 207   2.0000      -0.504666       -13.7327
 208   2.0000      -0.503136       -13.6910
 209   2.0000      -0.501810       -13.6550
 210   2.0000      -0.497812       -13.5462
 211   2.0000      -0.496443       -13.5089
 212   2.0000      -0.495833       -13.4923
 213   2.0000      -0.493780       -13.4364
 214   2.0000      -0.486531       -13.2392
 215   2.0000      -0.486054       -13.2262
 216   2.0000      -0.482877       -13.1397
 217   2.0000      -0.481378       -13.0990
 218   2.0000      -0.480260       -13.0685
 219   2.0000      -0.477759       -13.0005
 220   2.0000      -0.475913       -12.9503
 221   2.0000      -0.475006       -12.9256
 222   2.0000      -0.472122       -12.8471
 223   2.0000      -0.471804       -12.8385
 224   2.0000      -0.469175       -12.7669
 225   2.0000      -0.468231       -12.7412
 226   2.0000      -0.467703       -12.7268
 227   2.0000      -0.464519       -12.6402
 228   2.0000      -0.459321       -12.4988
 229   2.0000      -0.459162       -12.4944
 230   2.0000      -0.457511       -12.4495
 231   2.0000      -0.454369       -12.3640
 232   2.0000      -0.453833       -12.3494
 233   2.0000      -0.453452       -12.3391
 234   2.0000      -0.452115       -12.3027
 235   2.0000      -0.450555       -12.2602
 236   2.0000      -0.448851       -12.2139
 237   2.0000      -0.447042       -12.1646
 238   2.0000      -0.445874       -12.1329
 239   2.0000      -0.445854       -12.1323
 240   2.0000      -0.443684       -12.0732
 241   2.0000      -0.439909       -11.9705
 242   2.0000      -0.439058       -11.9474
 243   2.0000      -0.438211       -11.9243
 244   2.0000      -0.437517       -11.9055
 245   2.0000      -0.436528       -11.8785
 246   2.0000      -0.435980       -11.8636
 247   2.0000      -0.435090       -11.8394
 248   2.0000      -0.433478       -11.7955
 249   2.0000      -0.431791       -11.7496
 250   2.0000      -0.430566       -11.7163
 251   2.0000      -0.427963       -11.6455
 252   2.0000      -0.424827       -11.5601
 253   2.0000      -0.422059       -11.4848
 254   2.0000      -0.421812       -11.4781
 255   2.0000      -0.419466       -11.4143
 256   2.0000      -0.417787       -11.3686
 257   2.0000      -0.415747       -11.3131
 258   2.0000      -0.414660       -11.2835
 259   2.0000      -0.407836       -11.0978
 260   2.0000      -0.406364       -11.0577
 261   2.0000      -0.404380       -11.0037
 262   2.0000      -0.392482       -10.6800
 263   2.0000      -0.382387       -10.4053
 264   2.0000      -0.373302       -10.1581
 265   2.0000      -0.357730        -9.7343
 266   2.0000      -0.348817        -9.4918
 267   2.0000      -0.348128        -9.4731
 268   2.0000      -0.346509        -9.4290
 269   2.0000      -0.345561        -9.4032
 270   2.0000      -0.341451        -9.2913
 271   2.0000      -0.339504        -9.2384
 272   2.0000      -0.338015        -9.1979
 273   2.0000      -0.330095        -8.9823
 274   2.0000      -0.323889        -8.8135
 275   2.0000      -0.317295        -8.6340
 276   2.0000      -0.310779        -8.4567
 277   2.0000      -0.302992        -8.2448
 278   2.0000      -0.295342        -8.0367
 279   2.0000      -0.282895        -7.6980
 280   2.0000      -0.264463        -7.1964
 281   2.0000      -0.229354        -6.2410
 282   0.0000      -0.118889        -3.2351
 283   0.0000      -0.105122        -2.8605
 284   0.0000      -0.090471        -2.4618
 285   0.0000      -0.083161        -2.2629
 286   0.0000      -0.074446        -2.0258

MULLIKEN ATOMIC CHARGES
-----------------------
   0 C :    0.015779
   1 C :   -0.055024
   2 S :    0.226956
   3 C :   -0.175335
   4 C :    0.029475
   5 C :    0.140336
   6 O :   -0.138107
   7 C :   -0.138394
   8 C :    0.241927
   9 C :   -0.327915
  10 C :   -0.189862
  11 N :    0.168103
  12 C :   -0.198877
  13 N :    0.169667
  14 C :    0.068001
  15 C :   -0.107639
  16 C :    0.000706
  17 C :   -0.010541
  18 C :   -0.074327
  19 S :    0.209378
  20 C :   -0.105641
  21 C :    0.022890
  22 C :    0.308663
  23 C :   -0.283851
  24 C :   -0.186279
  25 N :    0.174754
  26 C :   -0.176913
  27 N :    0.158167
  28 C :   -0.047621
  29 C :   -0.054829
  30 S :    0.193268
  31 C :   -0.032491
  32 C :   -0.072240
  33 C :    0.051229
  34 C :    0.061872
  35 C :   -0.126736
  36 S :    0.126619
  37 C :   -0.106734
  38 C :    0.048355
  39 C :    0.010350
  40 C :   -0.066925
  41 S :    0.133244
  42 C :    0.093183
  43 C :   -0.023185
  44 C :    0.027372
  45 C :   -0.071245
  46 C :   -0.046733
  47 C :    0.016608
  48 C :   -0.114880
  49 S :    0.219074
  50 C :   -0.078943
  51 C :   -0.011031
  52 C :    0.320554
  53 C :   -0.304646
  54 C :   -0.183830
  55 N :    0.157531
  56 C :   -0.193863
  57 N :    0.195968
  58 C :   -0.013264
  59 C :   -0.117769
  60 S :    0.202955
  61 C :    0.032927
  62 C :   -0.097388
  63 C :    0.254897
  64 C :   -0.349845
  65 C :   -0.208912
  66 N :    0.157849
  67 C :   -0.171652
  68 N :    0.150428
  69 C :   -0.157995
  70 C :    0.021495
  71 C :    0.019188
  72 C :   -0.054133
  73 S :    0.218587
  74 C :    0.167049
  75 O :   -0.139397
  76 H :    0.007664
  77 H :    0.046126
  78 H :    0.022526
  79 H :    0.023815
  80 H :    0.005497
  81 H :   -0.020091
  82 H :    0.040441
  83 H :   -0.006170
  84 H :    0.031441
  85 H :   -0.015144
  86 H :   -0.022763
  87 H :    0.005119
  88 H :    0.033748
  89 H :   -0.001566
  90 H :    0.007075
  91 H :    0.041867
Sum of atomic charges:   -0.0000000

LOEWDIN ATOMIC CHARGES
----------------------
   0 C :   -0.035702
   1 C :   -0.153106
   2 S :    0.515240
   3 C :   -0.173120
   4 C :   -0.072258
   5 C :    0.082626
   6 O :   -0.138077
   7 C :   -0.089318
   8 C :    0.052693
   9 C :   -0.140484
  10 C :   -0.034348
  11 N :   -0.038193
  12 C :   -0.017024
  13 N :   -0.045737
  14 C :    0.036485
  15 C :   -0.183842
  16 C :    0.009933
  17 C :   -0.070794
  18 C :   -0.156625
  19 S :    0.494444
  20 C :   -0.191374
  21 C :   -0.053952
  22 C :    0.085191
  23 C :   -0.098559
  24 C :   -0.014505
  25 N :   -0.028068
  26 C :   -0.010304
  27 N :   -0.041015
  28 C :   -0.030040
  29 C :   -0.172891
  30 S :    0.472830
  31 C :   -0.187404
  32 C :   -0.012868
  33 C :   -0.020240
  34 C :   -0.043585
  35 C :   -0.140056
  36 S :    0.441615
  37 C :   -0.203111
  38 C :   -0.037588
  39 C :   -0.061551
  40 C :   -0.159193
  41 S :    0.425749
  42 C :   -0.045754
  43 C :    0.000042
  44 C :   -0.059281
  45 C :   -0.146062
  46 C :   -0.037228
  47 C :   -0.049119
  48 C :   -0.204703
  49 S :    0.494830
  50 C :   -0.152162
  51 C :   -0.082017
  52 C :    0.078707
  53 C :   -0.099425
  54 C :   -0.012041
  55 N :   -0.040671
  56 C :   -0.024209
  57 N :   -0.017178
  58 C :    0.015531
  59 C :   -0.183094
  60 S :    0.493499
  61 C :    0.035391
  62 C :   -0.099697
  63 C :    0.064837
  64 C :   -0.148816
  65 C :   -0.034604
  66 N :   -0.049457
  67 C :   -0.025179
  68 N :   -0.051478
  69 C :   -0.178599
  70 C :   -0.067747
  71 C :   -0.034783
  72 C :   -0.154123
  73 S :    0.508778
  74 C :    0.086667
  75 O :   -0.130631
  76 H :    0.042882
  77 H :    0.031312
  78 H :    0.045855
  79 H :    0.042635
  80 H :    0.037864
  81 H :    0.037126
  82 H :    0.038554
  83 H :    0.033894
  84 H :    0.025702
  85 H :    0.033687
  86 H :    0.024274
  87 H :    0.037228
  88 H :    0.041788
  89 H :    0.042064
  90 H :    0.043032
  91 H :    0.030002

  Mayer bond orders larger than 0.100000
B(  0-C ,  1-C ) :   1.5485 B(  0-C ,  4-C ) :   1.2726 B(  0-C , 76-H ) :   1.0069
B(  1-C ,  2-S ) :   1.1674 B(  1-C , 77-H ) :   0.9681 B(  2-S ,  3-C ) :   1.1578
B(  3-C ,  4-C ) :   1.4381 B(  3-C ,  8-C ) :   1.0901 B(  4-C ,  5-C ) :   0.9446
B(  5-C ,  6-O ) :   2.2586 B(  5-C ,  7-C ) :   0.9323 B(  7-C ,  8-C ) :   1.0323
B(  7-C , 14-C ) :   1.7069 B(  8-C ,  9-C ) :   1.6429 B(  9-C , 10-C ) :   1.1249
B(  9-C , 12-C ) :   1.1756 B( 10-C , 11-N ) :   3.0089 B( 12-C , 13-N ) :   2.9940
B( 14-C , 15-C ) :   1.1218 B( 14-C , 78-H ) :   0.9259 B( 15-C , 16-C ) :   1.4069
B( 15-C , 19-S ) :   1.0853 B( 16-C , 17-C ) :   1.3518 B( 16-C , 79-H ) :   0.9803
B( 17-C , 18-C ) :   1.4074 B( 17-C , 22-C ) :   1.0042 B( 18-C , 19-S ) :   1.1534
B( 18-C , 20-C ) :   1.2082 B( 20-C , 21-C ) :   1.4315 B( 20-C , 30-S ) :   1.1086
B( 21-C , 22-C ) :   0.9968 B( 21-C , 28-C ) :   1.3160 B( 22-C , 23-C ) :   1.7124
B( 23-C , 24-C ) :   1.1330 B( 23-C , 26-C ) :   1.1345 B( 24-C , 25-N ) :   2.9854
B( 26-C , 27-N ) :   2.9785 B( 28-C , 29-C ) :   1.4661 B( 28-C , 80-H ) :   0.9831
B( 29-C , 30-S ) :   1.1141 B( 29-C , 31-C ) :   1.1271 B( 31-C , 32-C ) :   1.5405
B( 31-C , 36-S ) :   1.0430 B( 32-C , 33-C ) :   1.2451 B( 32-C , 81-H ) :   0.9663
B( 33-C , 34-C ) :   1.0510 B( 33-C , 42-C ) :   1.3601 B( 34-C , 35-C ) :   1.6123
B( 34-C , 37-C ) :   1.1778 B( 35-C , 36-S ) :   1.1345 B( 35-C , 82-H ) :   0.9405
B( 37-C , 38-C ) :   1.4397 B( 37-C , 41-S ) :   1.0777 B( 38-C , 39-C ) :   1.2211
B( 38-C , 42-C ) :   1.1008 B( 39-C , 40-C ) :   1.5873 B( 39-C , 83-H ) :   0.9975
B( 40-C , 41-S ) :   1.1551 B( 40-C , 84-H ) :   0.9660 B( 42-C , 43-C ) :   1.1779
B( 43-C , 44-C ) :   1.6237 B( 43-C , 85-H ) :   0.9592 B( 44-C , 45-C ) :   1.1413
B( 44-C , 86-H ) :   0.9574 B( 45-C , 46-C ) :   1.4178 B( 45-C , 49-S ) :   1.1273
B( 46-C , 47-C ) :   1.3265 B( 46-C , 87-H ) :   0.9880 B( 47-C , 48-C ) :   1.4110
B( 47-C , 52-C ) :   0.9949 B( 48-C , 49-S ) :   1.1071 B( 48-C , 50-C ) :   1.2217
B( 50-C , 51-C ) :   1.3652 B( 50-C , 60-S ) :   1.1706 B( 51-C , 52-C ) :   1.0018
B( 51-C , 58-C ) :   1.3104 B( 52-C , 53-C ) :   1.7066 B( 53-C , 54-C ) :   1.1382
B( 53-C , 56-C ) :   1.1350 B( 54-C , 55-N ) :   2.9784 B( 56-C , 57-N ) :   3.0019
B( 58-C , 59-C ) :   1.4005 B( 58-C , 88-H ) :   0.9697 B( 59-C , 60-S ) :   1.0684
B( 59-C , 61-C ) :   1.2188 B( 61-C , 62-C ) :   1.6227 B( 61-C , 89-H ) :   0.9065
B( 62-C , 63-C ) :   1.0903 B( 62-C , 74-C ) :   0.9213 B( 63-C , 64-C ) :   1.6148
B( 63-C , 69-C ) :   1.0911 B( 64-C , 65-C ) :   1.1505 B( 64-C , 67-C ) :   1.1429
B( 65-C , 66-N ) :   3.0005 B( 67-C , 68-N ) :   2.9591 B( 69-C , 70-C ) :   1.4460
B( 69-C , 73-S ) :   1.1411 B( 70-C , 71-C ) :   1.2701 B( 70-C , 74-C ) :   0.9735
B( 71-C , 72-C ) :   1.5403 B( 71-C , 90-H ) :   1.0080 B( 72-C , 73-S ) :   1.1686
B( 72-C , 91-H ) :   0.9681 B( 74-C , 75-O ) :   2.1674 B( 75-O , 88-H ) :   0.1005

-----------------------------------------------------------------------------
         ABSORPTION SPECTRUM VIA TRANSITION ELECTRIC DIPOLE MOMENTS
-----------------------------------------------------------------------------
State   Energy  Wavelength   fosc         T2         TX        TY        TZ
        (cm-1)    (nm)                  (au**2)     (au)      (au)      (au)
-----------------------------------------------------------------------------
   0    9537.4   1048.5   0.361746619  12.48676   1.68577  -2.67645   1.57529
   1   11398.4    877.3   0.227311017   6.56528   1.48559   1.45249  -1.49952
   2   16125.5    620.1   0.198315946   4.04874  -0.08912  -1.60157   1.21481
   3   17011.4    587.8   0.522914137  10.11964  -1.37119   2.50542  -1.40085
   4   19001.5    526.3   0.495081524   8.57758  -2.50024  -0.38419   1.47607
   5   20110.6    497.3   0.338359550   5.53898  -1.49515  -1.11525   1.43518
   6   20662.0    484.0   0.240634435   3.83408   1.78546   0.17997  -0.78347
   7   22034.8    453.8   0.058678130   0.87668   0.35728  -0.64121   0.58128
   8   22877.4    437.1   0.114395949   1.64619  -1.14469  -0.36766   0.44800
   9   23975.9    417.1   0.253302228   3.47808  -1.78991   0.27024   0.44864
  10   24201.0    413.2   0.323576163   4.40168   1.43144   1.11885  -1.04921
  11   25021.3    399.7   0.195825208   2.57653  -1.44196   0.23600   0.66452
  12   25774.1    388.0   0.108941270   1.39150  -0.60447  -0.78494   0.64031
  13   26128.4    382.7   0.060362636   0.76056  -0.74903   0.44621  -0.02016
  14   26861.8    372.3   0.123220957   1.51017  -0.87878  -0.45287   0.72994
  15   27140.3    368.5   0.073268703   0.88875  -0.90088   0.24976  -0.12160
  16   28195.0    354.7   0.046183780   0.53925  -0.45317   0.20348  -0.54082
  17   29005.9    344.8   0.028717589   0.32594   0.35118  -0.44388   0.07472
  18   29143.3    343.1   0.048531102   0.54822   0.49113  -0.55378  -0.01867
  19   29841.7    335.1   0.199434315   2.20015   0.02421  -1.39117   0.51401
  20   29984.4    333.5   0.511657912   5.61773   0.85480   2.11414  -0.64610
  21   30472.0    328.2   0.132540461   1.43193   0.64982  -0.66209   0.75585
  22   30539.9    327.4   0.128890346   1.38940   0.89235  -0.64992  -0.41319
  23   30766.6    325.0   0.030803934   0.32961  -0.35403   0.44088  -0.09948
  24   31090.4    321.6   0.307454192   3.25559   0.76716  -1.06933   1.23434
  25   31191.2    320.6   0.131261246   1.38542  -1.11732   0.34260  -0.14018
  26   31391.8    318.6   0.002265912   0.02376   0.07088   0.02475   0.13463
  27   31471.9    317.7   0.012993914   0.13592   0.31020  -0.19424   0.04441
  28   31768.2    314.8   0.284708032   2.95041   1.66290  -0.09863  -0.41886
  29   31998.6    312.5   0.018769096   0.19310  -0.35879  -0.21428  -0.13585
  30   32200.8    310.6   0.190273352   1.94530  -1.01404  -0.11963   0.95011
  31   32305.4    309.5   0.494741812   5.04173  -2.03395   0.84368  -0.43929
  32   32437.2    308.3   0.047665565   0.48377   0.54790  -0.34781  -0.25020
  33   32629.9    306.5   0.194431649   1.96168  -1.14994   0.75110   0.27419
  34   32852.7    304.4   0.331333518   3.32024  -0.37184  -1.31200   1.20857
  35   33201.7    301.2   0.139279583   1.38103  -0.18301   1.11217  -0.33259
  36   33344.1    299.9   0.287792952   2.84142   1.66840  -0.21417   0.10958
  37   33629.5    297.4   0.020502485   0.20071  -0.07492   0.42324   0.12635
  38   33687.0    296.9   0.181979825   1.77843  -1.02291   0.78743  -0.33472
  39   33903.6    295.0   0.053923607   0.52361   0.69556   0.10169   0.17166
  40   34150.1    292.8   0.130963940   1.26251   0.54565  -0.58007   0.79265
  41   34580.8    289.2   0.163098856   1.55271   1.17876  -0.14389  -0.37754
  42   34648.2    288.6   0.052888352   0.50252  -0.59058   0.33348   0.20622
  43   34924.6    286.3   0.072238373   0.68094  -0.51412   0.61084   0.20855
  44   34949.9    286.1   0.040393583   0.38049   0.39356  -0.47267  -0.04671
  45   35210.2    284.0   0.017100247   0.15989  -0.34695   0.19826  -0.01429
  46   35696.7    280.1   0.104467624   0.96345   0.24237  -0.67521   0.66992
  47   35851.7    278.9   0.010260956   0.09422  -0.03374   0.20046  -0.23000
  48   36141.2    276.7   0.173608444   1.58141  -0.86586   0.91048  -0.05216
  49   36255.0    275.8   0.066440787   0.60331   0.29568  -0.20720   0.68772
  50   36829.9    271.5   0.051083154   0.45662   0.61564  -0.03816  -0.27595
  51   36936.9    270.7   0.106020058   0.94494   0.93528   0.12018  -0.23611
  52   37026.5    270.1   0.055537253   0.49380  -0.58393   0.23458   0.31272
  53   37439.0    267.1   0.138245246   1.21563  -0.87987   0.63796  -0.18567
  54   37559.1    266.2   0.015479393   0.13568  -0.11894   0.32339  -0.13020
  55   37753.5    264.9   0.033948483   0.29603   0.10700   0.36475  -0.38928
  56   38319.8    261.0   0.012823740   0.11017  -0.02908   0.24563  -0.22134
  57   38452.7    260.1   0.002586106   0.02214  -0.06550  -0.12198   0.05450
  58   38558.7    259.3   0.039781244   0.33965  -0.37646   0.44206  -0.05017
  59   38704.2    258.4   0.016869474   0.14349   0.34056  -0.16582  -0.00276
  60   38894.2    257.1   0.006813118   0.05767  -0.08338  -0.18566   0.12746
  61   39276.7    254.6   0.013380425   0.11215   0.30871   0.12933   0.01127
  62   39527.4    253.0   0.010633526   0.08856   0.23518   0.09646  -0.15476
  63   39674.0    252.1   0.068166795   0.56564  -0.05439   0.30872  -0.68365
  64   39806.4    251.2   0.033635256   0.27817  -0.12724   0.48023  -0.17711
  65   39903.5    250.6   0.004618033   0.03810  -0.04549   0.16613  -0.09182
  66   40158.0    249.0   0.002153576   0.01765   0.04843  -0.12164  -0.02264
  67   40277.4    248.3   0.023626115   0.19311   0.28880  -0.32669  -0.05458

FINAL SINGLE POINT ENERGY     -5988.981539775527

DIPOLE MOMENT
-------------
                                X             Y             Z
Electronic contribution:    -13.24040       9.13029       2.76288
Nuclear contribution   :     15.04721      -6.94849      -6.04374
                        -----------------------------------------
Total Dipole Moment    :      1.80681       2.18179      -3.28086
                        -----------------------------------------
Magnitude (a.u.)       :      4.33461
Magnitude (Debye)      :     11.01770

Rotational constants in cm-1:     0.000657     0.000306     0.000212
Rotational constants in MHz :    19.707536     9.169960     6.352647

                             ****ORCA TERMINATED NORMALLY****
TOTAL RUN TIME: 0 days 0 hours 10 minutes 7 seconds 63 msec
