                         Program Version 4.2.0 -  RELEASE  -
|  1> # ORCA input file
|  2> # SCF done       -184.855359567783          0.000456384165
|  3> ! CAM-B3LYP def2-SVP def2/J RIJCOSX Grid4 TightSCF
|  4> %maxcore 5000
|  5> %tddft
|  6>     Mode sTDDFT
|  7>     Ethresh 5.0
|  8>     maxcore 5000
|  9> end
| 10>
| 11> %pal
| 12>   nprocs 6
| 13>   end
| 14> * xyz 0 1
| 15>    C       -6.54969        -0.96557        -2.09346
| 16>    O       -5.36470        -1.07728        -1.84230
| 17>    C       -7.19296         0.20510        -2.73448
| 18>    C       -8.55411        -0.06692        -2.95031
| 19>    C       -9.35539         0.88575        -3.56049
| 20>    C       -8.78587         2.09240        -3.94199
| 21>    C       -7.43934         2.33894        -3.71661
| 22>    C       -6.61552         1.39833        -3.11144
| 23>   Br       -6.70300         4.00779        -4.25103
| 24>    C       -8.84434        -1.40418        -2.44013
| 25>    C      -10.09236        -1.97522        -2.38782
| 26>    C      -11.26106        -1.37754        -2.89449
| 27>    N      -12.25610        -0.96547        -3.29547
| 28>    C      -10.40569        -3.22291        -1.81733
| 29>    N      -10.77847        -4.21874        -1.37917
| 30>    C       -7.61436        -1.96424        -1.93191
| 31>    C       -7.45045        -3.29153        -1.60048
| 32>    C       -6.41387        -3.97477        -0.94772
| 33>    S       -6.26079        -5.66862        -1.36198
| 34>    C       -4.98277        -5.90092        -0.20392
| 35>    C       -4.76199        -4.72704         0.52834
| 36>    C       -5.53428        -3.64659         0.09684
| 37>    C       -5.51503        -2.31999         0.77801
| 38>    C       -4.46750        -2.23066         1.88777
| 39>    C       -4.35101        -3.53798         2.68302
| 40>    N       -5.56791        -3.96725         3.34963
| 41>    C       -3.88547        -4.65083         1.73826
| 42>    C       -4.40475        -7.18459        -0.15459
| 43>    C       -3.27857        -7.58683         0.51483
| 44>    C       -2.78593        -8.90003         0.59223
| 45>    C       -3.28396       -10.06521         0.04663
| 46>    C       -2.76202       -11.36185         0.29084
| 47>    C       -3.44538       -12.37731        -0.30996
| 48>    C       -4.53692       -11.93909        -1.08799
| 49>    S       -4.66116       -10.19463        -1.02394
| 50>    C       -5.47101       -12.65881        -1.80643
| 51>    C       -5.67879       -14.05712        -1.87642
| 52>    C       -6.77294       -14.41794        -2.59910
| 53>    C       -7.48564       -13.32302        -3.16406
| 54>    S       -6.67866       -11.81293        -2.74381
| 55>    C       -8.67131       -13.32300        -3.83451
| 56>    C       -9.23344       -12.10812        -4.34822
| 57>    S      -10.79553       -11.56993        -3.80076
| 58>    C      -10.59898       -10.04265        -4.61717
| 59>    C       -9.40937       -10.00874        -5.33487
| 60>    C       -8.63685       -11.16891        -5.17151
| 61>    C       -7.37196       -11.38396        -5.94411
| 62>    C       -6.75679       -10.04349        -6.33778
| 63>    C       -7.78530        -9.15010        -7.05277
| 64>    N       -8.34762        -9.71185        -8.26901
| 65>    C       -8.93100        -8.81264        -6.09367
| 66>    C      -11.48233        -8.96106        -4.41965
| 67>    C      -12.48233        -8.92153        -3.49793
| 68>    C      -13.30721        -7.80598        -3.23782
| 69>    C      -13.14957        -6.48637        -3.56092
| 70>    C      -14.34741        -5.60436        -3.50209
| 71>    O      -15.41468        -5.86411        -2.99717
| 72>    C      -13.97064        -4.38235        -4.24704
| 73>    C      -12.61798        -4.46852        -4.62040
| 74>    C      -12.04871        -5.68895        -4.04789
| 75>    C      -10.70821        -5.86170        -3.81043
| 76>    C       -9.72798        -4.93053        -4.19949
| 77>    N       -8.88014        -4.20468        -4.47521
| 78>    C      -10.13468        -6.91278        -3.06829
| 79>    N       -9.58047        -7.72729        -2.47904
| 80>    C      -12.05766        -3.47549        -5.40839
| 81>    C      -12.84672        -2.40048        -5.78798
| 82>    C      -14.16883        -2.31582        -5.37511
| 83>    C      -14.75800        -3.30767        -4.60290
| 84>   Br      -15.19823        -0.81782        -5.90037
| 85>    H      -10.40221         0.71142        -3.74793
| 86>    H       -9.39415         2.84538        -4.41921
| 87>    H       -5.56701         1.58568        -2.93890
| 88>    H       -8.22977        -3.95361        -1.96341
| 89>    H       -6.51793        -2.10715         1.16439
| 90>    H       -5.29111        -1.55097         0.03597
| 91>    H       -4.72144        -1.40534         2.55668
| 92>    H       -3.49310        -2.01265         1.44763
| 93>    H       -3.59595        -3.40745         3.46873
| 94>    H       -6.29431        -4.16387         2.66952
| 95>    H       -5.90824        -3.24273         3.97172
| 96>    H       -3.92988        -5.59723         2.27909
| 97>    H       -2.84993        -4.46278         1.44212
| 98>    H       -4.93642        -7.91377        -0.74840
| 99>    H       -2.69698        -6.84934         1.04601
|100>    H       -1.89793        -9.03401         1.19819
|101>    H       -1.90194       -11.50466         0.92152
|102>    H       -3.19136       -13.41820        -0.21824
|103>    H       -5.03248       -14.74994        -1.36723
|104>    H       -7.10290       -15.43125        -2.74477
|105>    H       -9.25711       -14.23053        -3.87693
|106>    H       -7.61019       -11.96193        -6.84547
|107>    H       -6.65432       -11.97289        -5.37451
|108>    H       -5.89663       -10.21280        -6.98956
|109>    H       -6.40826        -9.52825        -5.44138
|110>    H       -7.29152        -8.21488        -7.34502
|111>    H       -8.88622       -10.54544        -8.06063
|112>    H       -7.61327        -9.96257        -8.92129
|113>    H       -9.74468        -8.37219        -6.67344
|114>    H       -8.58630        -8.06781        -5.36961
|115>    H      -11.31416        -8.10198        -5.05433
|116>    H      -12.69639        -9.82205        -2.93620
|117>    H      -14.25089        -8.01962        -2.74401
|118>    H      -11.03358        -3.52704        -5.74265
|119>    H      -12.42921        -1.61827        -6.40307
|120>    H      -15.78919        -3.24976        -4.29058
|121> *
|122>
|123>                          ****END OF INPUT****

CARTESIAN COORDINATES (ANGSTROEM)
---------------------------------
  C     -6.549690   -0.965570   -2.093460
  O     -5.364700   -1.077280   -1.842300
  C     -7.192960    0.205100   -2.734480
  C     -8.554110   -0.066920   -2.950310
  C     -9.355390    0.885750   -3.560490
  C     -8.785870    2.092400   -3.941990
  C     -7.439340    2.338940   -3.716610
  C     -6.615520    1.398330   -3.111440
  Br    -6.703000    4.007790   -4.251030
  C     -8.844340   -1.404180   -2.440130
  C    -10.092360   -1.975220   -2.387820
  C    -11.261060   -1.377540   -2.894490
  N    -12.256100   -0.965470   -3.295470
  C    -10.405690   -3.222910   -1.817330
  N    -10.778470   -4.218740   -1.379170
  C     -7.614360   -1.964240   -1.931910
  C     -7.450450   -3.291530   -1.600480
  C     -6.413870   -3.974770   -0.947720
  S     -6.260790   -5.668620   -1.361980
  C     -4.982770   -5.900920   -0.203920
  C     -4.761990   -4.727040    0.528340
  C     -5.534280   -3.646590    0.096840
  C     -5.515030   -2.319990    0.778010
  C     -4.467500   -2.230660    1.887770
  C     -4.351010   -3.537980    2.683020
  N     -5.567910   -3.967250    3.349630
  C     -3.885470   -4.650830    1.738260
  C     -4.404750   -7.184590   -0.154590
  C     -3.278570   -7.586830    0.514830
  C     -2.785930   -8.900030    0.592230
  C     -3.283960  -10.065210    0.046630
  C     -2.762020  -11.361850    0.290840
  C     -3.445380  -12.377310   -0.309960
  C     -4.536920  -11.939090   -1.087990
  S     -4.661160  -10.194630   -1.023940
  C     -5.471010  -12.658810   -1.806430
  C     -5.678790  -14.057120   -1.876420
  C     -6.772940  -14.417940   -2.599100
  C     -7.485640  -13.323020   -3.164060
  S     -6.678660  -11.812930   -2.743810
  C     -8.671310  -13.323000   -3.834510
  C     -9.233440  -12.108120   -4.348220
  S    -10.795530  -11.569930   -3.800760
  C    -10.598980  -10.042650   -4.617170
  C     -9.409370  -10.008740   -5.334870
  C     -8.636850  -11.168910   -5.171510
  C     -7.371960  -11.383960   -5.944110
  C     -6.756790  -10.043490   -6.337780
  C     -7.785300   -9.150100   -7.052770
  N     -8.347620   -9.711850   -8.269010
  C     -8.931000   -8.812640   -6.093670
  C    -11.482330   -8.961060   -4.419650
  C    -12.482330   -8.921530   -3.497930
  C    -13.307210   -7.805980   -3.237820
  C    -13.149570   -6.486370   -3.560920
  C    -14.347410   -5.604360   -3.502090
  O    -15.414680   -5.864110   -2.997170
  C    -13.970640   -4.382350   -4.247040
  C    -12.617980   -4.468520   -4.620400
  C    -12.048710   -5.688950   -4.047890
  C    -10.708210   -5.861700   -3.810430
  C     -9.727980   -4.930530   -4.199490
  N     -8.880140   -4.204680   -4.475210
  C    -10.134680   -6.912780   -3.068290
  N     -9.580470   -7.727290   -2.479040
  C    -12.057660   -3.475490   -5.408390
  C    -12.846720   -2.400480   -5.787980
  C    -14.168830   -2.315820   -5.375110
  C    -14.758000   -3.307670   -4.602900
  Br   -15.198230   -0.817820   -5.900370
  H    -10.402210    0.711420   -3.747930
  H     -9.394150    2.845380   -4.419210
  H     -5.567010    1.585680   -2.938900
  H     -8.229770   -3.953610   -1.963410
  H     -6.517930   -2.107150    1.164390
  H     -5.291110   -1.550970    0.035970
  H     -4.721440   -1.405340    2.556680
  H     -3.493100   -2.012650    1.447630
  H     -3.595950   -3.407450    3.468730
  H     -6.294310   -4.163870    2.669520
  H     -5.908240   -3.242730    3.971720
  H     -3.929880   -5.597230    2.279090
  H     -2.849930   -4.462780    1.442120
  H     -4.936420   -7.913770   -0.748400
  H     -2.696980   -6.849340    1.046010
  H     -1.897930   -9.034010    1.198190
  H     -1.901940  -11.504660    0.921520
  H     -3.191360  -13.418200   -0.218240
  H     -5.032480  -14.749940   -1.367230
  H     -7.102900  -15.431250   -2.744770
  H     -9.257110  -14.230530   -3.876930
  H     -7.610190  -11.961930   -6.845470
  H     -6.654320  -11.972890   -5.374510
  H     -5.896630  -10.212800   -6.989560
  H     -6.408260   -9.528250   -5.441380
  H     -7.291520   -8.214880   -7.345020
  H     -8.886220  -10.545440   -8.060630
  H     -7.613270   -9.962570   -8.921290
  H     -9.744680   -8.372190   -6.673440
  H     -8.586300   -8.067810   -5.369610
  H    -11.314160   -8.101980   -5.054330
  H    -12.696390   -9.822050   -2.936200
  H    -14.250890   -8.019620   -2.744010
  H    -11.033580   -3.527040   -5.742650
  H    -12.429210   -1.618270   -6.403070
  H    -15.789190   -3.249760   -4.290580

 Total Charge           Charge          ....    0
 Multiplicity           Mult            ....    1
 Number of Electrons    NEL             ....  564
 Basis Dimension        Dim             .... 1212

ORBITAL ENERGIES
----------------

  NO   OCC          E(Eh)            E(eV)
   0   2.0000    -482.864704    -13139.4166
   1   2.0000    -482.855782    -13139.1738
   2   2.0000     -88.953685     -2420.5528
   3   2.0000     -88.952933     -2420.5324
   4   2.0000     -88.950263     -2420.4597
   5   2.0000     -88.950041     -2420.4537
   6   2.0000     -62.542412     -1701.8656
   7   2.0000     -62.533551     -1701.6244
   8   2.0000     -56.376229     -1534.0752
   9   2.0000     -56.373735     -1534.0073
  10   2.0000     -56.373734     -1534.0073
  11   2.0000     -56.367354     -1533.8337
  12   2.0000     -56.364886     -1533.7665
  13   2.0000     -56.364878     -1533.7663
  14   2.0000     -19.207296      -522.6571
  15   2.0000     -19.202546      -522.5279
  16   2.0000     -14.413345      -392.2071
  17   2.0000     -14.408249      -392.0684
  18   2.0000     -14.407520      -392.0485
  19   2.0000     -14.405912      -392.0048
  20   2.0000     -14.380476      -391.3126
  21   2.0000     -14.374002      -391.1365
  22   2.0000     -10.357432      -281.8401
  23   2.0000     -10.353248      -281.7262
  24   2.0000     -10.335716      -281.2491
  25   2.0000     -10.331512      -281.1347
  26   2.0000     -10.330593      -281.1097
  27   2.0000     -10.329868      -281.0900
  28   2.0000     -10.329303      -281.0746
  29   2.0000     -10.327037      -281.0130
  30   2.0000     -10.319279      -280.8019
  31   2.0000     -10.317955      -280.7658
  32   2.0000     -10.317498      -280.7534
  33   2.0000     -10.315741      -280.7056
  34   2.0000     -10.314262      -280.6654
  35   2.0000     -10.312243      -280.6104
  36   2.0000     -10.311577      -280.5923
  37   2.0000     -10.309752      -280.5426
  38   2.0000     -10.309736      -280.5422
  39   2.0000     -10.307280      -280.4754
  40   2.0000     -10.306933      -280.4659
  41   2.0000     -10.301843      -280.3274
  42   2.0000     -10.300245      -280.2839
  43   2.0000     -10.299755      -280.2706
  44   2.0000     -10.298903      -280.2474
  45   2.0000     -10.298687      -280.2415
  46   2.0000     -10.297514      -280.2096
  47   2.0000     -10.295779      -280.1624
  48   2.0000     -10.295745      -280.1615
  49   2.0000     -10.294427      -280.1256
  50   2.0000     -10.294190      -280.1192
  51   2.0000     -10.293729      -280.1066
  52   2.0000     -10.293702      -280.1059
  53   2.0000     -10.293106      -280.0897
  54   2.0000     -10.290542      -280.0199
  55   2.0000     -10.290077      -280.0072
  56   2.0000     -10.288441      -279.9627
  57   2.0000     -10.288142      -279.9546
  58   2.0000     -10.288135      -279.9544
  59   2.0000     -10.288062      -279.9524
  60   2.0000     -10.287636      -279.9408
  61   2.0000     -10.285377      -279.8793
  62   2.0000     -10.284510      -279.8558
  63   2.0000     -10.283363      -279.8245
  64   2.0000     -10.282844      -279.8104
  65   2.0000     -10.282683      -279.8060
  66   2.0000     -10.282615      -279.8042
  67   2.0000     -10.282317      -279.7961
  68   2.0000     -10.281922      -279.7853
  69   2.0000     -10.279010      -279.7061
  70   2.0000     -10.277642      -279.6689
  71   2.0000     -10.277300      -279.6596
  72   2.0000     -10.268354      -279.4161
  73   2.0000     -10.267042      -279.3804
  74   2.0000     -10.264129      -279.3012
  75   2.0000     -10.258694      -279.1532
  76   2.0000     -10.256734      -279.0999
  77   2.0000     -10.253742      -279.0185
  78   2.0000      -8.771686      -238.6897
  79   2.0000      -8.762870      -238.4498
  80   2.0000      -8.049388      -219.0350
  81   2.0000      -8.048690      -219.0160
  82   2.0000      -8.046147      -218.9468
  83   2.0000      -8.045842      -218.9385
  84   2.0000      -6.607447      -179.7978
  85   2.0000      -6.598651      -179.5584
  86   2.0000      -6.593824      -179.4271
  87   2.0000      -6.593428      -179.4163
  88   2.0000      -6.584986      -179.1866
  89   2.0000      -6.584623      -179.1767
  90   2.0000      -6.018582      -163.7739
  91   2.0000      -6.018389      -163.7687
  92   2.0000      -6.015660      -163.6944
  93   2.0000      -6.015271      -163.6838
  94   2.0000      -6.014605      -163.6657
  95   2.0000      -6.014262      -163.6564
  96   2.0000      -6.011578      -163.5834
  97   2.0000      -6.011491      -163.5810
  98   2.0000      -6.011369      -163.5777
  99   2.0000      -6.009811      -163.5353
 100   2.0000      -6.008200      -163.4914
 101   2.0000      -6.006606      -163.4481
 102   2.0000      -2.723418       -74.1080
 103   2.0000      -2.719648       -74.0054
 104   2.0000      -2.719356       -73.9974
 105   2.0000      -2.714592       -73.8678
 106   2.0000      -2.710841       -73.7657
 107   2.0000      -2.710597       -73.7591
 108   2.0000      -2.708525       -73.7027
 109   2.0000      -2.708515       -73.7024
 110   2.0000      -2.699723       -73.4632
 111   2.0000      -2.699715       -73.4630
 112   2.0000      -1.121090       -30.5064
 113   2.0000      -1.117878       -30.4190
 114   2.0000      -1.014898       -27.6168
 115   2.0000      -1.009093       -27.4588
 116   2.0000      -1.004464       -27.3329
 117   2.0000      -0.995329       -27.0843
 118   2.0000      -0.993648       -27.0385
 119   2.0000      -0.991958       -26.9926
 120   2.0000      -0.991298       -26.9746
 121   2.0000      -0.987057       -26.8592
 122   2.0000      -0.986429       -26.8421
 123   2.0000      -0.979549       -26.6549
 124   2.0000      -0.969391       -26.3785
 125   2.0000      -0.965335       -26.2681
 126   2.0000      -0.953890       -25.9567
 127   2.0000      -0.950412       -25.8620
 128   2.0000      -0.919484       -25.0204
 129   2.0000      -0.914301       -24.8794
 130   2.0000      -0.902100       -24.5474
 131   2.0000      -0.898653       -24.4536
 132   2.0000      -0.897159       -24.4129
 133   2.0000      -0.891882       -24.2693
 134   2.0000      -0.886608       -24.1258
 135   2.0000      -0.883024       -24.0283
 136   2.0000      -0.876951       -23.8630
 137   2.0000      -0.871714       -23.7205
 138   2.0000      -0.863425       -23.4950
 139   2.0000      -0.851312       -23.1654
 140   2.0000      -0.850828       -23.1522
 141   2.0000      -0.843309       -22.9476
 142   2.0000      -0.837817       -22.7981
 143   2.0000      -0.830315       -22.5940
 144   2.0000      -0.828400       -22.5419
 145   2.0000      -0.826606       -22.4931
 146   2.0000      -0.813041       -22.1240
 147   2.0000      -0.807492       -21.9730
 148   2.0000      -0.803423       -21.8623
 149   2.0000      -0.791979       -21.5508
 150   2.0000      -0.781540       -21.2668
 151   2.0000      -0.764774       -20.8106
 152   2.0000      -0.758272       -20.6336
 153   2.0000      -0.754625       -20.5344
 154   2.0000      -0.744720       -20.2649
 155   2.0000      -0.730835       -19.8870
 156   2.0000      -0.715030       -19.4569
 157   2.0000      -0.712873       -19.3983
 158   2.0000      -0.708207       -19.2713
 159   2.0000      -0.697769       -18.9873
 160   2.0000      -0.693040       -18.8586
 161   2.0000      -0.685768       -18.6607
 162   2.0000      -0.684168       -18.6172
 163   2.0000      -0.679675       -18.4949
 164   2.0000      -0.674346       -18.3499
 165   2.0000      -0.672333       -18.2951
 166   2.0000      -0.664780       -18.0896
 167   2.0000      -0.656850       -17.8738
 168   2.0000      -0.647344       -17.6151
 169   2.0000      -0.644811       -17.5462
 170   2.0000      -0.637008       -17.3339
 171   2.0000      -0.631864       -17.1939
 172   2.0000      -0.624419       -16.9913
 173   2.0000      -0.618234       -16.8230
 174   2.0000      -0.617499       -16.8030
 175   2.0000      -0.608523       -16.5588
 176   2.0000      -0.607415       -16.5286
 177   2.0000      -0.604225       -16.4418
 178   2.0000      -0.602318       -16.3899
 179   2.0000      -0.592824       -16.1316
 180   2.0000      -0.583600       -15.8806
 181   2.0000      -0.579515       -15.7694
 182   2.0000      -0.571004       -15.5378
 183   2.0000      -0.569521       -15.4974
 184   2.0000      -0.568526       -15.4704
 185   2.0000      -0.565599       -15.3907
 186   2.0000      -0.564593       -15.3634
 187   2.0000      -0.560096       -15.2410
 188   2.0000      -0.555113       -15.1054
 189   2.0000      -0.543027       -14.7765
 190   2.0000      -0.539895       -14.6913
 191   2.0000      -0.538007       -14.6399
 192   2.0000      -0.535149       -14.5621
 193   2.0000      -0.534708       -14.5502
 194   2.0000      -0.533336       -14.5128
 195   2.0000      -0.531722       -14.4689
 196   2.0000      -0.530129       -14.4255
 197   2.0000      -0.526387       -14.3237
 198   2.0000      -0.525648       -14.3036
 199   2.0000      -0.522404       -14.2153
 200   2.0000      -0.520367       -14.1599
 201   2.0000      -0.516549       -14.0560
 202   2.0000      -0.513678       -13.9779
 203   2.0000      -0.509979       -13.8772
 204   2.0000      -0.507830       -13.8188
 205   2.0000      -0.506571       -13.7845
 206   2.0000      -0.503916       -13.7123
 207   2.0000      -0.501221       -13.6389
 208   2.0000      -0.498768       -13.5722
 209   2.0000      -0.497085       -13.5264
 210   2.0000      -0.494327       -13.4513
 211   2.0000      -0.491831       -13.3834
 212   2.0000      -0.488988       -13.3060
 213   2.0000      -0.487902       -13.2765
 214   2.0000      -0.486205       -13.2303
 215   2.0000      -0.480278       -13.0690
 216   2.0000      -0.477182       -12.9848
 217   2.0000      -0.476187       -12.9577
 218   2.0000      -0.475417       -12.9368
 219   2.0000      -0.472432       -12.8555
 220   2.0000      -0.470695       -12.8082
 221   2.0000      -0.466980       -12.7072
 222   2.0000      -0.465985       -12.6801
 223   2.0000      -0.464794       -12.6477
 224   2.0000      -0.461921       -12.5695
 225   2.0000      -0.456499       -12.4220
 226   2.0000      -0.454167       -12.3585
 227   2.0000      -0.452175       -12.3043
 228   2.0000      -0.450940       -12.2707
 229   2.0000      -0.449677       -12.2363
 230   2.0000      -0.447731       -12.1834
 231   2.0000      -0.445058       -12.1106
 232   2.0000      -0.442589       -12.0434
 233   2.0000      -0.441344       -12.0096
 234   2.0000      -0.439706       -11.9650
 235   2.0000      -0.437368       -11.9014
 236   2.0000      -0.436369       -11.8742
 237   2.0000      -0.435792       -11.8585
 238   2.0000      -0.434501       -11.8234
 239   2.0000      -0.432230       -11.7616
 240   2.0000      -0.428351       -11.6560
 241   2.0000      -0.425751       -11.5853
 242   2.0000      -0.421767       -11.4769
 243   2.0000      -0.420425       -11.4403
 244   2.0000      -0.417380       -11.3575
 245   2.0000      -0.414224       -11.2716
 246   2.0000      -0.412183       -11.2161
 247   2.0000      -0.411381       -11.1942
 248   2.0000      -0.409760       -11.1501
 249   2.0000      -0.408296       -11.1103
 250   2.0000      -0.406641       -11.0653
 251   2.0000      -0.405658       -11.0385
 252   2.0000      -0.400510       -10.8984
 253   2.0000      -0.400076       -10.8866
 254   2.0000      -0.397141       -10.8068
 255   2.0000      -0.393986       -10.7209
 256   2.0000      -0.390788       -10.6339
 257   2.0000      -0.386147       -10.5076
 258   2.0000      -0.385701       -10.4954
 259   2.0000      -0.381438       -10.3795
 260   2.0000      -0.370995       -10.0953
 261   2.0000      -0.359572        -9.7844
 262   2.0000      -0.358187        -9.7468
 263   2.0000      -0.351179        -9.5561
 264   2.0000      -0.347406        -9.4534
 265   2.0000      -0.344545        -9.3755
 266   2.0000      -0.341222        -9.2851
 267   2.0000      -0.333636        -9.0787
 268   2.0000      -0.330494        -8.9932
 269   2.0000      -0.329058        -8.9541
 270   2.0000      -0.328248        -8.9321
 271   2.0000      -0.320677        -8.7261
 272   2.0000      -0.312601        -8.5063
 273   2.0000      -0.311998        -8.4899
 274   2.0000      -0.308868        -8.4047
 275   2.0000      -0.302412        -8.2291
 276   2.0000      -0.301864        -8.2142
 277   2.0000      -0.294117        -8.0033
 278   2.0000      -0.290146        -7.8953
 279   2.0000      -0.273283        -7.4364
 280   2.0000      -0.253867        -6.9081
 281   2.0000      -0.217112        -5.9079
 282   0.0000      -0.098930        -2.6920
 283   0.0000      -0.082934        -2.2568
 284   0.0000      -0.067220        -1.8292
 285   0.0000      -0.053483        -1.4553
 286   0.0000      -0.046935        -1.2772

MULLIKEN ATOMIC CHARGES
-----------------------
   0 C :    0.145067
   1 O :   -0.166019
   2 C :   -0.018976
   3 C :    0.036392
   4 C :   -0.036839
   5 C :    0.047911
   6 C :   -0.002267
   7 C :   -0.020492
   8 Br:   -0.029626
   9 C :    0.329298
  10 C :   -0.372477
  11 C :   -0.183619
  12 N :    0.147007
  13 C :   -0.203641
  14 N :    0.162482
  15 C :   -0.095034
  16 C :    0.019011
  17 C :   -0.137449
  18 S :    0.155363
  19 C :   -0.102779
  20 C :   -0.137952
  21 C :   -0.019781
  22 C :    0.087533
  23 C :    0.065490
  24 C :   -0.030340
  25 N :   -0.184099
  26 C :    0.150550
  27 C :    0.041536
  28 C :    0.010505
  29 C :   -0.010630
  30 C :   -0.016414
  31 C :    0.034842
  32 C :    0.030200
  33 C :   -0.032038
  34 S :    0.062536
  35 C :   -0.048491
  36 C :    0.035200
  37 C :    0.048384
  38 C :   -0.032103
  39 S :    0.098429
  40 C :   -0.025216
  41 C :   -0.158636
  42 S :    0.139065
  43 C :   -0.107223
  44 C :   -0.081846
  45 C :   -0.068387
  46 C :    0.138427
  47 C :    0.053094
  48 C :   -0.022538
  49 N :   -0.185943
  50 C :    0.146584
  51 C :    0.030918
  52 C :   -0.003557
  53 C :    0.046892
  54 C :   -0.125039
  55 C :    0.134337
  56 O :   -0.143760
  57 C :    0.009155
  58 C :    0.001264
  59 C :    0.287335
  60 C :   -0.352388
  61 C :   -0.190430
  62 N :    0.135721
  63 C :   -0.198468
  64 N :    0.188813
  65 C :   -0.034039
  66 C :    0.060283
  67 C :    0.023048
  68 C :   -0.018012
  69 Br:   -0.029561
  70 H :    0.004065
  71 H :    0.001465
  72 H :   -0.001252
  73 H :    0.030102
  74 H :    0.007259
  75 H :    0.049957
  76 H :   -0.008945
  77 H :   -0.001250
  78 H :   -0.010326
  79 H :    0.095805
  80 H :    0.089630
  81 H :    0.024147
  82 H :    0.019228
  83 H :   -0.002581
  84 H :   -0.011391
  85 H :   -0.015029
  86 H :   -0.009695
  87 H :   -0.011800
  88 H :   -0.009333
  89 H :   -0.006669
  90 H :    0.007728
  91 H :   -0.000262
  92 H :    0.011806
  93 H :   -0.006963
  94 H :    0.006226
  95 H :   -0.005314
  96 H :    0.091602
  97 H :    0.090006
  98 H :    0.023525
  99 H :    0.034189
 100 H :    0.015294
 101 H :    0.000980
 102 H :    0.022239
 103 H :    0.004123
 104 H :   -0.003680
 105 H :   -0.001450
Sum of atomic charges:    0.0000000

LOEWDIN ATOMIC CHARGES
----------------------
   0 C :    0.084623
   1 O :   -0.147556
   2 C :   -0.033245
   3 C :   -0.014984
   4 C :    0.004502
   5 C :   -0.018823
   6 C :   -0.099717
   7 C :   -0.004197
   8 Br:    0.107839
   9 C :    0.085200
  10 C :   -0.148785
  11 C :   -0.012483
  12 N :   -0.062598
  13 C :   -0.018384
  14 N :   -0.061032
  15 C :   -0.112444
  16 C :    0.056585
  17 C :   -0.182817
  18 S :    0.463568
  19 C :   -0.134103
  20 C :   -0.064791
  21 C :   -0.005988
  22 C :   -0.040257
  23 C :   -0.040193
  24 C :    0.012399
  25 N :   -0.103792
  26 C :   -0.028784
  27 C :   -0.058696
  28 C :   -0.018657
  29 C :   -0.065218
  30 C :   -0.136335
  31 C :   -0.029681
  32 C :   -0.034637
  33 C :   -0.180589
  34 S :    0.403586
  35 C :   -0.172455
  36 C :   -0.026370
  37 C :   -0.028384
  38 C :   -0.132674
  39 S :    0.400101
  40 C :   -0.074927
  41 C :   -0.172368
  42 S :    0.440852
  43 C :   -0.178710
  44 C :   -0.028029
  45 C :   -0.066072
  46 C :   -0.033680
  47 C :   -0.038400
  48 C :    0.014639
  49 N :   -0.101748
  50 C :   -0.028538
  51 C :    0.030365
  52 C :   -0.059826
  53 C :    0.069809
  54 C :   -0.097434
  55 C :    0.086133
  56 O :   -0.141396
  57 C :   -0.037851
  58 C :   -0.015313
  59 C :    0.073264
  60 C :   -0.148925
  61 C :   -0.012081
  62 N :   -0.075706
  63 C :   -0.015843
  64 N :   -0.043957
  65 C :   -0.003102
  66 C :   -0.006300
  67 C :   -0.092183
  68 C :    0.003085
  69 Br:    0.114929
  70 H :    0.040887
  71 H :    0.038446
  72 H :    0.042039
  73 H :    0.041341
  74 H :    0.029569
  75 H :    0.040890
  76 H :    0.020443
  77 H :    0.024022
  78 H :    0.019637
  79 H :    0.051387
  80 H :    0.053631
  81 H :    0.034750
  82 H :    0.031858
  83 H :    0.009062
  84 H :    0.033095
  85 H :    0.035114
  86 H :    0.034235
  87 H :    0.032824
  88 H :    0.033777
  89 H :    0.035315
  90 H :    0.035570
  91 H :    0.024227
  92 H :    0.022023
  93 H :    0.019869
  94 H :    0.025504
  95 H :    0.023125
  96 H :    0.048472
  97 H :    0.053254
  98 H :    0.034303
  99 H :    0.041622
 100 H :    0.037433
 101 H :    0.027802
 102 H :    0.046487
 103 H :    0.038257
 104 H :    0.036436
 105 H :    0.042872

  Mayer bond orders larger than 0.100000
B(  0-C ,  1-O ) :   2.1461 B(  0-C ,  2-C ) :   0.9304 B(  0-C , 15-C ) :   0.9892
B(  2-C ,  3-C ) :   1.3314 B(  2-C ,  7-C ) :   1.3849 B(  3-C ,  4-C ) :   1.3666
B(  3-C ,  9-C ) :   0.9893 B(  4-C ,  5-C ) :   1.3746 B(  4-C , 70-H ) :   0.9852
B(  5-C ,  6-C ) :   1.3997 B(  5-C , 71-H ) :   0.9834 B(  6-C ,  7-C ) :   1.3298
B(  6-C ,  8-Br) :   0.9865 B(  7-C , 72-H ) :   1.0072 B(  9-C , 10-C ) :   1.6052
B(  9-C , 15-C ) :   1.0971 B( 10-C , 11-C ) :   1.1600 B( 10-C , 13-C ) :   1.1599
B( 11-C , 12-N ) :   2.9233 B( 13-C , 14-N ) :   2.9384 B( 15-C , 16-C ) :   1.5149
B( 16-C , 17-C ) :   1.2499 B( 16-C , 73-H ) :   0.9175 B( 17-C , 18-S ) :   1.0947
B( 17-C , 21-C ) :   1.3755 B( 18-S , 19-C ) :   1.1626 B( 19-C , 20-C ) :   1.3954
B( 19-C , 27-C ) :   1.2160 B( 20-C , 21-C ) :   1.3800 B( 20-C , 26-C ) :   1.0455
B( 21-C , 22-C ) :   1.0699 B( 22-C , 23-C ) :   1.0783 B( 22-C , 74-H ) :   0.9047
B( 22-C , 75-H ) :   0.8724 B( 23-C , 24-C ) :   1.0310 B( 23-C , 76-H ) :   0.9280
B( 23-C , 77-H ) :   0.9324 B( 24-C , 25-N ) :   1.1040 B( 24-C , 26-C ) :   1.0449
B( 24-C , 78-H ) :   0.9191 B( 25-N , 79-H ) :   0.9730 B( 25-N , 80-H ) :   0.9727
B( 26-C , 81-H ) :   0.9108 B( 26-C , 82-H ) :   0.9030 B( 27-C , 28-C ) :   1.5650
B( 27-C , 83-H ) :   0.9177 B( 28-C , 29-C ) :   1.2427 B( 28-C , 84-H ) :   0.9667
B( 29-C , 30-C ) :   1.5313 B( 29-C , 85-H ) :   0.9619 B( 30-C , 31-C ) :   1.1607
B( 30-C , 34-S ) :   1.0569 B( 31-C , 32-C ) :   1.5789 B( 31-C , 86-H ) :   0.9990
B( 32-C , 33-C ) :   1.1933 B( 32-C , 87-H ) :   0.9944 B( 33-C , 34-S ) :   1.0403
B( 33-C , 35-C ) :   1.5040 B( 35-C , 36-C ) :   1.1755 B( 35-C , 39-S ) :   1.0528
B( 36-C , 37-C ) :   1.6162 B( 36-C , 88-H ) :   0.9945 B( 37-C , 38-C ) :   1.1180
B( 37-C , 89-H ) :   0.9973 B( 38-C , 39-S ) :   1.0403 B( 38-C , 40-C ) :   1.6800
B( 40-C , 41-C ) :   1.0392 B( 40-C , 90-H ) :   0.9615 B( 41-C , 42-S ) :   1.1355
B( 41-C , 45-C ) :   1.5055 B( 42-S , 43-C ) :   1.0972 B( 43-C , 44-C ) :   1.4512
B( 43-C , 51-C ) :   1.2322 B( 44-C , 45-C ) :   1.3198 B( 44-C , 50-C ) :   1.0532
B( 45-C , 46-C ) :   1.0506 B( 46-C , 47-C ) :   1.0665 B( 46-C , 91-H ) :   0.9128
B( 46-C , 92-H ) :   0.9012 B( 47-C , 48-C ) :   1.0278 B( 47-C , 93-H ) :   0.9306
B( 47-C , 94-H ) :   0.9370 B( 48-C , 49-N ) :   1.0980 B( 48-C , 50-C ) :   1.0546
B( 48-C , 95-H ) :   0.9176 B( 49-N , 96-H ) :   0.9751 B( 49-N , 97-H ) :   0.9733
B( 50-C , 98-H ) :   0.8990 B( 50-C , 99-H ) :   0.9066 B( 51-C , 52-C ) :   1.5819
B( 51-C ,100-H ) :   0.9487 B( 52-C , 53-C ) :   1.2008 B( 52-C ,101-H ) :   0.9605
B( 53-C , 54-C ) :   1.6205 B( 53-C ,102-H ) :   0.9306 B( 54-C , 55-C ) :   0.9586
B( 54-C , 59-C ) :   1.0490 B( 55-C , 56-O ) :   2.2577 B( 55-C , 57-C ) :   0.9169
B( 57-C , 58-C ) :   1.3372 B( 57-C , 68-C ) :   1.3816 B( 58-C , 59-C ) :   0.9994
B( 58-C , 65-C ) :   1.3694 B( 59-C , 60-C ) :   1.6167 B( 60-C , 61-C ) :   1.1573
B( 60-C , 63-C ) :   1.1803 B( 61-C , 62-N ) :   2.9302 B( 63-C , 64-N ) :   2.9731
B( 65-C , 66-C ) :   1.3756 B( 65-C ,103-H ) :   0.9880 B( 66-C , 67-C ) :   1.3952
B( 66-C ,104-H ) :   0.9841 B( 67-C , 68-C ) :   1.3384 B( 67-C , 69-Br) :   0.9858
B( 68-C ,105-H ) :   1.0060

-----------------------------------------------------------------------------
         ABSORPTION SPECTRUM VIA TRANSITION ELECTRIC DIPOLE MOMENTS
-----------------------------------------------------------------------------
State   Energy  Wavelength   fosc         T2         TX        TY        TZ
        (cm-1)    (nm)                  (au**2)     (au)      (au)      (au)
-----------------------------------------------------------------------------
   0   11328.5    882.7   0.423034239  12.29360  -0.93023  -3.26323  -0.88294
   1   15706.1    636.7   0.471427056   9.88149   1.59532  -2.67649   0.41571
   2   19443.6    514.3   1.013621351  17.16223  -1.90791   3.64526  -0.48395
   3   19970.6    500.7   0.340548767   5.61388   1.87806   0.71604   1.25461
   4   20909.7    478.2   0.217263330   3.42069  -1.31687  -0.83168  -0.99742
   5   22218.2    450.1   0.172250579   2.55228   0.95732  -1.15173   0.55618
   6   23582.5    424.0   0.248583452   3.47023   1.52997  -0.80894   0.68923
   7   24687.8    405.1   0.294488309   3.92700   1.27789   0.30588   1.48339
   8   26197.6    381.7   0.038481408   0.48358   0.19259   0.66772   0.02517
   9   26675.9    374.9   0.165694773   2.04487   0.57921  -1.28269   0.25317
  10   26790.5    373.3   0.051274010   0.63007   0.46220  -0.15755   0.62580
  11   27524.8    363.3   0.024364272   0.29141  -0.07714   0.13360   0.51731
  12   28055.2    356.4   0.041177651   0.48320  -0.19509   0.65727  -0.11463
  13   28813.6    347.1   0.062486261   0.71394  -0.19633   0.81655  -0.09298
  14   29221.1    342.2   0.351287407   3.95769  -1.81323   0.79742  -0.18440
  15   29631.4    337.5   0.055911224   0.62119  -0.53484  -0.19621  -0.54464
  16   29684.5    336.9   0.026114525   0.28962   0.46560   0.16042  -0.21702
  17   29981.5    333.5   0.040747814   0.44743  -0.26756  -0.40456   0.46063
  18   30264.4    330.4   0.013900470   0.15121  -0.26108   0.28286   0.05512
  19   30487.1    328.0   0.007482829   0.08080  -0.09221  -0.16885  -0.20926
  20   30637.3    326.4   0.021904929   0.23538  -0.01219  -0.48299  -0.04414
  21   30845.1    324.2   0.047819114   0.51038   0.29238   0.59695  -0.26180
  22   31198.7    320.5   0.006827660   0.07205   0.14144   0.05036  -0.22250
  23   31563.3    316.8   0.068897616   0.71862   0.42820  -0.69492   0.22879
  24   31861.8    313.9   0.008144874   0.08416  -0.06788  -0.28005   0.03347
  25   32011.8    312.4   0.090155365   0.92717   0.36606   0.81119  -0.36761
  26   32137.9    311.2   0.001552980   0.01591   0.07714   0.08864  -0.04584
  27   32436.1    308.3   0.082855272   0.84094   0.48166  -0.73306   0.26753
  28   32907.4    303.9   0.036726357   0.36742  -0.49880   0.34395   0.01765
  29   33074.0    302.4   0.080966835   0.80593   0.77147  -0.40380   0.21841
  30   33336.3    300.0   0.120246026   1.18749   0.48194   0.96849  -0.13132
  31   33592.9    297.7   0.030493603   0.29884  -0.01115   0.49193  -0.23815
  32   33761.6    296.2   0.037036351   0.36114  -0.16170  -0.55801   0.15371
  33   34047.5    293.7   0.139954282   1.35325   1.13093   0.09923   0.25375
  34   34190.8    292.5   0.024313637   0.23411  -0.28861  -0.32230   0.21665
  35   34414.7    290.6   0.110116671   1.05338  -0.15745  -0.85628   0.54349
  36   34669.7    288.4   0.122332234   1.16163   0.11271  -1.07023   0.05942
  37   35095.1    284.9   0.012876051   0.12078   0.15921   0.30862   0.01368
  38   35359.6    282.8   0.007153516   0.06660  -0.12730   0.17601  -0.13934
  39   35634.7    280.6   0.039778738   0.36750  -0.42351  -0.28310   0.32862
  40   35707.4    280.1   0.129903250   1.19767   1.08364   0.14677   0.04308
  41   36069.1    277.2   0.171226607   1.56283   1.18442  -0.33192   0.22318
  42   36516.3    273.9   0.118435419   1.06775   0.97939  -0.25641   0.20686
  43   36702.7    272.5   0.091285047   0.81880  -0.45097   0.78344   0.04062
  44   36883.8    271.1   0.100474909   0.89681   0.78967   0.49522   0.16729
  45   36989.2    270.3   0.005662292   0.05040  -0.04797  -0.19048  -0.10868
  46   37236.3    268.6   0.013022178   0.11513   0.31683   0.10273   0.06478
  47   37616.6    265.8   0.091116634   0.79743  -0.88492  -0.11736   0.02413
  48   37739.7    265.0   0.071657146   0.62508   0.74466   0.25392   0.07799
  49   38201.8    261.8   0.022762638   0.19616   0.20761   0.39074  -0.01945
  50   38465.6    260.0   0.009508444   0.08138   0.10570   0.06311   0.25734
  51   38570.3    259.3   0.007790669   0.06650   0.18992  -0.10675  -0.13796
  52   38662.2    258.7   0.018788655   0.15999  -0.26047  -0.30330  -0.01238
  53   38992.6    256.5   0.005803080   0.04900   0.21202  -0.02593  -0.05804
  54   39297.2    254.5   0.017037356   0.14273  -0.35907   0.06523   0.09769
  55   39838.2    251.0   0.017022721   0.14067  -0.03650   0.36418  -0.08193
  56   39910.3    250.6   0.005701554   0.04703  -0.01548   0.19193   0.09977
  57   40050.6    249.7   0.011676077   0.09598  -0.03475  -0.19848  -0.23532
  58   40243.5    248.5   0.011333949   0.09272  -0.05627  -0.24318   0.17440

FINAL SINGLE POINT ENERGY     -9371.282843744510

DIPOLE MOMENT
-------------
                                X             Y             Z
Electronic contribution:    -89.22584     174.00922     -56.87952
Nuclear contribution   :     92.03454    -176.86471      56.70847
                        -----------------------------------------
Total Dipole Moment    :      2.80870      -2.85548      -0.17106
                        -----------------------------------------
Magnitude (a.u.)       :      4.00897
Magnitude (Debye)      :     10.19000

Rotational constants in cm-1:     0.000902     0.000530     0.000376
Rotational constants in MHz :    27.044893    15.875192    11.271010

                             ****ORCA TERMINATED NORMALLY****
TOTAL RUN TIME: 0 days 0 hours 12 minutes 55 seconds 150 msec
