                         Program Version 4.2.0 -  RELEASE  -
|  1> # ORCA input file
|  2> # SCF done       -183.473438519666          0.000580278933
|  3> ! CAM-B3LYP def2-SVP def2/J RIJCOSX Grid4 TightSCF
|  4> %maxcore 5000
|  5> %tddft
|  6>     Mode sTDDFT
|  7>     Ethresh 5.0
|  8>     maxcore 5000
|  9> end
| 10>
| 11> %pal
| 12>   nprocs 6
| 13>   end
| 14> * xyz 0 1
| 15>    C       -5.83625         0.14495         1.25299
| 16>    O       -6.62418        -0.75596         1.07572
| 17>    C       -6.16354         1.48336         1.79832
| 18>    C       -4.99892         2.26305         1.89223
| 19>    C       -5.07939         3.55594         2.39178
| 20>    C       -6.31621         4.04479         2.78245
| 21>    C       -7.45503         3.25637         2.67668
| 22>    C       -7.39908         1.95957         2.18526
| 23>   Br       -9.12832         3.97212         3.22249
| 24>    C       -3.87034         1.47657         1.40655
| 25>    C       -2.59443         1.94226         1.23046
| 26>    C       -2.18019         3.25125         1.55605
| 27>    N       -1.78292         4.29801         1.80837
| 28>    C       -1.52568         1.20459         0.67694
| 29>    N       -0.61019         0.68237         0.22117
| 30>    C       -4.36266         0.14986         1.06861
| 31>    C       -3.56921        -0.93623         0.84941
| 32>    C       -3.93709        -2.25922         0.43975
| 33>    C       -3.11612        -3.32428         0.86275
| 34>    C       -3.43796        -4.61072         0.51724
| 35>    C       -4.58282        -4.86661        -0.26528
| 36>    C       -5.35908        -3.81926        -0.74502
| 37>    C       -5.03382        -2.52676        -0.39379
| 38>    C       -4.74650        -6.29602        -0.38872
| 39>    C       -3.71398        -6.92655         0.32718
| 40>    C       -2.74277        -5.90370         0.87675
| 41>    C       -1.42213        -6.07407         0.08695
| 42>    C       -0.35705        -5.01559         0.34051
| 43>    C       -2.52399        -6.05250         2.38857
| 44>    C       -3.83318        -6.02139         3.16914
| 45>    C       -3.67548        -8.29456         0.43179
| 46>    C       -4.66438        -9.07113        -0.19265
| 47>    C       -5.67344        -8.42744        -0.92279
| 48>    C       -5.72505        -7.05284        -1.02093
| 49>    C       -4.61722       -10.50579        -0.02387
| 50>    C       -5.27595       -11.40475        -0.77914
| 51>    C       -5.26724       -12.83395        -0.61807
| 52>    C       -4.81389       -13.55223         0.47929
| 53>    F       -4.29952       -12.91272         1.54901
| 54>    C       -4.86051       -14.95058         0.57764
| 55>    F       -4.33599       -15.47497         1.69793
| 56>    C       -5.37376       -15.77507        -0.41628
| 57>    C       -5.81859       -15.07951        -1.57510
| 58>    C       -5.78330       -13.64640        -1.66444
| 59>    N       -6.26600       -13.21162        -2.82629
| 60>    S       -6.71517       -14.47525        -3.71416
| 61>    N       -6.32268       -15.63571        -2.67105
| 62>    C       -5.46475       -17.19664        -0.34562
| 63>    S       -5.63611       -18.12749        -1.81356
| 64>    C       -5.64063       -19.64963        -0.97279
| 65>    C       -5.80142       -20.94025        -1.69553
| 66>    C       -7.26719       -21.38203        -1.70332
| 67>    C       -5.56274       -19.43295         0.36679
| 68>    C       -5.45875       -18.04956         0.75142
| 69>    N       -5.43753       -17.83215         2.07530
| 70>    C       -5.49437       -18.92724         2.76438
| 71>    S       -5.58902       -20.43602         1.77924
| 72>    C       -5.51745       -19.05920         4.16379
| 73>    C       -5.45553       -18.01494         5.04817
| 74>    C       -5.31713       -16.62771         4.77415
| 75>    C       -5.30350       -15.84548         5.88183
| 76>    C       -5.43319       -16.56016         7.10278
| 77>    S       -5.55662       -18.28046         6.77831
| 78>    C       -5.47095       -16.04621         8.37538
| 79>    C       -5.38743       -14.67233         8.74893
| 80>    C       -5.46205       -14.45193        10.07826
| 81>    C       -5.61143       -15.64117        10.86958
| 82>    S       -5.64604       -17.05135         9.79738
| 83>    C       -5.71503       -15.73026        12.20169
| 84>    H       -4.20782         4.18215         2.48803
| 85>    H       -6.39676         5.04709         3.17428
| 86>    H       -8.27903         1.34046         2.10361
| 87>    H       -2.51119        -0.81439         1.05481
| 88>    H       -2.26875        -3.10995         1.49710
| 89>    H       -6.21303        -4.01297        -1.37580
| 90>    H       -5.61761        -1.70844        -0.77996
| 91>    H       -1.66730        -6.07534        -0.97854
| 92>    H       -1.01547        -7.05789         0.33166
| 93>    H       -0.69771        -4.03503         0.01952
| 94>    H        0.53647        -5.26306        -0.22849
| 95>    H       -0.08313        -4.96997         1.39116
| 96>    H       -1.88074        -5.24441         2.73901
| 97>    H       -2.00930        -6.99653         2.57865
| 98>    H       -4.36041        -5.08517         2.99810
| 99>    H       -3.63661        -6.11604         4.23466
|100>    H       -4.48251        -6.83924         2.86501
|101>    H       -2.89370        -8.78663         0.99255
|102>    H       -6.44290        -9.01889        -1.39404
|103>    H       -6.52017        -6.57299        -1.57159
|104>    H       -3.96980       -10.84362         0.77226
|105>    H       -5.85612       -11.08024        -1.63164
|106>    H       -5.19743       -21.70271        -1.19735
|107>    H       -5.44775       -20.82708        -2.72137
|108>    H       -7.62715       -21.50872        -0.68512
|109>    H       -7.37002       -22.32754        -2.22906
|110>    H       -7.88305       -20.63638        -2.20041
|111>    H       -5.60356       -20.06474         4.54924
|112>    H       -5.22315       -16.28454         3.76164
|113>    H       -5.20372       -14.77525         5.86102
|114>    H       -5.27516       -13.89890         8.01035
|115>    H       -5.41826       -13.48454        10.54639
|116>    H       -5.69110       -14.84657        12.81476
|117>    H       -5.82561       -16.67663        12.69847
|118> *
|119>
|120>                          ****END OF INPUT****

CARTESIAN COORDINATES (ANGSTROEM)
---------------------------------
  C     -5.836250    0.144950    1.252990
  O     -6.624180   -0.755960    1.075720
  C     -6.163540    1.483360    1.798320
  C     -4.998920    2.263050    1.892230
  C     -5.079390    3.555940    2.391780
  C     -6.316210    4.044790    2.782450
  C     -7.455030    3.256370    2.676680
  C     -7.399080    1.959570    2.185260
  Br    -9.128320    3.972120    3.222490
  C     -3.870340    1.476570    1.406550
  C     -2.594430    1.942260    1.230460
  C     -2.180190    3.251250    1.556050
  N     -1.782920    4.298010    1.808370
  C     -1.525680    1.204590    0.676940
  N     -0.610190    0.682370    0.221170
  C     -4.362660    0.149860    1.068610
  C     -3.569210   -0.936230    0.849410
  C     -3.937090   -2.259220    0.439750
  C     -3.116120   -3.324280    0.862750
  C     -3.437960   -4.610720    0.517240
  C     -4.582820   -4.866610   -0.265280
  C     -5.359080   -3.819260   -0.745020
  C     -5.033820   -2.526760   -0.393790
  C     -4.746500   -6.296020   -0.388720
  C     -3.713980   -6.926550    0.327180
  C     -2.742770   -5.903700    0.876750
  C     -1.422130   -6.074070    0.086950
  C     -0.357050   -5.015590    0.340510
  C     -2.523990   -6.052500    2.388570
  C     -3.833180   -6.021390    3.169140
  C     -3.675480   -8.294560    0.431790
  C     -4.664380   -9.071130   -0.192650
  C     -5.673440   -8.427440   -0.922790
  C     -5.725050   -7.052840   -1.020930
  C     -4.617220  -10.505790   -0.023870
  C     -5.275950  -11.404750   -0.779140
  C     -5.267240  -12.833950   -0.618070
  C     -4.813890  -13.552230    0.479290
  F     -4.299520  -12.912720    1.549010
  C     -4.860510  -14.950580    0.577640
  F     -4.335990  -15.474970    1.697930
  C     -5.373760  -15.775070   -0.416280
  C     -5.818590  -15.079510   -1.575100
  C     -5.783300  -13.646400   -1.664440
  N     -6.266000  -13.211620   -2.826290
  S     -6.715170  -14.475250   -3.714160
  N     -6.322680  -15.635710   -2.671050
  C     -5.464750  -17.196640   -0.345620
  S     -5.636110  -18.127490   -1.813560
  C     -5.640630  -19.649630   -0.972790
  C     -5.801420  -20.940250   -1.695530
  C     -7.267190  -21.382030   -1.703320
  C     -5.562740  -19.432950    0.366790
  C     -5.458750  -18.049560    0.751420
  N     -5.437530  -17.832150    2.075300
  C     -5.494370  -18.927240    2.764380
  S     -5.589020  -20.436020    1.779240
  C     -5.517450  -19.059200    4.163790
  C     -5.455530  -18.014940    5.048170
  C     -5.317130  -16.627710    4.774150
  C     -5.303500  -15.845480    5.881830
  C     -5.433190  -16.560160    7.102780
  S     -5.556620  -18.280460    6.778310
  C     -5.470950  -16.046210    8.375380
  C     -5.387430  -14.672330    8.748930
  C     -5.462050  -14.451930   10.078260
  C     -5.611430  -15.641170   10.869580
  S     -5.646040  -17.051350    9.797380
  C     -5.715030  -15.730260   12.201690
  H     -4.207820    4.182150    2.488030
  H     -6.396760    5.047090    3.174280
  H     -8.279030    1.340460    2.103610
  H     -2.511190   -0.814390    1.054810
  H     -2.268750   -3.109950    1.497100
  H     -6.213030   -4.012970   -1.375800
  H     -5.617610   -1.708440   -0.779960
  H     -1.667300   -6.075340   -0.978540
  H     -1.015470   -7.057890    0.331660
  H     -0.697710   -4.035030    0.019520
  H      0.536470   -5.263060   -0.228490
  H     -0.083130   -4.969970    1.391160
  H     -1.880740   -5.244410    2.739010
  H     -2.009300   -6.996530    2.578650
  H     -4.360410   -5.085170    2.998100
  H     -3.636610   -6.116040    4.234660
  H     -4.482510   -6.839240    2.865010
  H     -2.893700   -8.786630    0.992550
  H     -6.442900   -9.018890   -1.394040
  H     -6.520170   -6.572990   -1.571590
  H     -3.969800  -10.843620    0.772260
  H     -5.856120  -11.080240   -1.631640
  H     -5.197430  -21.702710   -1.197350
  H     -5.447750  -20.827080   -2.721370
  H     -7.627150  -21.508720   -0.685120
  H     -7.370020  -22.327540   -2.229060
  H     -7.883050  -20.636380   -2.200410
  H     -5.603560  -20.064740    4.549240
  H     -5.223150  -16.284540    3.761640
  H     -5.203720  -14.775250    5.861020
  H     -5.275160  -13.898900    8.010350
  H     -5.418260  -13.484540   10.546390
  H     -5.691100  -14.846570   12.814760
  H     -5.825610  -16.676630   12.698470

 Total Charge           Charge          ....    0
 Multiplicity           Mult            ....    1
 Number of Electrons    NEL             ....  540
 Basis Dimension        Dim             .... 1174

ORBITAL ENERGIES
----------------

  NO   OCC          E(Eh)            E(eV)
   0   2.0000    -482.872812    -13139.6372
   1   2.0000     -89.022079     -2422.4139
   2   2.0000     -88.947218     -2420.3769
   3   2.0000     -88.944320     -2420.2980
   4   2.0000     -88.944234     -2420.2956
   5   2.0000     -88.942055     -2420.2364
   6   2.0000     -62.550512     -1702.0860
   7   2.0000     -56.384349     -1534.2961
   8   2.0000     -56.381827     -1534.2275
   9   2.0000     -56.381816     -1534.2272
  10   2.0000     -24.794903      -674.7036
  11   2.0000     -24.786294      -674.4693
  12   2.0000     -19.219981      -523.0023
  13   2.0000     -14.438266      -392.8852
  14   2.0000     -14.437562      -392.8660
  15   2.0000     -14.416690      -392.2981
  16   2.0000     -14.416092      -392.2818
  17   2.0000     -14.393753      -391.6739
  18   2.0000     -10.372898      -282.2609
  19   2.0000     -10.372136      -282.2402
  20   2.0000     -10.369408      -282.1659
  21   2.0000     -10.345789      -281.5232
  22   2.0000     -10.344605      -281.4910
  23   2.0000     -10.342707      -281.4394
  24   2.0000     -10.335156      -281.2339
  25   2.0000     -10.326591      -281.0008
  26   2.0000     -10.325686      -280.9762
  27   2.0000     -10.319437      -280.8061
  28   2.0000     -10.318826      -280.7895
  29   2.0000     -10.318283      -280.7748
  30   2.0000     -10.317580      -280.7556
  31   2.0000     -10.314080      -280.6604
  32   2.0000     -10.312028      -280.6046
  33   2.0000     -10.310794      -280.5710
  34   2.0000     -10.310131      -280.5529
  35   2.0000     -10.307233      -280.4741
  36   2.0000     -10.304711      -280.4054
  37   2.0000     -10.304260      -280.3932
  38   2.0000     -10.303159      -280.3632
  39   2.0000     -10.301357      -280.3142
  40   2.0000     -10.299467      -280.2627
  41   2.0000     -10.298549      -280.2378
  42   2.0000     -10.297626      -280.2127
  43   2.0000     -10.295468      -280.1539
  44   2.0000     -10.294353      -280.1236
  45   2.0000     -10.293224      -280.0929
  46   2.0000     -10.291401      -280.0433
  47   2.0000     -10.288776      -279.9718
  48   2.0000     -10.287960      -279.9496
  49   2.0000     -10.284947      -279.8676
  50   2.0000     -10.284179      -279.8467
  51   2.0000     -10.283271      -279.8220
  52   2.0000     -10.282621      -279.8044
  53   2.0000     -10.280526      -279.7473
  54   2.0000     -10.280270      -279.7404
  55   2.0000     -10.277144      -279.6553
  56   2.0000     -10.276930      -279.6495
  57   2.0000     -10.276197      -279.6295
  58   2.0000     -10.276074      -279.6262
  59   2.0000     -10.275612      -279.6136
  60   2.0000     -10.275329      -279.6059
  61   2.0000     -10.274944      -279.5954
  62   2.0000     -10.273830      -279.5651
  63   2.0000     -10.273530      -279.5570
  64   2.0000     -10.272420      -279.5268
  65   2.0000     -10.271560      -279.5034
  66   2.0000     -10.271040      -279.4892
  67   2.0000     -10.270815      -279.4831
  68   2.0000     -10.266036      -279.3531
  69   2.0000     -10.265738      -279.3449
  70   2.0000     -10.256542      -279.0947
  71   2.0000     -10.252165      -278.9756
  72   2.0000     -10.249473      -278.9024
  73   2.0000      -8.779789      -238.9102
  74   2.0000      -8.113942      -220.7916
  75   2.0000      -8.041441      -218.8187
  76   2.0000      -8.041006      -218.8069
  77   2.0000      -8.040849      -218.8026
  78   2.0000      -8.037864      -218.7214
  79   2.0000      -6.615613      -180.0200
  80   2.0000      -6.601911      -179.6471
  81   2.0000      -6.601473      -179.6352
  82   2.0000      -6.085257      -165.5883
  83   2.0000      -6.077559      -165.3788
  84   2.0000      -6.076039      -165.3374
  85   2.0000      -6.010961      -163.5666
  86   2.0000      -6.010810      -163.5625
  87   2.0000      -6.010597      -163.5567
  88   2.0000      -6.007331      -163.4678
  89   2.0000      -6.006912      -163.4564
  90   2.0000      -6.006632      -163.4488
  91   2.0000      -6.006511      -163.4455
  92   2.0000      -6.003725      -163.3697
  93   2.0000      -6.003478      -163.3629
  94   2.0000      -6.001610      -163.3121
  95   2.0000      -6.001540      -163.3102
  96   2.0000      -5.999001      -163.2411
  97   2.0000      -2.731576       -74.3300
  98   2.0000      -2.727789       -74.2269
  99   2.0000      -2.727459       -74.2179
 100   2.0000      -2.716572       -73.9217
 101   2.0000      -2.716557       -73.9213
 102   2.0000      -1.314499       -35.7693
 103   2.0000      -1.294148       -35.2156
 104   2.0000      -1.135899       -30.9094
 105   2.0000      -1.124855       -30.6089
 106   2.0000      -1.054238       -28.6873
 107   2.0000      -1.020865       -27.7792
 108   2.0000      -1.002387       -27.2763
 109   2.0000      -0.995195       -27.0806
 110   2.0000      -0.995008       -27.0755
 111   2.0000      -0.993109       -27.0239
 112   2.0000      -0.985401       -26.8141
 113   2.0000      -0.974622       -26.5208
 114   2.0000      -0.971050       -26.4236
 115   2.0000      -0.966334       -26.2953
 116   2.0000      -0.957245       -26.0480
 117   2.0000      -0.951431       -25.8898
 118   2.0000      -0.926321       -25.2065
 119   2.0000      -0.911350       -24.7991
 120   2.0000      -0.902470       -24.5575
 121   2.0000      -0.900826       -24.5127
 122   2.0000      -0.893991       -24.3267
 123   2.0000      -0.888285       -24.1715
 124   2.0000      -0.879996       -23.9459
 125   2.0000      -0.866886       -23.5892
 126   2.0000      -0.862477       -23.4692
 127   2.0000      -0.861034       -23.4299
 128   2.0000      -0.856851       -23.3161
 129   2.0000      -0.853300       -23.2195
 130   2.0000      -0.847124       -23.0514
 131   2.0000      -0.840043       -22.8587
 132   2.0000      -0.839438       -22.8423
 133   2.0000      -0.837537       -22.7905
 134   2.0000      -0.833087       -22.6695
 135   2.0000      -0.826726       -22.4964
 136   2.0000      -0.809624       -22.0310
 137   2.0000      -0.808199       -21.9922
 138   2.0000      -0.785046       -21.3622
 139   2.0000      -0.775476       -21.1018
 140   2.0000      -0.769762       -20.9463
 141   2.0000      -0.768082       -20.9006
 142   2.0000      -0.764510       -20.8034
 143   2.0000      -0.749594       -20.3975
 144   2.0000      -0.729878       -19.8610
 145   2.0000      -0.727613       -19.7994
 146   2.0000      -0.718401       -19.5487
 147   2.0000      -0.712891       -19.3988
 148   2.0000      -0.711471       -19.3601
 149   2.0000      -0.702499       -19.1160
 150   2.0000      -0.697332       -18.9754
 151   2.0000      -0.691951       -18.8289
 152   2.0000      -0.688923       -18.7465
 153   2.0000      -0.684244       -18.6192
 154   2.0000      -0.681489       -18.5443
 155   2.0000      -0.674344       -18.3498
 156   2.0000      -0.670835       -18.2543
 157   2.0000      -0.664780       -18.0896
 158   2.0000      -0.655061       -17.8251
 159   2.0000      -0.647292       -17.6137
 160   2.0000      -0.640590       -17.4313
 161   2.0000      -0.634472       -17.2649
 162   2.0000      -0.629518       -17.1301
 163   2.0000      -0.626711       -17.0537
 164   2.0000      -0.618842       -16.8395
 165   2.0000      -0.617867       -16.8130
 166   2.0000      -0.613756       -16.7012
 167   2.0000      -0.612502       -16.6670
 168   2.0000      -0.605468       -16.4756
 169   2.0000      -0.598509       -16.2863
 170   2.0000      -0.595641       -16.2082
 171   2.0000      -0.586490       -15.9592
 172   2.0000      -0.585776       -15.9398
 173   2.0000      -0.580413       -15.7938
 174   2.0000      -0.574715       -15.6388
 175   2.0000      -0.569808       -15.5053
 176   2.0000      -0.563884       -15.3441
 177   2.0000      -0.557671       -15.1750
 178   2.0000      -0.553324       -15.0567
 179   2.0000      -0.548043       -14.9130
 180   2.0000      -0.545561       -14.8455
 181   2.0000      -0.543871       -14.7995
 182   2.0000      -0.543187       -14.7809
 183   2.0000      -0.540902       -14.7187
 184   2.0000      -0.538612       -14.6564
 185   2.0000      -0.537578       -14.6283
 186   2.0000      -0.535065       -14.5599
 187   2.0000      -0.533921       -14.5287
 188   2.0000      -0.533000       -14.5037
 189   2.0000      -0.527927       -14.3656
 190   2.0000      -0.525300       -14.2941
 191   2.0000      -0.523447       -14.2437
 192   2.0000      -0.522457       -14.2168
 193   2.0000      -0.519747       -14.1430
 194   2.0000      -0.515075       -14.0159
 195   2.0000      -0.514400       -13.9975
 196   2.0000      -0.511363       -13.9149
 197   2.0000      -0.509423       -13.8621
 198   2.0000      -0.506803       -13.7908
 199   2.0000      -0.504114       -13.7176
 200   2.0000      -0.499997       -13.6056
 201   2.0000      -0.496893       -13.5211
 202   2.0000      -0.496442       -13.5089
 203   2.0000      -0.493374       -13.4254
 204   2.0000      -0.492149       -13.3921
 205   2.0000      -0.489219       -13.3123
 206   2.0000      -0.485040       -13.1986
 207   2.0000      -0.481412       -13.0999
 208   2.0000      -0.476141       -12.9565
 209   2.0000      -0.475717       -12.9449
 210   2.0000      -0.471685       -12.8352
 211   2.0000      -0.471415       -12.8278
 212   2.0000      -0.467436       -12.7196
 213   2.0000      -0.466425       -12.6921
 214   2.0000      -0.463306       -12.6072
 215   2.0000      -0.460204       -12.5228
 216   2.0000      -0.457847       -12.4586
 217   2.0000      -0.456998       -12.4356
 218   2.0000      -0.454616       -12.3707
 219   2.0000      -0.452437       -12.3114
 220   2.0000      -0.450117       -12.2483
 221   2.0000      -0.449044       -12.2191
 222   2.0000      -0.446197       -12.1416
 223   2.0000      -0.444075       -12.0839
 224   2.0000      -0.443216       -12.0605
 225   2.0000      -0.439234       -11.9522
 226   2.0000      -0.438353       -11.9282
 227   2.0000      -0.435264       -11.8441
 228   2.0000      -0.432929       -11.7806
 229   2.0000      -0.431680       -11.7466
 230   2.0000      -0.428517       -11.6605
 231   2.0000      -0.428020       -11.6470
 232   2.0000      -0.425812       -11.5869
 233   2.0000      -0.425126       -11.5683
 234   2.0000      -0.423809       -11.5324
 235   2.0000      -0.422863       -11.5067
 236   2.0000      -0.419147       -11.4056
 237   2.0000      -0.417664       -11.3652
 238   2.0000      -0.414000       -11.2655
 239   2.0000      -0.409795       -11.1511
 240   2.0000      -0.409787       -11.1509
 241   2.0000      -0.406647       -11.0654
 242   2.0000      -0.402626       -10.9560
 243   2.0000      -0.402433       -10.9507
 244   2.0000      -0.392958       -10.6929
 245   2.0000      -0.391998       -10.6668
 246   2.0000      -0.389465       -10.5979
 247   2.0000      -0.384450       -10.4614
 248   2.0000      -0.384224       -10.4553
 249   2.0000      -0.378874       -10.3097
 250   2.0000      -0.367405        -9.9976
 251   2.0000      -0.365456        -9.9446
 252   2.0000      -0.359992        -9.7959
 253   2.0000      -0.354667        -9.6510
 254   2.0000      -0.351552        -9.5662
 255   2.0000      -0.344434        -9.3725
 256   2.0000      -0.341145        -9.2830
 257   2.0000      -0.337145        -9.1742
 258   2.0000      -0.331988        -9.0339
 259   2.0000      -0.329576        -8.9682
 260   2.0000      -0.324118        -8.8197
 261   2.0000      -0.323958        -8.8153
 262   2.0000      -0.321906        -8.7595
 263   2.0000      -0.316621        -8.6157
 264   2.0000      -0.310781        -8.4568
 265   2.0000      -0.299282        -8.1439
 266   2.0000      -0.287276        -7.8172
 267   2.0000      -0.269186        -7.3249
 268   2.0000      -0.240652        -6.5485
 269   2.0000      -0.222419        -6.0523
 270   0.0000      -0.089106        -2.4247
 271   0.0000      -0.079824        -2.1721
 272   0.0000      -0.065507        -1.7825
 273   0.0000      -0.059668        -1.6237
 274   0.0000      -0.019959        -0.5431

MULLIKEN ATOMIC CHARGES
-----------------------
   0 C :    0.143445
   1 O :   -0.136165
   2 C :   -0.028382
   3 C :    0.037711
   4 C :   -0.030477
   5 C :    0.052900
   6 C :   -0.003652
   7 C :   -0.013236
   8 Br:   -0.019752
   9 C :    0.290975
  10 C :   -0.344575
  11 C :   -0.185639
  12 N :    0.154733
  13 C :   -0.205091
  14 N :    0.165600
  15 C :   -0.074195
  16 C :   -0.033504
  17 C :    0.076456
  18 C :   -0.096279
  19 C :    0.019129
  20 C :    0.120643
  21 C :   -0.068372
  22 C :    0.071051
  23 C :    0.096214
  24 C :    0.019736
  25 C :   -0.130877
  26 C :    0.081712
  27 C :    0.029834
  28 C :    0.050835
  29 C :    0.025234
  30 C :   -0.106051
  31 C :    0.121327
  32 C :   -0.011360
  33 C :   -0.037400
  34 C :   -0.005597
  35 C :   -0.015956
  36 C :    0.017270
  37 C :    0.163799
  38 F :   -0.178873
  39 C :    0.133591
  40 F :   -0.159480
  41 C :    0.095204
  42 C :   -0.012463
  43 C :    0.003170
  44 N :   -0.284858
  45 S :    0.507991
  46 N :   -0.298017
  47 C :   -0.261402
  48 S :    0.171051
  49 C :   -0.316827
  50 C :    0.087631
  51 C :    0.022638
  52 C :    0.018074
  53 C :    0.126892
  54 N :   -0.039576
  55 C :   -0.097149
  56 S :    0.063972
  57 C :    0.067129
  58 C :   -0.047308
  59 C :    0.042816
  60 C :    0.032620
  61 C :   -0.053020
  62 S :    0.092555
  63 C :   -0.059328
  64 C :    0.029404
  65 C :    0.059691
  66 C :   -0.067000
  67 S :    0.089183
  68 C :   -0.024831
  69 H :    0.009874
  70 H :    0.005086
  71 H :    0.003115
  72 H :    0.028478
  73 H :   -0.027205
  74 H :   -0.027955
  75 H :   -0.014095
  76 H :    0.006734
  77 H :   -0.003176
  78 H :    0.023194
  79 H :    0.015607
  80 H :    0.004562
  81 H :    0.006543
  82 H :   -0.001215
  83 H :    0.019853
  84 H :    0.010196
  85 H :    0.021280
  86 H :   -0.039059
  87 H :   -0.023317
  88 H :   -0.033331
  89 H :   -0.007868
  90 H :   -0.001402
  91 H :    0.019287
  92 H :    0.006006
  93 H :    0.019106
  94 H :    0.017052
  95 H :    0.013800
  96 H :   -0.016152
  97 H :    0.001479
  98 H :   -0.009033
  99 H :   -0.005540
 100 H :   -0.007861
 101 H :    0.024197
 102 H :    0.026236
Sum of atomic charges:   -0.0000000

LOEWDIN ATOMIC CHARGES
----------------------
   0 C :    0.082489
   1 O :   -0.128749
   2 C :   -0.037028
   3 C :   -0.017040
   4 C :    0.008023
   5 C :   -0.013331
   6 C :   -0.097750
   7 C :   -0.000651
   8 Br:    0.115128
   9 C :    0.075896
  10 C :   -0.137635
  11 C :   -0.018569
  12 N :   -0.051035
  13 C :   -0.025240
  14 N :   -0.048253
  15 C :   -0.101766
  16 C :    0.087546
  17 C :   -0.048034
  18 C :    0.001234
  19 C :   -0.003563
  20 C :    0.012296
  21 C :   -0.023367
  22 C :    0.028650
  23 C :   -0.025323
  24 C :    0.010848
  25 C :   -0.034895
  26 C :   -0.008520
  27 C :   -0.058435
  28 C :   -0.016035
  29 C :   -0.056691
  30 C :   -0.020870
  31 C :   -0.016218
  32 C :   -0.013251
  33 C :   -0.010228
  34 C :   -0.008154
  35 C :   -0.017798
  36 C :   -0.066059
  37 C :    0.075066
  38 F :   -0.050039
  39 C :    0.061619
  40 F :   -0.035536
  41 C :   -0.059346
  42 C :   -0.051525
  43 C :   -0.043856
  44 N :   -0.286891
  45 S :    0.635902
  46 N :   -0.296013
  47 C :   -0.205350
  48 S :    0.473300
  49 C :   -0.191361
  50 C :   -0.043275
  51 C :   -0.048646
  52 C :   -0.220750
  53 C :   -0.044274
  54 N :   -0.106540
  55 C :   -0.083810
  56 S :    0.337268
  57 C :   -0.114414
  58 C :   -0.105465
  59 C :   -0.030450
  60 C :   -0.014446
  61 C :   -0.184589
  62 S :    0.374286
  63 C :   -0.164161
  64 C :   -0.025689
  65 C :   -0.023243
  66 C :   -0.140173
  67 S :    0.358946
  68 C :   -0.065948
  69 H :    0.043077
  70 H :    0.040331
  71 H :    0.043811
  72 H :    0.045487
  73 H :    0.028184
  74 H :    0.030179
  75 H :    0.031454
  76 H :    0.027287
  77 H :    0.020633
  78 H :    0.025277
  79 H :    0.029526
  80 H :    0.020182
  81 H :    0.020021
  82 H :    0.020835
  83 H :    0.025300
  84 H :    0.024232
  85 H :    0.025402
  86 H :    0.024783
  87 H :    0.028239
  88 H :    0.028253
  89 H :    0.025342
  90 H :    0.032853
  91 H :    0.034179
  92 H :    0.028966
  93 H :    0.024489
  94 H :    0.023962
  95 H :    0.024670
  96 H :    0.029166
  97 H :    0.033276
  98 H :    0.033821
  99 H :    0.034422
 100 H :    0.035211
 101 H :    0.030564
 102 H :    0.028368

  Mayer bond orders larger than 0.100000
B(  0-C ,  1-O ) :   2.2334 B(  0-C ,  2-C ) :   0.9400 B(  0-C , 15-C ) :   0.9395
B(  2-C ,  3-C ) :   1.3329 B(  2-C ,  7-C ) :   1.3801 B(  3-C ,  4-C ) :   1.3564
B(  3-C ,  9-C ) :   0.9977 B(  4-C ,  5-C ) :   1.3864 B(  4-C , 69-H ) :   0.9846
B(  5-C ,  6-C ) :   1.3873 B(  5-C , 70-H ) :   0.9837 B(  6-C ,  7-C ) :   1.3372
B(  6-C ,  8-Br) :   0.9931 B(  7-C , 71-H ) :   1.0075 B(  9-C , 10-C ) :   1.6492
B(  9-C , 15-C ) :   1.0592 B( 10-C , 11-C ) :   1.1392 B( 10-C , 13-C ) :   1.1398
B( 11-C , 12-N ) :   2.9788 B( 13-C , 14-N ) :   2.9944 B( 15-C , 16-C ) :   1.5950
B( 16-C , 17-C ) :   1.1070 B( 16-C , 72-H ) :   0.9533 B( 17-C , 18-C ) :   1.2428
B( 17-C , 22-C ) :   1.3425 B( 18-C , 19-C ) :   1.4077 B( 18-C , 73-H ) :   1.0068
B( 19-C , 20-C ) :   1.3619 B( 19-C , 25-C ) :   0.9162 B( 20-C , 21-C ) :   1.3246
B( 20-C , 23-C ) :   1.0078 B( 21-C , 22-C ) :   1.4047 B( 21-C , 74-H ) :   0.9936
B( 22-C , 75-H ) :   0.9767 B( 23-C , 24-C ) :   1.3734 B( 23-C , 33-C ) :   1.3238
B( 24-C , 25-C ) :   0.9267 B( 24-C , 30-C ) :   1.3777 B( 25-C , 26-C ) :   1.0105
B( 25-C , 28-C ) :   1.0356 B( 26-C , 27-C ) :   1.1139 B( 26-C , 76-H ) :   0.9383
B( 26-C , 77-H ) :   0.9369 B( 27-C , 78-H ) :   0.9611 B( 27-C , 79-H ) :   0.9593
B( 27-C , 80-H ) :   0.9634 B( 28-C , 29-C ) :   1.1030 B( 28-C , 81-H ) :   0.9383
B( 28-C , 82-H ) :   0.9383 B( 29-C , 83-H ) :   0.9653 B( 29-C , 84-H ) :   0.9649
B( 29-C , 85-H ) :   0.9631 B( 30-C , 31-C ) :   1.2896 B( 30-C , 86-H ) :   1.0116
B( 31-C , 32-C ) :   1.3457 B( 31-C , 34-C ) :   1.0552 B( 32-C , 33-C ) :   1.4029
B( 32-C , 87-H ) :   0.9848 B( 33-C , 88-H ) :   0.9902 B( 34-C , 35-C ) :   1.6635
B( 34-C , 89-H ) :   0.9830 B( 35-C , 36-C ) :   1.1420 B( 35-C , 90-H ) :   0.9672
B( 36-C , 37-C ) :   1.3641 B( 36-C , 41-C ) :   0.1208 B( 36-C , 43-C ) :   1.1494
B( 37-C , 38-F ) :   1.1178 B( 37-C , 39-C ) :   1.1561 B( 39-C , 40-F ) :   1.1459
B( 39-C , 41-C ) :   1.3698 B( 41-C , 42-C ) :   1.1578 B( 41-C , 47-C ) :   1.1303
B( 42-C , 43-C ) :   1.1465 B( 42-C , 46-N ) :   1.5328 B( 43-C , 44-N ) :   1.5604
B( 44-N , 45-S ) :   1.2561 B( 44-N , 46-N ) :   0.1465 B( 45-S , 46-N ) :   1.2487
B( 47-C , 48-S ) :   1.1316 B( 47-C , 49-C ) :   0.1117 B( 47-C , 53-C ) :   1.4163
B( 48-S , 49-C ) :   1.1301 B( 49-C , 50-C ) :   1.0652 B( 49-C , 52-C ) :   1.5952
B( 50-C , 51-C ) :   1.0996 B( 50-C , 91-H ) :   0.9328 B( 50-C , 92-H ) :   0.9201
B( 51-C , 93-H ) :   0.9732 B( 51-C , 94-H ) :   0.9690 B( 51-C , 95-H ) :   0.9674
B( 52-C , 53-C ) :   1.1979 B( 52-C , 56-S ) :   1.0157 B( 53-C , 54-N ) :   1.3589
B( 54-N , 55-C ) :   1.6812 B( 55-C , 56-S ) :   1.0112 B( 55-C , 57-C ) :   1.1695
B( 57-C , 58-C ) :   1.5685 B( 57-C , 96-H ) :   0.9364 B( 58-C , 59-C ) :   1.1670
B( 58-C , 62-S ) :   1.0546 B( 59-C , 60-C ) :   1.5943 B( 59-C , 97-H ) :   0.9775
B( 60-C , 61-C ) :   1.1607 B( 60-C , 98-H ) :   0.9946 B( 61-C , 62-S ) :   1.0339
B( 61-C , 63-C ) :   1.5580 B( 63-C , 64-C ) :   1.1466 B( 63-C , 67-S ) :   1.0531
B( 64-C , 65-C ) :   1.6690 B( 64-C , 99-H ) :   0.9917 B( 65-C , 66-C ) :   1.0749
B( 65-C ,100-H ) :   0.9935 B( 66-C , 67-S ) :   1.0060 B( 66-C , 68-C ) :   1.8675
B( 68-C ,101-H ) :   0.9515 B( 68-C ,102-H ) :   0.9421

-----------------------------------------------------------------------------
         ABSORPTION SPECTRUM VIA TRANSITION ELECTRIC DIPOLE MOMENTS
-----------------------------------------------------------------------------
State   Energy  Wavelength   fosc         T2         TX        TY        TZ
        (cm-1)    (nm)                  (au**2)     (au)      (au)      (au)
-----------------------------------------------------------------------------
   0   16123.2    620.2   0.987417116  20.16161  -0.25028  -2.31722   3.83790
   1   20565.1    486.3   2.231615047  35.72437   0.36575   5.10040   3.09459
   2   20940.0    477.6   0.082160741   1.29171  -0.05726  -0.72147  -0.87630
   3   21955.8    455.5   0.120857446   1.81217   0.20784   0.22725  -1.31047
   4   23481.2    425.9   0.103624382   1.45284   0.18156   1.01896  -0.61773
   5   24621.9    406.1   0.194539159   2.60113  -0.08893  -1.13205  -1.14529
   6   26141.7    382.5   0.060147617   0.75746   0.29491  -0.78246  -0.24133
   7   26964.1    370.9   0.019222711   0.23470  -0.17909  -0.44375  -0.07554
   8   28234.2    354.2   0.042325647   0.49352  -0.09541   0.69475   0.04174
   9   28567.1    350.1   0.018392189   0.21195  -0.23875  -0.39361  -0.00510
  10   28927.5    345.7   0.019204379   0.21856  -0.06146  -0.44587   0.12641
  11   30286.6    330.2   0.160279362   1.74222  -0.19017   1.29676   0.15639
  12   31168.5    320.8   0.221519573   2.33976   0.08262   1.50967   0.23199
  13   31400.5    318.5   0.203602189   2.13462  -1.36550   0.03763   0.51828
  14   31754.1    314.9   0.168628851   1.74826   0.07244  -1.31882  -0.06115
  15   32268.1    309.9   0.054479113   0.55582   0.17936   0.65848   0.30008
  16   32553.7    307.2   0.012315938   0.12455   0.09972   0.30779   0.14097
  17   32925.9    303.7   0.058115015   0.58107  -0.32701  -0.65945   0.19814
  18   33321.4    300.1   0.000911924   0.00901  -0.01558  -0.01019   0.09308
  19   33583.3    297.8   0.047259206   0.46327   0.35375  -0.52341  -0.25334
  20   33810.9    295.8   0.142406032   1.38659  -0.99918   0.62280  -0.01894
  21   34360.2    291.0   0.063963726   0.61285   0.14185  -0.59137  -0.49296
  22   34900.1    286.5   0.042200007   0.39807   0.28181   0.52244   0.21380
  23   35227.1    283.9   0.016795923   0.15696   0.19225  -0.20071  -0.28235
  24   35442.0    282.2   0.422064582   3.92045   1.91175  -0.15788  -0.49067
  25   35599.9    280.9   0.145898249   1.34920   0.59484   0.94250  -0.32719
  26   36275.9    275.7   0.173791758   1.57720   1.04615  -0.16341   0.67532
  27   36635.0    273.0   0.169142939   1.51996  -0.19480   0.83421   0.88663
  28   37404.9    267.3   0.041788013   0.36779   0.25426  -0.21914   0.50509
  29   37608.0    265.9   0.042514538   0.37216   0.17863  -0.20705   0.54533
  30   38077.8    262.6   0.018028916   0.15587   0.02625  -0.05157  -0.39054
  31   38777.9    257.9   0.003863917   0.03280  -0.12713   0.05680  -0.11582
  32   39035.9    256.2   0.053060740   0.44749  -0.63575  -0.19376  -0.07595
  33   39132.1    255.5   0.005256900   0.04423   0.15963   0.12617  -0.05316
  34   39406.3    253.8   0.111670069   0.93292   0.17105  -0.88345  -0.35097
  35   39571.3    252.7   0.026278128   0.21862   0.37755   0.27468   0.02504
  36   39898.2    250.6   0.007481208   0.06173   0.18300   0.10219  -0.13342
  37   40170.3    248.9   0.079921333   0.65499  -0.80861  -0.00304   0.03362

FINAL SINGLE POINT ENERGY     -7225.872069931230

DIPOLE MOMENT
-------------
                                X             Y             Z
Electronic contribution:    -59.79310     117.50905       6.89235
Nuclear contribution   :     58.48082    -118.90643      -6.09816
                        -----------------------------------------
Total Dipole Moment    :     -1.31228      -1.39738       0.79420
                        -----------------------------------------
Magnitude (a.u.)       :      2.07496
Magnitude (Debye)      :      5.27414

Rotational constants in cm-1:     0.001066     0.000213     0.000192
Rotational constants in MHz :    31.953816     6.386863     5.744577

                             ****ORCA TERMINATED NORMALLY****
TOTAL RUN TIME: 0 days 0 hours 9 minutes 16 seconds 850 msec
