                         Program Version 4.2.0 -  RELEASE  -
|  1> # ORCA input file
|  2> # SCF done       -168.965615303498          0.000725511330
|  3> ! CAM-B3LYP def2-SVP def2/J RIJCOSX Grid4 TightSCF
|  4> %maxcore 5000
|  5> %tddft
|  6>     Mode sTDDFT
|  7>     Ethresh 5.0
|  8>     maxcore 5000
|  9> end
| 10>
| 11> %pal
| 12>   nprocs 6
| 13>   end
| 14> * xyz 0 1
| 15>    C       -3.64923        -4.17599        -6.32765
| 16>    S       -3.60860        -3.72178        -4.68665
| 17>    C       -2.43901        -4.94747        -4.28648
| 18>    C       -2.11385        -5.69824        -5.42743
| 19>    C       -2.81319        -5.23729        -6.59395
| 20>    C       -2.60497        -5.87606        -7.85102
| 21>    C       -3.28916        -5.40111        -8.98899
| 22>    N       -3.84686        -5.00723        -9.91053
| 23>    C       -1.74238        -6.94662        -7.93341
| 24>    C       -1.07542        -7.41277        -6.79619
| 25>    C       -1.24524        -6.81312        -5.55982
| 26>    C       -0.54142        -7.37330        -4.47153
| 27>    N        0.04513        -7.88016        -3.62479
| 28>    C       -1.93223        -5.09427        -2.97686
| 29>    C       -2.33241        -4.34160        -1.91620
| 30>    C       -1.88554        -4.42689        -0.57163
| 31>    C       -1.29398        -5.52065         0.04456
| 32>    O       -0.75088        -5.44043         1.30802
| 33>    C       -0.92264        -4.25816         1.96114
| 34>    C       -1.63320        -3.17340         1.37181
| 35>    C       -1.72597        -2.09695         2.19270
| 36>    S       -0.94167        -2.39320         3.69778
| 37>    C       -0.48642        -3.98349         3.21567
| 38>    O       -2.12558        -3.24654         0.10553
| 39>    C       -1.24591        -6.81853        -0.52020
| 40>    C       -0.49048        -7.83011        -0.00128
| 41>    C       -0.44107        -9.13630        -0.53202
| 42>    C       -1.25751        -9.69551        -1.48802
| 43>    C       -0.92926       -11.08353        -1.61350
| 44>    C       -1.53003       -11.95456        -2.53052
| 45>    N       -2.04188       -12.65455        -3.28359
| 46>    C        0.05355       -11.40838        -0.69800
| 47>    C        0.42866       -10.22159        -0.01735
| 48>    C        1.47490       -10.10530         0.87760
| 49>    C        2.07189       -11.21066         1.64532
| 50>    C        3.21982       -10.74454         2.22439
| 51>    C        3.38722        -9.36551         1.84613
| 52>    C        2.31494        -8.97247         1.07569
| 53>    C        4.47644        -8.57066         2.22080
| 54>    N        5.37462        -7.92660         2.53361
| 55>    C        1.41809       -12.46912         1.88369
| 56>    C        2.07387       -13.67187         1.99156
| 57>    O        1.41801       -14.85379         2.28183
| 58>    C        0.06149       -14.76161         2.35959
| 59>    C       -0.61866       -13.51819         2.20937
| 60>    C       -1.96633       -13.63847         2.29901
| 61>    S       -2.42720       -15.27472         2.57698
| 62>    C       -0.78548       -15.80045         2.56562
| 63>    O        0.05634       -12.35052         2.01640
| 64>    C        3.45058       -13.82516         1.67527
| 65>    C        4.11103       -15.00755         1.74844
| 66>    C        5.44229       -15.19878         1.29669
| 67>    S        6.44747       -16.34200         2.12019
| 68>    C        7.85191       -15.92884         1.19744
| 69>    C        7.54074       -14.95649         0.24391
| 70>    C        6.15702       -14.56184         0.27441
| 71>    C        5.65986       -13.70634        -0.74639
| 72>    C        4.28695       -13.44821        -0.96155
| 73>    N        3.20203       -13.21485        -1.25513
| 74>    C        6.53333       -13.15919        -1.66855
| 75>    C        7.89581       -13.45691        -1.63268
| 76>    C        8.40393       -14.35851        -0.71746
| 77>    C        9.78438       -14.63831        -0.80993
| 78>    N       10.91008       -14.80330        -0.96155
| 79>    C        9.10836       -16.56276         1.46225
| 80>    C        9.30040       -17.49120         2.40056
| 81>    H       -4.27738        -3.65234        -7.02047
| 82>    H       -1.58343        -7.43588        -8.88237
| 83>    H       -0.41522        -8.26288        -6.88003
| 84>    H       -1.15306        -5.82898        -2.85560
| 85>    H       -3.00989        -3.51473        -2.09374
| 86>    H       -2.20330        -1.15946         1.99919
| 87>    H        0.06884        -4.61731         3.87474
| 88>    H       -1.86090        -6.99998        -1.38396
| 89>    H        0.11819        -7.61595         0.86431
| 90>    H       -2.03376        -9.20974        -2.04746
| 91>    H        0.54926       -12.35738        -0.62170
| 92>    H        3.86498       -11.26493         2.90716
| 93>    H        2.21109        -8.01934         0.59484
| 94>    H       -2.70281       -12.86658         2.22149
| 95>    H       -0.54163       -16.83196         2.70957
| 96>    H        3.95722       -12.93728         1.33540
| 97>    H        3.63479       -15.84853         2.23308
| 98>    H        6.14938       -12.50717        -2.43851
| 99>    H        8.55970       -13.00481        -2.35411
|100>    H        9.93504       -16.24672         0.84382
|101>    H        8.49892       -17.83057         3.03682
|102>    H       10.26568       -17.93749         2.55500
|103> *
|104>
|105>                          ****END OF INPUT****

CARTESIAN COORDINATES (ANGSTROEM)
---------------------------------
  C     -3.649230   -4.175990   -6.327650
  S     -3.608600   -3.721780   -4.686650
  C     -2.439010   -4.947470   -4.286480
  C     -2.113850   -5.698240   -5.427430
  C     -2.813190   -5.237290   -6.593950
  C     -2.604970   -5.876060   -7.851020
  C     -3.289160   -5.401110   -8.988990
  N     -3.846860   -5.007230   -9.910530
  C     -1.742380   -6.946620   -7.933410
  C     -1.075420   -7.412770   -6.796190
  C     -1.245240   -6.813120   -5.559820
  C     -0.541420   -7.373300   -4.471530
  N      0.045130   -7.880160   -3.624790
  C     -1.932230   -5.094270   -2.976860
  C     -2.332410   -4.341600   -1.916200
  C     -1.885540   -4.426890   -0.571630
  C     -1.293980   -5.520650    0.044560
  O     -0.750880   -5.440430    1.308020
  C     -0.922640   -4.258160    1.961140
  C     -1.633200   -3.173400    1.371810
  C     -1.725970   -2.096950    2.192700
  S     -0.941670   -2.393200    3.697780
  C     -0.486420   -3.983490    3.215670
  O     -2.125580   -3.246540    0.105530
  C     -1.245910   -6.818530   -0.520200
  C     -0.490480   -7.830110   -0.001280
  C     -0.441070   -9.136300   -0.532020
  C     -1.257510   -9.695510   -1.488020
  C     -0.929260  -11.083530   -1.613500
  C     -1.530030  -11.954560   -2.530520
  N     -2.041880  -12.654550   -3.283590
  C      0.053550  -11.408380   -0.698000
  C      0.428660  -10.221590   -0.017350
  C      1.474900  -10.105300    0.877600
  C      2.071890  -11.210660    1.645320
  C      3.219820  -10.744540    2.224390
  C      3.387220   -9.365510    1.846130
  C      2.314940   -8.972470    1.075690
  C      4.476440   -8.570660    2.220800
  N      5.374620   -7.926600    2.533610
  C      1.418090  -12.469120    1.883690
  C      2.073870  -13.671870    1.991560
  O      1.418010  -14.853790    2.281830
  C      0.061490  -14.761610    2.359590
  C     -0.618660  -13.518190    2.209370
  C     -1.966330  -13.638470    2.299010
  S     -2.427200  -15.274720    2.576980
  C     -0.785480  -15.800450    2.565620
  O      0.056340  -12.350520    2.016400
  C      3.450580  -13.825160    1.675270
  C      4.111030  -15.007550    1.748440
  C      5.442290  -15.198780    1.296690
  S      6.447470  -16.342000    2.120190
  C      7.851910  -15.928840    1.197440
  C      7.540740  -14.956490    0.243910
  C      6.157020  -14.561840    0.274410
  C      5.659860  -13.706340   -0.746390
  C      4.286950  -13.448210   -0.961550
  N      3.202030  -13.214850   -1.255130
  C      6.533330  -13.159190   -1.668550
  C      7.895810  -13.456910   -1.632680
  C      8.403930  -14.358510   -0.717460
  C      9.784380  -14.638310   -0.809930
  N     10.910080  -14.803300   -0.961550
  C      9.108360  -16.562760    1.462250
  C      9.300400  -17.491200    2.400560
  H     -4.277380   -3.652340   -7.020470
  H     -1.583430   -7.435880   -8.882370
  H     -0.415220   -8.262880   -6.880030
  H     -1.153060   -5.828980   -2.855600
  H     -3.009890   -3.514730   -2.093740
  H     -2.203300   -1.159460    1.999190
  H      0.068840   -4.617310    3.874740
  H     -1.860900   -6.999980   -1.383960
  H      0.118190   -7.615950    0.864310
  H     -2.033760   -9.209740   -2.047460
  H      0.549260  -12.357380   -0.621700
  H      3.864980  -11.264930    2.907160
  H      2.211090   -8.019340    0.594840
  H     -2.702810  -12.866580    2.221490
  H     -0.541630  -16.831960    2.709570
  H      3.957220  -12.937280    1.335400
  H      3.634790  -15.848530    2.233080
  H      6.149380  -12.507170   -2.438510
  H      8.559700  -13.004810   -2.354110
  H      9.935040  -16.246720    0.843820
  H      8.498920  -17.830570    3.036820
  H     10.265680  -17.937490    2.555000

 Total Charge           Charge          ....    0
 Multiplicity           Mult            ....    1
 Number of Electrons    NEL             ....  472
 Basis Dimension        Dim             .... 1050

ORBITAL ENERGIES
----------------

  NO   OCC          E(Eh)            E(eV)
   0   2.0000     -88.991952     -2421.5941
   1   2.0000     -88.979330     -2421.2507
   2   2.0000     -88.960632     -2420.7419
   3   2.0000     -88.959436     -2420.7093
   4   2.0000     -19.282324      -524.6987
   5   2.0000     -19.280391      -524.6461
   6   2.0000     -19.279183      -524.6132
   7   2.0000     -19.276871      -524.5503
   8   2.0000     -14.428618      -392.6227
   9   2.0000     -14.421056      -392.4169
  10   2.0000     -14.417803      -392.3284
  11   2.0000     -14.416843      -392.3022
  12   2.0000     -14.409726      -392.1086
  13   2.0000     -14.407234      -392.0408
  14   2.0000     -10.357695      -281.8472
  15   2.0000     -10.355550      -281.7888
  16   2.0000     -10.354989      -281.7736
  17   2.0000     -10.349342      -281.6199
  18   2.0000     -10.344198      -281.4799
  19   2.0000     -10.343825      -281.4698
  20   2.0000     -10.343003      -281.4474
  21   2.0000     -10.342719      -281.4397
  22   2.0000     -10.341574      -281.4085
  23   2.0000     -10.338242      -281.3179
  24   2.0000     -10.334614      -281.2191
  25   2.0000     -10.333622      -281.1921
  26   2.0000     -10.330802      -281.1154
  27   2.0000     -10.328196      -281.0445
  28   2.0000     -10.323022      -280.9037
  29   2.0000     -10.321612      -280.8653
  30   2.0000     -10.320173      -280.8262
  31   2.0000     -10.319626      -280.8113
  32   2.0000     -10.319538      -280.8089
  33   2.0000     -10.318923      -280.7922
  34   2.0000     -10.318854      -280.7903
  35   2.0000     -10.318644      -280.7846
  36   2.0000     -10.318454      -280.7794
  37   2.0000     -10.317336      -280.7490
  38   2.0000     -10.317126      -280.7433
  39   2.0000     -10.316538      -280.7273
  40   2.0000     -10.316218      -280.7186
  41   2.0000     -10.316180      -280.7175
  42   2.0000     -10.311963      -280.6028
  43   2.0000     -10.311530      -280.5910
  44   2.0000     -10.310277      -280.5569
  45   2.0000     -10.309662      -280.5402
  46   2.0000     -10.308743      -280.5152
  47   2.0000     -10.305418      -280.4247
  48   2.0000     -10.301915      -280.3294
  49   2.0000     -10.301734      -280.3244
  50   2.0000     -10.300447      -280.2894
  51   2.0000     -10.299274      -280.2575
  52   2.0000     -10.298416      -280.2341
  53   2.0000     -10.297418      -280.2070
  54   2.0000     -10.297346      -280.2050
  55   2.0000     -10.297133      -280.1992
  56   2.0000     -10.295625      -280.1582
  57   2.0000     -10.292250      -280.0663
  58   2.0000     -10.290308      -280.0135
  59   2.0000     -10.289921      -280.0030
  60   2.0000     -10.288608      -279.9672
  61   2.0000     -10.286724      -279.9160
  62   2.0000     -10.286686      -279.9149
  63   2.0000     -10.286149      -279.9004
  64   2.0000     -10.285700      -279.8881
  65   2.0000     -10.273679      -279.5610
  66   2.0000      -8.087071      -220.0604
  67   2.0000      -8.074837      -219.7275
  68   2.0000      -8.056404      -219.2259
  69   2.0000      -8.055271      -219.1951
  70   2.0000      -6.055901      -164.7894
  71   2.0000      -6.051664      -164.6742
  72   2.0000      -6.050286      -164.6366
  73   2.0000      -6.043684      -164.4570
  74   2.0000      -6.039587      -164.3455
  75   2.0000      -6.037780      -164.2963
  76   2.0000      -6.025916      -163.9735
  77   2.0000      -6.024778      -163.9425
  78   2.0000      -6.021720      -163.8593
  79   2.0000      -6.020585      -163.8285
  80   2.0000      -6.018109      -163.7611
  81   2.0000      -6.016945      -163.7294
  82   2.0000      -1.207444       -32.8562
  83   2.0000      -1.207053       -32.8456
  84   2.0000      -1.170163       -31.8418
  85   2.0000      -1.169890       -31.8343
  86   2.0000      -1.032155       -28.0864
  87   2.0000      -1.025069       -27.8936
  88   2.0000      -1.012797       -27.5596
  89   2.0000      -1.012158       -27.5422
  90   2.0000      -1.004193       -27.3255
  91   2.0000      -1.003270       -27.3004
  92   2.0000      -0.998585       -27.1729
  93   2.0000      -0.998459       -27.1695
  94   2.0000      -0.990600       -26.9556
  95   2.0000      -0.989923       -26.9372
  96   2.0000      -0.984820       -26.7983
  97   2.0000      -0.974951       -26.5298
  98   2.0000      -0.968118       -26.3438
  99   2.0000      -0.961730       -26.1700
 100   2.0000      -0.935580       -25.4584
 101   2.0000      -0.930027       -25.3073
 102   2.0000      -0.918935       -25.0055
 103   2.0000      -0.912796       -24.8384
 104   2.0000      -0.901928       -24.5427
 105   2.0000      -0.887966       -24.1628
 106   2.0000      -0.879442       -23.9308
 107   2.0000      -0.873938       -23.7811
 108   2.0000      -0.868132       -23.6231
 109   2.0000      -0.863010       -23.4837
 110   2.0000      -0.856687       -23.3116
 111   2.0000      -0.847822       -23.0704
 112   2.0000      -0.839392       -22.8410
 113   2.0000      -0.826913       -22.5014
 114   2.0000      -0.821632       -22.3577
 115   2.0000      -0.814368       -22.1601
 116   2.0000      -0.810802       -22.0630
 117   2.0000      -0.799644       -21.7594
 118   2.0000      -0.794585       -21.6217
 119   2.0000      -0.793260       -21.5857
 120   2.0000      -0.786764       -21.4089
 121   2.0000      -0.781648       -21.2697
 122   2.0000      -0.759512       -20.6674
 123   2.0000      -0.753870       -20.5138
 124   2.0000      -0.727929       -19.8080
 125   2.0000      -0.723982       -19.7005
 126   2.0000      -0.717223       -19.5166
 127   2.0000      -0.714559       -19.4441
 128   2.0000      -0.712365       -19.3844
 129   2.0000      -0.704340       -19.1661
 130   2.0000      -0.697298       -18.9744
 131   2.0000      -0.692150       -18.8344
 132   2.0000      -0.690176       -18.7807
 133   2.0000      -0.681188       -18.5361
 134   2.0000      -0.679111       -18.4795
 135   2.0000      -0.672833       -18.3087
 136   2.0000      -0.664063       -18.0701
 137   2.0000      -0.657858       -17.9012
 138   2.0000      -0.655743       -17.8437
 139   2.0000      -0.646083       -17.5808
 140   2.0000      -0.635301       -17.2874
 141   2.0000      -0.633558       -17.2400
 142   2.0000      -0.620719       -16.8906
 143   2.0000      -0.616159       -16.7665
 144   2.0000      -0.608101       -16.5473
 145   2.0000      -0.604294       -16.4437
 146   2.0000      -0.598949       -16.2982
 147   2.0000      -0.594471       -16.1764
 148   2.0000      -0.592427       -16.1208
 149   2.0000      -0.586329       -15.9548
 150   2.0000      -0.586120       -15.9491
 151   2.0000      -0.576897       -15.6982
 152   2.0000      -0.572400       -15.5758
 153   2.0000      -0.571923       -15.5628
 154   2.0000      -0.568932       -15.4814
 155   2.0000      -0.567781       -15.4501
 156   2.0000      -0.548751       -14.9323
 157   2.0000      -0.547698       -14.9036
 158   2.0000      -0.545228       -14.8364
 159   2.0000      -0.543365       -14.7857
 160   2.0000      -0.538342       -14.6490
 161   2.0000      -0.533942       -14.5293
 162   2.0000      -0.529983       -14.4216
 163   2.0000      -0.529524       -14.4091
 164   2.0000      -0.527420       -14.3518
 165   2.0000      -0.524582       -14.2746
 166   2.0000      -0.518789       -14.1170
 167   2.0000      -0.516800       -14.0628
 168   2.0000      -0.513683       -13.9780
 169   2.0000      -0.511379       -13.9153
 170   2.0000      -0.508572       -13.8390
 171   2.0000      -0.507646       -13.8137
 172   2.0000      -0.505473       -13.7546
 173   2.0000      -0.504340       -13.7238
 174   2.0000      -0.500677       -13.6241
 175   2.0000      -0.498971       -13.5777
 176   2.0000      -0.495858       -13.4930
 177   2.0000      -0.493113       -13.4183
 178   2.0000      -0.488907       -13.3038
 179   2.0000      -0.488149       -13.2832
 180   2.0000      -0.485502       -13.2112
 181   2.0000      -0.483235       -13.1495
 182   2.0000      -0.482426       -13.1275
 183   2.0000      -0.482106       -13.1188
 184   2.0000      -0.479246       -13.0410
 185   2.0000      -0.477898       -13.0043
 186   2.0000      -0.476463       -12.9652
 187   2.0000      -0.475389       -12.9360
 188   2.0000      -0.471343       -12.8259
 189   2.0000      -0.467151       -12.7118
 190   2.0000      -0.466313       -12.6890
 191   2.0000      -0.461516       -12.5585
 192   2.0000      -0.458797       -12.4845
 193   2.0000      -0.456707       -12.4276
 194   2.0000      -0.456455       -12.4208
 195   2.0000      -0.450502       -12.2588
 196   2.0000      -0.449080       -12.2201
 197   2.0000      -0.447124       -12.1669
 198   2.0000      -0.446030       -12.1371
 199   2.0000      -0.442974       -12.0539
 200   2.0000      -0.438591       -11.9347
 201   2.0000      -0.437558       -11.9066
 202   2.0000      -0.437097       -11.8940
 203   2.0000      -0.435551       -11.8519
 204   2.0000      -0.434841       -11.8326
 205   2.0000      -0.433743       -11.8028
 206   2.0000      -0.430136       -11.7046
 207   2.0000      -0.425118       -11.5680
 208   2.0000      -0.424256       -11.5446
 209   2.0000      -0.422339       -11.4924
 210   2.0000      -0.420814       -11.4509
 211   2.0000      -0.417915       -11.3720
 212   2.0000      -0.415933       -11.3181
 213   2.0000      -0.414415       -11.2768
 214   2.0000      -0.409684       -11.1481
 215   2.0000      -0.407353       -11.0846
 216   2.0000      -0.405863       -11.0441
 217   2.0000      -0.404442       -11.0054
 218   2.0000      -0.403404       -10.9772
 219   2.0000      -0.387746       -10.5511
 220   2.0000      -0.375009       -10.2045
 221   2.0000      -0.365293        -9.9401
 222   2.0000      -0.347670        -9.4606
 223   2.0000      -0.346584        -9.4310
 224   2.0000      -0.341801        -9.3009
 225   2.0000      -0.337534        -9.1848
 226   2.0000      -0.335359        -9.1256
 227   2.0000      -0.321689        -8.7536
 228   2.0000      -0.311502        -8.4764
 229   2.0000      -0.308395        -8.3919
 230   2.0000      -0.302942        -8.2435
 231   2.0000      -0.286797        -7.8041
 232   2.0000      -0.284337        -7.7372
 233   2.0000      -0.275640        -7.5005
 234   2.0000      -0.239737        -6.5236
 235   2.0000      -0.234706        -6.3867
 236   0.0000      -0.127200        -3.4613
 237   0.0000      -0.090772        -2.4700
 238   0.0000      -0.084466        -2.2984
 239   0.0000      -0.052327        -1.4239
 240   0.0000      -0.036148        -0.9836

MULLIKEN ATOMIC CHARGES
-----------------------
   0 C :   -0.122300
   1 S :    0.180637
   2 C :   -0.160155
   3 C :    0.170126
   4 C :    0.089734
   5 C :   -0.051181
   6 C :   -0.189432
   7 N :    0.131040
   8 C :    0.020887
   9 C :    0.017761
  10 C :   -0.091429
  11 C :   -0.179602
  12 N :    0.115725
  13 C :   -0.026931
  14 C :   -0.018861
  15 C :    0.167126
  16 C :    0.160483
  17 O :   -0.253907
  18 C :    0.213714
  19 C :    0.216447
  20 C :   -0.169257
  21 S :    0.114803
  22 C :   -0.171274
  23 O :   -0.248159
  24 C :   -0.061365
  25 C :   -0.019505
  26 C :    0.115347
  27 C :   -0.006784
  28 C :   -0.106840
  29 C :   -0.126378
  30 N :    0.136912
  31 C :    0.000275
  32 C :    0.066814
  33 C :    0.059933
  34 C :    0.023862
  35 C :   -0.021165
  36 C :   -0.116952
  37 C :   -0.023291
  38 C :   -0.134841
  39 N :    0.138177
  40 C :    0.119225
  41 C :    0.166304
  42 O :   -0.259067
  43 C :    0.222627
  44 C :    0.219867
  45 C :   -0.167653
  46 S :    0.115745
  47 C :   -0.172725
  48 O :   -0.245521
  49 C :   -0.072472
  50 C :    0.034927
  51 C :   -0.156504
  52 S :    0.177634
  53 C :   -0.161598
  54 C :    0.147366
  55 C :    0.167901
  56 C :   -0.092503
  57 C :   -0.202939
  58 N :    0.125988
  59 C :    0.010541
  60 C :    0.021052
  61 C :   -0.087953
  62 C :   -0.173816
  63 N :    0.107267
  64 C :    0.004351
  65 C :   -0.025735
  66 H :    0.043525
  67 H :    0.005636
  68 H :    0.010709
  69 H :    0.024856
  70 H :    0.010582
  71 H :    0.025231
  72 H :    0.028512
  73 H :    0.001218
  74 H :    0.000771
  75 H :   -0.015127
  76 H :    0.011502
  77 H :    0.003821
  78 H :    0.009251
  79 H :    0.028532
  80 H :    0.026377
  81 H :    0.031950
  82 H :    0.006728
  83 H :    0.007480
  84 H :    0.007658
  85 H :    0.013145
  86 H :    0.022187
  87 H :    0.032951
Sum of atomic charges:   -0.0000000

LOEWDIN ATOMIC CHARGES
----------------------
   0 C :   -0.183485
   1 S :    0.514880
   2 C :   -0.171069
   3 C :   -0.033539
   4 C :   -0.039223
   5 C :   -0.043885
   6 C :   -0.027429
   7 N :   -0.041780
   8 C :    0.011359
   9 C :    0.013926
  10 C :   -0.050408
  11 C :   -0.021085
  12 N :   -0.046570
  13 C :   -0.042346
  14 C :   -0.029863
  15 C :    0.020323
  16 C :    0.033825
  17 O :   -0.050673
  18 C :   -0.009338
  19 C :   -0.009695
  20 C :   -0.209544
  21 S :    0.441239
  22 C :   -0.208007
  23 O :   -0.055571
  24 C :   -0.027294
  25 C :   -0.009162
  26 C :   -0.025280
  27 C :    0.013578
  28 C :   -0.041540
  29 C :   -0.025531
  30 N :   -0.045703
  31 C :    0.003839
  32 C :    0.068938
  33 C :    0.031407
  34 C :   -0.035753
  35 C :    0.009363
  36 C :   -0.062951
  37 C :    0.005656
  38 C :   -0.032293
  39 N :   -0.047901
  40 C :    0.029308
  41 C :    0.025034
  42 O :   -0.056514
  43 C :   -0.006205
  44 C :   -0.011922
  45 C :   -0.204406
  46 S :    0.443015
  47 C :   -0.209214
  48 O :   -0.042666
  49 C :   -0.014794
  50 C :   -0.055700
  51 C :   -0.165128
  52 S :    0.507198
  53 C :   -0.174767
  54 C :   -0.032976
  55 C :   -0.039171
  56 C :   -0.047837
  57 C :   -0.017291
  58 N :   -0.057887
  59 C :    0.009440
  60 C :    0.013008
  61 C :   -0.045211
  62 C :   -0.024383
  63 N :   -0.049957
  64 C :   -0.044373
  65 C :   -0.039409
  66 H :    0.035115
  67 H :    0.046041
  68 H :    0.046755
  69 H :    0.040315
  70 H :    0.030681
  71 H :    0.029570
  72 H :    0.030703
  73 H :    0.033764
  74 H :    0.030687
  75 H :    0.027155
  76 H :    0.036142
  77 H :    0.035123
  78 H :    0.037825
  79 H :    0.031050
  80 H :    0.029771
  81 H :    0.036295
  82 H :    0.033585
  83 H :    0.045477
  84 H :    0.045910
  85 H :    0.042724
  86 H :    0.015662
  87 H :    0.031041

  Mayer bond orders larger than 0.100000
B(  0-C ,  1-S ) :   1.1979 B(  0-C ,  2-C ) :   0.1012 B(  0-C ,  4-C ) :   1.4587
B(  0-C , 66-H ) :   0.9487 B(  1-S ,  2-C ) :   1.1637 B(  2-C ,  3-C ) :   1.3429
B(  2-C , 13-C ) :   1.1928 B(  3-C ,  4-C ) :   1.1766 B(  3-C , 10-C ) :   1.2111
B(  4-C ,  5-C ) :   1.1850 B(  5-C ,  6-C ) :   1.0784 B(  5-C ,  8-C ) :   1.5410
B(  6-C ,  7-N ) :   3.0384 B(  8-C ,  9-C ) :   1.1887 B(  8-C , 67-H ) :   0.9966
B(  9-C , 10-C ) :   1.5360 B(  9-C , 68-H ) :   0.9925 B( 10-C , 11-C ) :   1.0896
B( 11-C , 12-N ) :   2.9570 B( 13-C , 14-C ) :   1.6177 B( 13-C , 69-H ) :   0.9491
B( 14-C , 15-C ) :   1.1652 B( 14-C , 70-H ) :   0.9521 B( 15-C , 16-C ) :   1.4369
B( 15-C , 23-O ) :   1.0549 B( 16-C , 17-O ) :   1.0705 B( 16-C , 24-C ) :   1.1947
B( 17-O , 18-C ) :   1.0475 B( 18-C , 19-C ) :   1.2034 B( 18-C , 22-C ) :   1.5731
B( 19-C , 20-C ) :   1.5722 B( 19-C , 23-O ) :   1.0527 B( 20-C , 21-S ) :   1.1448
B( 20-C , 71-H ) :   0.9714 B( 21-S , 22-C ) :   1.1445 B( 22-C , 72-H ) :   0.9727
B( 24-C , 25-C ) :   1.6108 B( 24-C , 73-H ) :   0.9599 B( 25-C , 26-C ) :   1.1059
B( 25-C , 74-H ) :   0.9712 B( 26-C , 27-C ) :   1.5681 B( 26-C , 32-C ) :   1.0389
B( 27-C , 28-C ) :   1.1155 B( 27-C , 75-H ) :   1.0063 B( 28-C , 29-C ) :   1.0596
B( 28-C , 31-C ) :   1.5897 B( 29-C , 30-N ) :   3.0360 B( 31-C , 32-C ) :   1.1210
B( 31-C , 76-H ) :   1.0030 B( 32-C , 33-C ) :   1.4396 B( 33-C , 34-C ) :   1.0749
B( 33-C , 37-C ) :   1.1020 B( 34-C , 35-C ) :   1.6201 B( 34-C , 40-C ) :   1.0190
B( 35-C , 36-C ) :   1.1085 B( 35-C , 77-H ) :   1.0168 B( 36-C , 37-C ) :   1.6058
B( 36-C , 38-C ) :   1.0598 B( 37-C , 78-H ) :   1.0143 B( 38-C , 39-N ) :   3.0383
B( 40-C , 41-C ) :   1.5019 B( 40-C , 48-O ) :   1.0876 B( 41-C , 42-O ) :   1.0699
B( 41-C , 49-C ) :   1.2133 B( 42-O , 43-C ) :   1.0498 B( 43-C , 44-C ) :   1.2035
B( 43-C , 47-C ) :   1.5737 B( 44-C , 45-C ) :   1.5742 B( 44-C , 48-O ) :   1.0314
B( 45-C , 46-S ) :   1.1461 B( 45-C , 79-H ) :   0.9717 B( 46-S , 47-C ) :   1.1423
B( 47-C , 80-H ) :   0.9722 B( 49-C , 50-C ) :   1.6542 B( 49-C , 81-H ) :   0.9301
B( 50-C , 51-C ) :   1.0917 B( 50-C , 82-H ) :   0.9540 B( 51-C , 52-S ) :   1.1697
B( 51-C , 53-C ) :   0.1033 B( 51-C , 55-C ) :   1.3695 B( 52-S , 53-C ) :   1.1413
B( 53-C , 54-C ) :   1.3867 B( 53-C , 64-C ) :   1.1282 B( 54-C , 55-C ) :   1.1700
B( 54-C , 61-C ) :   1.1926 B( 55-C , 56-C ) :   1.2005 B( 56-C , 57-C ) :   1.0855
B( 56-C , 59-C ) :   1.5379 B( 57-C , 58-N ) :   3.0130 B( 59-C , 60-C ) :   1.1955
B( 59-C , 83-H ) :   0.9943 B( 60-C , 61-C ) :   1.5446 B( 60-C , 84-H ) :   0.9932
B( 61-C , 62-C ) :   1.0858 B( 62-C , 63-N ) :   2.9714 B( 64-C , 65-C ) :   1.9083
B( 64-C , 85-H ) :   0.9482 B( 65-C , 86-H ) :   0.9568 B( 65-C , 87-H ) :   0.9475

-----------------------------------------------------------------------------
         ABSORPTION SPECTRUM VIA TRANSITION ELECTRIC DIPOLE MOMENTS
-----------------------------------------------------------------------------
State   Energy  Wavelength   fosc         T2         TX        TY        TZ
        (cm-1)    (nm)                  (au**2)     (au)      (au)      (au)
-----------------------------------------------------------------------------
   0    6579.6   1519.9   0.131948014   6.60206   1.35452  -1.99308   0.89161
   1    7243.8   1380.5   0.006898976   0.31354   0.35574  -0.42622   0.07295
   2   15369.1    650.7   0.334740454   7.17028  -1.04940   0.98742  -2.25700
   3   16480.9    606.8   0.013296711   0.26561   0.01363  -0.47953   0.18834
   4   16662.1    600.2   0.269235814   5.31959   2.09360  -0.88648  -0.38806
   5   17078.4    585.5   0.042064683   0.81086  -0.77604   0.41997   0.17957
   6   19230.6    520.0   0.011624593   0.19900   0.11476  -0.23525   0.36123
   7   21029.2    475.5   0.060881966   0.95310  -0.08226  -0.20691  -0.95054
   8   22129.2    451.9   0.189039286   2.81230  -0.71202   1.14421  -0.99806
   9   22819.9    438.2   0.019159438   0.27640  -0.26139   0.28590  -0.35544
  10   23069.2    433.5   0.012203593   0.17415   0.16406   0.38366   0.00670
  11   23130.9    432.3   0.009824595   0.13983   0.24135  -0.27010   0.09288
  12   24604.2    406.4   0.071767004   0.96026   0.80138  -0.55706  -0.08799
  13   25674.3    389.5   0.046737040   0.59929  -0.40730  -0.45230  -0.47835
  14   26004.2    384.6   0.145465007   1.84158  -1.05640   0.66934   0.52687
  15   26208.1    381.6   0.624461859   7.84416  -2.30989   0.78987  -1.37283
  16   27217.4    367.4   0.120847241   1.46172  -0.79834   0.52730   0.73914
  17   28060.5    356.4   0.175010221   2.05326  -0.32058  -1.26678  -0.58802
  18   28751.9    347.8   0.023523125   0.26934   0.31284   0.00172   0.41409
  19   29599.1    337.8   0.053077221   0.59034   0.51815  -0.41453   0.38734
  20   29796.7    335.6   0.019163937   0.21173  -0.34173   0.20949   0.22598
  21   31240.9    320.1   0.006676480   0.07036   0.07700  -0.14048  -0.21140
  22   31624.9    316.2   0.001727793   0.01799   0.00415   0.05246  -0.12336
  23   32070.6    311.8   0.036441509   0.37408  -0.10847   0.14003   0.58541
  24   32463.6    308.0   0.042896584   0.43501  -0.03941  -0.39906  -0.52365
  25   33168.0    301.5   0.002263075   0.02246   0.10410   0.10766  -0.00586
  26   33273.7    300.5   0.029575556   0.29262  -0.46991  -0.21789  -0.15600
  27   33585.2    297.8   0.163492180   1.60260   0.25629  -0.71923  -1.00976
  28   33832.1    295.6   0.002529627   0.02462   0.05286   0.11798  -0.08889
  29   33855.2    295.4   0.056760044   0.55194  -0.57128  -0.47315  -0.04125
  30   33944.2    294.6   0.003092695   0.02999  -0.08056   0.12186  -0.09303
  31   34021.2    293.9   0.005647068   0.05464  -0.21797   0.00265   0.08443
  32   34897.6    286.6   0.191236784   1.80406  -0.29054  -0.98127  -0.86992
  33   35043.1    285.4   0.228074296   2.14264   0.88721   0.70793   0.92430
  34   35283.4    283.4   0.030839736   0.28775  -0.21992  -0.41565  -0.25811
  35   35448.7    282.1   0.011180049   0.10383  -0.30299   0.07828  -0.07680
  36   36160.5    276.5   0.000884376   0.00805   0.00400   0.07669   0.04641
  37   36625.2    273.0   0.549665374   4.94077  -0.01927  -1.50549  -1.63520
  38   37032.5    270.0   0.002080293   0.01849   0.02467   0.02253   0.13182
  39   37177.9    269.0   0.064168726   0.56822  -0.19602   0.61447   0.39016
  40   37295.6    268.1   0.011176633   0.09866   0.27421  -0.13431  -0.07366
  41   37602.1    265.9   0.104274353   0.91294   0.14775  -0.26903   0.90484
  42   37713.7    265.2   0.011884984   0.10375  -0.06460  -0.15063  -0.27728
  43   38001.5    263.1   0.048464701   0.41986   0.23678  -0.14875   0.58452
  44   38240.7    261.5   0.019858424   0.17096   0.01908  -0.37447  -0.17427
  45   38515.9    259.6   0.022560717   0.19284  -0.19927   0.18760  -0.34341
  46   38625.6    258.9   0.002548374   0.02172   0.03751  -0.10002  -0.10153
  47   39170.1    255.3   0.006238463   0.05243   0.06917   0.16543  -0.14242
  48   39305.7    254.4   0.006984780   0.05850  -0.08525  -0.08374  -0.21029
  49   39410.7    253.7   0.045846555   0.38297   0.36808  -0.12329   0.48197
  50   39636.1    252.3   0.220817001   1.83407   0.84724   0.83049  -0.65310
  51   40070.4    249.6   0.024448338   0.20086  -0.31144   0.04007   0.31979
  52   40315.3    248.0   0.084472026   0.68979   0.34052   0.08345   0.75291

FINAL SINGLE POINT ENERGY     -4212.840020785798

DIPOLE MOMENT
-------------
                                X             Y             Z
Electronic contribution:    -12.98439       8.59395      -0.08263
Nuclear contribution   :     11.78377      -8.07397       1.00597
                        -----------------------------------------
Total Dipole Moment    :     -1.20062       0.51998       0.92334
                        -----------------------------------------
Magnitude (a.u.)       :      1.60138
Magnitude (Debye)      :      4.07038

Rotational constants in cm-1:     0.001302     0.000470     0.000439
Rotational constants in MHz :    39.046556    14.082417    13.148669

                             ****ORCA TERMINATED NORMALLY****
TOTAL RUN TIME: 0 days 0 hours 15 minutes 33 seconds 20 msec
