                         Program Version 4.2.0 -  RELEASE  -
|  1> # ORCA input file
|  2> # SCF done       -156.618729232071          0.000788543862
|  3> ! CAM-B3LYP def2-SVP def2/J RIJCOSX Grid4 TightSCF
|  4> %maxcore 5000
|  5> %tddft
|  6>     Mode sTDDFT
|  7>     Ethresh 5.0
|  8>     maxcore 5000
|  9> end
| 10>
| 11> %pal
| 12>   nprocs 6
| 13>   end
| 14> * xyz 0 1
| 15>    C       -1.83253        -4.71450         1.37852
| 16>    C       -0.59195        -5.19430         1.59480
| 17>    C        0.43370        -4.30642         1.15347
| 18>    C        1.82630        -4.46946         1.25916
| 19>    C        2.40070        -5.69465         1.78193
| 20>    C        2.05402        -6.98191         1.48805
| 21>    C        2.81841        -7.93933         2.18635
| 22>    C        3.74251        -7.39025         3.01935
| 23>    S        3.69535        -5.65824         2.94690
| 24>    C        4.70801        -8.07817         3.91608
| 25>    C        2.60861        -3.40084         0.83905
| 26>    C        2.07356        -2.19873         0.31132
| 27>    C        0.67901        -2.04933         0.17549
| 28>    C       -0.10222        -3.12015         0.60374
| 29>    S       -1.84767        -3.16035         0.61852
| 30>    C        0.06344        -0.85617        -0.36893
| 31>    C       -1.01845        -0.78037        -1.19990
| 32>    C       -1.39610         0.54075        -1.51283
| 33>    C       -0.61762         1.48354        -0.91781
| 34>    S        0.61980         0.74391         0.04603
| 35>    C       -0.71652         2.96372        -1.01093
| 36>    C        3.09337        -1.28930        -0.05950
| 37>    C        4.36023        -1.74986         0.16479
| 38>    S        4.34884        -3.36871         0.84065
| 39>    C        5.61285        -1.10711        -0.06021
| 40>    C        5.76329         0.22244        -0.26453
| 41>    C        7.00362         0.89362        -0.47269
| 42>    C        8.17709         0.31724        -0.83658
| 43>    C        9.38637         1.04161        -0.99059
| 44>    C       10.52940         0.49942        -1.48410
| 45>    C       11.77798         1.16795        -1.63252
| 46>    C       12.14352         2.30611        -0.98931
| 47>    C       13.39340         2.97646        -1.12859
| 48>    C       14.25712         2.83935        -2.16518
| 49>    C       15.51157         3.50670        -2.28855
| 50>    C       16.21273         4.06923        -1.27788
| 51>    C       17.45847         4.73818        -1.43757
| 52>    C       18.28215         5.18335        -0.44212
| 53>    C       19.45910         5.82041        -0.90552
| 54>    C       20.51664         6.35519        -0.14536
| 55>    C       20.57889         6.23842         1.29759
| 56>    C       20.99921         7.16812         2.20552
| 57>    C       20.99328         6.69728         3.53419
| 58>    C       20.58472         5.40553         3.65119
| 59>    S       20.17897         4.74222         2.10133
| 60>    C       20.46416         4.57602         4.87881
| 61>    C       21.53514         6.98103        -0.85897
| 62>    C       21.56372         7.06395        -2.27008
| 63>    C       20.52508         6.49836        -3.03190
| 64>    C       19.49185         5.89841        -2.31939
| 65>    S       18.10446         5.11469        -3.02551
| 66>    C       20.51219         6.51956        -4.48225
| 67>    C       19.44745         6.74567        -5.30682
| 68>    C       19.76880         6.65460        -6.67620
| 69>    C       21.07214         6.34529        -6.90865
| 70>    S       21.94132         6.16975        -5.41820
| 71>    C       21.76642         6.16812        -8.21089
| 72>    C       22.72124         7.75919        -2.73000
| 73>    C       23.53338         8.15223        -1.72905
| 74>    S       22.95077         7.72251        -0.15851
| 75>    H       -2.77077        -5.17684         1.61551
| 76>    H       -0.39209        -6.13525         2.07346
| 77>    H        1.29994        -7.23620         0.76430
| 78>    H        2.68517        -9.00070         2.07091
| 79>    H        4.62628        -9.15566         3.79411
| 80>    H        4.51114        -7.82706         4.95833
| 81>    H        5.72871        -7.77302         3.68798
| 82>    H       -1.51157        -1.64555        -1.60444
| 83>    H       -2.22008         0.78111        -2.16123
| 84>    H       -1.52036         3.23885        -1.68944
| 85>    H        0.21631         3.39093        -1.37813
| 86>    H       -0.91908         3.39890        -0.03239
| 87>    H        2.89745        -0.33276        -0.50584
| 88>    H        6.48363        -1.74548        -0.00462
| 89>    H        4.88394         0.85167        -0.22351
| 90>    H        6.98531         1.96924        -0.34455
| 91>    H        8.21210        -0.74401        -1.04315
| 92>    H        9.36720         2.08695        -0.71245
| 93>    H       10.49609        -0.52857        -1.82517
| 94>    H       12.50138         0.68071        -2.27297
| 95>    H       11.46249         2.72872        -0.26238
| 96>    H       13.63317         3.68832        -0.34945
| 97>    H       13.97162         2.21678        -3.00238
| 98>    H       15.94689         3.53360        -3.28066
| 99>    H       15.85456         4.00245        -0.25942
|100>    H       18.04373         5.05832         0.59833
|101>    H       21.27450         8.17166         1.93622
|102>    H       21.28584         7.30054         4.37540
|103>    H       20.72183         5.16834         5.75350
|104>    H       21.13187         3.71593         4.82859
|105>    H       19.44761         4.20071         4.99359
|106>    H       18.46819         7.00388        -4.94671
|107>    H       19.05198         6.81344        -7.46231
|108>    H       22.22444         5.18190        -8.27313
|109>    H       22.55622         6.90942        -8.33135
|110>    H       21.05635         6.27804        -9.02647
|111>    H       22.92470         7.95730        -3.76590
|112>    H       24.45858         8.68955        -1.80233
|113> *
|114>
|115>                          ****END OF INPUT****

CARTESIAN COORDINATES (ANGSTROEM)
---------------------------------
  C     -1.832530   -4.714500    1.378520
  C     -0.591950   -5.194300    1.594800
  C      0.433700   -4.306420    1.153470
  C      1.826300   -4.469460    1.259160
  C      2.400700   -5.694650    1.781930
  C      2.054020   -6.981910    1.488050
  C      2.818410   -7.939330    2.186350
  C      3.742510   -7.390250    3.019350
  S      3.695350   -5.658240    2.946900
  C      4.708010   -8.078170    3.916080
  C      2.608610   -3.400840    0.839050
  C      2.073560   -2.198730    0.311320
  C      0.679010   -2.049330    0.175490
  C     -0.102220   -3.120150    0.603740
  S     -1.847670   -3.160350    0.618520
  C      0.063440   -0.856170   -0.368930
  C     -1.018450   -0.780370   -1.199900
  C     -1.396100    0.540750   -1.512830
  C     -0.617620    1.483540   -0.917810
  S      0.619800    0.743910    0.046030
  C     -0.716520    2.963720   -1.010930
  C      3.093370   -1.289300   -0.059500
  C      4.360230   -1.749860    0.164790
  S      4.348840   -3.368710    0.840650
  C      5.612850   -1.107110   -0.060210
  C      5.763290    0.222440   -0.264530
  C      7.003620    0.893620   -0.472690
  C      8.177090    0.317240   -0.836580
  C      9.386370    1.041610   -0.990590
  C     10.529400    0.499420   -1.484100
  C     11.777980    1.167950   -1.632520
  C     12.143520    2.306110   -0.989310
  C     13.393400    2.976460   -1.128590
  C     14.257120    2.839350   -2.165180
  C     15.511570    3.506700   -2.288550
  C     16.212730    4.069230   -1.277880
  C     17.458470    4.738180   -1.437570
  C     18.282150    5.183350   -0.442120
  C     19.459100    5.820410   -0.905520
  C     20.516640    6.355190   -0.145360
  C     20.578890    6.238420    1.297590
  C     20.999210    7.168120    2.205520
  C     20.993280    6.697280    3.534190
  C     20.584720    5.405530    3.651190
  S     20.178970    4.742220    2.101330
  C     20.464160    4.576020    4.878810
  C     21.535140    6.981030   -0.858970
  C     21.563720    7.063950   -2.270080
  C     20.525080    6.498360   -3.031900
  C     19.491850    5.898410   -2.319390
  S     18.104460    5.114690   -3.025510
  C     20.512190    6.519560   -4.482250
  C     19.447450    6.745670   -5.306820
  C     19.768800    6.654600   -6.676200
  C     21.072140    6.345290   -6.908650
  S     21.941320    6.169750   -5.418200
  C     21.766420    6.168120   -8.210890
  C     22.721240    7.759190   -2.730000
  C     23.533380    8.152230   -1.729050
  S     22.950770    7.722510   -0.158510
  H     -2.770770   -5.176840    1.615510
  H     -0.392090   -6.135250    2.073460
  H      1.299940   -7.236200    0.764300
  H      2.685170   -9.000700    2.070910
  H      4.626280   -9.155660    3.794110
  H      4.511140   -7.827060    4.958330
  H      5.728710   -7.773020    3.687980
  H     -1.511570   -1.645550   -1.604440
  H     -2.220080    0.781110   -2.161230
  H     -1.520360    3.238850   -1.689440
  H      0.216310    3.390930   -1.378130
  H     -0.919080    3.398900   -0.032390
  H      2.897450   -0.332760   -0.505840
  H      6.483630   -1.745480   -0.004620
  H      4.883940    0.851670   -0.223510
  H      6.985310    1.969240   -0.344550
  H      8.212100   -0.744010   -1.043150
  H      9.367200    2.086950   -0.712450
  H     10.496090   -0.528570   -1.825170
  H     12.501380    0.680710   -2.272970
  H     11.462490    2.728720   -0.262380
  H     13.633170    3.688320   -0.349450
  H     13.971620    2.216780   -3.002380
  H     15.946890    3.533600   -3.280660
  H     15.854560    4.002450   -0.259420
  H     18.043730    5.058320    0.598330
  H     21.274500    8.171660    1.936220
  H     21.285840    7.300540    4.375400
  H     20.721830    5.168340    5.753500
  H     21.131870    3.715930    4.828590
  H     19.447610    4.200710    4.993590
  H     18.468190    7.003880   -4.946710
  H     19.051980    6.813440   -7.462310
  H     22.224440    5.181900   -8.273130
  H     22.556220    6.909420   -8.331350
  H     21.056350    6.278040   -9.026470
  H     22.924700    7.957300   -3.765900
  H     24.458580    8.689550   -1.802330

 Total Charge           Charge          ....    0
 Multiplicity           Mult            ....    1
 Number of Electrons    NEL             ....  478
 Basis Dimension        Dim             .... 1062

ORBITAL ENERGIES
----------------

  NO   OCC          E(Eh)            E(eV)
   0   2.0000     -88.940430     -2420.1922
   1   2.0000     -88.940238     -2420.1869
   2   2.0000     -88.939767     -2420.1741
   3   2.0000     -88.938895     -2420.1504
   4   2.0000     -88.936979     -2420.0982
   5   2.0000     -88.935848     -2420.0675
   6   2.0000     -88.934925     -2420.0423
   7   2.0000     -88.934867     -2420.0408
   8   2.0000     -10.290926      -280.0303
   9   2.0000     -10.290373      -280.0153
  10   2.0000     -10.290324      -280.0140
  11   2.0000     -10.289304      -279.9862
  12   2.0000     -10.289260      -279.9850
  13   2.0000     -10.288645      -279.9683
  14   2.0000     -10.287830      -279.9461
  15   2.0000     -10.287782      -279.9448
  16   2.0000     -10.287498      -279.9370
  17   2.0000     -10.287429      -279.9352
  18   2.0000     -10.287303      -279.9317
  19   2.0000     -10.287213      -279.9293
  20   2.0000     -10.286635      -279.9136
  21   2.0000     -10.286445      -279.9084
  22   2.0000     -10.284309      -279.8503
  23   2.0000     -10.283652      -279.8324
  24   2.0000     -10.282730      -279.8073
  25   2.0000     -10.282122      -279.7908
  26   2.0000     -10.281756      -279.7808
  27   2.0000     -10.281226      -279.7664
  28   2.0000     -10.272999      -279.5425
  29   2.0000     -10.272917      -279.5403
  30   2.0000     -10.272555      -279.5304
  31   2.0000     -10.272236      -279.5217
  32   2.0000     -10.271931      -279.5135
  33   2.0000     -10.271327      -279.4970
  34   2.0000     -10.268878      -279.4304
  35   2.0000     -10.268875      -279.4303
  36   2.0000     -10.268830      -279.4291
  37   2.0000     -10.268602      -279.4229
  38   2.0000     -10.267966      -279.4056
  39   2.0000     -10.267755      -279.3998
  40   2.0000     -10.267052      -279.3807
  41   2.0000     -10.266425      -279.3636
  42   2.0000     -10.266291      -279.3600
  43   2.0000     -10.265958      -279.3509
  44   2.0000     -10.265724      -279.3445
  45   2.0000     -10.265616      -279.3416
  46   2.0000     -10.265318      -279.3335
  47   2.0000     -10.265016      -279.3253
  48   2.0000     -10.261527      -279.2304
  49   2.0000     -10.260707      -279.2080
  50   2.0000     -10.260560      -279.2040
  51   2.0000     -10.259662      -279.1796
  52   2.0000     -10.259324      -279.1704
  53   2.0000     -10.258794      -279.1560
  54   2.0000     -10.258765      -279.1552
  55   2.0000     -10.258199      -279.1398
  56   2.0000     -10.256588      -279.0959
  57   2.0000     -10.256135      -279.0836
  58   2.0000     -10.255971      -279.0792
  59   2.0000     -10.255970      -279.0791
  60   2.0000      -8.036108      -218.6736
  61   2.0000      -8.036012      -218.6710
  62   2.0000      -8.035681      -218.6620
  63   2.0000      -8.034785      -218.6376
  64   2.0000      -8.032603      -218.5782
  65   2.0000      -8.031569      -218.5501
  66   2.0000      -8.030619      -218.5243
  67   2.0000      -8.030232      -218.5137
  68   2.0000      -6.005395      -163.4151
  69   2.0000      -6.005279      -163.4120
  70   2.0000      -6.004952      -163.4030
  71   2.0000      -6.004017      -163.3776
  72   2.0000      -6.002313      -163.3313
  73   2.0000      -6.001273      -163.3029
  74   2.0000      -6.001170      -163.3001
  75   2.0000      -6.001057      -163.2971
  76   2.0000      -6.000734      -163.2883
  77   2.0000      -6.000175      -163.2731
  78   2.0000      -5.999868      -163.2647
  79   2.0000      -5.999794      -163.2627
  80   2.0000      -5.998362      -163.2237
  81   2.0000      -5.998267      -163.2211
  82   2.0000      -5.997881      -163.2106
  83   2.0000      -5.997862      -163.2101
  84   2.0000      -5.997088      -163.1891
  85   2.0000      -5.996852      -163.1826
  86   2.0000      -5.996092      -163.1620
  87   2.0000      -5.995777      -163.1534
  88   2.0000      -5.994160      -163.1094
  89   2.0000      -5.993070      -163.0797
  90   2.0000      -5.992030      -163.0514
  91   2.0000      -5.991566      -163.0388
  92   2.0000      -0.994368       -27.0581
  93   2.0000      -0.993722       -27.0405
  94   2.0000      -0.970525       -26.4093
  95   2.0000      -0.970362       -26.4049
  96   2.0000      -0.963803       -26.2264
  97   2.0000      -0.963114       -26.2077
  98   2.0000      -0.961786       -26.1715
  99   2.0000      -0.961078       -26.1523
 100   2.0000      -0.917465       -24.9655
 101   2.0000      -0.911329       -24.7985
 102   2.0000      -0.903332       -24.5809
 103   2.0000      -0.893414       -24.3110
 104   2.0000      -0.889578       -24.2066
 105   2.0000      -0.888911       -24.1885
 106   2.0000      -0.878785       -23.9129
 107   2.0000      -0.857870       -23.3438
 108   2.0000      -0.845828       -23.0161
 109   2.0000      -0.843769       -22.9601
 110   2.0000      -0.833961       -22.6932
 111   2.0000      -0.833073       -22.6691
 112   2.0000      -0.830768       -22.6064
 113   2.0000      -0.823558       -22.4102
 114   2.0000      -0.821028       -22.3413
 115   2.0000      -0.813520       -22.1370
 116   2.0000      -0.811189       -22.0736
 117   2.0000      -0.808109       -21.9898
 118   2.0000      -0.805141       -21.9090
 119   2.0000      -0.803854       -21.8740
 120   2.0000      -0.785256       -21.3679
 121   2.0000      -0.780171       -21.2295
 122   2.0000      -0.776821       -21.1384
 123   2.0000      -0.768677       -20.9168
 124   2.0000      -0.767180       -20.8760
 125   2.0000      -0.759156       -20.6577
 126   2.0000      -0.738906       -20.1066
 127   2.0000      -0.734436       -19.9850
 128   2.0000      -0.733397       -19.9567
 129   2.0000      -0.711199       -19.3527
 130   2.0000      -0.692916       -18.8552
 131   2.0000      -0.685291       -18.6477
 132   2.0000      -0.677376       -18.4323
 133   2.0000      -0.659734       -17.9523
 134   2.0000      -0.658533       -17.9196
 135   2.0000      -0.648570       -17.6485
 136   2.0000      -0.645820       -17.5737
 137   2.0000      -0.632463       -17.2102
 138   2.0000      -0.631487       -17.1836
 139   2.0000      -0.628803       -17.1106
 140   2.0000      -0.625271       -17.0145
 141   2.0000      -0.621866       -16.9218
 142   2.0000      -0.620359       -16.8808
 143   2.0000      -0.611632       -16.6434
 144   2.0000      -0.609923       -16.5968
 145   2.0000      -0.606702       -16.5092
 146   2.0000      -0.604742       -16.4559
 147   2.0000      -0.601117       -16.3572
 148   2.0000      -0.594899       -16.1880
 149   2.0000      -0.589874       -16.0513
 150   2.0000      -0.587565       -15.9885
 151   2.0000      -0.579509       -15.7692
 152   2.0000      -0.572621       -15.5818
 153   2.0000      -0.572094       -15.5675
 154   2.0000      -0.566461       -15.4142
 155   2.0000      -0.565874       -15.3982
 156   2.0000      -0.563516       -15.3340
 157   2.0000      -0.551769       -15.0144
 158   2.0000      -0.541688       -14.7401
 159   2.0000      -0.532309       -14.4849
 160   2.0000      -0.526195       -14.3185
 161   2.0000      -0.521367       -14.1871
 162   2.0000      -0.518756       -14.1161
 163   2.0000      -0.511141       -13.9088
 164   2.0000      -0.505831       -13.7644
 165   2.0000      -0.505185       -13.7468
 166   2.0000      -0.504432       -13.7263
 167   2.0000      -0.503553       -13.7024
 168   2.0000      -0.503456       -13.6997
 169   2.0000      -0.502063       -13.6618
 170   2.0000      -0.500603       -13.6221
 171   2.0000      -0.497102       -13.5268
 172   2.0000      -0.496371       -13.5069
 173   2.0000      -0.495240       -13.4762
 174   2.0000      -0.494933       -13.4678
 175   2.0000      -0.491120       -13.3641
 176   2.0000      -0.488718       -13.2987
 177   2.0000      -0.484030       -13.1711
 178   2.0000      -0.483039       -13.1442
 179   2.0000      -0.475372       -12.9355
 180   2.0000      -0.474513       -12.9122
 181   2.0000      -0.463415       -12.6102
 182   2.0000      -0.461217       -12.5504
 183   2.0000      -0.459203       -12.4955
 184   2.0000      -0.458102       -12.4656
 185   2.0000      -0.455825       -12.4036
 186   2.0000      -0.454808       -12.3759
 187   2.0000      -0.454466       -12.3667
 188   2.0000      -0.453385       -12.3372
 189   2.0000      -0.449715       -12.2374
 190   2.0000      -0.447579       -12.1792
 191   2.0000      -0.446184       -12.1413
 192   2.0000      -0.444089       -12.0843
 193   2.0000      -0.442464       -12.0400
 194   2.0000      -0.440326       -11.9819
 195   2.0000      -0.439596       -11.9620
 196   2.0000      -0.438161       -11.9230
 197   2.0000      -0.434632       -11.8269
 198   2.0000      -0.432903       -11.7799
 199   2.0000      -0.432471       -11.7681
 200   2.0000      -0.432248       -11.7621
 201   2.0000      -0.431205       -11.7337
 202   2.0000      -0.429962       -11.6999
 203   2.0000      -0.424638       -11.5550
 204   2.0000      -0.423114       -11.5135
 205   2.0000      -0.416444       -11.3320
 206   2.0000      -0.414663       -11.2835
 207   2.0000      -0.413052       -11.2397
 208   2.0000      -0.410274       -11.1641
 209   2.0000      -0.409014       -11.1298
 210   2.0000      -0.402325       -10.9478
 211   2.0000      -0.401811       -10.9338
 212   2.0000      -0.401215       -10.9176
 213   2.0000      -0.400101       -10.8873
 214   2.0000      -0.397700       -10.8220
 215   2.0000      -0.393251       -10.7009
 216   2.0000      -0.387952       -10.5567
 217   2.0000      -0.386483       -10.5167
 218   2.0000      -0.379829       -10.3357
 219   2.0000      -0.366127        -9.9628
 220   2.0000      -0.365491        -9.9455
 221   2.0000      -0.360733        -9.8161
 222   2.0000      -0.338814        -9.2196
 223   2.0000      -0.316688        -8.6175
 224   2.0000      -0.310891        -8.4598
 225   2.0000      -0.308886        -8.4052
 226   2.0000      -0.308550        -8.3961
 227   2.0000      -0.307514        -8.3679
 228   2.0000      -0.305580        -8.3153
 229   2.0000      -0.302673        -8.2361
 230   2.0000      -0.290440        -7.9033
 231   2.0000      -0.289787        -7.8855
 232   2.0000      -0.285146        -7.7592
 233   2.0000      -0.284773        -7.7491
 234   2.0000      -0.282456        -7.6860
 235   2.0000      -0.258542        -7.0353
 236   2.0000      -0.239059        -6.5051
 237   2.0000      -0.230113        -6.2617
 238   2.0000      -0.216921        -5.9027
 239   0.0000      -0.063761        -1.7350
 240   0.0000      -0.034093        -0.9277
 241   0.0000      -0.013987        -0.3806
 242   0.0000      -0.000780        -0.0212
 243   0.0000       0.016356         0.4451

MULLIKEN ATOMIC CHARGES
-----------------------
   0 C :   -0.048678
   1 C :    0.002365
   2 C :    0.061174
   3 C :    0.136407
   4 C :   -0.221238
   5 C :    0.032524
   6 C :    0.012649
   7 C :   -0.211428
   8 S :    0.128080
   9 C :    0.120271
  10 C :   -0.149234
  11 C :    0.076743
  12 C :    0.139893
  13 C :   -0.164027
  14 S :    0.098420
  15 C :   -0.211877
  16 C :    0.027367
  17 C :    0.018774
  18 C :   -0.209376
  19 S :    0.112472
  20 C :    0.122378
  21 C :   -0.056435
  22 C :   -0.053142
  23 S :    0.113825
  24 C :    0.051850
  25 C :    0.017372
  26 C :    0.003684
  27 C :    0.023528
  28 C :    0.022264
  29 C :    0.008291
  30 C :    0.018319
  31 C :    0.012586
  32 C :    0.014419
  33 C :    0.016361
  34 C :    0.004452
  35 C :    0.014473
  36 C :   -0.006366
  37 C :   -0.069578
  38 C :    0.085610
  39 C :    0.138959
  40 C :   -0.219743
  41 C :    0.029083
  42 C :    0.021126
  43 C :   -0.215452
  44 S :    0.118745
  45 C :    0.128365
  46 C :   -0.156303
  47 C :    0.051582
  48 C :    0.137599
  49 C :   -0.136037
  50 S :    0.092198
  51 C :   -0.220077
  52 C :    0.033005
  53 C :    0.017837
  54 C :   -0.213196
  55 S :    0.117865
  56 C :    0.126487
  57 C :    0.001923
  58 C :   -0.046851
  59 S :    0.099670
  60 H :    0.021400
  61 H :   -0.015496
  62 H :   -0.014237
  63 H :   -0.027299
  64 H :    0.018179
  65 H :    0.033909
  66 H :    0.031308
  67 H :   -0.010825
  68 H :   -0.027600
  69 H :    0.018053
  70 H :    0.029233
  71 H :    0.033657
  72 H :   -0.018464
  73 H :   -0.016492
  74 H :   -0.009422
  75 H :   -0.014745
  76 H :   -0.010393
  77 H :   -0.012465
  78 H :   -0.015898
  79 H :   -0.011309
  80 H :   -0.013878
  81 H :   -0.012781
  82 H :   -0.011805
  83 H :   -0.003228
  84 H :   -0.012622
  85 H :   -0.020655
  86 H :   -0.010513
  87 H :   -0.028368
  88 H :    0.016861
  89 H :    0.034165
  90 H :    0.028653
  91 H :   -0.010277
  92 H :   -0.027392
  93 H :    0.030755
  94 H :    0.031565
  95 H :    0.017649
  96 H :   -0.012628
  97 H :    0.021449
Sum of atomic charges:    0.0000000

LOEWDIN ATOMIC CHARGES
----------------------
   0 C :   -0.166791
   1 C :   -0.063061
   2 C :   -0.041088
   3 C :   -0.056496
   4 C :   -0.179707
   5 C :   -0.057082
   6 C :   -0.079315
   7 C :   -0.174424
   8 S :    0.421166
   9 C :   -0.060329
  10 C :   -0.153470
  11 C :   -0.041066
  12 C :   -0.055182
  13 C :   -0.147747
  14 S :    0.405378
  15 C :   -0.176248
  16 C :   -0.063238
  17 C :   -0.076418
  18 C :   -0.174524
  19 S :    0.426926
  20 C :   -0.059923
  21 C :   -0.065970
  22 C :   -0.153166
  23 S :    0.393648
  24 C :   -0.036214
  25 C :   -0.019602
  26 C :   -0.034250
  27 C :   -0.013907
  28 C :   -0.016598
  29 C :   -0.031511
  30 C :   -0.024550
  31 C :   -0.024908
  32 C :   -0.023955
  33 C :   -0.024240
  34 C :   -0.033919
  35 C :   -0.030777
  36 C :   -0.150435
  37 C :   -0.062801
  38 C :   -0.044914
  39 C :   -0.053750
  40 C :   -0.176700
  41 C :   -0.063594
  42 C :   -0.076571
  43 C :   -0.174724
  44 S :    0.428875
  45 C :   -0.059663
  46 C :   -0.147828
  47 C :   -0.045035
  48 C :   -0.055764
  49 C :   -0.142153
  50 S :    0.404357
  51 C :   -0.177801
  52 C :   -0.062942
  53 C :   -0.076917
  54 C :   -0.174714
  55 S :    0.428036
  56 C :   -0.059728
  57 C :   -0.070517
  58 C :   -0.165504
  59 S :    0.407721
  60 H :    0.022912
  61 H :    0.030506
  62 H :    0.029244
  63 H :    0.025453
  64 H :    0.036839
  65 H :    0.036846
  66 H :    0.036107
  67 H :    0.022563
  68 H :    0.026036
  69 H :    0.037253
  70 H :    0.035287
  71 H :    0.036834
  72 H :    0.014230
  73 H :    0.025110
  74 H :    0.029431
  75 H :    0.027271
  76 H :    0.026024
  77 H :    0.025486
  78 H :    0.026957
  79 H :    0.026192
  80 H :    0.025573
  81 H :    0.025862
  82 H :    0.026446
  83 H :    0.023240
  84 H :    0.031639
  85 H :    0.017810
  86 H :    0.022656
  87 H :    0.025866
  88 H :    0.036977
  89 H :    0.037161
  90 H :    0.035324
  91 H :    0.023032
  92 H :    0.025980
  93 H :    0.036056
  94 H :    0.036100
  95 H :    0.037092
  96 H :    0.018941
  97 H :    0.023289

  Mayer bond orders larger than 0.100000
B(  0-C ,  1-C ) :   1.6377 B(  0-C , 14-S ) :   1.1018 B(  0-C , 60-H ) :   0.9671
B(  1-C ,  2-C ) :   1.1818 B(  1-C , 61-H ) :   0.9898 B(  2-C ,  3-C ) :   1.3401
B(  2-C , 13-C ) :   1.2746 B(  3-C ,  4-C ) :   0.9750 B(  3-C , 10-C ) :   1.3992
B(  4-C ,  5-C ) :   1.5828 B(  4-C ,  7-C ) :   0.1044 B(  4-C ,  8-S ) :   1.1321
B(  5-C ,  6-C ) :   1.2136 B(  5-C , 62-H ) :   1.0006 B(  6-C ,  7-C ) :   1.6087
B(  6-C , 63-H ) :   0.9942 B(  7-C ,  8-S ) :   1.1342 B(  7-C ,  9-C ) :   1.0653
B(  9-C , 64-H ) :   0.9575 B(  9-C , 65-H ) :   0.9524 B(  9-C , 66-H ) :   0.9516
B( 10-C , 11-C ) :   1.2705 B( 10-C , 23-S ) :   1.0638 B( 11-C , 12-C ) :   1.3037
B( 11-C , 21-C ) :   1.1890 B( 12-C , 13-C ) :   1.4241 B( 12-C , 15-C ) :   0.9835
B( 13-C , 14-S ) :   1.0675 B( 15-C , 16-C ) :   1.5821 B( 15-C , 18-C ) :   0.1023
B( 15-C , 19-S ) :   1.1232 B( 16-C , 17-C ) :   1.2211 B( 16-C , 67-H ) :   0.9886
B( 17-C , 18-C ) :   1.6092 B( 17-C , 68-H ) :   0.9948 B( 18-C , 19-S ) :   1.1318
B( 18-C , 20-C ) :   1.0662 B( 20-C , 69-H ) :   0.9570 B( 20-C , 70-H ) :   0.9518
B( 20-C , 71-H ) :   0.9519 B( 21-C , 22-C ) :   1.5814 B( 21-C , 72-H ) :   0.9726
B( 22-C , 23-S ) :   1.0590 B( 22-C , 24-C ) :   1.1001 B( 24-C , 25-C ) :   1.7194
B( 24-C , 73-H ) :   0.9557 B( 25-C , 26-C ) :   1.1248 B( 25-C , 74-H ) :   0.9697
B( 26-C , 27-C ) :   1.6619 B( 26-C , 75-H ) :   0.9726 B( 27-C , 28-C ) :   1.1577
B( 27-C , 76-H ) :   0.9762 B( 28-C , 29-C ) :   1.6580 B( 28-C , 77-H ) :   0.9763
B( 29-C , 30-C ) :   1.1335 B( 29-C , 78-H ) :   0.9713 B( 30-C , 31-C ) :   1.6990
B( 30-C , 79-H ) :   0.9638 B( 31-C , 32-C ) :   1.1448 B( 31-C , 80-H ) :   0.9643
B( 32-C , 33-C ) :   1.7020 B( 32-C , 81-H ) :   0.9643 B( 33-C , 34-C ) :   1.1373
B( 33-C , 82-H ) :   0.9652 B( 34-C , 35-C ) :   1.6758 B( 34-C , 83-H ) :   0.9666
B( 35-C , 36-C ) :   1.1517 B( 35-C , 84-H ) :   0.9734 B( 36-C , 37-C ) :   1.5450
B( 36-C , 50-S ) :   1.0493 B( 37-C , 38-C ) :   1.1600 B( 37-C , 85-H ) :   0.9865
B( 38-C , 39-C ) :   1.3058 B( 38-C , 49-C ) :   1.2674 B( 39-C , 40-C ) :   0.9871
B( 39-C , 46-C ) :   1.4247 B( 40-C , 41-C ) :   1.5821 B( 40-C , 43-C ) :   0.1028
B( 40-C , 44-S ) :   1.1246 B( 41-C , 42-C ) :   1.2200 B( 41-C , 86-H ) :   0.9891
B( 42-C , 43-C ) :   1.6099 B( 42-C , 87-H ) :   0.9940 B( 43-C , 44-S ) :   1.1338
B( 43-C , 45-C ) :   1.0656 B( 45-C , 88-H ) :   0.9566 B( 45-C , 89-H ) :   0.9514
B( 45-C , 90-H ) :   0.9511 B( 46-C , 47-C ) :   1.2801 B( 46-C , 59-S ) :   1.0694
B( 47-C , 48-C ) :   1.3093 B( 47-C , 57-C ) :   1.1809 B( 48-C , 49-C ) :   1.4316
B( 48-C , 51-C ) :   0.9792 B( 49-C , 50-S ) :   1.0565 B( 51-C , 52-C ) :   1.5850
B( 51-C , 54-C ) :   0.1025 B( 51-C , 55-S ) :   1.1261 B( 52-C , 53-C ) :   1.2205
B( 52-C , 91-H ) :   0.9888 B( 53-C , 54-C ) :   1.6103 B( 53-C , 92-H ) :   0.9945
B( 54-C , 55-S ) :   1.1326 B( 54-C , 56-C ) :   1.0657 B( 56-C , 93-H ) :   0.9516
B( 56-C , 94-H ) :   0.9513 B( 56-C , 95-H ) :   0.9568 B( 57-C , 58-C ) :   1.6482
B( 57-C , 96-H ) :   0.9774 B( 58-C , 59-S ) :   1.1054 B( 58-C , 97-H ) :   0.9660

-----------------------------------------------------------------------------
         ABSORPTION SPECTRUM VIA TRANSITION ELECTRIC DIPOLE MOMENTS
-----------------------------------------------------------------------------
State   Energy  Wavelength   fosc         T2         TX        TY        TZ
        (cm-1)    (nm)                  (au**2)     (au)      (au)      (au)
-----------------------------------------------------------------------------
   0   19481.9    513.3   2.702534524  45.66838   6.24342   2.57066  -0.28250
   1   23747.6    421.1   0.102302123   1.41821  -0.07773   0.97020   0.68621
   2   24954.7    400.7   0.297215903   3.92098  -0.60905  -1.13078   1.50711
   3   26877.9    372.1   0.063438244   0.77702   0.35382  -0.46545  -0.65968
   4   28367.0    352.5   0.008031432   0.09321  -0.06840   0.21830  -0.20218
   5   29555.9    338.3   0.489088551   5.44777  -0.99260   0.98953  -1.86637
   6   30934.7    323.3   0.195649543   2.08213   0.43480  -1.06968  -0.86537
   7   32131.7    311.2   0.056653676   0.58046  -0.68372   0.17621  -0.28624
   8   33081.1    302.3   0.044426834   0.44212   0.21805   0.11151   0.61817
   9   33189.0    301.3   0.048625200   0.48233   0.67678   0.07278   0.13782
  10   34645.0    288.6   0.539216254   5.12387   1.18594   1.64842  -1.00005
  11   35467.6    281.9   0.057885188   0.53729   0.46020   0.31378  -0.47650
  12   35577.9    281.1   0.229912916   2.12744   0.55897   1.06171  -0.82931
  13   36027.1    277.6   0.019855412   0.18144  -0.11834  -0.01558  -0.40889
  14   36102.1    277.0   0.009235017   0.08421   0.26260  -0.11982  -0.02993
  15   36824.8    271.6   0.039447354   0.35266  -0.44353   0.13954   0.36942
  16   37336.1    267.8   0.081900656   0.72216  -0.69820  -0.40633   0.26377
  17   37404.9    267.3   0.084539012   0.74405  -0.50440  -0.69744   0.05666
  18   38518.5    259.6   0.094749374   0.80981   0.73269   0.51152  -0.10640
  19   38829.7    257.5   0.086338223   0.73201   0.72806   0.44922  -0.01162
  20   39310.5    254.4   0.058118775   0.48673  -0.64536  -0.26336  -0.02969
  21   39644.9    252.2   0.034166362   0.28372  -0.22502   0.35353  -0.32879
  22   40088.7    249.4   0.031843156   0.26150   0.25743   0.39912   0.18956
  23   40193.2    248.8   0.018384128   0.15058  -0.22910   0.23985   0.20141

FINAL SINGLE POINT ENERGY     -5186.321127561374

DIPOLE MOMENT
-------------
                                X             Y             Z
Electronic contribution:      2.17121       0.90094       3.97851
Nuclear contribution   :     -2.20032      -0.88829      -3.99919
                        -----------------------------------------
Total Dipole Moment    :     -0.02911       0.01265      -0.02068
                        -----------------------------------------
Magnitude (a.u.)       :      0.03788
Magnitude (Debye)      :      0.09629

Rotational constants in cm-1:     0.001831     0.000175     0.000169
Rotational constants in MHz :    54.898232     5.251841     5.064435

                             ****ORCA TERMINATED NORMALLY****
TOTAL RUN TIME: 0 days 0 hours 10 minutes 21 seconds 543 msec
