                         Program Version 4.2.0 -  RELEASE  -
|  1> # ORCA input file
|  2> # SCF done       -127.286770803860          0.000405771627
|  3> ! CAM-B3LYP def2-SVP def2/J RIJCOSX Grid4 TightSCF
|  4> %maxcore 5000
|  5> %tddft
|  6>     Mode sTDDFT
|  7>     Ethresh 5.0
|  8>     maxcore 5000
|  9> end
| 10>
| 11> %pal
| 12>   nprocs 6
| 13>   end
| 14> * xyz 0 1
| 15>    C       -1.20126        -1.99005        -2.10087
| 16>    N        0.05211        -1.78543        -2.50536
| 17>    C        0.96449        -1.68947        -1.56857
| 18>    C        0.58757        -1.81814        -0.21542
| 19>    N       -0.70807        -1.95193         0.09592
| 20>    N       -1.59376        -2.03914        -0.84557
| 21>    N        1.40583        -1.76818         0.87739
| 22>    C        2.76227        -1.78754         0.98767
| 23>    S        3.81270        -2.18796        -0.33127
| 24>    C        5.17366        -2.14869         0.74649
| 25>    N        6.43550        -2.40317         0.20144
| 26>    O        7.39391        -2.37406         0.95055
| 27>    O        6.47601        -2.63900        -0.99485
| 28>    C        4.83018        -1.85239         2.03574
| 29>    C        3.44885        -1.61978         2.20005
| 30>    C        2.88552        -1.26546         3.47228
| 31>    C        1.72332        -0.60436         3.70680
| 32>    C        1.24990        -0.31007         5.00289
| 33>    C        0.09515         0.37889         5.25835
| 34>    C       -0.43389         0.71447         6.53205
| 35>    C       -1.59664         1.41677         6.48828
| 36>    C       -2.06241         1.67896         5.17748
| 37>    S       -0.96767         0.99267         3.99687
| 38>    C       -3.19252         2.37694         4.80821
| 39>    C       -4.13079         3.00999         5.65864
| 40>    C       -5.13458         3.65127         5.00518
| 41>    C       -5.05517         3.55383         3.58783
| 42>    S       -3.64222         2.61033         3.13063
| 43>    C       -5.88350         4.07008         2.63485
| 44>    N       -6.97178         4.83311         2.92748
| 45>    C       -7.82184         5.38860         2.03998
| 46>    S       -7.57284         5.21504         0.32959
| 47>    C       -8.93051         6.26445         0.03946
| 48>    N       -9.26228         6.52285        -1.28946
| 49>    O      -10.20977         7.25689        -1.51016
| 50>    O       -8.56577         5.98709        -2.13893
| 51>    C       -9.51897         6.71993         1.18783
| 52>    C       -8.91724         6.21491         2.35514
| 53>    C       -9.39926         6.55635         3.66378
| 54>    C       -9.22079         5.89006         4.81966
| 55>    C       -9.73825         6.38114         6.07374
| 56>    N      -10.44577         7.52509         6.09527
| 57>    C      -10.89287         7.90044         7.27110
| 58>    C      -10.63171         7.12869         8.40831
| 59>    N       -9.89884         6.03291         8.31571
| 60>    N       -9.44874         5.65951         7.15858
| 61>    H       -1.95858        -2.09846        -2.86220
| 62>    H        1.97552        -1.48593        -1.89073
| 63>    H        0.89144        -1.81903         1.75376
| 64>    H        5.55440        -1.78433         2.82725
| 65>    H        3.50210        -1.52557         4.32282
| 66>    H        1.12327        -0.22138         2.89151
| 67>    H        1.82940        -0.65000         5.85051
| 68>    H        0.06934         0.42445         7.43738
| 69>    H       -2.13310         1.75239         7.35738
| 70>    H       -4.03643         2.97780         6.72893
| 71>    H       -5.92520         4.17977         5.50915
| 72>    H       -5.69885         3.88269         1.58817
| 73>    H       -7.12836         5.06836         3.90105
| 74>    H      -10.36901         7.37801         1.18000
| 75>    H      -10.00121         7.45488         3.70935
| 76>    H       -8.73195         4.93020         4.89956
| 77>    H      -11.45792         8.82291         7.30920
| 78>    H      -10.99159         7.38709         9.39191
| 79> *
| 80>
| 81>                          ****END OF INPUT****

CARTESIAN COORDINATES (ANGSTROEM)
---------------------------------
  C     -1.201260   -1.990050   -2.100870
  N      0.052110   -1.785430   -2.505360
  C      0.964490   -1.689470   -1.568570
  C      0.587570   -1.818140   -0.215420
  N     -0.708070   -1.951930    0.095920
  N     -1.593760   -2.039140   -0.845570
  N      1.405830   -1.768180    0.877390
  C      2.762270   -1.787540    0.987670
  S      3.812700   -2.187960   -0.331270
  C      5.173660   -2.148690    0.746490
  N      6.435500   -2.403170    0.201440
  O      7.393910   -2.374060    0.950550
  O      6.476010   -2.639000   -0.994850
  C      4.830180   -1.852390    2.035740
  C      3.448850   -1.619780    2.200050
  C      2.885520   -1.265460    3.472280
  C      1.723320   -0.604360    3.706800
  C      1.249900   -0.310070    5.002890
  C      0.095150    0.378890    5.258350
  C     -0.433890    0.714470    6.532050
  C     -1.596640    1.416770    6.488280
  C     -2.062410    1.678960    5.177480
  S     -0.967670    0.992670    3.996870
  C     -3.192520    2.376940    4.808210
  C     -4.130790    3.009990    5.658640
  C     -5.134580    3.651270    5.005180
  C     -5.055170    3.553830    3.587830
  S     -3.642220    2.610330    3.130630
  C     -5.883500    4.070080    2.634850
  N     -6.971780    4.833110    2.927480
  C     -7.821840    5.388600    2.039980
  S     -7.572840    5.215040    0.329590
  C     -8.930510    6.264450    0.039460
  N     -9.262280    6.522850   -1.289460
  O    -10.209770    7.256890   -1.510160
  O     -8.565770    5.987090   -2.138930
  C     -9.518970    6.719930    1.187830
  C     -8.917240    6.214910    2.355140
  C     -9.399260    6.556350    3.663780
  C     -9.220790    5.890060    4.819660
  C     -9.738250    6.381140    6.073740
  N    -10.445770    7.525090    6.095270
  C    -10.892870    7.900440    7.271100
  C    -10.631710    7.128690    8.408310
  N     -9.898840    6.032910    8.315710
  N     -9.448740    5.659510    7.158580
  H     -1.958580   -2.098460   -2.862200
  H      1.975520   -1.485930   -1.890730
  H      0.891440   -1.819030    1.753760
  H      5.554400   -1.784330    2.827250
  H      3.502100   -1.525570    4.322820
  H      1.123270   -0.221380    2.891510
  H      1.829400   -0.650000    5.850510
  H      0.069340    0.424450    7.437380
  H     -2.133100    1.752390    7.357380
  H     -4.036430    2.977800    6.728930
  H     -5.925200    4.179770    5.509150
  H     -5.698850    3.882690    1.588170
  H     -7.128360    5.068360    3.901050
  H    -10.369010    7.378010    1.180000
  H    -10.001210    7.454880    3.709350
  H     -8.731950    4.930200    4.899560
  H    -11.457920    8.822910    7.309200
  H    -10.991590    7.387090    9.391910

 Total Charge           Charge          ....    0
 Multiplicity           Mult            ....    1
 Number of Electrons    NEL             ....  352
 Basis Dimension        Dim             ....  750

ORBITAL ENERGIES
----------------

  NO   OCC          E(Eh)            E(eV)
   0   2.0000     -88.989865     -2421.5373
   1   2.0000     -88.985475     -2421.4179
   2   2.0000     -88.952922     -2420.5321
   3   2.0000     -88.949706     -2420.4446
   4   2.0000     -19.235779      -523.4322
   5   2.0000     -19.235440      -523.4229
   6   2.0000     -19.231097      -523.3047
   7   2.0000     -19.230445      -523.2870
   8   2.0000     -14.647905      -398.5898
   9   2.0000     -14.643019      -398.4568
  10   2.0000     -14.494043      -394.4030
  11   2.0000     -14.486353      -394.1937
  12   2.0000     -14.463332      -393.5673
  13   2.0000     -14.461575      -393.5195
  14   2.0000     -14.455390      -393.3512
  15   2.0000     -14.449217      -393.1832
  16   2.0000     -14.443012      -393.0143
  17   2.0000     -14.440352      -392.9419
  18   2.0000     -10.380980      -282.4808
  19   2.0000     -10.376031      -282.3462
  20   2.0000     -10.375225      -282.3242
  21   2.0000     -10.358560      -281.8707
  22   2.0000     -10.345246      -281.5084
  23   2.0000     -10.344304      -281.4828
  24   2.0000     -10.342140      -281.4239
  25   2.0000     -10.341989      -281.4198
  26   2.0000     -10.340201      -281.3712
  27   2.0000     -10.337916      -281.3090
  28   2.0000     -10.324994      -280.9574
  29   2.0000     -10.319603      -280.8107
  30   2.0000     -10.319165      -280.7987
  31   2.0000     -10.315820      -280.7077
  32   2.0000     -10.313885      -280.6551
  33   2.0000     -10.310387      -280.5599
  34   2.0000     -10.310128      -280.5528
  35   2.0000     -10.305768      -280.4342
  36   2.0000     -10.302405      -280.3427
  37   2.0000     -10.300653      -280.2950
  38   2.0000     -10.300351      -280.2868
  39   2.0000     -10.299802      -280.2719
  40   2.0000     -10.294757      -280.1346
  41   2.0000     -10.294525      -280.1283
  42   2.0000     -10.290729      -280.0250
  43   2.0000     -10.289688      -279.9967
  44   2.0000     -10.289287      -279.9857
  45   2.0000     -10.284268      -279.8492
  46   2.0000      -8.085102      -220.0068
  47   2.0000      -8.080882      -219.8920
  48   2.0000      -8.049304      -219.0327
  49   2.0000      -8.046073      -218.9448
  50   2.0000      -6.054772      -164.7587
  51   2.0000      -6.050638      -164.6462
  52   2.0000      -6.050271      -164.6362
  53   2.0000      -6.046646      -164.5376
  54   2.0000      -6.046156      -164.5243
  55   2.0000      -6.042211      -164.4169
  56   2.0000      -6.019283      -163.7930
  57   2.0000      -6.015808      -163.6985
  58   2.0000      -6.015210      -163.6822
  59   2.0000      -6.011914      -163.5925
  60   2.0000      -6.009737      -163.5333
  61   2.0000      -6.006838      -163.4544
  62   2.0000      -1.316962       -35.8364
  63   2.0000      -1.311029       -35.6749
  64   2.0000      -1.160141       -31.5690
  65   2.0000      -1.150084       -31.2954
  66   2.0000      -1.136102       -30.9149
  67   2.0000      -1.130240       -30.7554
  68   2.0000      -1.100590       -29.9486
  69   2.0000      -1.093182       -29.7470
  70   2.0000      -1.037087       -28.2206
  71   2.0000      -1.036896       -28.2154
  72   2.0000      -1.008689       -27.4478
  73   2.0000      -1.007380       -27.4122
  74   2.0000      -0.999615       -27.2009
  75   2.0000      -0.979319       -26.6486
  76   2.0000      -0.949679       -25.8421
  77   2.0000      -0.937105       -25.4999
  78   2.0000      -0.921408       -25.0728
  79   2.0000      -0.916150       -24.9297
  80   2.0000      -0.897478       -24.4216
  81   2.0000      -0.887499       -24.1501
  82   2.0000      -0.877001       -23.8644
  83   2.0000      -0.867418       -23.6036
  84   2.0000      -0.856750       -23.3133
  85   2.0000      -0.851991       -23.1838
  86   2.0000      -0.838159       -22.8075
  87   2.0000      -0.829257       -22.5652
  88   2.0000      -0.809298       -22.0221
  89   2.0000      -0.799504       -21.7556
  90   2.0000      -0.797497       -21.7010
  91   2.0000      -0.791165       -21.5287
  92   2.0000      -0.781095       -21.2547
  93   2.0000      -0.763453       -20.7746
  94   2.0000      -0.746524       -20.3140
  95   2.0000      -0.738669       -20.1002
  96   2.0000      -0.720190       -19.5974
  97   2.0000      -0.708674       -19.2840
  98   2.0000      -0.699971       -19.0472
  99   2.0000      -0.695559       -18.9271
 100   2.0000      -0.681644       -18.5485
 101   2.0000      -0.664522       -18.0826
 102   2.0000      -0.656438       -17.8626
 103   2.0000      -0.651475       -17.7275
 104   2.0000      -0.645486       -17.5646
 105   2.0000      -0.641243       -17.4491
 106   2.0000      -0.632893       -17.2219
 107   2.0000      -0.629740       -17.1361
 108   2.0000      -0.629226       -17.1221
 109   2.0000      -0.626551       -17.0493
 110   2.0000      -0.624827       -17.0024
 111   2.0000      -0.624329       -16.9889
 112   2.0000      -0.621711       -16.9176
 113   2.0000      -0.617249       -16.7962
 114   2.0000      -0.607614       -16.5340
 115   2.0000      -0.605633       -16.4801
 116   2.0000      -0.588228       -16.0065
 117   2.0000      -0.585591       -15.9348
 118   2.0000      -0.582689       -15.8558
 119   2.0000      -0.574315       -15.6279
 120   2.0000      -0.569596       -15.4995
 121   2.0000      -0.569358       -15.4930
 122   2.0000      -0.563910       -15.3448
 123   2.0000      -0.558782       -15.2052
 124   2.0000      -0.554322       -15.0839
 125   2.0000      -0.544655       -14.8208
 126   2.0000      -0.541926       -14.7466
 127   2.0000      -0.538223       -14.6458
 128   2.0000      -0.529935       -14.4203
 129   2.0000      -0.526825       -14.3356
 130   2.0000      -0.518943       -14.1212
 131   2.0000      -0.515573       -14.0294
 132   2.0000      -0.513000       -13.9594
 133   2.0000      -0.508646       -13.8410
 134   2.0000      -0.507121       -13.7995
 135   2.0000      -0.503427       -13.6990
 136   2.0000      -0.496732       -13.5168
 137   2.0000      -0.481547       -13.1036
 138   2.0000      -0.479598       -13.0505
 139   2.0000      -0.479432       -13.0460
 140   2.0000      -0.471490       -12.8299
 141   2.0000      -0.469049       -12.7635
 142   2.0000      -0.461369       -12.5545
 143   2.0000      -0.455555       -12.3963
 144   2.0000      -0.447855       -12.1868
 145   2.0000      -0.445176       -12.1138
 146   2.0000      -0.440489       -11.9863
 147   2.0000      -0.437971       -11.9178
 148   2.0000      -0.431929       -11.7534
 149   2.0000      -0.431847       -11.7511
 150   2.0000      -0.430175       -11.7056
 151   2.0000      -0.420565       -11.4441
 152   2.0000      -0.418273       -11.3818
 153   2.0000      -0.417443       -11.3592
 154   2.0000      -0.406899       -11.0723
 155   2.0000      -0.400859       -10.9079
 156   2.0000      -0.396004       -10.7758
 157   2.0000      -0.385256       -10.4834
 158   2.0000      -0.383466       -10.4346
 159   2.0000      -0.379460       -10.3256
 160   2.0000      -0.376923       -10.2566
 161   2.0000      -0.375524       -10.2185
 162   2.0000      -0.368791       -10.0353
 163   2.0000      -0.367028        -9.9873
 164   2.0000      -0.364621        -9.9218
 165   2.0000      -0.360038        -9.7971
 166   2.0000      -0.352779        -9.5996
 167   2.0000      -0.347046        -9.4436
 168   2.0000      -0.332225        -9.0403
 169   2.0000      -0.329569        -8.9680
 170   2.0000      -0.314931        -8.5697
 171   2.0000      -0.311740        -8.4829
 172   2.0000      -0.306564        -8.3420
 173   2.0000      -0.290403        -7.9023
 174   2.0000      -0.268852        -7.3158
 175   2.0000      -0.215488        -5.8637
 176   0.0000      -0.084783        -2.3071
 177   0.0000      -0.058189        -1.5834
 178   0.0000      -0.051219        -1.3937
 179   0.0000      -0.045639        -1.2419
 180   0.0000      -0.037014        -1.0072

MULLIKEN ATOMIC CHARGES
-----------------------
   0 C :    0.043660
   1 N :   -0.039948
   2 C :   -0.014780
   3 C :    0.018801
   4 N :   -0.077437
   5 N :   -0.063281
   6 N :   -0.008345
   7 C :   -0.096141
   8 S :    0.149188
   9 C :   -0.001116
  10 N :    0.276768
  11 O :   -0.251512
  12 O :   -0.266392
  13 C :    0.012811
  14 C :    0.121386
  15 C :   -0.039076
  16 C :   -0.017192
  17 C :   -0.029518
  18 C :   -0.011473
  19 C :    0.036589
  20 C :    0.030955
  21 C :   -0.048542
  22 S :    0.067443
  23 C :   -0.050093
  24 C :    0.015873
  25 C :    0.014400
  26 C :   -0.057139
  27 S :    0.098967
  28 C :    0.049952
  29 N :   -0.016936
  30 C :   -0.110584
  31 S :    0.151383
  32 C :   -0.008336
  33 N :    0.280665
  34 O :   -0.257914
  35 O :   -0.272282
  36 C :    0.014302
  37 C :    0.116111
  38 C :    0.013333
  39 C :   -0.018310
  40 C :   -0.062533
  41 N :   -0.055531
  42 C :    0.048465
  43 C :    0.025971
  44 N :   -0.041153
  45 N :   -0.078061
  46 H :    0.034885
  47 H :    0.033335
  48 H :    0.147607
  49 H :    0.011377
  50 H :   -0.006855
  51 H :    0.007258
  52 H :   -0.015565
  53 H :   -0.012158
  54 H :   -0.011922
  55 H :   -0.005710
  56 H :   -0.007410
  57 H :    0.024989
  58 H :    0.139156
  59 H :    0.011615
  60 H :    0.019441
  61 H :   -0.012159
  62 H :    0.025607
  63 H :    0.023109
Sum of atomic charges:   -0.0000000

LOEWDIN ATOMIC CHARGES
----------------------
   0 C :    0.003691
   1 N :   -0.037938
   2 C :   -0.006656
   3 C :    0.005201
   4 N :   -0.055099
   5 N :   -0.036433
   6 N :    0.034160
   7 C :   -0.099141
   8 S :    0.469011
   9 C :   -0.215064
  10 N :    0.273693
  11 O :   -0.217242
  12 O :   -0.233336
  13 C :    0.005495
  14 C :   -0.100432
  15 C :   -0.027223
  16 C :   -0.043937
  17 C :   -0.063612
  18 C :   -0.138499
  19 C :   -0.036024
  20 C :   -0.027274
  21 C :   -0.182169
  22 S :    0.364605
  23 C :   -0.175913
  24 C :   -0.019435
  25 C :   -0.048321
  26 C :   -0.181546
  27 S :    0.372693
  28 C :   -0.016396
  29 N :    0.059557
  30 C :   -0.086643
  31 S :    0.454227
  32 C :   -0.218590
  33 N :    0.273947
  34 O :   -0.223218
  35 O :   -0.239084
  36 C :    0.010573
  37 C :   -0.118776
  38 C :    0.028849
  39 C :   -0.081768
  40 C :    0.009204
  41 N :   -0.062637
  42 C :    0.038165
  43 C :   -0.032639
  44 N :   -0.011169
  45 N :   -0.071658
  46 H :    0.026709
  47 H :    0.018985
  48 H :    0.097608
  49 H :    0.046837
  50 H :    0.033396
  51 H :    0.018810
  52 H :    0.032755
  53 H :    0.033956
  54 H :    0.032461
  55 H :    0.035439
  56 H :    0.030817
  57 H :    0.027478
  58 H :    0.092720
  59 H :    0.047480
  60 H :    0.040436
  61 H :    0.024929
  62 H :    0.031885
  63 H :    0.032096

  Mayer bond orders larger than 0.100000
B(  0-C ,  1-N ) :   1.4556 B(  0-C ,  5-N ) :   1.5474 B(  0-C , 46-H ) :   0.9805
B(  1-N ,  2-C ) :   1.6381 B(  2-C ,  3-C ) :   1.2510 B(  2-C , 47-H ) :   0.9720
B(  3-C ,  4-N ) :   1.5041 B(  3-C ,  6-N ) :   1.1264 B(  4-N ,  5-N ) :   1.3366
B(  6-N ,  7-C ) :   1.1918 B(  6-N , 48-H ) :   0.8754 B(  7-C ,  8-S ) :   1.1352
B(  7-C , 14-C ) :   1.3750 B(  8-S ,  9-C ) :   1.0755 B(  9-C , 10-N ) :   0.9745
B(  9-C , 13-C ) :   1.4830 B( 10-N , 11-O ) :   1.5344 B( 10-N , 12-O ) :   1.5087
B( 11-O , 12-O ) :   0.2564 B( 13-C , 14-C ) :   1.2259 B( 13-C , 49-H ) :   1.0083
B( 14-C , 15-C ) :   1.0717 B( 15-C , 16-C ) :   1.6563 B( 15-C , 50-H ) :   0.9733
B( 16-C , 17-C ) :   1.1480 B( 16-C , 51-H ) :   0.9629 B( 17-C , 18-C ) :   1.5791
B( 17-C , 52-H ) :   0.9867 B( 18-C , 19-C ) :   1.1337 B( 18-C , 22-S ) :   1.0299
B( 19-C , 20-C ) :   1.5999 B( 19-C , 53-H ) :   0.9995 B( 20-C , 21-C ) :   1.1842
B( 20-C , 54-H ) :   0.9926 B( 21-C , 22-S ) :   1.0404 B( 21-C , 23-C ) :   1.5195
B( 23-C , 24-C ) :   1.1848 B( 23-C , 27-S ) :   1.0493 B( 24-C , 25-C ) :   1.6404
B( 24-C , 55-H ) :   0.9922 B( 25-C , 26-C ) :   1.1189 B( 25-C , 56-H ) :   0.9843
B( 26-C , 27-S ) :   1.0249 B( 26-C , 28-C ) :   1.6143 B( 28-C , 29-N ) :   1.1410
B( 28-C , 57-H ) :   0.9468 B( 29-N , 30-C ) :   1.2736 B( 29-N , 58-H ) :   0.8957
B( 30-C , 31-S ) :   1.1419 B( 30-C , 37-C ) :   1.3193 B( 31-S , 32-C ) :   1.0529
B( 32-C , 33-N ) :   0.9859 B( 32-C , 36-C ) :   1.4820 B( 33-N , 34-O ) :   1.5272
B( 33-N , 35-O ) :   1.5010 B( 34-O , 35-O ) :   0.2520 B( 36-C , 37-C ) :   1.2305
B( 36-C , 59-H ) :   1.0091 B( 37-C , 38-C ) :   1.0742 B( 38-C , 39-C ) :   1.6706
B( 38-C , 60-H ) :   0.9610 B( 39-C , 40-C ) :   1.0786 B( 39-C , 61-H ) :   0.9572
B( 40-C , 41-N ) :   1.4798 B( 40-C , 45-N ) :   1.5346 B( 41-N , 42-C ) :   1.5962
B( 42-C , 43-C ) :   1.2818 B( 42-C , 62-H ) :   0.9754 B( 43-C , 44-N ) :   1.5727
B( 43-C , 63-H ) :   0.9832 B( 44-N , 45-N ) :   1.3254

-----------------------------------------------------------------------------
         ABSORPTION SPECTRUM VIA TRANSITION ELECTRIC DIPOLE MOMENTS
-----------------------------------------------------------------------------
State   Energy  Wavelength   fosc         T2         TX        TY        TZ
        (cm-1)    (nm)                  (au**2)     (au)      (au)      (au)
-----------------------------------------------------------------------------
   0   14736.0    678.6   1.549750927  34.62242  -4.89847   3.24527  -0.30933
   1   21005.6    476.1   0.137852197   2.16050   1.30973  -0.24453   0.62073
   2   22678.6    440.9   0.082951325   1.20416  -0.30228   0.13940  -1.04563
   3   23419.3    427.0   0.148759380   2.09115  -0.50107   0.11442   1.35166
   4   24580.5    406.8   0.001230180   0.01648  -0.05722   0.07700   0.08529
   5   25380.7    394.0   0.327879159   4.25291   0.23932   0.06405   2.04732
   6   25677.7    389.4   0.020038721   0.25692   0.32858   0.22438   0.31402
   7   26805.8    373.1   0.013577888   0.16675   0.07798  -0.40080  -0.00598
   8   27753.7    360.3   0.002218757   0.02632   0.01072   0.09789   0.12892
   9   28755.8    347.8   0.060280322   0.69012   0.28225  -0.01958  -0.78107
  10   29031.5    344.5   0.004064253   0.04609   0.12863   0.09470  -0.14344
  11   30485.4    328.0   0.311043025   3.35895  -1.56364  -0.02203  -0.95576
  12   30937.9    323.2   0.269366099   2.86634  -1.56842   0.25007   0.58640
  13   32186.1    310.7   0.000535512   0.00548  -0.01107   0.01415   0.07180
  14   32659.1    306.2   0.002012031   0.02028   0.04935   0.00438   0.13352
  15   32813.4    304.8   0.364740615   3.65939  -0.08462  -0.03365   1.91078
  16   33546.0    298.1   0.071837078   0.70499  -0.64592   0.20905   0.49404
  17   33602.5    297.6   0.022754557   0.22293  -0.20310  -0.05927  -0.42210
  18   33715.3    296.6   0.129498751   1.26449  -0.03822   0.16527   1.11162
  19   34309.6    291.5   0.012663367   0.12151   0.19124  -0.17009   0.23666
  20   35112.4    284.8   0.022322185   0.20929  -0.37395   0.25368   0.07141
  21   36479.9    274.1   0.274145142   2.47402   1.20488  -0.51618  -0.86939
  22   36553.3    273.6   0.101613966   0.91517  -0.78644   0.31911   0.44142
  23   37117.8    269.4   0.032306295   0.28654   0.49484  -0.01906  -0.20323
  24   37372.0    267.6   0.061303689   0.54003   0.70064  -0.09205  -0.20164
  25   37707.2    265.2   0.226408373   1.97672  -0.11280   0.24937  -1.37906
  26   37885.4    264.0   0.083379159   0.72454   0.02020   0.09154   0.84602
  27   38487.2    259.8   0.038090529   0.32582   0.04616  -0.10732   0.55872
  28   39075.9    255.9   0.021180503   0.17844   0.06330  -0.11441  -0.40168
  29   39823.8    251.1   0.077024247   0.63674   0.01784   0.10056   0.79140
  30   40245.3    248.5   0.002996520   0.02451  -0.00964  -0.09716  -0.12239

FINAL SINGLE POINT ENERGY     -3515.787185633543

DIPOLE MOMENT
-------------
                                X             Y             Z
Electronic contribution:      7.82587      -5.23811     -22.27329
Nuclear contribution   :     -8.99673       6.31820      25.98792
                        -----------------------------------------
Total Dipole Moment    :     -1.17086       1.08008       3.71463
                        -----------------------------------------
Magnitude (a.u.)       :      4.04178
Magnitude (Debye)      :     10.27338

Rotational constants in cm-1:     0.002997     0.000557     0.000482
Rotational constants in MHz :    89.858982    16.703787    14.457976

                             ****ORCA TERMINATED NORMALLY****
TOTAL RUN TIME: 0 days 0 hours 4 minutes 18 seconds 877 msec
