                         Program Version 4.2.0 -  RELEASE  -
|  1> # ORCA input file
|  2> # SCF done       -144.993593511218          0.000759824232
|  3> ! CAM-B3LYP def2-SVP def2/J RIJCOSX Grid4 TightSCF
|  4> %maxcore 5000
|  5> %tddft
|  6>     Mode sTDDFT
|  7>     Ethresh 5.0
|  8>     maxcore 5000
|  9> end
| 10>
| 11> %pal
| 12>   nprocs 6
| 13>   end
| 14> * xyz 0 1
| 15>    C       -1.38331         2.00252         2.69716
| 16>    C       -0.98011         1.45992         1.48210
| 17>    N       -1.31434         0.23640         1.12074
| 18>    C       -2.06107        -0.47661         1.97305
| 19>    C       -2.45469         0.07874         3.19973
| 20>    N       -2.11900         1.30303         3.55103
| 21>    C       -2.42476        -1.80744         1.56379
| 22>    C       -2.07598        -2.42380         0.38278
| 23>    C       -2.59792        -3.71746         0.29376
| 24>    C       -3.35059        -4.07597         1.42649
| 25>    S       -3.41250        -2.83146         2.59082
| 26>    C       -3.84126        -5.39306         1.24638
| 27>    C       -3.40003        -5.86999         0.00302
| 28>    C       -2.60311        -4.82987        -0.63774
| 29>    C       -1.99837        -4.89744        -1.85870
| 30>    C       -2.08303        -6.04662        -2.67236
| 31>    N       -2.15207        -6.97933        -3.33611
| 32>    C       -1.25116        -3.82695        -2.39409
| 33>    N       -0.63617        -2.96842        -2.84024
| 34>    C       -3.83980        -7.16346        -0.27239
| 35>    C       -4.61999        -7.67865         0.74851
| 36>    S       -4.80134        -6.53680         2.07749
| 37>    C       -5.24441        -8.95736         0.81052
| 38>    C       -6.06472        -9.32790         1.84923
| 39>    C       -6.71541       -10.55446         1.96043
| 40>    C       -6.64101       -11.53914         0.87059
| 41>    C       -5.87583       -11.39333        -0.23254
| 42>    S       -4.88690       -10.02640        -0.54143
| 43>    C       -7.52311       -12.58876         1.24653
| 44>    C       -8.10797       -12.28948         2.47739
| 45>    C       -8.99597       -13.30072         2.90556
| 46>    C       -9.06263       -14.31702         2.00648
| 47>    S       -8.05556       -14.09504         0.61470
| 48>    C       -7.59086       -11.03368         2.95487
| 49>    C       -7.94808       -10.47944         4.20816
| 50>    C       -7.24402        -9.55523         4.91408
| 51>    C       -7.64861        -9.01663         6.15957
| 52>    C       -8.83768        -9.18801         6.85488
| 53>    C       -8.84992        -8.48636         8.05658
| 54>    C       -7.66419        -7.77018         8.29109
| 55>    S       -6.53773        -7.95741         7.02011
| 56>    C       -7.77810        -7.10643         9.53719
| 57>    C       -9.03872        -7.39704        10.09113
| 58>    C       -9.75581        -8.26680         9.17931
| 59>    C      -11.01379        -8.77467         9.32593
| 60>    C      -11.82069        -8.49319        10.44831
| 61>    N      -12.49041        -8.27549        11.35299
| 62>    C      -11.59441        -9.61933         8.35740
| 63>    N      -12.06566       -10.30874         7.57082
| 64>    C       -9.23377        -6.78825        11.33408
| 65>    C       -8.14050        -6.04704        11.72293
| 66>    S       -6.84373        -6.09157        10.53956
| 67>    C       -8.00339        -5.30145        12.94529
| 68>    C       -6.84998        -4.57024        13.26774
| 69>    N       -6.74351        -3.89504        14.39351
| 70>    C       -7.77655        -3.92952        15.22529
| 71>    C       -8.92397        -4.65174        14.91779
| 72>    N       -9.03977        -5.33019        13.79276
| 73>    H       -1.11961         3.00582         2.99888
| 74>    H       -0.37637         2.01446         0.77696
| 75>    H       -3.05251        -0.48058         3.90806
| 76>    H       -1.47271        -1.93126        -0.35731
| 77>    H       -3.61639        -7.71230        -1.16937
| 78>    H       -6.23707        -8.58106         2.61164
| 79>    H       -5.82849       -12.14084        -1.00863
| 80>    H       -9.55721       -13.28293         3.82198
| 81>    H       -9.65245       -15.21058         2.06825
| 82>    H       -8.84822       -10.88720         4.64878
| 83>    H       -6.28134        -9.22128         4.55594
| 84>    H       -9.64929        -9.79014         6.49143
| 85>    H      -10.11347        -6.86495        11.94609
| 86>    H       -5.99908        -4.53292        12.59943
| 87>    H       -7.67354        -3.37018        16.14385
| 88>    H       -9.77441        -4.69068        15.58455
| 89> *
| 90>
| 91>                          ****END OF INPUT****

CARTESIAN COORDINATES (ANGSTROEM)
---------------------------------
  C     -1.383310    2.002520    2.697160
  C     -0.980110    1.459920    1.482100
  N     -1.314340    0.236400    1.120740
  C     -2.061070   -0.476610    1.973050
  C     -2.454690    0.078740    3.199730
  N     -2.119000    1.303030    3.551030
  C     -2.424760   -1.807440    1.563790
  C     -2.075980   -2.423800    0.382780
  C     -2.597920   -3.717460    0.293760
  C     -3.350590   -4.075970    1.426490
  S     -3.412500   -2.831460    2.590820
  C     -3.841260   -5.393060    1.246380
  C     -3.400030   -5.869990    0.003020
  C     -2.603110   -4.829870   -0.637740
  C     -1.998370   -4.897440   -1.858700
  C     -2.083030   -6.046620   -2.672360
  N     -2.152070   -6.979330   -3.336110
  C     -1.251160   -3.826950   -2.394090
  N     -0.636170   -2.968420   -2.840240
  C     -3.839800   -7.163460   -0.272390
  C     -4.619990   -7.678650    0.748510
  S     -4.801340   -6.536800    2.077490
  C     -5.244410   -8.957360    0.810520
  C     -6.064720   -9.327900    1.849230
  C     -6.715410  -10.554460    1.960430
  C     -6.641010  -11.539140    0.870590
  C     -5.875830  -11.393330   -0.232540
  S     -4.886900  -10.026400   -0.541430
  C     -7.523110  -12.588760    1.246530
  C     -8.107970  -12.289480    2.477390
  C     -8.995970  -13.300720    2.905560
  C     -9.062630  -14.317020    2.006480
  S     -8.055560  -14.095040    0.614700
  C     -7.590860  -11.033680    2.954870
  C     -7.948080  -10.479440    4.208160
  C     -7.244020   -9.555230    4.914080
  C     -7.648610   -9.016630    6.159570
  C     -8.837680   -9.188010    6.854880
  C     -8.849920   -8.486360    8.056580
  C     -7.664190   -7.770180    8.291090
  S     -6.537730   -7.957410    7.020110
  C     -7.778100   -7.106430    9.537190
  C     -9.038720   -7.397040   10.091130
  C     -9.755810   -8.266800    9.179310
  C    -11.013790   -8.774670    9.325930
  C    -11.820690   -8.493190   10.448310
  N    -12.490410   -8.275490   11.352990
  C    -11.594410   -9.619330    8.357400
  N    -12.065660  -10.308740    7.570820
  C     -9.233770   -6.788250   11.334080
  C     -8.140500   -6.047040   11.722930
  S     -6.843730   -6.091570   10.539560
  C     -8.003390   -5.301450   12.945290
  C     -6.849980   -4.570240   13.267740
  N     -6.743510   -3.895040   14.393510
  C     -7.776550   -3.929520   15.225290
  C     -8.923970   -4.651740   14.917790
  N     -9.039770   -5.330190   13.792760
  H     -1.119610    3.005820    2.998880
  H     -0.376370    2.014460    0.776960
  H     -3.052510   -0.480580    3.908060
  H     -1.472710   -1.931260   -0.357310
  H     -3.616390   -7.712300   -1.169370
  H     -6.237070   -8.581060    2.611640
  H     -5.828490  -12.140840   -1.008630
  H     -9.557210  -13.282930    3.821980
  H     -9.652450  -15.210580    2.068250
  H     -8.848220  -10.887200    4.648780
  H     -6.281340   -9.221280    4.555940
  H     -9.649290   -9.790140    6.491430
  H    -10.113470   -6.864950   11.946090
  H     -5.999080   -4.532920   12.599430
  H     -7.673540   -3.370180   16.143850
  H     -9.774410   -4.690680   15.584550

 Total Charge           Charge          ....    0
 Multiplicity           Mult            ....    1
 Number of Electrons    NEL             ....  432
 Basis Dimension        Dim             ....  916

ORBITAL ENERGIES
----------------

  NO   OCC          E(Eh)            E(eV)
   0   2.0000     -88.994665     -2421.6680
   1   2.0000     -88.993535     -2421.6372
   2   2.0000     -88.986771     -2421.4531
   3   2.0000     -88.983778     -2421.3717
   4   2.0000     -88.980910     -2421.2937
   5   2.0000     -88.958425     -2420.6818
   6   2.0000     -14.432385      -392.7252
   7   2.0000     -14.430283      -392.6680
   8   2.0000     -14.428323      -392.6146
   9   2.0000     -14.428194      -392.6111
  10   2.0000     -14.427090      -392.5811
  11   2.0000     -14.424625      -392.5140
  12   2.0000     -14.423724      -392.4895
  13   2.0000     -14.423100      -392.4725
  14   2.0000     -10.366863      -282.0967
  15   2.0000     -10.359774      -281.9038
  16   2.0000     -10.353540      -281.7342
  17   2.0000     -10.347154      -281.5604
  18   2.0000     -10.336362      -281.2667
  19   2.0000     -10.336231      -281.2632
  20   2.0000     -10.334452      -281.2147
  21   2.0000     -10.333770      -281.1962
  22   2.0000     -10.332711      -281.1674
  23   2.0000     -10.332584      -281.1639
  24   2.0000     -10.331847      -281.1438
  25   2.0000     -10.331253      -281.1277
  26   2.0000     -10.330617      -281.1104
  27   2.0000     -10.330053      -281.0950
  28   2.0000     -10.327793      -281.0335
  29   2.0000     -10.324742      -280.9505
  30   2.0000     -10.322920      -280.9009
  31   2.0000     -10.321730      -280.8686
  32   2.0000     -10.320048      -280.8228
  33   2.0000     -10.319601      -280.8106
  34   2.0000     -10.318995      -280.7941
  35   2.0000     -10.316744      -280.7329
  36   2.0000     -10.315683      -280.7040
  37   2.0000     -10.315597      -280.7017
  38   2.0000     -10.312276      -280.6113
  39   2.0000     -10.310858      -280.5727
  40   2.0000     -10.307025      -280.4684
  41   2.0000     -10.304420      -280.3975
  42   2.0000     -10.303501      -280.3725
  43   2.0000     -10.303337      -280.3681
  44   2.0000     -10.302277      -280.3392
  45   2.0000     -10.299958      -280.2761
  46   2.0000     -10.299569      -280.2655
  47   2.0000     -10.298218      -280.2288
  48   2.0000     -10.295589      -280.1572
  49   2.0000     -10.293902      -280.1113
  50   2.0000     -10.292714      -280.0790
  51   2.0000     -10.291019      -280.0329
  52   2.0000     -10.288954      -279.9767
  53   2.0000     -10.288080      -279.9529
  54   2.0000     -10.287200      -279.9289
  55   2.0000     -10.280323      -279.7418
  56   2.0000     -10.276392      -279.6348
  57   2.0000     -10.275508      -279.6108
  58   2.0000      -8.088804      -220.1075
  59   2.0000      -8.087847      -220.0815
  60   2.0000      -8.081172      -219.8999
  61   2.0000      -8.078428      -219.8252
  62   2.0000      -8.076100      -219.7618
  63   2.0000      -8.053813      -219.1554
  64   2.0000      -6.058104      -164.8494
  65   2.0000      -6.057053      -164.8208
  66   2.0000      -6.054029      -164.7385
  67   2.0000      -6.052899      -164.7077
  68   2.0000      -6.051082      -164.6583
  69   2.0000      -6.050408      -164.6400
  70   2.0000      -6.050375      -164.6391
  71   2.0000      -6.047615      -164.5640
  72   2.0000      -6.046242      -164.5266
  73   2.0000      -6.045775      -164.5139
  74   2.0000      -6.043702      -164.4575
  75   2.0000      -6.043538      -164.4530
  76   2.0000      -6.041145      -164.3879
  77   2.0000      -6.040897      -164.3812
  78   2.0000      -6.037845      -164.2981
  79   2.0000      -6.023281      -163.9018
  80   2.0000      -6.019004      -163.7854
  81   2.0000      -6.015833      -163.6991
  82   2.0000      -1.084949       -29.5230
  83   2.0000      -1.080013       -29.3887
  84   2.0000      -1.046983       -28.4899
  85   2.0000      -1.038766       -28.2662
  86   2.0000      -1.023465       -27.8499
  87   2.0000      -1.017434       -27.6858
  88   2.0000      -1.012251       -27.5448
  89   2.0000      -1.008462       -27.4416
  90   2.0000      -1.006712       -27.3940
  91   2.0000      -1.003329       -27.3020
  92   2.0000      -1.001810       -27.2606
  93   2.0000      -0.997973       -27.1562
  94   2.0000      -0.988588       -26.9009
  95   2.0000      -0.975251       -26.5379
  96   2.0000      -0.958219       -26.0745
  97   2.0000      -0.954449       -25.9719
  98   2.0000      -0.932731       -25.3809
  99   2.0000      -0.919814       -25.0294
 100   2.0000      -0.913269       -24.8513
 101   2.0000      -0.897307       -24.4170
 102   2.0000      -0.886647       -24.1269
 103   2.0000      -0.879780       -23.9400
 104   2.0000      -0.874400       -23.7936
 105   2.0000      -0.867232       -23.5986
 106   2.0000      -0.859233       -23.3809
 107   2.0000      -0.855220       -23.2717
 108   2.0000      -0.848775       -23.0963
 109   2.0000      -0.843283       -22.9469
 110   2.0000      -0.823193       -22.4002
 111   2.0000      -0.806420       -21.9438
 112   2.0000      -0.795632       -21.6503
 113   2.0000      -0.786190       -21.3933
 114   2.0000      -0.780007       -21.2251
 115   2.0000      -0.773094       -21.0370
 116   2.0000      -0.760263       -20.6878
 117   2.0000      -0.750894       -20.4329
 118   2.0000      -0.747661       -20.3449
 119   2.0000      -0.745218       -20.2784
 120   2.0000      -0.727941       -19.8083
 121   2.0000      -0.721671       -19.6377
 122   2.0000      -0.702806       -19.1243
 123   2.0000      -0.697400       -18.9772
 124   2.0000      -0.691612       -18.8197
 125   2.0000      -0.681197       -18.5363
 126   2.0000      -0.674829       -18.3630
 127   2.0000      -0.672545       -18.3009
 128   2.0000      -0.664018       -18.0688
 129   2.0000      -0.649304       -17.6685
 130   2.0000      -0.642491       -17.4831
 131   2.0000      -0.631227       -17.1766
 132   2.0000      -0.628608       -17.1053
 133   2.0000      -0.626320       -17.0430
 134   2.0000      -0.619645       -16.8614
 135   2.0000      -0.618165       -16.8211
 136   2.0000      -0.613421       -16.6920
 137   2.0000      -0.610372       -16.6091
 138   2.0000      -0.605613       -16.4796
 139   2.0000      -0.604361       -16.4455
 140   2.0000      -0.595846       -16.2138
 141   2.0000      -0.591527       -16.0963
 142   2.0000      -0.585381       -15.9290
 143   2.0000      -0.577123       -15.7043
 144   2.0000      -0.569995       -15.5103
 145   2.0000      -0.558930       -15.2093
 146   2.0000      -0.556473       -15.1424
 147   2.0000      -0.550538       -14.9809
 148   2.0000      -0.543415       -14.7871
 149   2.0000      -0.542920       -14.7736
 150   2.0000      -0.540072       -14.6961
 151   2.0000      -0.532560       -14.4917
 152   2.0000      -0.529252       -14.4017
 153   2.0000      -0.524001       -14.2588
 154   2.0000      -0.523758       -14.2522
 155   2.0000      -0.519269       -14.1300
 156   2.0000      -0.516542       -14.0558
 157   2.0000      -0.513705       -13.9786
 158   2.0000      -0.506575       -13.7846
 159   2.0000      -0.504959       -13.7406
 160   2.0000      -0.500509       -13.6195
 161   2.0000      -0.499311       -13.5869
 162   2.0000      -0.497684       -13.5427
 163   2.0000      -0.495806       -13.4916
 164   2.0000      -0.491903       -13.3854
 165   2.0000      -0.489379       -13.3167
 166   2.0000      -0.485084       -13.1998
 167   2.0000      -0.481204       -13.0942
 168   2.0000      -0.478346       -13.0165
 169   2.0000      -0.476779       -12.9738
 170   2.0000      -0.472771       -12.8648
 171   2.0000      -0.467536       -12.7223
 172   2.0000      -0.462515       -12.5857
 173   2.0000      -0.462131       -12.5752
 174   2.0000      -0.458892       -12.4871
 175   2.0000      -0.457858       -12.4589
 176   2.0000      -0.457152       -12.4397
 177   2.0000      -0.453554       -12.3418
 178   2.0000      -0.452983       -12.3263
 179   2.0000      -0.448614       -12.2074
 180   2.0000      -0.443902       -12.0792
 181   2.0000      -0.442246       -12.0341
 182   2.0000      -0.441196       -12.0055
 183   2.0000      -0.440904       -11.9976
 184   2.0000      -0.436727       -11.8839
 185   2.0000      -0.436149       -11.8682
 186   2.0000      -0.435133       -11.8406
 187   2.0000      -0.433457       -11.7950
 188   2.0000      -0.431199       -11.7335
 189   2.0000      -0.428038       -11.6475
 190   2.0000      -0.426999       -11.6192
 191   2.0000      -0.422398       -11.4940
 192   2.0000      -0.421059       -11.4576
 193   2.0000      -0.414581       -11.2813
 194   2.0000      -0.411329       -11.1928
 195   2.0000      -0.410379       -11.1670
 196   2.0000      -0.404110       -10.9964
 197   2.0000      -0.398633       -10.8473
 198   2.0000      -0.389452       -10.5975
 199   2.0000      -0.386734       -10.5236
 200   2.0000      -0.384733       -10.4691
 201   2.0000      -0.377343       -10.2680
 202   2.0000      -0.367470        -9.9994
 203   2.0000      -0.352070        -9.5803
 204   2.0000      -0.344148        -9.3647
 205   2.0000      -0.343230        -9.3398
 206   2.0000      -0.337888        -9.1944
 207   2.0000      -0.327912        -8.9229
 208   2.0000      -0.323690        -8.8081
 209   2.0000      -0.323222        -8.7953
 210   2.0000      -0.322103        -8.7649
 211   2.0000      -0.315815        -8.5938
 212   2.0000      -0.290691        -7.9101
 213   2.0000      -0.279138        -7.5957
 214   2.0000      -0.260048        -7.0763
 215   2.0000      -0.224835        -6.1181
 216   0.0000      -0.108609        -2.9554
 217   0.0000      -0.100439        -2.7331
 218   0.0000      -0.070249        -1.9116
 219   0.0000      -0.042280        -1.1505
 220   0.0000      -0.035282        -0.9601

MULLIKEN ATOMIC CHARGES
-----------------------
   0 C :    0.020564
   1 C :    0.039453
   2 N :   -0.050345
   3 C :   -0.010908
   4 C :   -0.026025
   5 N :   -0.043145
   6 C :   -0.042971
   7 C :   -0.041093
   8 C :    0.018284
   9 C :   -0.092030
  10 S :    0.177912
  11 C :   -0.095180
  12 C :    0.020125
  13 C :    0.298809
  14 C :   -0.296786
  15 C :   -0.186999
  16 N :    0.171488
  17 C :   -0.190988
  18 N :    0.183678
  19 C :   -0.056398
  20 C :   -0.059314
  21 S :    0.163920
  22 C :   -0.024195
  23 C :   -0.101431
  24 C :    0.051420
  25 C :    0.056261
  26 C :   -0.123400
  27 S :    0.134267
  28 C :   -0.106978
  29 C :    0.049207
  30 C :    0.008916
  31 C :   -0.068420
  32 S :    0.130998
  33 C :    0.084536
  34 C :   -0.024748
  35 C :    0.024179
  36 C :   -0.077824
  37 C :   -0.040707
  38 C :    0.013707
  39 C :   -0.110051
  40 S :    0.174047
  41 C :   -0.091328
  42 C :    0.012225
  43 C :    0.302583
  44 C :   -0.299900
  45 C :   -0.192903
  46 N :    0.180533
  47 C :   -0.182512
  48 N :    0.161514
  49 C :   -0.039944
  50 C :   -0.046310
  51 S :    0.171073
  52 C :   -0.012284
  53 C :   -0.026421
  54 N :   -0.043061
  55 C :    0.016015
  56 C :    0.039855
  57 N :   -0.049528
  58 H :    0.015143
  59 H :    0.017099
  60 H :    0.006768
  61 H :    0.020408
  62 H :    0.020240
  63 H :   -0.009723
  64 H :    0.040449
  65 H :   -0.011827
  66 H :    0.029306
  67 H :   -0.012945
  68 H :   -0.023517
  69 H :    0.005097
  70 H :    0.018197
  71 H :    0.005088
  72 H :    0.013548
  73 H :    0.015227
Sum of atomic charges:    0.0000000

LOEWDIN ATOMIC CHARGES
----------------------
   0 C :   -0.005353
   1 C :    0.009753
   2 N :   -0.048740
   3 C :   -0.023869
   4 C :   -0.009333
   5 N :   -0.036846
   6 C :   -0.180670
   7 C :   -0.002655
   8 C :   -0.073384
   9 C :   -0.174367
  10 S :    0.477590
  11 C :   -0.183064
  12 C :   -0.064169
  13 C :    0.081092
  14 C :   -0.098081
  15 C :   -0.015714
  16 N :   -0.032386
  17 C :   -0.018856
  18 N :   -0.025464
  19 C :   -0.041478
  20 C :   -0.175384
  21 S :    0.472239
  22 C :   -0.183199
  23 C :   -0.033098
  24 C :   -0.020741
  25 C :   -0.046426
  26 C :   -0.138855
  27 S :    0.461736
  28 C :   -0.203818
  29 C :   -0.039162
  30 C :   -0.062897
  31 C :   -0.162453
  32 S :    0.423182
  33 C :   -0.050496
  34 C :   -0.002560
  35 C :   -0.064195
  36 C :   -0.154370
  37 C :   -0.036458
  38 C :   -0.060620
  39 C :   -0.198643
  40 S :    0.464251
  41 C :   -0.168569
  42 C :   -0.079757
  43 C :    0.083107
  44 C :   -0.103187
  45 C :   -0.019024
  46 N :   -0.029295
  47 C :   -0.013920
  48 N :   -0.039124
  49 C :   -0.002015
  50 C :   -0.185462
  51 S :    0.472318
  52 C :   -0.022767
  53 C :   -0.010931
  54 N :   -0.037877
  55 C :   -0.008705
  56 C :    0.008967
  57 N :   -0.050283
  58 H :    0.026860
  59 H :    0.029265
  60 H :    0.017264
  61 H :    0.046286
  62 H :    0.035146
  63 H :    0.024835
  64 H :    0.038346
  65 H :    0.032262
  66 H :    0.024511
  67 H :    0.032494
  68 H :    0.022838
  69 H :    0.037672
  70 H :    0.045555
  71 H :    0.016649
  72 H :    0.026003
  73 H :    0.028498

  Mayer bond orders larger than 0.100000
B(  0-C ,  1-C ) :   1.3490 B(  0-C ,  5-N ) :   1.5352 B(  0-C , 58-H ) :   0.9788
B(  1-C ,  2-N ) :   1.5504 B(  1-C , 59-H ) :   0.9766 B(  2-N ,  3-C ) :   1.5753
B(  3-C ,  4-C ) :   1.3152 B(  3-C ,  6-C ) :   1.0529 B(  4-C ,  5-N ) :   1.6007
B(  4-C , 60-H ) :   0.9757 B(  6-C ,  7-C ) :   1.4890 B(  6-C , 10-S ) :   1.1038
B(  7-C ,  8-C ) :   1.2428 B(  7-C , 61-H ) :   1.0091 B(  8-C ,  9-C ) :   1.4364
B(  8-C , 13-C ) :   0.9979 B(  9-C , 10-S ) :   1.1348 B(  9-C , 11-C ) :   1.1860
B( 11-C , 12-C ) :   1.4558 B( 11-C , 21-S ) :   1.1158 B( 12-C , 13-C ) :   0.9927
B( 12-C , 19-C ) :   1.3009 B( 13-C , 14-C ) :   1.7172 B( 14-C , 15-C ) :   1.1330
B( 14-C , 17-C ) :   1.1327 B( 15-C , 16-N ) :   2.9885 B( 17-C , 18-N ) :   3.0013
B( 19-C , 20-C ) :   1.4563 B( 19-C , 62-H ) :   0.9802 B( 20-C , 21-S ) :   1.1053
B( 20-C , 22-C ) :   1.1679 B( 22-C , 23-C ) :   1.5188 B( 22-C , 27-S ) :   1.0581
B( 23-C , 24-C ) :   1.2483 B( 23-C , 63-H ) :   0.9581 B( 24-C , 25-C ) :   1.0538
B( 24-C , 33-C ) :   1.3836 B( 25-C , 26-C ) :   1.6144 B( 25-C , 28-C ) :   1.1756
B( 26-C , 27-S ) :   1.1339 B( 26-C , 64-H ) :   0.9400 B( 28-C , 29-C ) :   1.4421
B( 28-C , 32-S ) :   1.0767 B( 29-C , 30-C ) :   1.2213 B( 29-C , 33-C ) :   1.1007
B( 30-C , 31-C ) :   1.5865 B( 30-C , 65-H ) :   0.9979 B( 31-C , 32-S ) :   1.1544
B( 31-C , 66-H ) :   0.9657 B( 33-C , 34-C ) :   1.1595 B( 34-C , 35-C ) :   1.6459
B( 34-C , 67-H ) :   0.9610 B( 35-C , 36-C ) :   1.1275 B( 35-C , 68-H ) :   0.9560
B( 36-C , 37-C ) :   1.4447 B( 36-C , 40-S ) :   1.1099 B( 37-C , 38-C ) :   1.3059
B( 37-C , 69-H ) :   0.9891 B( 38-C , 39-C ) :   1.4419 B( 38-C , 43-C ) :   0.9922
B( 39-C , 40-S ) :   1.1059 B( 39-C , 41-C ) :   1.1951 B( 41-C , 42-C ) :   1.4322
B( 41-C , 51-S ) :   1.1382 B( 42-C , 43-C ) :   1.0005 B( 42-C , 49-C ) :   1.2411
B( 43-C , 44-C ) :   1.7123 B( 44-C , 45-C ) :   1.1316 B( 44-C , 47-C ) :   1.1342
B( 45-C , 46-N ) :   3.0024 B( 47-C , 48-N ) :   2.9840 B( 49-C , 50-C ) :   1.4918
B( 49-C , 70-H ) :   1.0093 B( 50-C , 51-S ) :   1.0958 B( 50-C , 52-C ) :   1.0562
B( 52-C , 53-C ) :   1.3156 B( 52-C , 57-N ) :   1.5734 B( 53-C , 54-N ) :   1.6007
B( 53-C , 71-H ) :   0.9747 B( 54-N , 55-C ) :   1.5343 B( 55-C , 56-C ) :   1.3507
B( 55-C , 72-H ) :   0.9785 B( 56-C , 57-N ) :   1.5498 B( 56-C , 73-H ) :   0.9764

-----------------------------------------------------------------------------
         ABSORPTION SPECTRUM VIA TRANSITION ELECTRIC DIPOLE MOMENTS
-----------------------------------------------------------------------------
State   Energy  Wavelength   fosc         T2         TX        TY        TZ
        (cm-1)    (nm)                  (au**2)     (au)      (au)      (au)
-----------------------------------------------------------------------------
   0   10289.6    971.9   0.173295098   5.54450  -1.17818  -0.94693   1.80547
   1   11005.1    908.7   0.110411873   3.30290   0.14563   1.31992   1.24077
   2   16889.9    592.1   0.090194889   1.75804  -0.41945   0.31288   1.21828
   3   17932.5    557.6   0.530892017   9.74632  -1.62947  -1.23503   2.35920
   4   19852.9    503.7   0.079038067   1.31066  -0.58944  -0.29764   0.93521
   5   22862.2    437.4   0.181146417   2.60848  -0.82681  -0.77118   1.15332
   6   24175.9    413.6   0.262434096   3.57366   0.20244   1.43860   1.20959
   7   25134.6    397.9   0.346696502   4.54102  -0.19940  -1.62321  -1.36618
   8   26256.8    380.9   0.068297416   0.85632  -0.06604   0.50514   0.77252
   9   26976.5    370.7   1.003321917  12.24418   0.43802   2.72145   2.15546
  10   27213.8    367.5   0.314482555   3.80438  -0.17441  -1.26775  -1.47199
  11   29251.2    341.9   0.176758683   1.98935   0.44323   1.33650  -0.08170
  12   29943.8    334.0   0.035694187   0.39243   0.51952  -0.09284  -0.33751
  13   30569.2    327.1   0.022511927   0.24244  -0.01116  -0.15668  -0.46665
  14   31077.2    321.8   0.243567254   2.58020  -0.90143   0.36456   1.27856
  15   31156.9    321.0   0.001158008   0.01224  -0.08345   0.02982  -0.06620
  16   31223.0    320.3   0.484854266   5.11226  -1.00719   0.24242   2.00974
  17   31493.6    317.5   0.533398939   5.57577  -2.10756  -1.03913  -0.23270
  18   32060.2    311.9   0.000468219   0.00481   0.01153   0.05906  -0.03446
  19   32327.3    309.3   0.259156918   2.63918   1.19617   1.09925   0.00298
  20   32555.6    307.2   0.423156663   4.27909  -1.03399  -1.48804   0.99784
  21   33141.1    301.7   0.351516319   3.49184   0.27973   1.14829   1.44742
  22   33746.2    296.3   0.068951796   0.67266  -0.08602   0.73211   0.35954
  23   34017.9    294.0   0.061909394   0.59913  -0.00938  -0.61104  -0.47506
  24   34435.9    290.4   0.553045159   5.28718  -1.01752  -2.04016  -0.29930
  25   34906.9    286.5   0.013193229   0.12443   0.22889   0.21615   0.15911
  26   35667.8    280.4   0.090331184   0.83375   0.46504   0.75538   0.21655
  27   35888.7    278.6   0.019095876   0.17517   0.33985   0.12819  -0.20794
  28   36177.3    276.4   0.010967239   0.09980   0.26856  -0.06787   0.15189
  29   36307.0    275.4   0.084426337   0.76553  -0.34649  -0.50030  -0.62863
  30   36611.6    273.1   0.000467788   0.00421  -0.03238   0.05176   0.02189
  31   37170.9    269.0   0.212977479   1.88628   0.38448  -0.44039  -1.24278
  32   37589.2    266.0   0.006997318   0.06128   0.20854  -0.00397  -0.13334
  33   38193.0    261.8   0.053717732   0.46303   0.23540   0.63685   0.04514
  34   38564.8    259.3   0.104184226   0.88938   0.50915   0.79189   0.05521
  35   39102.6    255.7   0.000853085   0.00718   0.03496  -0.06639   0.03939
  36   39254.3    254.7   0.011820004   0.09913   0.03609   0.16486   0.26580
  37   39439.0    253.6   0.006943717   0.05796   0.17378  -0.15121  -0.06998
  38   40055.3    249.7   0.001131213   0.00930   0.03623  -0.07154   0.05354
  39   40109.1    249.3   0.011712256   0.09613  -0.18601  -0.23950  -0.06460

FINAL SINGLE POINT ENERGY     -4509.884135044167

DIPOLE MOMENT
-------------
                                X             Y             Z
Electronic contribution:      3.68352      -5.48104     -12.43669
Nuclear contribution   :     -2.74847       5.64137      12.82630
                        -----------------------------------------
Total Dipole Moment    :      0.93504       0.16033       0.38961
                        -----------------------------------------
Magnitude (a.u.)       :      1.02558
Magnitude (Debye)      :      2.60681

Rotational constants in cm-1:     0.001053     0.000634     0.000405
Rotational constants in MHz :    31.558128    19.016364    12.155782

                             ****ORCA TERMINATED NORMALLY****
TOTAL RUN TIME: 0 days 0 hours 8 minutes 47 seconds 598 msec
