                         Program Version 4.2.0 -  RELEASE  -
|  1> # ORCA input file
|  2> # SCF done       -141.045341327391          0.000300670644
|  3> ! CAM-B3LYP def2-SVP def2/J RIJCOSX Grid4 TightSCF
|  4> %maxcore 5000
|  5> %tddft
|  6>     Mode sTDDFT
|  7>     Ethresh 5.0
|  8>     maxcore 5000
|  9> end
| 10>
| 11> %pal
| 12>   nprocs 6
| 13>   end
| 14> * xyz 0 1
| 15>    C        0.94980        -0.32562        -2.76877
| 16>    C       -0.06780         0.04858        -1.89848
| 17>    N       -0.88329        -0.83636        -1.35899
| 18>    C       -0.69844        -2.12296        -1.68048
| 19>    C        0.33014        -2.48780        -2.56209
| 20>    N        1.14067        -1.59715        -3.09571
| 21>    C       -1.59322        -3.07746        -1.08200
| 22>    C       -2.63610        -2.79524        -0.22814
| 23>    C       -3.30707        -3.95187         0.17830
| 24>    C       -2.75879        -5.12022        -0.37804
| 25>    S       -1.42990        -4.79644        -1.39618
| 26>    C       -3.49481        -6.23701         0.09586
| 27>    C       -4.50716        -5.77660         0.94954
| 28>    C       -4.42530        -4.32288         1.02715
| 29>    C       -5.23315        -3.49288         1.74659
| 30>    C       -6.29665        -3.97840         2.53681
| 31>    N       -7.16182        -4.36666         3.18134
| 32>    C       -5.06617        -2.09155         1.75175
| 33>    N       -4.94320        -0.95182         1.76505
| 34>    C       -5.28492        -6.80654         1.47943
| 35>    C       -4.87174        -8.04929         1.03611
| 36>    S       -3.50051        -7.94036        -0.05805
| 37>    C       -5.41512        -9.31307         1.37960
| 38>    C       -4.99746       -10.55369         0.94214
| 39>    C       -5.75807       -11.57851         1.50815
| 40>    C       -6.76622       -11.11521         2.38408
| 41>    S       -6.76944        -9.39611         2.50206
| 42>    C       -7.42135       -12.24417         2.87109
| 43>    C       -6.79469       -13.36499         2.27858
| 44>    N       -5.78131       -12.94711         1.45773
| 45>    C       -4.92798       -13.77531         0.65235
| 46>    C       -7.34049       -14.58464         2.68411
| 47>    C       -8.37453       -14.40442         3.58021
| 48>    S       -8.69500       -12.70998         3.93411
| 49>    C       -9.14864       -15.40811         4.21572
| 50>    C      -10.18039       -15.23072         5.11885
| 51>    C      -10.70724       -16.44608         5.55700
| 52>    C      -10.07339       -17.55736         4.98356
| 53>    S       -8.82825       -17.10746         3.90100
| 54>    C      -10.67146       -18.73643         5.49878
| 55>    C      -11.68518       -18.36911         6.40018
| 56>    C      -11.74508       -16.91963         6.46519
| 57>    C      -12.59062       -16.15615         7.21435
| 58>    C      -13.56478       -16.71924         8.06617
| 59>    N      -14.36114       -17.16188         8.76194
| 60>    C      -12.55153       -14.74581         7.18881
| 61>    N      -12.52530       -13.59957         7.17441
| 62>    C      -12.32784       -19.47304         6.96727
| 63>    C      -11.81252       -20.66328         6.50453
| 64>    S      -10.51310       -20.42746         5.34862
| 65>    C      -12.23869       -21.98351         6.88567
| 66>    C      -11.67309       -23.15223         6.35413
| 67>    N      -12.07519       -24.35161         6.72118
| 68>    C      -13.04704       -24.41994         7.62172
| 69>    C      -13.61771       -23.26895         8.15319
| 70>    N      -13.22066       -22.06423         7.79233
| 71>    H        1.62376         0.39199        -3.21378
| 72>    H       -0.23789         1.08020        -1.62245
| 73>    H        0.49732        -3.52092        -2.83910
| 74>    H       -2.87110        -1.78918         0.06654
| 75>    H       -6.11079        -6.67926         2.15581
| 76>    H       -4.18416       -10.68467         0.25136
| 77>    H       -4.95847       -14.79563         1.02910
| 78>    H       -3.90224       -13.40808         0.70295
| 79>    H       -5.25089       -13.77317        -0.39287
| 80>    H       -7.01866       -15.55759         2.35879
| 81>    H      -10.51468       -14.25774         5.43081
| 82>    H      -13.12962       -19.44206         7.68171
| 83>    H      -10.88020       -23.11236         5.61809
| 84>    H      -13.36436       -25.41076         7.91289
| 85>    H      -14.41177       -23.30673         8.88627
| 86> *
| 87>
| 88>                          ****END OF INPUT****

CARTESIAN COORDINATES (ANGSTROEM)
---------------------------------
  C      0.949800   -0.325620   -2.768770
  C     -0.067800    0.048580   -1.898480
  N     -0.883290   -0.836360   -1.358990
  C     -0.698440   -2.122960   -1.680480
  C      0.330140   -2.487800   -2.562090
  N      1.140670   -1.597150   -3.095710
  C     -1.593220   -3.077460   -1.082000
  C     -2.636100   -2.795240   -0.228140
  C     -3.307070   -3.951870    0.178300
  C     -2.758790   -5.120220   -0.378040
  S     -1.429900   -4.796440   -1.396180
  C     -3.494810   -6.237010    0.095860
  C     -4.507160   -5.776600    0.949540
  C     -4.425300   -4.322880    1.027150
  C     -5.233150   -3.492880    1.746590
  C     -6.296650   -3.978400    2.536810
  N     -7.161820   -4.366660    3.181340
  C     -5.066170   -2.091550    1.751750
  N     -4.943200   -0.951820    1.765050
  C     -5.284920   -6.806540    1.479430
  C     -4.871740   -8.049290    1.036110
  S     -3.500510   -7.940360   -0.058050
  C     -5.415120   -9.313070    1.379600
  C     -4.997460  -10.553690    0.942140
  C     -5.758070  -11.578510    1.508150
  C     -6.766220  -11.115210    2.384080
  S     -6.769440   -9.396110    2.502060
  C     -7.421350  -12.244170    2.871090
  C     -6.794690  -13.364990    2.278580
  N     -5.781310  -12.947110    1.457730
  C     -4.927980  -13.775310    0.652350
  C     -7.340490  -14.584640    2.684110
  C     -8.374530  -14.404420    3.580210
  S     -8.695000  -12.709980    3.934110
  C     -9.148640  -15.408110    4.215720
  C    -10.180390  -15.230720    5.118850
  C    -10.707240  -16.446080    5.557000
  C    -10.073390  -17.557360    4.983560
  S     -8.828250  -17.107460    3.901000
  C    -10.671460  -18.736430    5.498780
  C    -11.685180  -18.369110    6.400180
  C    -11.745080  -16.919630    6.465190
  C    -12.590620  -16.156150    7.214350
  C    -13.564780  -16.719240    8.066170
  N    -14.361140  -17.161880    8.761940
  C    -12.551530  -14.745810    7.188810
  N    -12.525300  -13.599570    7.174410
  C    -12.327840  -19.473040    6.967270
  C    -11.812520  -20.663280    6.504530
  S    -10.513100  -20.427460    5.348620
  C    -12.238690  -21.983510    6.885670
  C    -11.673090  -23.152230    6.354130
  N    -12.075190  -24.351610    6.721180
  C    -13.047040  -24.419940    7.621720
  C    -13.617710  -23.268950    8.153190
  N    -13.220660  -22.064230    7.792330
  H      1.623760    0.391990   -3.213780
  H     -0.237890    1.080200   -1.622450
  H      0.497320   -3.520920   -2.839100
  H     -2.871100   -1.789180    0.066540
  H     -6.110790   -6.679260    2.155810
  H     -4.184160  -10.684670    0.251360
  H     -4.958470  -14.795630    1.029100
  H     -3.902240  -13.408080    0.702950
  H     -5.250890  -13.773170   -0.392870
  H     -7.018660  -15.557590    2.358790
  H    -10.514680  -14.257740    5.430810
  H    -13.129620  -19.442060    7.681710
  H    -10.880200  -23.112360    5.618090
  H    -13.364360  -25.410760    7.912890
  H    -14.411770  -23.306730    8.886270

 Total Charge           Charge          ....    0
 Multiplicity           Mult            ....    1
 Number of Electrons    NEL             ....  420
 Basis Dimension        Dim             ....  883

ORBITAL ENERGIES
----------------

  NO   OCC          E(Eh)            E(eV)
   0   2.0000     -88.987463     -2421.4720
   1   2.0000     -88.987369     -2421.4694
   2   2.0000     -88.986782     -2421.4534
   3   2.0000     -88.986733     -2421.4521
   4   2.0000     -88.963246     -2420.8130
   5   2.0000     -88.962851     -2420.8023
   6   2.0000     -14.474543      -393.8723
   7   2.0000     -14.425979      -392.5508
   8   2.0000     -14.425911      -392.5490
   9   2.0000     -14.424755      -392.5175
  10   2.0000     -14.424686      -392.5157
  11   2.0000     -14.424453      -392.5093
  12   2.0000     -14.424359      -392.5068
  13   2.0000     -14.423783      -392.4911
  14   2.0000     -14.423730      -392.4897
  15   2.0000     -10.360443      -281.9220
  16   2.0000     -10.360428      -281.9216
  17   2.0000     -10.347138      -281.5599
  18   2.0000     -10.347107      -281.5591
  19   2.0000     -10.331926      -281.1460
  20   2.0000     -10.331875      -281.1446
  21   2.0000     -10.330820      -281.1159
  22   2.0000     -10.330789      -281.1151
  23   2.0000     -10.330409      -281.1047
  24   2.0000     -10.326186      -280.9898
  25   2.0000     -10.326128      -280.9882
  26   2.0000     -10.325934      -280.9829
  27   2.0000     -10.325896      -280.9819
  28   2.0000     -10.325558      -280.9727
  29   2.0000     -10.325464      -280.9702
  30   2.0000     -10.324713      -280.9497
  31   2.0000     -10.324675      -280.9487
  32   2.0000     -10.317430      -280.7515
  33   2.0000     -10.317426      -280.7514
  34   2.0000     -10.317386      -280.7503
  35   2.0000     -10.317359      -280.7496
  36   2.0000     -10.316118      -280.7158
  37   2.0000     -10.316088      -280.7150
  38   2.0000     -10.315718      -280.7050
  39   2.0000     -10.314491      -280.6716
  40   2.0000     -10.313235      -280.6374
  41   2.0000     -10.313200      -280.6364
  42   2.0000     -10.311584      -280.5925
  43   2.0000     -10.311575      -280.5922
  44   2.0000     -10.300429      -280.2889
  45   2.0000     -10.300342      -280.2865
  46   2.0000     -10.300335      -280.2864
  47   2.0000     -10.299969      -280.2764
  48   2.0000     -10.296648      -280.1860
  49   2.0000     -10.296601      -280.1848
  50   2.0000     -10.295727      -280.1610
  51   2.0000     -10.295671      -280.1594
  52   2.0000     -10.294380      -280.1243
  53   2.0000     -10.294295      -280.1220
  54   2.0000     -10.291796      -280.0540
  55   2.0000     -10.291716      -280.0518
  56   2.0000      -8.081952      -219.9211
  57   2.0000      -8.081908      -219.9199
  58   2.0000      -8.081297      -219.9033
  59   2.0000      -8.081231      -219.9015
  60   2.0000      -8.057742      -219.2623
  61   2.0000      -8.057405      -219.2531
  62   2.0000      -6.051138      -164.6598
  63   2.0000      -6.051085      -164.6584
  64   2.0000      -6.050583      -164.6447
  65   2.0000      -6.050537      -164.6435
  66   2.0000      -6.047013      -164.5476
  67   2.0000      -6.046979      -164.5467
  68   2.0000      -6.046501      -164.5336
  69   2.0000      -6.046419      -164.5314
  70   2.0000      -6.044453      -164.4779
  71   2.0000      -6.044388      -164.4761
  72   2.0000      -6.043540      -164.4531
  73   2.0000      -6.043486      -164.4516
  74   2.0000      -6.027499      -164.0166
  75   2.0000      -6.027152      -164.0071
  76   2.0000      -6.023401      -163.9051
  77   2.0000      -6.023079      -163.8963
  78   2.0000      -6.019022      -163.7859
  79   2.0000      -6.018668      -163.7763
  80   2.0000      -1.100959       -29.9586
  81   2.0000      -1.080742       -29.4085
  82   2.0000      -1.080621       -29.4052
  83   2.0000      -1.040110       -28.3028
  84   2.0000      -1.040060       -28.3015
  85   2.0000      -1.017328       -27.6829
  86   2.0000      -1.017301       -27.6822
  87   2.0000      -1.004159       -27.3245
  88   2.0000      -1.004000       -27.3202
  89   2.0000      -1.002385       -27.2763
  90   2.0000      -1.002364       -27.2757
  91   2.0000      -0.995092       -27.0778
  92   2.0000      -0.994645       -27.0657
  93   2.0000      -0.977598       -26.6018
  94   2.0000      -0.975684       -26.5497
  95   2.0000      -0.953154       -25.9366
  96   2.0000      -0.951700       -25.8971
  97   2.0000      -0.915151       -24.9025
  98   2.0000      -0.911005       -24.7897
  99   2.0000      -0.893668       -24.3179
 100   2.0000      -0.878474       -23.9045
 101   2.0000      -0.876283       -23.8449
 102   2.0000      -0.865982       -23.5646
 103   2.0000      -0.859830       -23.3972
 104   2.0000      -0.853431       -23.2230
 105   2.0000      -0.853359       -23.2211
 106   2.0000      -0.842633       -22.9292
 107   2.0000      -0.841954       -22.9107
 108   2.0000      -0.827589       -22.5198
 109   2.0000      -0.810122       -22.0445
 110   2.0000      -0.786384       -21.3986
 111   2.0000      -0.778725       -21.1902
 112   2.0000      -0.776329       -21.1250
 113   2.0000      -0.771417       -20.9913
 114   2.0000      -0.756610       -20.5884
 115   2.0000      -0.746051       -20.3011
 116   2.0000      -0.745773       -20.2935
 117   2.0000      -0.742059       -20.1924
 118   2.0000      -0.718629       -19.5549
 119   2.0000      -0.700246       -19.0547
 120   2.0000      -0.694226       -18.8908
 121   2.0000      -0.693612       -18.8741
 122   2.0000      -0.677658       -18.4400
 123   2.0000      -0.677001       -18.4221
 124   2.0000      -0.658826       -17.9276
 125   2.0000      -0.657539       -17.8926
 126   2.0000      -0.651533       -17.7291
 127   2.0000      -0.646521       -17.5927
 128   2.0000      -0.626835       -17.0570
 129   2.0000      -0.626626       -17.0514
 130   2.0000      -0.621243       -16.9049
 131   2.0000      -0.616262       -16.7693
 132   2.0000      -0.614217       -16.7137
 133   2.0000      -0.613429       -16.6922
 134   2.0000      -0.604645       -16.4532
 135   2.0000      -0.603554       -16.4236
 136   2.0000      -0.600538       -16.3415
 137   2.0000      -0.595779       -16.2120
 138   2.0000      -0.593012       -16.1367
 139   2.0000      -0.576937       -15.6992
 140   2.0000      -0.573803       -15.6140
 141   2.0000      -0.572285       -15.5727
 142   2.0000      -0.561492       -15.2790
 143   2.0000      -0.549063       -14.9408
 144   2.0000      -0.544078       -14.8051
 145   2.0000      -0.543994       -14.8028
 146   2.0000      -0.540797       -14.7158
 147   2.0000      -0.531131       -14.4528
 148   2.0000      -0.524821       -14.2811
 149   2.0000      -0.524640       -14.2762
 150   2.0000      -0.524486       -14.2720
 151   2.0000      -0.521372       -14.1872
 152   2.0000      -0.513618       -13.9762
 153   2.0000      -0.510469       -13.8906
 154   2.0000      -0.504764       -13.7353
 155   2.0000      -0.502118       -13.6633
 156   2.0000      -0.501895       -13.6573
 157   2.0000      -0.498082       -13.5535
 158   2.0000      -0.493863       -13.4387
 159   2.0000      -0.492435       -13.3998
 160   2.0000      -0.488991       -13.3061
 161   2.0000      -0.488074       -13.2812
 162   2.0000      -0.485233       -13.2039
 163   2.0000      -0.481686       -13.1073
 164   2.0000      -0.479284       -13.0420
 165   2.0000      -0.478273       -13.0145
 166   2.0000      -0.476690       -12.9714
 167   2.0000      -0.476462       -12.9652
 168   2.0000      -0.469359       -12.7719
 169   2.0000      -0.461867       -12.5680
 170   2.0000      -0.457320       -12.4443
 171   2.0000      -0.456397       -12.4192
 172   2.0000      -0.456363       -12.4183
 173   2.0000      -0.452730       -12.3194
 174   2.0000      -0.452309       -12.3080
 175   2.0000      -0.449356       -12.2276
 176   2.0000      -0.441424       -12.0117
 177   2.0000      -0.437765       -11.9122
 178   2.0000      -0.435467       -11.8497
 179   2.0000      -0.435393       -11.8476
 180   2.0000      -0.435320       -11.8457
 181   2.0000      -0.434404       -11.8207
 182   2.0000      -0.434349       -11.8192
 183   2.0000      -0.432155       -11.7595
 184   2.0000      -0.426170       -11.5967
 185   2.0000      -0.421938       -11.4815
 186   2.0000      -0.419726       -11.4213
 187   2.0000      -0.416428       -11.3316
 188   2.0000      -0.416228       -11.3261
 189   2.0000      -0.410226       -11.1628
 190   2.0000      -0.403796       -10.9878
 191   2.0000      -0.403096       -10.9688
 192   2.0000      -0.385388       -10.4869
 193   2.0000      -0.385298       -10.4845
 194   2.0000      -0.384534       -10.4637
 195   2.0000      -0.380112       -10.3434
 196   2.0000      -0.366842        -9.9823
 197   2.0000      -0.348564        -9.4849
 198   2.0000      -0.345464        -9.4005
 199   2.0000      -0.344929        -9.3860
 200   2.0000      -0.335610        -9.1324
 201   2.0000      -0.326980        -8.8976
 202   2.0000      -0.323891        -8.8135
 203   2.0000      -0.323811        -8.8113
 204   2.0000      -0.318663        -8.6713
 205   2.0000      -0.316461        -8.6113
 206   2.0000      -0.289664        -7.8822
 207   2.0000      -0.281837        -7.6692
 208   2.0000      -0.261346        -7.1116
 209   2.0000      -0.226862        -6.1732
 210   0.0000      -0.102674        -2.7939
 211   0.0000      -0.099354        -2.7036
 212   0.0000      -0.053528        -1.4566
 213   0.0000      -0.037570        -1.0223
 214   0.0000      -0.024257        -0.6601

MULLIKEN ATOMIC CHARGES
-----------------------
   0 C :    0.015614
   1 C :    0.042661
   2 N :   -0.050388
   3 C :   -0.012001
   4 C :   -0.023236
   5 N :   -0.043914
   6 C :   -0.047725
   7 C :   -0.038550
   8 C :    0.016022
   9 C :   -0.091619
  10 S :    0.171686
  11 C :   -0.103844
  12 C :    0.019219
  13 C :    0.299411
  14 C :   -0.296108
  15 C :   -0.187965
  16 N :    0.173590
  17 C :   -0.192801
  18 N :    0.179614
  19 C :   -0.071207
  20 C :   -0.040273
  21 S :    0.170695
  22 C :   -0.051837
  23 C :   -0.118886
  24 C :    0.159119
  25 C :   -0.113843
  26 S :    0.150514
  27 C :   -0.117195
  28 C :    0.159692
  29 N :   -0.167670
  30 C :    0.127859
  31 C :   -0.116305
  32 C :   -0.053326
  33 S :    0.149951
  34 C :   -0.042456
  35 C :   -0.068024
  36 C :    0.020447
  37 C :   -0.103379
  38 S :    0.169128
  39 C :   -0.091613
  40 C :    0.015790
  41 C :    0.297417
  42 C :   -0.297284
  43 C :   -0.190743
  44 N :    0.180650
  45 C :   -0.190106
  46 N :    0.174175
  47 C :   -0.042571
  48 C :   -0.045702
  49 S :    0.172455
  50 C :   -0.010110
  51 C :   -0.027736
  52 N :   -0.042794
  53 C :    0.016453
  54 C :    0.040170
  55 N :   -0.049482
  56 H :    0.014065
  57 H :    0.014788
  58 H :    0.004278
  59 H :    0.018241
  60 H :    0.015784
  61 H :   -0.021327
  62 H :    0.038346
  63 H :    0.040587
  64 H :    0.043872
  65 H :   -0.020635
  66 H :    0.014715
  67 H :    0.019867
  68 H :    0.006173
  69 H :    0.013159
  70 H :    0.016447
Sum of atomic charges:   -0.0000000

LOEWDIN ATOMIC CHARGES
----------------------
   0 C :   -0.008147
   1 C :    0.009444
   2 N :   -0.049592
   3 C :   -0.022744
   4 C :   -0.010339
   5 N :   -0.037916
   6 C :   -0.184692
   7 C :   -0.002016
   8 C :   -0.076816
   9 C :   -0.171715
  10 S :    0.473080
  11 C :   -0.190398
  12 C :   -0.062749
  13 C :    0.081674
  14 C :   -0.099386
  15 C :   -0.016621
  16 N :   -0.031771
  17 C :   -0.018346
  18 N :   -0.028094
  19 C :   -0.041985
  20 C :   -0.170296
  21 S :    0.465655
  22 C :   -0.178036
  23 C :   -0.082431
  24 C :   -0.017636
  25 C :   -0.218545
  26 S :    0.428976
  27 C :   -0.220527
  28 C :   -0.016058
  29 N :    0.027901
  30 C :    0.040604
  31 C :   -0.082694
  32 C :   -0.177861
  33 S :    0.428189
  34 C :   -0.170152
  35 C :   -0.041576
  36 C :   -0.062841
  37 C :   -0.190378
  38 S :    0.465441
  39 C :   -0.171764
  40 C :   -0.076702
  41 C :    0.081648
  42 C :   -0.099307
  43 C :   -0.018278
  44 N :   -0.028095
  45 C :   -0.016739
  46 N :   -0.031651
  47 C :   -0.002387
  48 C :   -0.184701
  49 S :    0.473296
  50 C :   -0.022915
  51 C :   -0.010877
  52 N :   -0.037596
  53 C :   -0.008021
  54 C :    0.009020
  55 N :   -0.049259
  56 H :    0.026157
  57 H :    0.028583
  58 H :    0.016691
  59 H :    0.045599
  60 H :    0.036683
  61 H :    0.024956
  62 H :    0.035500
  63 H :    0.033295
  64 H :    0.030080
  65 H :    0.024078
  66 H :    0.036598
  67 H :    0.045839
  68 H :    0.016925
  69 H :    0.025929
  70 H :    0.028809

  Mayer bond orders larger than 0.100000
B(  0-C ,  1-C ) :   1.3509 B(  0-C ,  5-N ) :   1.5338 B(  0-C , 56-H ) :   0.9785
B(  1-C ,  2-N ) :   1.5496 B(  1-C , 57-H ) :   0.9765 B(  2-N ,  3-C ) :   1.5741
B(  3-C ,  4-C ) :   1.3167 B(  3-C ,  6-C ) :   1.0547 B(  4-C ,  5-N ) :   1.5997
B(  4-C , 58-H ) :   0.9749 B(  6-C ,  7-C ) :   1.4899 B(  6-C , 10-S ) :   1.0990
B(  7-C ,  8-C ) :   1.2413 B(  7-C , 59-H ) :   1.0100 B(  8-C ,  9-C ) :   1.4366
B(  8-C , 13-C ) :   0.9984 B(  9-C , 10-S ) :   1.1352 B(  9-C , 11-C ) :   1.1867
B( 11-C , 12-C ) :   1.4584 B( 11-C , 21-S ) :   1.1052 B( 12-C , 13-C ) :   0.9917
B( 12-C , 19-C ) :   1.2916 B( 13-C , 14-C ) :   1.7170 B( 14-C , 15-C ) :   1.1313
B( 14-C , 17-C ) :   1.1331 B( 15-C , 16-N ) :   2.9918 B( 17-C , 18-N ) :   3.0003
B( 19-C , 20-C ) :   1.4594 B( 19-C , 60-H ) :   0.9894 B( 20-C , 21-S ) :   1.1086
B( 20-C , 22-C ) :   1.1751 B( 22-C , 23-C ) :   1.4730 B( 22-C , 26-S ) :   1.1002
B( 23-C , 24-C ) :   1.2353 B( 23-C , 61-H ) :   1.0040 B( 24-C , 25-C ) :   1.3944
B( 24-C , 29-N ) :   1.1499 B( 25-C , 26-S ) :   1.0315 B( 25-C , 27-C ) :   1.3940
B( 27-C , 28-C ) :   1.3929 B( 27-C , 33-S ) :   1.0299 B( 28-C , 29-N ) :   1.1471
B( 28-C , 31-C ) :   1.2338 B( 29-N , 30-C ) :   0.9694 B( 30-C , 62-H ) :   0.9732
B( 30-C , 63-H ) :   0.9712 B( 30-C , 64-H ) :   0.9734 B( 31-C , 32-C ) :   1.4782
B( 31-C , 65-H ) :   1.0011 B( 32-C , 33-S ) :   1.1000 B( 32-C , 34-C ) :   1.1747
B( 34-C , 35-C ) :   1.4597 B( 34-C , 38-S ) :   1.1082 B( 35-C , 36-C ) :   1.2907
B( 35-C , 66-H ) :   0.9899 B( 36-C , 37-C ) :   1.4578 B( 36-C , 41-C ) :   0.9912
B( 37-C , 38-S ) :   1.1049 B( 37-C , 39-C ) :   1.1871 B( 39-C , 40-C ) :   1.4376
B( 39-C , 49-S ) :   1.1354 B( 40-C , 41-C ) :   1.0002 B( 40-C , 47-C ) :   1.2414
B( 41-C , 42-C ) :   1.7175 B( 42-C , 43-C ) :   1.1317 B( 42-C , 45-C ) :   1.1337
B( 43-C , 44-N ) :   3.0009 B( 45-C , 46-N ) :   2.9912 B( 47-C , 48-C ) :   1.4891
B( 47-C , 67-H ) :   1.0102 B( 48-C , 49-S ) :   1.0990 B( 48-C , 50-C ) :   1.0558
B( 50-C , 51-C ) :   1.3140 B( 50-C , 55-N ) :   1.5736 B( 51-C , 52-N ) :   1.6007
B( 51-C , 68-H ) :   0.9761 B( 52-N , 53-C ) :   1.5349 B( 53-C , 54-C ) :   1.3484
B( 53-C , 69-H ) :   0.9793 B( 54-C , 55-N ) :   1.5507 B( 54-C , 70-H ) :   0.9773

-----------------------------------------------------------------------------
         ABSORPTION SPECTRUM VIA TRANSITION ELECTRIC DIPOLE MOMENTS
-----------------------------------------------------------------------------
State   Energy  Wavelength   fosc         T2         TX        TY        TZ
        (cm-1)    (nm)                  (au**2)     (au)      (au)      (au)
-----------------------------------------------------------------------------
   0   11207.4    892.3   0.416815503  12.24380   1.64738   2.83451  -1.22289
   1   11800.6    847.4   0.000233208   0.00651   0.02708   0.00361   0.07589
   2   20400.3    490.2   0.732048058  11.81350   1.61675   2.78577  -1.19963
   3   20592.8    485.6   0.000145481   0.00233   0.00999   0.03710  -0.02914
   4   23251.3    430.1   2.043537087  28.93415   2.53096   4.35872  -1.87880
   5   25168.1    397.3   0.001357847   0.01776   0.08821  -0.07883  -0.06136
   6   25809.7    387.5   0.012251972   0.15628  -0.19172  -0.31449   0.14360
   7   28068.0    356.3   0.004855471   0.05695  -0.20336   0.08805  -0.08856
   8   28786.5    347.4   0.000250077   0.00286   0.02231   0.04639  -0.01449
   9   29244.9    341.9   0.001277751   0.01438  -0.09542   0.06900   0.02276
  10   30908.6    323.5   0.090312451   0.96193  -0.46909  -0.78791   0.34796
  11   31688.4    315.6   0.014658825   0.15229   0.26679  -0.22750  -0.17133
  12   31792.4    314.5   0.002446799   0.02534   0.13741  -0.07990  -0.00845
  13   31795.9    314.5   0.002595205   0.02687   0.13709  -0.08949  -0.00820
  14   31854.4    313.9   1.441316344  14.89585   2.32639  -2.30594  -2.04117
  15   31946.6    313.0   0.052171052   0.53763   0.53571   0.26194  -0.42665
  16   33316.6    300.2   0.012956795   0.12803  -0.16934   0.22644   0.21927
  17   33689.5    296.8   0.394345167   3.85351  -0.96189  -1.54975   0.72564
  18   33784.1    296.0   0.126955015   1.23712   0.57662  -0.70763  -0.63553
  19   34808.6    287.3   0.002047279   0.01936   0.11408  -0.07667   0.02166
  20   35621.5    280.7   0.013730894   0.12690   0.15954   0.29674  -0.11573
  21   35845.8    279.0   0.448797651   4.12181   0.95699   1.64546  -0.70601
  22   35922.2    278.4   0.006208312   0.05690  -0.12872   0.19750   0.03636
  23   36875.3    271.2   0.010244360   0.09146   0.18799  -0.17726  -0.15716
  24   36880.4    271.1   0.252203836   2.25129   0.70032   1.22072  -0.52027
  25   37378.3    267.5   0.000690179   0.00608  -0.02199  -0.07404   0.01064
  26   37448.6    267.0   0.003175498   0.02792   0.10783  -0.01789   0.12636
  27   37457.2    267.0   0.003060599   0.02690  -0.11204   0.00398  -0.11971
  28   38230.7    261.6   0.012156225   0.10468   0.18276  -0.18827  -0.18930
  29   39150.8    255.4   0.137262974   1.15422  -0.67715   0.65225   0.51986
  30   39255.8    254.7   0.027803952   0.23317  -0.27178  -0.34342   0.20339
  31   39643.0    252.3   0.006822412   0.05666   0.11391   0.19142  -0.08390
  32   39712.4    251.8   0.018543202   0.15372  -0.26298   0.23519   0.17102

FINAL SINGLE POINT ENERGY     -4449.838218735244

DIPOLE MOMENT
-------------
                                X             Y             Z
Electronic contribution:     -8.37088       7.57452       6.37548
Nuclear contribution   :     11.25708     -10.35876      -8.93877
                        -----------------------------------------
Total Dipole Moment    :      2.88620      -2.78424      -2.56329
                        -----------------------------------------
Magnitude (a.u.)       :      4.75947
Magnitude (Debye)      :     12.09762

Rotational constants in cm-1:     0.005006     0.000279     0.000264
Rotational constants in MHz :   150.088355     8.362837     7.927553

                             ****ORCA TERMINATED NORMALLY****
TOTAL RUN TIME: 0 days 0 hours 5 minutes 22 seconds 930 msec
