                         Program Version 4.2.0 -  RELEASE  -
|  1> # ORCA input file
|  2> # SCF done       -210.952950351039          0.000338097074
|  3> ! CAM-B3LYP def2-SVP def2/J RIJCOSX Grid4 TightSCF
|  4> %maxcore 5000
|  5> %tddft
|  6>     Mode sTDDFT
|  7>     Ethresh 5.0
|  8>     maxcore 5000
|  9> end
| 10>
| 11> %pal
| 12>   nprocs 6
| 13>   end
| 14> * xyz 0 1
| 15>    C       -2.80259         2.79136         1.40478
| 16>    C       -2.60592         2.01978         0.26532
| 17>    N       -3.05272         0.78157         0.17665
| 18>    C       -3.70864         0.28691         1.23241
| 19>    C       -3.90032         1.07376         2.37654
| 20>    N       -3.45107         2.31028         2.45664
| 21>    C       -4.19555        -1.06752         1.12730
| 22>    C       -4.05390        -1.89491         0.05525
| 23>    C       -4.64135        -3.17100         0.24020
| 24>    C       -4.71689        -4.23616        -0.67988
| 25>    C       -4.08703        -4.18871        -1.98365
| 26>    C       -4.56990        -4.67558        -3.16500
| 27>    C       -3.66509        -4.50762        -4.23480
| 28>    C       -2.48714        -3.91057        -3.89024
| 29>    S       -2.48760        -3.53134        -2.20239
| 30>    C       -1.31757        -3.59813        -4.74954
| 31>   Cl       -4.03176        -5.01660        -5.83785
| 32>    C       -5.42716        -5.35905        -0.26899
| 33>    C       -6.04416        -5.47255         1.00191
| 34>    C       -5.96535        -4.41049         1.92410
| 35>    C       -5.25640        -3.28530         1.51171
| 36>    S       -5.06463        -1.82463         2.44004
| 37>    C       -6.59567        -4.45842         3.22752
| 38>    C       -6.11847        -3.96375         4.40738
| 39>    C       -7.02342        -4.13212         5.47773
| 40>    C       -8.19764        -4.73710         5.13690
| 41>    S       -8.19224        -5.12541         3.45006
| 42>    C       -9.36036        -5.07047         5.99751
| 43>   Cl       -6.65905        -3.60893         7.07725
| 44>    C       -6.64566        -6.74064         1.18212
| 45>    C       -6.51622        -7.56885         0.10471
| 46>    S       -5.63009        -6.81643        -1.20442
| 47>    C       -7.02213        -8.89067        -0.03314
| 48>    C       -6.86789        -9.75223        -1.09892
| 49>    C       -7.51986       -10.96999        -0.88517
| 50>    C       -8.17541       -11.02612         0.35420
| 51>    S       -7.98856        -9.59070         1.25765
| 52>    C       -8.81190       -12.28975         0.47587
| 53>    C       -8.55506       -13.03174        -0.68711
| 54>    C       -7.73445       -12.22876        -1.58139
| 55>    C       -7.26947       -12.58493        -2.81319
| 56>    C       -6.47656       -11.72104        -3.59783
| 57>    N       -5.82935       -11.02496        -4.23910
| 58>    C       -7.55171       -13.84337        -3.38458
| 59>    N       -7.78105       -14.86532        -3.85180
| 60>    C       -9.14813       -14.29532        -0.66750
| 61>    C       -9.85370       -14.51534         0.49990
| 62>    S       -9.78250       -13.14301         1.58993
| 63>    C      -10.59163       -15.67916         0.85674
| 64>    C      -10.68315       -16.84933         0.15697
| 65>    C      -11.52007       -17.81284         0.76822
| 66>    C      -11.80489       -19.12085         0.32690
| 67>    C      -11.29041       -19.65678        -0.91643
| 68>    C      -10.86576       -20.93127        -1.16482
| 69>    C      -10.47414       -21.12542        -2.50657
| 70>    C      -10.60190       -20.02214        -3.29970
| 71>    S      -11.21657       -18.69815        -2.37189
| 72>    C      -10.29717       -19.87135        -4.74441
| 73>   Cl       -9.88134       -22.63644        -3.08097
| 74>    C      -12.63527       -19.88250         1.14576
| 75>    C      -13.18731       -19.40400         2.35932
| 76>    C      -12.87962       -18.10502         2.81283
| 77>    C      -12.06426       -17.33970         1.98903
| 78>    S      -11.53586       -15.71599         2.32978
| 79>    C      -13.38490       -17.61356         4.07831
| 80>    C      -13.47858       -18.28724         5.26284
| 81>    C      -14.01541       -17.49262         6.29792
| 82>    C      -14.33839       -16.22020         5.92404
| 83>    S      -13.96927       -15.98118         4.25131
| 84>    C      -14.93716       -15.13864         6.74669
| 85>   Cl      -14.23452       -18.08378         7.90051
| 86>    C      -14.07025       -20.34536         2.94343
| 87>    C      -14.18374       -21.50114         2.23202
| 88>    S      -13.19533       -21.49343         0.79127
| 89>    C      -15.00476       -22.63766         2.57477
| 90>    C      -15.07790       -23.78816         1.77757
| 91>    N      -15.83294       -24.81747         2.10581
| 92>    C      -16.53084       -24.72679         3.22964
| 93>    C      -16.46633       -23.59050         4.02789
| 94>    N      -15.71225       -22.55634         3.70735
| 95>    H       -2.44099         3.80643         1.48517
| 96>    H       -2.07893         2.39808        -0.60012
| 97>    H       -4.42787         0.69152         3.24062
| 98>    H       -3.55218        -1.57306        -0.83743
| 99>    H       -5.54650        -5.10508        -3.28847
|100>    H       -0.50879        -4.30701        -4.56883
|101>    H       -0.94220        -2.59872        -4.53851
|102>    H       -1.60504        -3.66119        -5.79626
|103>    H       -5.14528        -3.52632         4.52886
|104>    H       -9.49498        -6.15024         6.05987
|105>    H      -10.27520        -4.64192         5.59052
|106>    H       -9.19841        -4.67801         6.99816
|107>    H       -7.14810        -7.04515         2.08179
|108>    H       -6.30683        -9.49150        -1.97834
|109>    H       -9.08186       -15.01782        -1.45919
|110>    H      -10.15377       -17.01877        -0.76079
|111>    H      -10.79370       -21.70023        -0.41857
|112>    H       -9.68656       -20.70620        -5.07954
|113>    H       -9.76608       -18.93943        -4.92894
|114>    H      -11.21673       -19.85665        -5.33061
|115>    H      -13.14099       -19.29627         5.41025
|116>    H      -16.02631       -15.17770         6.69628
|117>    H      -14.61450       -14.16398         6.38882
|118>    H      -14.64123       -15.25853         7.78690
|119>    H      -14.63330       -20.17831         3.84200
|120>    H      -14.51331       -23.87262         0.85830
|121>    H      -17.14483       -25.57845         3.48514
|122>    H      -17.02910       -23.50161         4.94723
|123> *
|124>
|125>                          ****END OF INPUT****

CARTESIAN COORDINATES (ANGSTROEM)
---------------------------------
  C     -2.802590    2.791360    1.404780
  C     -2.605920    2.019780    0.265320
  N     -3.052720    0.781570    0.176650
  C     -3.708640    0.286910    1.232410
  C     -3.900320    1.073760    2.376540
  N     -3.451070    2.310280    2.456640
  C     -4.195550   -1.067520    1.127300
  C     -4.053900   -1.894910    0.055250
  C     -4.641350   -3.171000    0.240200
  C     -4.716890   -4.236160   -0.679880
  C     -4.087030   -4.188710   -1.983650
  C     -4.569900   -4.675580   -3.165000
  C     -3.665090   -4.507620   -4.234800
  C     -2.487140   -3.910570   -3.890240
  S     -2.487600   -3.531340   -2.202390
  C     -1.317570   -3.598130   -4.749540
  Cl    -4.031760   -5.016600   -5.837850
  C     -5.427160   -5.359050   -0.268990
  C     -6.044160   -5.472550    1.001910
  C     -5.965350   -4.410490    1.924100
  C     -5.256400   -3.285300    1.511710
  S     -5.064630   -1.824630    2.440040
  C     -6.595670   -4.458420    3.227520
  C     -6.118470   -3.963750    4.407380
  C     -7.023420   -4.132120    5.477730
  C     -8.197640   -4.737100    5.136900
  S     -8.192240   -5.125410    3.450060
  C     -9.360360   -5.070470    5.997510
  Cl    -6.659050   -3.608930    7.077250
  C     -6.645660   -6.740640    1.182120
  C     -6.516220   -7.568850    0.104710
  S     -5.630090   -6.816430   -1.204420
  C     -7.022130   -8.890670   -0.033140
  C     -6.867890   -9.752230   -1.098920
  C     -7.519860  -10.969990   -0.885170
  C     -8.175410  -11.026120    0.354200
  S     -7.988560   -9.590700    1.257650
  C     -8.811900  -12.289750    0.475870
  C     -8.555060  -13.031740   -0.687110
  C     -7.734450  -12.228760   -1.581390
  C     -7.269470  -12.584930   -2.813190
  C     -6.476560  -11.721040   -3.597830
  N     -5.829350  -11.024960   -4.239100
  C     -7.551710  -13.843370   -3.384580
  N     -7.781050  -14.865320   -3.851800
  C     -9.148130  -14.295320   -0.667500
  C     -9.853700  -14.515340    0.499900
  S     -9.782500  -13.143010    1.589930
  C    -10.591630  -15.679160    0.856740
  C    -10.683150  -16.849330    0.156970
  C    -11.520070  -17.812840    0.768220
  C    -11.804890  -19.120850    0.326900
  C    -11.290410  -19.656780   -0.916430
  C    -10.865760  -20.931270   -1.164820
  C    -10.474140  -21.125420   -2.506570
  C    -10.601900  -20.022140   -3.299700
  S    -11.216570  -18.698150   -2.371890
  C    -10.297170  -19.871350   -4.744410
  Cl    -9.881340  -22.636440   -3.080970
  C    -12.635270  -19.882500    1.145760
  C    -13.187310  -19.404000    2.359320
  C    -12.879620  -18.105020    2.812830
  C    -12.064260  -17.339700    1.989030
  S    -11.535860  -15.715990    2.329780
  C    -13.384900  -17.613560    4.078310
  C    -13.478580  -18.287240    5.262840
  C    -14.015410  -17.492620    6.297920
  C    -14.338390  -16.220200    5.924040
  S    -13.969270  -15.981180    4.251310
  C    -14.937160  -15.138640    6.746690
  Cl   -14.234520  -18.083780    7.900510
  C    -14.070250  -20.345360    2.943430
  C    -14.183740  -21.501140    2.232020
  S    -13.195330  -21.493430    0.791270
  C    -15.004760  -22.637660    2.574770
  C    -15.077900  -23.788160    1.777570
  N    -15.832940  -24.817470    2.105810
  C    -16.530840  -24.726790    3.229640
  C    -16.466330  -23.590500    4.027890
  N    -15.712250  -22.556340    3.707350
  H     -2.440990    3.806430    1.485170
  H     -2.078930    2.398080   -0.600120
  H     -4.427870    0.691520    3.240620
  H     -3.552180   -1.573060   -0.837430
  H     -5.546500   -5.105080   -3.288470
  H     -0.508790   -4.307010   -4.568830
  H     -0.942200   -2.598720   -4.538510
  H     -1.605040   -3.661190   -5.796260
  H     -5.145280   -3.526320    4.528860
  H     -9.494980   -6.150240    6.059870
  H    -10.275200   -4.641920    5.590520
  H     -9.198410   -4.678010    6.998160
  H     -7.148100   -7.045150    2.081790
  H     -6.306830   -9.491500   -1.978340
  H     -9.081860  -15.017820   -1.459190
  H    -10.153770  -17.018770   -0.760790
  H    -10.793700  -21.700230   -0.418570
  H     -9.686560  -20.706200   -5.079540
  H     -9.766080  -18.939430   -4.928940
  H    -11.216730  -19.856650   -5.330610
  H    -13.140990  -19.296270    5.410250
  H    -16.026310  -15.177700    6.696280
  H    -14.614500  -14.163980    6.388820
  H    -14.641230  -15.258530    7.786900
  H    -14.633300  -20.178310    3.842000
  H    -14.513310  -23.872620    0.858300
  H    -17.144830  -25.578450    3.485140
  H    -17.029100  -23.501610    4.947230

 Total Charge           Charge          ....    0
 Multiplicity           Mult            ....    1
 Number of Electrons    NEL             ....  658
 Basis Dimension        Dim             .... 1316

ORBITAL ENERGIES
----------------

  NO   OCC          E(Eh)            E(eV)
   0   2.0000    -101.584849     -2764.2643
   1   2.0000    -101.583764     -2764.2348
   2   2.0000    -101.580888     -2764.1565
   3   2.0000    -101.579836     -2764.1279
   4   2.0000     -88.990009     -2421.5413
   5   2.0000     -88.988758     -2421.5072
   6   2.0000     -88.960345     -2420.7341
   7   2.0000     -88.959434     -2420.7093
   8   2.0000     -88.958203     -2420.6758
   9   2.0000     -88.957152     -2420.6472
  10   2.0000     -88.956965     -2420.6421
  11   2.0000     -88.956095     -2420.6184
  12   2.0000     -88.954312     -2420.5699
  13   2.0000     -88.953962     -2420.5604
  14   2.0000     -14.430198      -392.6657
  15   2.0000     -14.428533      -392.6203
  16   2.0000     -14.422660      -392.4605
  17   2.0000     -14.422555      -392.4577
  18   2.0000     -14.421749      -392.4357
  19   2.0000     -14.421496      -392.4288
  20   2.0000     -10.363389      -282.0021
  21   2.0000     -10.350902      -281.6624
  22   2.0000     -10.331809      -281.1428
  23   2.0000     -10.330709      -281.1129
  24   2.0000     -10.330010      -281.0939
  25   2.0000     -10.328689      -281.0579
  26   2.0000     -10.327271      -281.0193
  27   2.0000     -10.327121      -281.0152
  28   2.0000     -10.325823      -280.9799
  29   2.0000     -10.324707      -280.9496
  30   2.0000     -10.320188      -280.8266
  31   2.0000     -10.318083      -280.7693
  32   2.0000     -10.317926      -280.7650
  33   2.0000     -10.317915      -280.7647
  34   2.0000     -10.315968      -280.7118
  35   2.0000     -10.315349      -280.6949
  36   2.0000     -10.314629      -280.6753
  37   2.0000     -10.314424      -280.6697
  38   2.0000     -10.314112      -280.6613
  39   2.0000     -10.313922      -280.6561
  40   2.0000     -10.310962      -280.5755
  41   2.0000     -10.310786      -280.5707
  42   2.0000     -10.309747      -280.5425
  43   2.0000     -10.309021      -280.5227
  44   2.0000     -10.308922      -280.5200
  45   2.0000     -10.308502      -280.5086
  46   2.0000     -10.307941      -280.4933
  47   2.0000     -10.306925      -280.4657
  48   2.0000     -10.305885      -280.4374
  49   2.0000     -10.305754      -280.4338
  50   2.0000     -10.305075      -280.4154
  51   2.0000     -10.304272      -280.3935
  52   2.0000     -10.303614      -280.3756
  53   2.0000     -10.303374      -280.3691
  54   2.0000     -10.302036      -280.3326
  55   2.0000     -10.301931      -280.3298
  56   2.0000     -10.301554      -280.3195
  57   2.0000     -10.301268      -280.3117
  58   2.0000     -10.301056      -280.3060
  59   2.0000     -10.300962      -280.3034
  60   2.0000     -10.300556      -280.2924
  61   2.0000     -10.300302      -280.2855
  62   2.0000     -10.299981      -280.2767
  63   2.0000     -10.299812      -280.2721
  64   2.0000     -10.293118      -280.0900
  65   2.0000     -10.292880      -280.0835
  66   2.0000     -10.289519      -279.9920
  67   2.0000     -10.289483      -279.9911
  68   2.0000     -10.281325      -279.7691
  69   2.0000     -10.280641      -279.7505
  70   2.0000     -10.280533      -279.7475
  71   2.0000     -10.279955      -279.7318
  72   2.0000     -10.278955      -279.7046
  73   2.0000     -10.278175      -279.6833
  74   2.0000     -10.277971      -279.6778
  75   2.0000     -10.277468      -279.6641
  76   2.0000     -10.275644      -279.6145
  77   2.0000     -10.275341      -279.6063
  78   2.0000     -10.274121      -279.5730
  79   2.0000     -10.272653      -279.5331
  80   2.0000      -9.539605      -259.5859
  81   2.0000      -9.538511      -259.5561
  82   2.0000      -9.535671      -259.4788
  83   2.0000      -9.534605      -259.4498
  84   2.0000      -8.084557      -219.9920
  85   2.0000      -8.083269      -219.9569
  86   2.0000      -8.055971      -219.2141
  87   2.0000      -8.055102      -219.1905
  88   2.0000      -8.053804      -219.1552
  89   2.0000      -8.052533      -219.1206
  90   2.0000      -8.052201      -219.1115
  91   2.0000      -8.051689      -219.0976
  92   2.0000      -8.049477      -219.0374
  93   2.0000      -8.049106      -219.0273
  94   2.0000      -7.309824      -198.9104
  95   2.0000      -7.308757      -198.8814
  96   2.0000      -7.305884      -198.8032
  97   2.0000      -7.304834      -198.7747
  98   2.0000      -7.299700      -198.6349
  99   2.0000      -7.299605      -198.6323
 100   2.0000      -7.298648      -198.6063
 101   2.0000      -7.298455      -198.6010
 102   2.0000      -7.295786      -198.5284
 103   2.0000      -7.295658      -198.5249
 104   2.0000      -7.294707      -198.4991
 105   2.0000      -7.294581      -198.4957
 106   2.0000      -6.053833      -164.7332
 107   2.0000      -6.052537      -164.6979
 108   2.0000      -6.049553      -164.6167
 109   2.0000      -6.048378      -164.5847
 110   2.0000      -6.047009      -164.5475
 111   2.0000      -6.045589      -164.5088
 112   2.0000      -6.025307      -163.9569
 113   2.0000      -6.024324      -163.9302
 114   2.0000      -6.023521      -163.9083
 115   2.0000      -6.021941      -163.8653
 116   2.0000      -6.021814      -163.8619
 117   2.0000      -6.021109      -163.8427
 118   2.0000      -6.021005      -163.8399
 119   2.0000      -6.020235      -163.8189
 120   2.0000      -6.019308      -163.7937
 121   2.0000      -6.019096      -163.7879
 122   2.0000      -6.018740      -163.7783
 123   2.0000      -6.018027      -163.7589
 124   2.0000      -6.017743      -163.7511
 125   2.0000      -6.017697      -163.7499
 126   2.0000      -6.017249      -163.7377
 127   2.0000      -6.016821      -163.7260
 128   2.0000      -6.015021      -163.6770
 129   2.0000      -6.014964      -163.6755
 130   2.0000      -6.014606      -163.6657
 131   2.0000      -6.014596      -163.6655
 132   2.0000      -6.013757      -163.6426
 133   2.0000      -6.013426      -163.6336
 134   2.0000      -6.010913      -163.5653
 135   2.0000      -6.010529      -163.5548
 136   2.0000      -1.078447       -29.3460
 137   2.0000      -1.078257       -29.3409
 138   2.0000      -1.043761       -28.4022
 139   2.0000      -1.021461       -27.7954
 140   2.0000      -1.016458       -27.6592
 141   2.0000      -1.014810       -27.6144
 142   2.0000      -1.006955       -27.4006
 143   2.0000      -1.003042       -27.2941
 144   2.0000      -1.001796       -27.2602
 145   2.0000      -1.001708       -27.2579
 146   2.0000      -0.999705       -27.2034
 147   2.0000      -0.999292       -27.1921
 148   2.0000      -0.994937       -27.0736
 149   2.0000      -0.991853       -26.9897
 150   2.0000      -0.982050       -26.7229
 151   2.0000      -0.975774       -26.5521
 152   2.0000      -0.956790       -26.0356
 153   2.0000      -0.944993       -25.7146
 154   2.0000      -0.944404       -25.6986
 155   2.0000      -0.939836       -25.5742
 156   2.0000      -0.939563       -25.5668
 157   2.0000      -0.923608       -25.1326
 158   2.0000      -0.917906       -24.9775
 159   2.0000      -0.903880       -24.5958
 160   2.0000      -0.900599       -24.5065
 161   2.0000      -0.900160       -24.4946
 162   2.0000      -0.877315       -23.8730
 163   2.0000      -0.875757       -23.8306
 164   2.0000      -0.868703       -23.6386
 165   2.0000      -0.862283       -23.4639
 166   2.0000      -0.859896       -23.3990
 167   2.0000      -0.856150       -23.2970
 168   2.0000      -0.850539       -23.1443
 169   2.0000      -0.849084       -23.1048
 170   2.0000      -0.843925       -22.9644
 171   2.0000      -0.838731       -22.8230
 172   2.0000      -0.832887       -22.6640
 173   2.0000      -0.817686       -22.2504
 174   2.0000      -0.811011       -22.0687
 175   2.0000      -0.809298       -22.0221
 176   2.0000      -0.806636       -21.9497
 177   2.0000      -0.806163       -21.9368
 178   2.0000      -0.799899       -21.7664
 179   2.0000      -0.798073       -21.7167
 180   2.0000      -0.790622       -21.5139
 181   2.0000      -0.785334       -21.3700
 182   2.0000      -0.776953       -21.1420
 183   2.0000      -0.773973       -21.0609
 184   2.0000      -0.760634       -20.6979
 185   2.0000      -0.748454       -20.3665
 186   2.0000      -0.747610       -20.3435
 187   2.0000      -0.745691       -20.2913
 188   2.0000      -0.741524       -20.1779
 189   2.0000      -0.741154       -20.1678
 190   2.0000      -0.725195       -19.7335
 191   2.0000      -0.708631       -19.2828
 192   2.0000      -0.699742       -19.0410
 193   2.0000      -0.698162       -18.9980
 194   2.0000      -0.685150       -18.6439
 195   2.0000      -0.681705       -18.5501
 196   2.0000      -0.671985       -18.2856
 197   2.0000      -0.663111       -18.0442
 198   2.0000      -0.654911       -17.8210
 199   2.0000      -0.652234       -17.7482
 200   2.0000      -0.651085       -17.7169
 201   2.0000      -0.648740       -17.6531
 202   2.0000      -0.641802       -17.4643
 203   2.0000      -0.638845       -17.3839
 204   2.0000      -0.630548       -17.1581
 205   2.0000      -0.629871       -17.1397
 206   2.0000      -0.624320       -16.9886
 207   2.0000      -0.617168       -16.7940
 208   2.0000      -0.612364       -16.6633
 209   2.0000      -0.610636       -16.6162
 210   2.0000      -0.610236       -16.6054
 211   2.0000      -0.609134       -16.5754
 212   2.0000      -0.604829       -16.4582
 213   2.0000      -0.602200       -16.3867
 214   2.0000      -0.600255       -16.3338
 215   2.0000      -0.599582       -16.3155
 216   2.0000      -0.590562       -16.0700
 217   2.0000      -0.586580       -15.9616
 218   2.0000      -0.582782       -15.8583
 219   2.0000      -0.582015       -15.8374
 220   2.0000      -0.576646       -15.6913
 221   2.0000      -0.576138       -15.6775
 222   2.0000      -0.561537       -15.2802
 223   2.0000      -0.558458       -15.1964
 224   2.0000      -0.547617       -14.9014
 225   2.0000      -0.546508       -14.8712
 226   2.0000      -0.542465       -14.7612
 227   2.0000      -0.541316       -14.7300
 228   2.0000      -0.539868       -14.6906
 229   2.0000      -0.530891       -14.4463
 230   2.0000      -0.526156       -14.3174
 231   2.0000      -0.525843       -14.3089
 232   2.0000      -0.525436       -14.2978
 233   2.0000      -0.521791       -14.1987
 234   2.0000      -0.520906       -14.1746
 235   2.0000      -0.520390       -14.1605
 236   2.0000      -0.519314       -14.1312
 237   2.0000      -0.517979       -14.0949
 238   2.0000      -0.517426       -14.0799
 239   2.0000      -0.515710       -14.0332
 240   2.0000      -0.512828       -13.9547
 241   2.0000      -0.512627       -13.9493
 242   2.0000      -0.512031       -13.9331
 243   2.0000      -0.508200       -13.8288
 244   2.0000      -0.503554       -13.7024
 245   2.0000      -0.503039       -13.6884
 246   2.0000      -0.501577       -13.6486
 247   2.0000      -0.497721       -13.5437
 248   2.0000      -0.495818       -13.4919
 249   2.0000      -0.494759       -13.4631
 250   2.0000      -0.493754       -13.4357
 251   2.0000      -0.492050       -13.3893
 252   2.0000      -0.483946       -13.1688
 253   2.0000      -0.482196       -13.1212
 254   2.0000      -0.480853       -13.0847
 255   2.0000      -0.479743       -13.0545
 256   2.0000      -0.478275       -13.0145
 257   2.0000      -0.474779       -12.9194
 258   2.0000      -0.472951       -12.8697
 259   2.0000      -0.472655       -12.8616
 260   2.0000      -0.471159       -12.8209
 261   2.0000      -0.469801       -12.7839
 262   2.0000      -0.469453       -12.7745
 263   2.0000      -0.466578       -12.6962
 264   2.0000      -0.464379       -12.6364
 265   2.0000      -0.463072       -12.6008
 266   2.0000      -0.462209       -12.5773
 267   2.0000      -0.461835       -12.5672
 268   2.0000      -0.460839       -12.5401
 269   2.0000      -0.459293       -12.4980
 270   2.0000      -0.457741       -12.4558
 271   2.0000      -0.457318       -12.4442
 272   2.0000      -0.454721       -12.3736
 273   2.0000      -0.451429       -12.2840
 274   2.0000      -0.449816       -12.2401
 275   2.0000      -0.444376       -12.0921
 276   2.0000      -0.442786       -12.0488
 277   2.0000      -0.439955       -11.9718
 278   2.0000      -0.439524       -11.9601
 279   2.0000      -0.437817       -11.9136
 280   2.0000      -0.436682       -11.8827
 281   2.0000      -0.430498       -11.7144
 282   2.0000      -0.428725       -11.6662
 283   2.0000      -0.425790       -11.5863
 284   2.0000      -0.423585       -11.5263
 285   2.0000      -0.421471       -11.4688
 286   2.0000      -0.420241       -11.4353
 287   2.0000      -0.419158       -11.4059
 288   2.0000      -0.417704       -11.3663
 289   2.0000      -0.416909       -11.3447
 290   2.0000      -0.415420       -11.3042
 291   2.0000      -0.413401       -11.2492
 292   2.0000      -0.408506       -11.1160
 293   2.0000      -0.405930       -11.0459
 294   2.0000      -0.405681       -11.0391
 295   2.0000      -0.403990       -10.9931
 296   2.0000      -0.401631       -10.9289
 297   2.0000      -0.394659       -10.7392
 298   2.0000      -0.390438       -10.6244
 299   2.0000      -0.383396       -10.4327
 300   2.0000      -0.383217       -10.4279
 301   2.0000      -0.381714       -10.3870
 302   2.0000      -0.380275       -10.3478
 303   2.0000      -0.378577       -10.3016
 304   2.0000      -0.377957       -10.2847
 305   2.0000      -0.375584       -10.2202
 306   2.0000      -0.374562       -10.1924
 307   2.0000      -0.369358       -10.0507
 308   2.0000      -0.352955        -9.6044
 309   2.0000      -0.349078        -9.4989
 310   2.0000      -0.342788        -9.3277
 311   2.0000      -0.334008        -9.0888
 312   2.0000      -0.323538        -8.8039
 313   2.0000      -0.321605        -8.7513
 314   2.0000      -0.321404        -8.7459
 315   2.0000      -0.320275        -8.7151
 316   2.0000      -0.318156        -8.6575
 317   2.0000      -0.316011        -8.5991
 318   2.0000      -0.314348        -8.5538
 319   2.0000      -0.313373        -8.5273
 320   2.0000      -0.303725        -8.2648
 321   2.0000      -0.301159        -8.1949
 322   2.0000      -0.299995        -8.1633
 323   2.0000      -0.291951        -7.9444
 324   2.0000      -0.289679        -7.8826
 325   2.0000      -0.282132        -7.6772
 326   2.0000      -0.261094        -7.1047
 327   2.0000      -0.247359        -6.7310
 328   2.0000      -0.236125        -6.4253
 329   0.0000      -0.104015        -2.8304
 330   0.0000      -0.063344        -1.7237
 331   0.0000      -0.053498        -1.4558
 332   0.0000      -0.024525        -0.6674
 333   0.0000      -0.017617        -0.4794

MULLIKEN ATOMIC CHARGES
-----------------------
   0 C :    0.020818
   1 C :    0.036874
   2 N :   -0.044380
   3 C :   -0.015575
   4 C :   -0.018224
   5 N :   -0.043610
   6 C :   -0.006824
   7 C :   -0.065176
   8 C :    0.090007
   9 C :    0.144536
  10 C :   -0.211055
  11 C :    0.036434
  12 C :    0.083762
  13 C :   -0.266017
  14 S :    0.144826
  15 C :    0.121555
  16 Cl:   -0.085815
  17 C :   -0.143672
  18 C :    0.091327
  19 C :    0.141941
  20 C :   -0.139057
  21 S :    0.102828
  22 C :   -0.208647
  23 C :    0.035948
  24 C :    0.083311
  25 C :   -0.264486
  26 S :    0.132109
  27 C :    0.122698
  28 Cl:   -0.087716
  29 C :   -0.097869
  30 C :   -0.008954
  31 S :    0.121797
  32 C :   -0.048909
  33 C :   -0.057288
  34 C :    0.015054
  35 C :   -0.099888
  36 S :    0.183454
  37 C :   -0.101984
  38 C :    0.014577
  39 C :    0.303211
  40 C :   -0.298767
  41 C :   -0.190773
  42 N :    0.177476
  43 C :   -0.184792
  44 N :    0.168232
  45 C :   -0.055491
  46 C :   -0.046727
  47 S :    0.194431
  48 C :   -0.014300
  49 C :   -0.084559
  50 C :    0.086325
  51 C :    0.144264
  52 C :   -0.214596
  53 C :    0.033908
  54 C :    0.085256
  55 C :   -0.264518
  56 S :    0.136581
  57 C :    0.120272
  58 Cl:   -0.088573
  59 C :   -0.136459
  60 C :    0.098754
  61 C :    0.141665
  62 C :   -0.141693
  63 S :    0.112120
  64 C :   -0.217804
  65 C :    0.042550
  66 C :    0.082940
  67 C :   -0.262698
  68 S :    0.142026
  69 C :    0.115696
  70 Cl:   -0.089353
  71 C :   -0.075250
  72 C :   -0.001527
  73 S :    0.105670
  74 C :   -0.015601
  75 C :   -0.016204
  76 N :   -0.044608
  77 C :    0.019019
  78 C :    0.039169
  79 N :   -0.047023
  80 H :    0.012931
  81 H :    0.010692
  82 H :    0.012008
  83 H :   -0.002822
  84 H :   -0.007196
  85 H :    0.042903
  86 H :    0.025958
  87 H :    0.027436
  88 H :   -0.007630
  89 H :    0.034765
  90 H :    0.033595
  91 H :    0.024978
  92 H :   -0.012206
  93 H :    0.015408
  94 H :    0.007693
  95 H :   -0.007867
  96 H :   -0.007171
  97 H :    0.026742
  98 H :    0.035796
  99 H :    0.041643
 100 H :   -0.007170
 101 H :    0.046292
 102 H :    0.019858
 103 H :    0.032250
 104 H :   -0.003790
 105 H :    0.012498
 106 H :    0.014028
 107 H :    0.011420
Sum of atomic charges:   -0.0000000

LOEWDIN ATOMIC CHARGES
----------------------
   0 C :   -0.004814
   1 C :    0.005157
   2 N :   -0.046330
   3 C :   -0.021126
   4 C :   -0.002724
   5 N :   -0.038574
   6 C :   -0.168610
   7 C :   -0.035101
   8 C :   -0.043764
   9 C :   -0.049494
  10 C :   -0.175083
  11 C :   -0.074015
  12 C :   -0.177722
  13 C :   -0.197315
  14 S :    0.452955
  15 C :   -0.060766
  16 Cl:    0.130330
  17 C :   -0.142485
  18 C :   -0.037964
  19 C :   -0.056908
  20 C :   -0.139544
  21 S :    0.417995
  22 C :   -0.171372
  23 C :   -0.074856
  24 C :   -0.177160
  25 C :   -0.198728
  26 S :    0.443898
  27 C :   -0.061134
  28 Cl:    0.129201
  29 C :   -0.074543
  30 C :   -0.167529
  31 S :    0.425597
  32 C :   -0.177109
  33 C :   -0.031259
  34 C :   -0.072291
  35 C :   -0.176221
  36 S :    0.479884
  37 C :   -0.185053
  38 C :   -0.068148
  39 C :    0.083543
  40 C :   -0.102301
  41 C :   -0.017901
  42 N :   -0.029945
  43 C :   -0.014499
  44 N :   -0.036703
  45 C :   -0.023449
  46 C :   -0.178797
  47 S :    0.476241
  48 C :   -0.171284
  49 C :   -0.058835
  50 C :   -0.038211
  51 C :   -0.053788
  52 C :   -0.174947
  53 C :   -0.074564
  54 C :   -0.178219
  55 C :   -0.195601
  56 S :    0.449835
  57 C :   -0.060738
  58 Cl:    0.128102
  59 C :   -0.140302
  60 C :   -0.037893
  61 C :   -0.052056
  62 C :   -0.149713
  63 S :    0.389432
  64 C :   -0.176690
  65 C :   -0.062776
  66 C :   -0.177976
  67 C :   -0.199695
  68 S :    0.437819
  69 C :   -0.060680
  70 Cl:    0.126574
  71 C :   -0.028610
  72 C :   -0.168278
  73 S :    0.418956
  74 C :   -0.021420
  75 C :   -0.002115
  76 N :   -0.038472
  77 C :   -0.004721
  78 C :    0.005512
  79 N :   -0.047020
  80 H :    0.025971
  81 H :    0.026630
  82 H :    0.020103
  83 H :    0.023305
  84 H :    0.026927
  85 H :    0.041839
  86 H :    0.036325
  87 H :    0.035001
  88 H :    0.026957
  89 H :    0.038824
  90 H :    0.038682
  91 H :    0.034379
  92 H :    0.010685
  93 H :    0.038459
  94 H :    0.040915
  95 H :    0.018453
  96 H :    0.026490
  97 H :    0.035131
  98 H :    0.040126
  99 H :    0.041585
 100 H :    0.035570
 101 H :    0.042730
 102 H :    0.033892
 103 H :    0.036955
 104 H :    0.035323
 105 H :    0.020502
 106 H :    0.026173
 107 H :    0.026974

  Mayer bond orders larger than 0.100000
B(  0-C ,  1-C ) :   1.3500 B(  0-C ,  5-N ) :   1.5391 B(  0-C , 80-H ) :   0.9782
B(  1-C ,  2-N ) :   1.5515 B(  1-C , 81-H ) :   0.9759 B(  2-N ,  3-C ) :   1.5739
B(  3-C ,  4-C ) :   1.3246 B(  3-C ,  6-C ) :   1.0450 B(  4-C ,  5-N ) :   1.5907
B(  4-C , 82-H ) :   0.9742 B(  6-C ,  7-C ) :   1.6111 B(  6-C , 21-S ) :   1.0672
B(  7-C ,  8-C ) :   1.1403 B(  7-C , 83-H ) :   0.9861 B(  8-C ,  9-C ) :   1.2931
B(  8-C , 20-C ) :   1.2726 B(  9-C , 10-C ) :   0.9887 B(  9-C , 17-C ) :   1.4234
B( 10-C , 11-C ) :   1.5462 B( 10-C , 14-S ) :   1.1345 B( 11-C , 12-C ) :   1.2274
B( 11-C , 84-H ) :   0.9943 B( 12-C , 13-C ) :   1.5999 B( 12-C , 16-Cl) :   1.0126
B( 13-C , 14-S ) :   1.1340 B( 13-C , 15-C ) :   1.0843 B( 15-C , 85-H ) :   0.9493
B( 15-C , 86-H ) :   0.9469 B( 15-C , 87-H ) :   0.9451 B( 17-C , 18-C ) :   1.2699
B( 17-C , 31-S ) :   1.0535 B( 18-C , 19-C ) :   1.3014 B( 18-C , 29-C ) :   1.1851
B( 19-C , 20-C ) :   1.4144 B( 19-C , 22-C ) :   0.9879 B( 20-C , 21-S ) :   1.0655
B( 22-C , 23-C ) :   1.5515 B( 22-C , 26-S ) :   1.1283 B( 23-C , 24-C ) :   1.2209
B( 23-C , 88-H ) :   0.9947 B( 24-C , 25-C ) :   1.6060 B( 24-C , 28-Cl) :   1.0068
B( 25-C , 26-S ) :   1.1276 B( 25-C , 27-C ) :   1.0824 B( 27-C , 89-H ) :   0.9487
B( 27-C , 90-H ) :   0.9487 B( 27-C , 91-H ) :   0.9442 B( 29-C , 30-C ) :   1.5733
B( 29-C , 92-H ) :   0.9672 B( 30-C , 31-S ) :   1.0706 B( 30-C , 32-C ) :   1.1519
B( 32-C , 33-C ) :   1.4747 B( 32-C , 36-S ) :   1.1010 B( 33-C , 34-C ) :   1.2808
B( 33-C , 93-H ) :   0.9911 B( 34-C , 35-C ) :   1.4537 B( 34-C , 39-C ) :   0.9949
B( 35-C , 36-S ) :   1.1255 B( 35-C , 37-C ) :   1.1821 B( 37-C , 38-C ) :   1.4448
B( 37-C , 47-S ) :   1.1233 B( 38-C , 39-C ) :   0.9916 B( 38-C , 45-C ) :   1.2860
B( 39-C , 40-C ) :   1.7148 B( 40-C , 41-C ) :   1.1313 B( 40-C , 43-C ) :   1.1351
B( 41-C , 42-N ) :   2.9964 B( 43-C , 44-N ) :   2.9881 B( 45-C , 46-C ) :   1.4948
B( 45-C , 94-H ) :   0.9934 B( 46-C , 47-S ) :   1.1031 B( 46-C , 48-C ) :   1.1048
B( 48-C , 49-C ) :   1.6022 B( 48-C , 63-S ) :   1.0577 B( 49-C , 50-C ) :   1.1748
B( 49-C , 95-H ) :   0.9757 B( 50-C , 51-C ) :   1.3008 B( 50-C , 62-C ) :   1.2721
B( 51-C , 52-C ) :   0.9882 B( 51-C , 59-C ) :   1.4123 B( 52-C , 53-C ) :   1.5504
B( 52-C , 56-S ) :   1.1297 B( 53-C , 54-C ) :   1.2248 B( 53-C , 96-H ) :   0.9944
B( 54-C , 55-C ) :   1.6000 B( 54-C , 58-Cl) :   1.0104 B( 55-C , 56-S ) :   1.1325
B( 55-C , 57-C ) :   1.0840 B( 57-C , 97-H ) :   0.9448 B( 57-C , 98-H ) :   0.9468
B( 57-C , 99-H ) :   0.9490 B( 59-C , 60-C ) :   1.2728 B( 59-C , 73-S ) :   1.0647
B( 60-C , 61-C ) :   1.3144 B( 60-C , 71-C ) :   1.1378 B( 61-C , 62-C ) :   1.4007
B( 61-C , 64-C ) :   0.9858 B( 62-C , 63-S ) :   1.0588 B( 64-C , 65-C ) :   1.5474
B( 64-C , 68-S ) :   1.1339 B( 65-C , 66-C ) :   1.2249 B( 65-C ,100-H ) :   1.0078
B( 66-C , 67-C ) :   1.5930 B( 66-C , 70-Cl) :   1.0192 B( 67-C , 68-S ) :   1.1323
B( 67-C , 69-C ) :   1.0855 B( 69-C ,101-H ) :   0.9508 B( 69-C ,102-H ) :   0.9460
B( 69-C ,103-H ) :   0.9478 B( 71-C , 72-C ) :   1.5887 B( 71-C ,104-H ) :   1.0047
B( 72-C , 73-S ) :   1.0674 B( 72-C , 74-C ) :   1.0449 B( 74-C , 75-C ) :   1.3261
B( 74-C , 79-N ) :   1.5722 B( 75-C , 76-N ) :   1.5900 B( 75-C ,105-H ) :   0.9743
B( 76-N , 77-C ) :   1.5383 B( 77-C , 78-C ) :   1.3502 B( 77-C ,106-H ) :   0.9781
B( 78-C , 79-N ) :   1.5513 B( 78-C ,107-H ) :   0.9760

-----------------------------------------------------------------------------
         ABSORPTION SPECTRUM VIA TRANSITION ELECTRIC DIPOLE MOMENTS
-----------------------------------------------------------------------------
State   Energy  Wavelength   fosc         T2         TX        TY        TZ
        (cm-1)    (nm)                  (au**2)     (au)      (au)      (au)
-----------------------------------------------------------------------------
   0   11816.3    846.3   0.185727822   5.17452   0.96989   2.05688  -0.05555
   1   18527.4    539.7   0.011637088   0.20678   0.23992   0.34470  -0.17435
   2   20056.2    498.6   0.096563337   1.58504  -0.21215  -1.10888  -0.55714
   3   23309.9    429.0   2.563348819  36.20281   2.03007   5.57953   0.97494
   4   24821.1    402.9   0.029983007   0.39768   0.21508  -0.04316  -0.59123
   5   25687.8    389.3   0.079543238   1.01942  -0.49085  -0.01668   0.88216
   6   26726.6    374.2   0.654981845   8.06792   1.64430   1.21913  -1.96924
   7   27975.0    357.5   0.127144336   1.49624  -0.64938   0.04328   1.03570
   8   29048.2    344.3   0.022146800   0.25100   0.24499   0.42524  -0.10075
   9   29540.8    338.5   0.030420256   0.33901  -0.01428   0.45205   0.36669
  10   30254.6    330.5   0.043027069   0.46819  -0.42109  -0.44286   0.30781
  11   30435.7    328.6   0.203756369   2.20396  -0.72687   0.02646   1.29419
  12   30698.0    325.8   0.054681515   0.58642   0.41049   0.54020  -0.35511
  13   30754.9    325.2   0.217256765   2.32560  -0.72544   0.07551   1.33927
  14   31279.7    319.7   0.000848550   0.00893   0.00356  -0.08357  -0.04398
  15   31704.9    315.4   0.402354172   4.17790   0.19835   1.74038   1.05340
  16   32111.2    311.4   0.748862346   7.67751  -1.58524  -0.78411   2.13300
  17   32650.8    306.3   0.299811553   3.02295  -0.82615  -0.30706   1.49871
  18   33084.5    302.3   0.007861371   0.07823   0.25152   0.09378  -0.07854
  19   33267.8    300.6   0.035395158   0.35026   0.02775   0.46621   0.36351
  20   33587.4    297.7   0.198614704   1.94675   0.35748   1.26993   0.45413
  21   33757.2    296.2   0.036368214   0.35468  -0.26415  -0.52562   0.09286
  22   34032.9    293.8   0.196008935   1.89606   0.75102   0.48426  -1.04762
  23   34165.0    292.7   0.525468540   5.06339  -1.07911  -1.94074   0.36396
  24   34530.6    289.6   0.009465912   0.09025   0.22730   0.03158  -0.19387
  25   34643.9    288.7   0.021417131   0.20352   0.29191   0.08427  -0.33348
  26   34904.0    286.5   0.000312781   0.00295  -0.04604  -0.01180   0.02629
  27   35013.7    285.6   0.006220796   0.05849  -0.16176  -0.14055   0.11211
  28   35945.0    278.2   0.195231775   1.78808   0.83484   0.56587  -0.87802
  29   36220.1    276.1   0.009947234   0.09041  -0.20529  -0.21615   0.03930
  30   36461.8    274.3   0.032681049   0.29508  -0.29273   0.06433   0.45304
  31   36682.7    272.6   0.005904129   0.05299   0.11923   0.03472  -0.19382
  32   37205.3    268.8   0.007026074   0.06217  -0.02005  -0.23086   0.09205
  33   37328.5    267.9   0.028086783   0.24771  -0.25685  -0.29192   0.31067
  34   37461.2    266.9   0.094675010   0.83201  -0.45408  -0.77374   0.16480
  35   38084.7    262.6   0.026049880   0.22518   0.07511  -0.36672  -0.29164
  36   38177.4    261.9   0.072260967   0.62312  -0.10387   0.58077   0.52444
  37   38319.2    261.0   0.072681570   0.62443  -0.39866  -0.68133  -0.03580
  38   38368.4    260.6   0.005466911   0.04691   0.08555   0.13029  -0.15038
  39   38426.2    260.2   0.000688271   0.00590   0.04278  -0.01459  -0.06208
  40   38609.2    259.0   0.053124194   0.45298   0.45903   0.20842  -0.44590
  41   39081.3    255.9   0.014694691   0.12378  -0.08369  -0.14315  -0.31031
  42   39281.7    254.6   0.012365914   0.10364   0.18895  -0.19092   0.17744
  43   39447.9    253.5   0.022348754   0.18651   0.04722  -0.16926  -0.39450
  44   39537.7    252.9   0.018098330   0.15070  -0.14408   0.08537   0.35021
  45   40132.9    249.2   0.007507940   0.06159   0.00185   0.13939  -0.20532

FINAL SINGLE POINT ENERGY     -8449.361490949677

DIPOLE MOMENT
-------------
                                X             Y             Z
Electronic contribution:      4.53878      -9.90051       0.03128
Nuclear contribution   :     -5.29332      10.86079       1.25372
                        -----------------------------------------
Total Dipole Moment    :     -0.75455       0.96028       1.28500
                        -----------------------------------------
Magnitude (a.u.)       :      1.77276
Magnitude (Debye)      :      4.50601

Rotational constants in cm-1:     0.000984     0.000180     0.000153
Rotational constants in MHz :    29.513161     5.387197     4.596895

                             ****ORCA TERMINATED NORMALLY****
TOTAL RUN TIME: 0 days 0 hours 12 minutes 10 seconds 750 msec
