                         Program Version 4.2.0 -  RELEASE  -
|  1> # ORCA input file
|  2> # SCF done       -141.659379036243          0.000499876912
|  3> ! CAM-B3LYP def2-SVP def2/J RIJCOSX Grid4 TightSCF
|  4> %maxcore 5000
|  5> %tddft
|  6>     Mode sTDDFT
|  7>     Ethresh 5.0
|  8>     maxcore 5000
|  9> end
| 10>
| 11> %pal
| 12>   nprocs 6
| 13>   end
| 14> * xyz 0 1
| 15>    C       -6.80732        -3.44775         0.18584
| 16>    C       -6.11988        -2.65325        -0.72887
| 17>    N       -4.85338        -2.34022        -0.54427
| 18>    C       -4.26233        -2.73927         0.58646
| 19>    C       -5.00397        -3.44287         1.55261
| 20>    N       -6.24567        -3.81725         1.32676
| 21>    C       -2.87714        -2.40838         0.83232
| 22>    N       -2.25052        -2.92402         1.87169
| 23>    C       -0.99787        -2.41284         1.84174
| 24>    C       -0.81863        -1.51636         0.69523
| 25>    C        0.54443        -0.96454         0.67941
| 26>    O        1.04249        -0.20231        -0.12189
| 27>    C        1.14978        -1.56659         1.88299
| 28>    C        0.17338        -2.44995         2.55866
| 29>    N        0.71496        -2.99477         3.67526
| 30>    C        1.93106        -2.51164         3.73730
| 31>    C        2.26607        -1.60680         2.65271
| 32>    C       -2.02854        -1.48880         0.03945
| 33>    C       -2.44971        -0.79119        -1.12063
| 34>    C       -1.63856         0.01752        -1.85065
| 35>    C       -2.07959         0.70842        -3.00618
| 36>    C       -3.34940         0.71404        -3.57468
| 37>    C       -3.41307         1.52021        -4.70197
| 38>    C       -2.18177         2.13889        -5.00977
| 39>    S       -0.95576         1.71879        -3.89741
| 40>    C       -2.35347         2.93916        -6.16177
| 41>    C       -3.70457         2.83083        -6.58050
| 42>    C       -4.40798         1.93931        -5.67728
| 43>    C       -5.72333         1.57479        -5.71320
| 44>    C       -6.27627         0.68218        -4.77098
| 45>    N       -6.72630        -0.04737        -4.00881
| 46>    C       -6.62182         2.06498        -6.68437
| 47>    N       -7.36412         2.46338        -7.46218
| 48>    C       -3.98178         3.58466        -7.71119
| 49>    C       -2.86148         4.27179        -8.16228
| 50>    S       -1.43604         3.95760        -7.16855
| 51>    C       -2.63372         5.12742        -9.25852
| 52>    N       -1.37101         5.48398        -9.49983
| 53>    C       -1.40110         6.25329       -10.59516
| 54>    C       -2.77735         6.41101       -11.09445
| 55>    C       -2.79100         7.26007       -12.30107
| 56>    O       -3.74092         7.59160       -12.97904
| 57>    C       -1.37014         7.59309       -12.47692
| 58>    C       -0.55551         6.95995       -11.42046
| 59>    N        0.75213         7.26637       -11.57518
| 60>    C        0.79978         8.03655       -12.63898
| 61>    C       -0.48715         8.28298       -13.24809
| 62>    C       -3.58462         5.70853       -10.23541
| 63>    C       -5.00438         5.57608       -10.21759
| 64>    C       -5.82534         6.04777       -11.17626
| 65>    C       -7.25524         5.86435       -11.08555
| 66>    C       -8.13221         6.36593       -12.06184
| 67>    N       -9.43360         6.18035       -11.98452
| 68>    C       -9.90545         5.50180       -10.95067
| 69>    C       -9.04932         5.00703        -9.96946
| 70>    N       -7.74930         5.18929       -10.04290
| 71>    H       -7.81345        -3.79766         0.00486
| 72>    H       -6.57533        -2.28862        -1.63932
| 73>    H       -4.56449        -3.69798         2.50534
| 74>    H        2.58724        -2.79315         4.54250
| 75>    H        3.20528        -1.10546         2.52714
| 76>    H       -3.47831        -0.94836        -1.40747
| 77>    H       -0.60696         0.15879        -1.55419
| 78>    H       -4.17408         0.15532        -3.17353
| 79>    H       -4.94143         3.61057        -8.19280
| 80>    H        1.74248         8.42356       -12.98498
| 81>    H       -0.66231         8.88408       -14.11826
| 82>    H       -5.46104         5.08075        -9.37505
| 83>    H       -5.44494         6.57062       -12.04203
| 84>    H       -7.76718         6.92464       -12.91247
| 85>    H      -10.97515         5.35580       -10.91264
| 86>    H       -9.40748         4.45096        -9.11439
| 87> *
| 88>
| 89>                          ****END OF INPUT****

CARTESIAN COORDINATES (ANGSTROEM)
---------------------------------
  C     -6.807320   -3.447750    0.185840
  C     -6.119880   -2.653250   -0.728870
  N     -4.853380   -2.340220   -0.544270
  C     -4.262330   -2.739270    0.586460
  C     -5.003970   -3.442870    1.552610
  N     -6.245670   -3.817250    1.326760
  C     -2.877140   -2.408380    0.832320
  N     -2.250520   -2.924020    1.871690
  C     -0.997870   -2.412840    1.841740
  C     -0.818630   -1.516360    0.695230
  C      0.544430   -0.964540    0.679410
  O      1.042490   -0.202310   -0.121890
  C      1.149780   -1.566590    1.882990
  C      0.173380   -2.449950    2.558660
  N      0.714960   -2.994770    3.675260
  C      1.931060   -2.511640    3.737300
  C      2.266070   -1.606800    2.652710
  C     -2.028540   -1.488800    0.039450
  C     -2.449710   -0.791190   -1.120630
  C     -1.638560    0.017520   -1.850650
  C     -2.079590    0.708420   -3.006180
  C     -3.349400    0.714040   -3.574680
  C     -3.413070    1.520210   -4.701970
  C     -2.181770    2.138890   -5.009770
  S     -0.955760    1.718790   -3.897410
  C     -2.353470    2.939160   -6.161770
  C     -3.704570    2.830830   -6.580500
  C     -4.407980    1.939310   -5.677280
  C     -5.723330    1.574790   -5.713200
  C     -6.276270    0.682180   -4.770980
  N     -6.726300   -0.047370   -4.008810
  C     -6.621820    2.064980   -6.684370
  N     -7.364120    2.463380   -7.462180
  C     -3.981780    3.584660   -7.711190
  C     -2.861480    4.271790   -8.162280
  S     -1.436040    3.957600   -7.168550
  C     -2.633720    5.127420   -9.258520
  N     -1.371010    5.483980   -9.499830
  C     -1.401100    6.253290  -10.595160
  C     -2.777350    6.411010  -11.094450
  C     -2.791000    7.260070  -12.301070
  O     -3.740920    7.591600  -12.979040
  C     -1.370140    7.593090  -12.476920
  C     -0.555510    6.959950  -11.420460
  N      0.752130    7.266370  -11.575180
  C      0.799780    8.036550  -12.638980
  C     -0.487150    8.282980  -13.248090
  C     -3.584620    5.708530  -10.235410
  C     -5.004380    5.576080  -10.217590
  C     -5.825340    6.047770  -11.176260
  C     -7.255240    5.864350  -11.085550
  C     -8.132210    6.365930  -12.061840
  N     -9.433600    6.180350  -11.984520
  C     -9.905450    5.501800  -10.950670
  C     -9.049320    5.007030   -9.969460
  N     -7.749300    5.189290  -10.042900
  H     -7.813450   -3.797660    0.004860
  H     -6.575330   -2.288620   -1.639320
  H     -4.564490   -3.697980    2.505340
  H      2.587240   -2.793150    4.542500
  H      3.205280   -1.105460    2.527140
  H     -3.478310   -0.948360   -1.407470
  H     -0.606960    0.158790   -1.554190
  H     -4.174080    0.155320   -3.173530
  H     -4.941430    3.610570   -8.192800
  H      1.742480    8.423560  -12.984980
  H     -0.662310    8.884080  -14.118260
  H     -5.461040    5.080750   -9.375050
  H     -5.444940    6.570620  -12.042030
  H     -7.767180    6.924640  -12.912470
  H    -10.975150    5.355800  -10.912640
  H     -9.407480    4.450960   -9.114390

 Total Charge           Charge          ....    0
 Multiplicity           Mult            ....    1
 Number of Electrons    NEL             ....  386
 Basis Dimension        Dim             ....  872

ORBITAL ENERGIES
----------------

  NO   OCC          E(Eh)            E(eV)
   0   2.0000     -88.996679     -2421.7228
   1   2.0000     -88.995140     -2421.6809
   2   2.0000     -19.221180      -523.0349
   3   2.0000     -19.208859      -522.6996
   4   2.0000     -14.445095      -393.0710
   5   2.0000     -14.441054      -392.9611
   6   2.0000     -14.437903      -392.8753
   7   2.0000     -14.435397      -392.8071
   8   2.0000     -14.424367      -392.5070
   9   2.0000     -14.414566      -392.2403
  10   2.0000     -14.413616      -392.2144
  11   2.0000     -14.413073      -392.1996
  12   2.0000     -14.408855      -392.0849
  13   2.0000     -14.398974      -391.8160
  14   2.0000     -10.380568      -282.4696
  15   2.0000     -10.372266      -282.2437
  16   2.0000     -10.368857      -282.1510
  17   2.0000     -10.360855      -281.9332
  18   2.0000     -10.353520      -281.7336
  19   2.0000     -10.350680      -281.6563
  20   2.0000     -10.346939      -281.5545
  21   2.0000     -10.341964      -281.4192
  22   2.0000     -10.341730      -281.4128
  23   2.0000     -10.339942      -281.3641
  24   2.0000     -10.337565      -281.2995
  25   2.0000     -10.337382      -281.2945
  26   2.0000     -10.334508      -281.2163
  27   2.0000     -10.333968      -281.2016
  28   2.0000     -10.331685      -281.1394
  29   2.0000     -10.331664      -281.1389
  30   2.0000     -10.330156      -281.0978
  31   2.0000     -10.329712      -281.0858
  32   2.0000     -10.329409      -281.0775
  33   2.0000     -10.327953      -281.0379
  34   2.0000     -10.319206      -280.7999
  35   2.0000     -10.316763      -280.7334
  36   2.0000     -10.315772      -280.7064
  37   2.0000     -10.315515      -280.6994
  38   2.0000     -10.313600      -280.6473
  39   2.0000     -10.312850      -280.6269
  40   2.0000     -10.311420      -280.5880
  41   2.0000     -10.307158      -280.4720
  42   2.0000     -10.306605      -280.4570
  43   2.0000     -10.306318      -280.4492
  44   2.0000     -10.305759      -280.4340
  45   2.0000     -10.305178      -280.4181
  46   2.0000     -10.299791      -280.2716
  47   2.0000     -10.297843      -280.2186
  48   2.0000     -10.297514      -280.2096
  49   2.0000     -10.295784      -280.1625
  50   2.0000     -10.288953      -279.9767
  51   2.0000     -10.287468      -279.9362
  52   2.0000     -10.283066      -279.8164
  53   2.0000     -10.282050      -279.7888
  54   2.0000     -10.280767      -279.7539
  55   2.0000     -10.276350      -279.6337
  56   2.0000      -8.091243      -220.1739
  57   2.0000      -8.088858      -220.1090
  58   2.0000      -6.060368      -164.9110
  59   2.0000      -6.058105      -164.8494
  60   2.0000      -6.056163      -164.7966
  61   2.0000      -6.053867      -164.7341
  62   2.0000      -6.053659      -164.7284
  63   2.0000      -6.051493      -164.6695
  64   2.0000      -1.135078       -30.8870
  65   2.0000      -1.123052       -30.5598
  66   2.0000      -1.100093       -29.9351
  67   2.0000      -1.085840       -29.5472
  68   2.0000      -1.078897       -29.3583
  69   2.0000      -1.070470       -29.1290
  70   2.0000      -1.068752       -29.0822
  71   2.0000      -1.055603       -28.7244
  72   2.0000      -1.051198       -28.6046
  73   2.0000      -1.030319       -28.0364
  74   2.0000      -1.016366       -27.6567
  75   2.0000      -1.015569       -27.6350
  76   2.0000      -1.003202       -27.2985
  77   2.0000      -0.990606       -26.9558
  78   2.0000      -0.967185       -26.3184
  79   2.0000      -0.946655       -25.7598
  80   2.0000      -0.935205       -25.4482
  81   2.0000      -0.928091       -25.2546
  82   2.0000      -0.915706       -24.9176
  83   2.0000      -0.909457       -24.7476
  84   2.0000      -0.895969       -24.3806
  85   2.0000      -0.880591       -23.9621
  86   2.0000      -0.874263       -23.7899
  87   2.0000      -0.866559       -23.5803
  88   2.0000      -0.865527       -23.5522
  89   2.0000      -0.860591       -23.4179
  90   2.0000      -0.851305       -23.1652
  91   2.0000      -0.823807       -22.4169
  92   2.0000      -0.817456       -22.2441
  93   2.0000      -0.804183       -21.8829
  94   2.0000      -0.791441       -21.5362
  95   2.0000      -0.779284       -21.2054
  96   2.0000      -0.765704       -20.8359
  97   2.0000      -0.762162       -20.7395
  98   2.0000      -0.752471       -20.4758
  99   2.0000      -0.744404       -20.2563
 100   2.0000      -0.739511       -20.1231
 101   2.0000      -0.733837       -19.9687
 102   2.0000      -0.729639       -19.8545
 103   2.0000      -0.714996       -19.4560
 104   2.0000      -0.701366       -19.0851
 105   2.0000      -0.693245       -18.8642
 106   2.0000      -0.691211       -18.8088
 107   2.0000      -0.678145       -18.4533
 108   2.0000      -0.664528       -18.0827
 109   2.0000      -0.652661       -17.7598
 110   2.0000      -0.647061       -17.6074
 111   2.0000      -0.642557       -17.4849
 112   2.0000      -0.634853       -17.2752
 113   2.0000      -0.627374       -17.0717
 114   2.0000      -0.625358       -17.0169
 115   2.0000      -0.621326       -16.9071
 116   2.0000      -0.619396       -16.8546
 117   2.0000      -0.617250       -16.7962
 118   2.0000      -0.615801       -16.7568
 119   2.0000      -0.600715       -16.3463
 120   2.0000      -0.595966       -16.2171
 121   2.0000      -0.586912       -15.9707
 122   2.0000      -0.586298       -15.9540
 123   2.0000      -0.579063       -15.7571
 124   2.0000      -0.570841       -15.5334
 125   2.0000      -0.567171       -15.4335
 126   2.0000      -0.559894       -15.2355
 127   2.0000      -0.557918       -15.1817
 128   2.0000      -0.556346       -15.1389
 129   2.0000      -0.548829       -14.9344
 130   2.0000      -0.544766       -14.8238
 131   2.0000      -0.543519       -14.7899
 132   2.0000      -0.541657       -14.7392
 133   2.0000      -0.536566       -14.6007
 134   2.0000      -0.535343       -14.5674
 135   2.0000      -0.528223       -14.3737
 136   2.0000      -0.524904       -14.2834
 137   2.0000      -0.519208       -14.1284
 138   2.0000      -0.515516       -14.0279
 139   2.0000      -0.513404       -13.9704
 140   2.0000      -0.512560       -13.9475
 141   2.0000      -0.510435       -13.8896
 142   2.0000      -0.506231       -13.7752
 143   2.0000      -0.504622       -13.7315
 144   2.0000      -0.502015       -13.6605
 145   2.0000      -0.495604       -13.4861
 146   2.0000      -0.493388       -13.4258
 147   2.0000      -0.490433       -13.3454
 148   2.0000      -0.489033       -13.3073
 149   2.0000      -0.482664       -13.1340
 150   2.0000      -0.482158       -13.1202
 151   2.0000      -0.475986       -12.9522
 152   2.0000      -0.472750       -12.8642
 153   2.0000      -0.471686       -12.8352
 154   2.0000      -0.469450       -12.7744
 155   2.0000      -0.469364       -12.7720
 156   2.0000      -0.467282       -12.7154
 157   2.0000      -0.464919       -12.6511
 158   2.0000      -0.459641       -12.5075
 159   2.0000      -0.458751       -12.4832
 160   2.0000      -0.451947       -12.2981
 161   2.0000      -0.449076       -12.2200
 162   2.0000      -0.447993       -12.1905
 163   2.0000      -0.446177       -12.1411
 164   2.0000      -0.440202       -11.9785
 165   2.0000      -0.434099       -11.8124
 166   2.0000      -0.430933       -11.7263
 167   2.0000      -0.424088       -11.5400
 168   2.0000      -0.416705       -11.3391
 169   2.0000      -0.410034       -11.1576
 170   2.0000      -0.396506       -10.7895
 171   2.0000      -0.389381       -10.5956
 172   2.0000      -0.384439       -10.4611
 173   2.0000      -0.379195       -10.3184
 174   2.0000      -0.375187       -10.2093
 175   2.0000      -0.373688       -10.1686
 176   2.0000      -0.362675        -9.8689
 177   2.0000      -0.361815        -9.8455
 178   2.0000      -0.356260        -9.6943
 179   2.0000      -0.349202        -9.5023
 180   2.0000      -0.348483        -9.4827
 181   2.0000      -0.347478        -9.4554
 182   2.0000      -0.341865        -9.3026
 183   2.0000      -0.339771        -9.2456
 184   2.0000      -0.331904        -9.0316
 185   2.0000      -0.330510        -8.9936
 186   2.0000      -0.327561        -8.9134
 187   2.0000      -0.326606        -8.8874
 188   2.0000      -0.322329        -8.7710
 189   2.0000      -0.310928        -8.4608
 190   2.0000      -0.302403        -8.2288
 191   2.0000      -0.279597        -7.6082
 192   2.0000      -0.257033        -6.9942
 193   0.0000      -0.128193        -3.4883
 194   0.0000      -0.116645        -3.1741
 195   0.0000      -0.105152        -2.8613
 196   0.0000      -0.067478        -1.8362
 197   0.0000      -0.053971        -1.4686

MULLIKEN ATOMIC CHARGES
-----------------------
   0 C :    0.035675
   1 C :    0.046329
   2 N :   -0.052934
   3 C :   -0.083979
   4 C :    0.042579
   5 N :   -0.039705
   6 C :    0.072352
   7 N :   -0.032333
   8 C :    0.091936
   9 C :   -0.179816
  10 C :    0.224651
  11 O :   -0.142326
  12 C :   -0.010690
  13 C :   -0.035082
  14 N :   -0.051182
  15 C :    0.094791
  16 C :   -0.096690
  17 C :    0.040892
  18 C :   -0.035730
  19 C :    0.061742
  20 C :   -0.074117
  21 C :   -0.042467
  22 C :    0.018012
  23 C :   -0.111366
  24 S :    0.227891
  25 C :   -0.078350
  26 C :   -0.012032
  27 C :    0.320470
  28 C :   -0.298266
  29 C :   -0.181366
  30 N :    0.163501
  31 C :   -0.197617
  32 N :    0.188007
  33 C :   -0.018817
  34 C :   -0.139811
  35 S :    0.270473
  36 C :    0.084460
  37 N :   -0.078251
  38 C :    0.068216
  39 C :   -0.171769
  40 C :    0.220427
  41 O :   -0.144991
  42 C :   -0.014900
  43 C :   -0.041659
  44 N :   -0.053833
  45 C :    0.086634
  46 C :   -0.097330
  47 C :    0.078945
  48 C :   -0.045041
  49 C :    0.020075
  50 C :   -0.018615
  51 C :    0.006277
  52 N :   -0.044577
  53 C :    0.016470
  54 C :    0.037518
  55 N :   -0.051752
  56 H :    0.026748
  57 H :    0.028264
  58 H :    0.027235
  59 H :    0.014451
  60 H :   -0.001113
  61 H :   -0.002210
  62 H :   -0.002346
  63 H :    0.013791
  64 H :    0.025391
  65 H :    0.004570
  66 H :   -0.008530
  67 H :   -0.009160
  68 H :    0.004601
  69 H :    0.008685
  70 H :    0.013282
  71 H :    0.015412
Sum of atomic charges:   -0.0000000

LOEWDIN ATOMIC CHARGES
----------------------
   0 C :    0.023325
   1 C :    0.009913
   2 N :   -0.030570
   3 C :   -0.032122
   4 C :    0.049797
   5 N :   -0.037329
   6 C :    0.068926
   7 N :   -0.088753
   8 C :    0.047798
   9 C :   -0.054010
  10 C :    0.070886
  11 O :   -0.141763
  12 C :   -0.037961
  13 C :    0.029023
  14 N :   -0.093203
  15 C :    0.080106
  16 C :   -0.029077
  17 C :   -0.016789
  18 C :   -0.022217
  19 C :   -0.012874
  20 C :   -0.151077
  21 C :   -0.022848
  22 C :   -0.053114
  23 C :   -0.195913
  24 S :    0.503767
  25 C :   -0.153409
  26 C :   -0.080790
  27 C :    0.082187
  28 C :   -0.104700
  29 C :   -0.008627
  30 N :   -0.042865
  31 C :   -0.018526
  32 N :   -0.025986
  33 C :    0.005153
  34 C :   -0.183424
  35 S :    0.541220
  36 C :    0.052583
  37 N :   -0.133630
  38 C :    0.045359
  39 C :   -0.039184
  40 C :    0.069438
  41 O :   -0.144443
  42 C :   -0.043750
  43 C :    0.012514
  44 N :   -0.098743
  45 C :    0.066832
  46 C :   -0.039550
  47 C :   -0.023143
  48 C :   -0.019983
  49 C :    0.006060
  50 C :   -0.015528
  51 C :    0.009260
  52 N :   -0.042828
  53 C :   -0.002264
  54 C :    0.008803
  55 N :   -0.044671
  56 H :    0.031858
  57 H :    0.033380
  58 H :    0.035353
  59 H :    0.025691
  60 H :    0.036048
  61 H :    0.026546
  62 H :    0.030959
  63 H :    0.041664
  64 H :    0.045931
  65 H :    0.021805
  66 H :    0.033070
  67 H :    0.027414
  68 H :    0.032227
  69 H :    0.027616
  70 H :    0.025151
  71 H :    0.028004

  Mayer bond orders larger than 0.100000
B(  0-C ,  1-C ) :   1.3391 B(  0-C ,  3-C ) :   0.1016 B(  0-C ,  5-N ) :   1.5386
B(  0-C , 56-H ) :   0.9786 B(  1-C ,  2-N ) :   1.5354 B(  1-C , 57-H ) :   0.9724
B(  2-N ,  3-C ) :   1.5506 B(  2-N , 61-H ) :   0.1005 B(  3-C ,  4-C ) :   1.3419
B(  3-C ,  6-C ) :   0.9836 B(  4-C ,  5-N ) :   1.5603 B(  4-C , 58-H ) :   0.9721
B(  6-C ,  7-N ) :   1.6946 B(  6-C ,  8-C ) :   0.1105 B(  6-C , 17-C ) :   1.0163
B(  7-N ,  8-C ) :   1.3063 B(  8-C ,  9-C ) :   1.0621 B(  8-C , 13-C ) :   1.4369
B(  9-C , 10-C ) :   0.9042 B(  9-C , 17-C ) :   1.5160 B( 10-C , 11-O ) :   2.1847
B( 10-C , 12-C ) :   0.9252 B( 11-O , 62-H ) :   0.1011 B( 12-C , 13-C ) :   1.0628
B( 12-C , 16-C ) :   1.6180 B( 13-C , 14-N ) :   1.3046 B( 14-N , 15-C ) :   1.6655
B( 15-C , 16-C ) :   1.0575 B( 15-C , 59-H ) :   0.9889 B( 16-C , 60-H ) :   1.0110
B( 17-C , 18-C ) :   1.1551 B( 18-C , 19-C ) :   1.6344 B( 18-C , 61-H ) :   0.9386
B( 19-C , 20-C ) :   1.1151 B( 19-C , 62-H ) :   0.9469 B( 20-C , 21-C ) :   1.4224
B( 20-C , 24-S ) :   1.1294 B( 21-C , 22-C ) :   1.3134 B( 21-C , 63-H ) :   0.9923
B( 22-C , 23-C ) :   1.4108 B( 22-C , 27-C ) :   0.9960 B( 23-C , 24-S ) :   1.1173
B( 23-C , 25-C ) :   1.2142 B( 25-C , 26-C ) :   1.3737 B( 25-C , 35-S ) :   1.1595
B( 26-C , 27-C ) :   0.9996 B( 26-C , 33-C ) :   1.3451 B( 27-C , 28-C ) :   1.7018
B( 28-C , 29-C ) :   1.1351 B( 28-C , 31-C ) :   1.1331 B( 29-C , 30-N ) :   2.9865
B( 31-C , 32-N ) :   3.0020 B( 33-C , 34-C ) :   1.4108 B( 33-C , 64-H ) :   0.9815
B( 34-C , 35-S ) :   1.0819 B( 34-C , 36-C ) :   1.1597 B( 36-C , 37-N ) :   1.5703
B( 36-C , 38-C ) :   0.1221 B( 36-C , 47-C ) :   1.0401 B( 37-N , 38-C ) :   1.3950
B( 38-C , 39-C ) :   1.0598 B( 38-C , 43-C ) :   1.3848 B( 39-C , 40-C ) :   0.8891
B( 39-C , 47-C ) :   1.5615 B( 40-C , 41-O ) :   2.1823 B( 40-C , 42-C ) :   0.9349
B( 41-O , 68-H ) :   0.1000 B( 42-C , 43-C ) :   1.0783 B( 42-C , 46-C ) :   1.5786
B( 43-C , 44-N ) :   1.3303 B( 44-N , 45-C ) :   1.6354 B( 45-C , 46-C ) :   1.0891
B( 45-C , 65-H ) :   0.9898 B( 46-C , 66-H ) :   1.0115 B( 47-C , 48-C ) :   1.0664
B( 48-C , 49-C ) :   1.7224 B( 48-C , 67-H ) :   0.9654 B( 49-C , 50-C ) :   1.0397
B( 49-C , 68-H ) :   0.9582 B( 50-C , 51-C ) :   1.3110 B( 50-C , 55-N ) :   1.5210
B( 51-C , 52-N ) :   1.5759 B( 51-C , 69-H ) :   0.9822 B( 52-N , 53-C ) :   1.5456
B( 53-C , 54-C ) :   1.3325 B( 53-C , 70-H ) :   0.9788 B( 54-C , 55-N ) :   1.5675
B( 54-C , 71-H ) :   0.9763

-----------------------------------------------------------------------------
         ABSORPTION SPECTRUM VIA TRANSITION ELECTRIC DIPOLE MOMENTS
-----------------------------------------------------------------------------
State   Energy  Wavelength   fosc         T2         TX        TY        TZ
        (cm-1)    (nm)                  (au**2)     (au)      (au)      (au)
-----------------------------------------------------------------------------
   0   12433.4    804.3   0.451028978  11.94235  -0.43631   1.87718  -2.86848
   1   14214.0    703.5   0.090580164   2.09794   0.67017  -0.56084   1.15511
   2   17478.4    572.1   0.093251010   1.75642  -0.50225   0.69211  -1.01250
   3   18452.9    541.9   1.143731232  20.40493  -1.11182  -2.66873   3.47083
   4   21617.0    462.6   0.003311264   0.05043  -0.21568   0.06247  -0.00295
   5   22075.9    453.0   0.001491740   0.02225  -0.05717  -0.11866   0.06999
   6   22193.0    450.6   0.007252669   0.10759   0.31779  -0.04395   0.06828
   7   23625.1    423.3   0.047074183   0.65597   0.43107  -0.32117   0.60581
   8   23776.4    420.6   0.021828752   0.30225  -0.31397  -0.26437   0.36575
   9   24811.6    403.0   0.184497952   2.44800   0.89917  -0.63124   1.11401
  10   24951.7    400.8   0.018055002   0.23822   0.45037   0.18256   0.04538
  11   25320.5    394.9   0.143751163   1.86902   0.98759  -0.38440   0.86367
  12   25976.0    385.0   0.000571879   0.00725  -0.04297   0.07280   0.01011
  13   26029.9    384.2   0.002376332   0.03005   0.08393   0.10002   0.11405
  14   26229.4    381.3   0.047908543   0.60131  -0.09377   0.46532  -0.61319
  15   26757.2    373.7   0.000584815   0.00720  -0.07717  -0.03410   0.00878
  16   26992.2    370.5   0.357877066   4.36487  -1.80722   0.03247  -1.04774
  17   27730.0    360.6   0.147158967   1.74708  -1.27392  -0.33593   0.10653
  18   28059.2    356.4   0.477354211   5.60069  -1.82546   0.41167  -1.44877
  19   28626.5    349.3   0.015604973   0.17946  -0.29388   0.30308   0.03521
  20   28811.0    347.1   0.021346755   0.24392  -0.33435  -0.16228   0.32526
  21   28836.8    346.8   0.002215084   0.02529   0.02369   0.12008  -0.10153
  22   29809.2    335.5   0.005379503   0.05941  -0.19993  -0.13858  -0.01541
  23   29980.6    333.5   0.172056215   1.88932  -1.30401  -0.43209   0.04658
  24   30404.3    328.9   0.000856652   0.00928   0.09051  -0.00556   0.03245
  25   30937.1    323.2   0.561353953   5.97355   2.21024   0.85204  -0.60202
  26   31099.5    321.5   0.384075410   4.06573  -1.81325  -0.71655   0.51419
  27   31510.9    317.4   0.083015464   0.86731  -0.35301  -0.56522   0.65055
  28   32236.6    310.2   0.283212252   2.89227   1.37645  -0.27306   0.96078
  29   32420.4    308.4   0.003022618   0.03069   0.10437   0.14062   0.00495
  30   32705.4    305.8   0.055563661   0.55930   0.73208   0.07716   0.13195
  31   33108.5    302.0   0.003888419   0.03866   0.07842   0.07170   0.16545
  32   33154.6    301.6   0.027409417   0.27216   0.18374  -0.15032   0.46455
  33   33557.8    298.0   0.199407918   1.95625  -0.93401  -0.78201   0.68727
  34   33794.0    295.9   0.192370460   1.87402   1.02682   0.70907  -0.56293
  35   33869.2    295.3   0.092262521   0.89680   0.65250   0.50796  -0.46154
  36   34202.7    292.4   0.033935663   0.32664   0.44555   0.34825  -0.08277
  37   34492.4    289.9   0.000421323   0.00402   0.00325   0.05850   0.02426
  38   34920.0    286.4   0.068950380   0.65004  -0.78640  -0.09409   0.15085
  39   35301.0    283.3   0.015431407   0.14391   0.25314  -0.12718   0.25230
  40   35353.7    282.9   0.084321234   0.78520   0.86608   0.04467   0.18193
  41   35964.3    278.1   0.020634668   0.18889   0.43176  -0.04972   0.00054
  42   36500.6    274.0   0.006694258   0.06038   0.17640   0.13422  -0.10605
  43   36610.3    273.1   0.013660560   0.12284   0.01830  -0.29962   0.18092
  44   37134.5    269.3   0.076828835   0.68112  -0.56801   0.31853  -0.50697
  45   37226.3    268.6   0.202317608   1.78920  -1.28989  -0.31891  -0.15390
  46   37344.8    267.8   0.044870824   0.39556  -0.58407  -0.15744  -0.17215
  47   37378.7    267.5   0.024592627   0.21660  -0.14242   0.18124  -0.40431
  48   37667.0    265.5   0.038101635   0.33301  -0.17229   0.24397  -0.49377
  49   37976.7    263.3   0.026112350   0.22636  -0.32669  -0.27546   0.20919
  50   38023.1    263.0   0.027724874   0.24005  -0.38744  -0.28711   0.08661
  51   38182.3    261.9   0.003429421   0.02957  -0.10006  -0.01425  -0.13912
  52   38353.5    260.7   0.006994181   0.06004  -0.21242  -0.08600   0.08670
  53   38443.6    260.1   0.015440536   0.13222  -0.13939  -0.19518   0.27331
  54   38579.9    259.2   0.004568914   0.03899  -0.00555  -0.13492   0.14407
  55   38726.0    258.2   0.025662253   0.21816  -0.30091   0.12691  -0.33392
  56   38855.2    257.4   0.027310168   0.23139  -0.44080  -0.12499   0.14650
  57   39586.0    252.6   0.053564388   0.44546  -0.63746  -0.11286  -0.16238
  58   39745.2    251.6   0.191378047   1.58519   1.19729   0.35979   0.14916
  59   39866.2    250.8   0.000719411   0.00594   0.03363  -0.05605   0.04085
  60   40056.5    249.6   0.005142412   0.04226   0.19995  -0.04521   0.01547
  61   40090.3    249.4   0.073132171   0.60054   0.43968   0.36287  -0.52493

FINAL SINGLE POINT ENERGY     -3101.079717836059

DIPOLE MOMENT
-------------
                                X             Y             Z
Electronic contribution:     13.19388      -1.07496       4.23626
Nuclear contribution   :    -12.56307       0.44083      -2.94583
                        -----------------------------------------
Total Dipole Moment    :      0.63081      -0.63413       1.29042
                        -----------------------------------------
Magnitude (a.u.)       :      1.57011
Magnitude (Debye)      :      3.99089

Rotational constants in cm-1:     0.002572     0.000532     0.000443
Rotational constants in MHz :    77.111918    15.956090    13.266805

                             ****ORCA TERMINATED NORMALLY****
TOTAL RUN TIME: 0 days 0 hours 8 minutes 49 seconds 392 msec
