                         Program Version 4.2.0 -  RELEASE  -
|  1> # ORCA input file
|  2> # SCF done       -144.509105197153          0.000828921572
|  3> ! CAM-B3LYP def2-SVP def2/J RIJCOSX Grid4 TightSCF
|  4> %maxcore 5000
|  5> %tddft
|  6>     Mode sTDDFT
|  7>     Ethresh 5.0
|  8>     maxcore 5000
|  9> end
| 10>
| 11> %pal
| 12>   nprocs 6
| 13>   end
| 14> * xyz 0 1
| 15>    C        6.08451        -2.92370         0.85290
| 16>    C        5.62682        -2.90469        -0.45969
| 17>    N        4.46835        -3.43694        -0.79396
| 18>    C        3.74410        -4.03470         0.15355
| 19>    C        4.26327        -4.12412         1.45936
| 20>    N        5.39873        -3.55603         1.79272
| 21>    C        2.49309        -4.64896        -0.22410
| 22>    C        2.28307        -5.31491        -1.39425
| 23>    C        0.98811        -5.95203        -1.32788
| 24>    C        0.40476        -6.68866        -2.36399
| 25>    N       -0.07065        -7.30603        -3.20786
| 26>    C        0.43400        -5.70962        -0.09272
| 27>    C        1.32533        -4.86835         0.64083
| 28>    C        1.08811        -4.25943         1.86054
| 29>    C        0.16553        -4.70401         2.92825
| 30>    C        0.15407        -3.71369         3.89134
| 31>    C        1.02959        -2.66543         3.47902
| 32>    C        1.62521        -3.01304         2.27967
| 33>    C        1.23920        -1.47528         4.18879
| 34>    N        1.40393        -0.50418         4.77838
| 35>    C       -0.43857        -5.97549         2.98216
| 36>    C       -1.22785        -6.43288         3.99920
| 37>    C       -1.83809        -7.70593         4.03170
| 38>    C       -2.50634        -8.15673         5.16369
| 39>    C       -3.11171        -9.39171         5.28985
| 40>    C       -3.13739       -10.34781         4.18762
| 41>    C       -2.56267       -10.12907         2.98430
| 42>    S       -1.71748        -8.69354         2.58240
| 43>    C       -3.84695       -11.47924         4.68289
| 44>    C       -4.22773       -11.27035         6.01166
| 45>    C       -4.93785       -12.38194         6.52330
| 46>    C       -5.06393       -13.36978         5.59900
| 47>    S       -4.33627       -13.00404         4.07430
| 48>    C       -3.76744        -9.96645         6.42424
| 49>    C       -3.85211        -9.35336         7.67624
| 50>    C       -4.33551        -9.94230         8.82095
| 51>    C       -4.35113        -9.33490        10.08434
| 52>    C       -4.19653        -7.99486        10.39386
| 53>    C       -4.47011        -7.81837        11.77653
| 54>    C       -4.40172        -6.59170        12.45133
| 55>    N       -4.34812        -5.58104        12.99295
| 56>    C       -4.81100        -9.03985        12.34564
| 57>    C       -4.70776       -10.03484        11.34842
| 58>    C       -4.78116       -11.40427        11.53267
| 59>    C       -5.43401       -12.10969        12.64839
| 60>    C       -5.15641       -13.44211        12.51137
| 61>    C       -4.32461       -13.62236        11.34803
| 62>    C       -4.12558       -12.40045        10.74697
| 63>    C       -3.81600       -14.84807        10.90611
| 64>    N       -3.40791       -15.85409        10.53018
| 65>    C       -6.31908       -11.50553        13.59783
| 66>    C       -6.65628       -12.06480        14.77568
| 67>    C       -7.54814       -11.49594        15.75545
| 68>    C       -8.23535       -10.27631        15.61293
| 69>    N       -9.02769        -9.80909        16.55283
| 70>    C       -9.17328       -10.52258        17.65955
| 71>    C       -8.50841       -11.73431        17.81430
| 72>    N       -7.71216       -12.20562        16.87813
| 73>    H        6.99826        -2.43704         1.15974
| 74>    H        6.18552        -2.43432        -1.25669
| 75>    H        3.75107        -4.67739         2.23506
| 76>    H        2.96373        -5.38472        -2.22078
| 77>    H       -0.55864        -5.98880         0.20457
| 78>    H       -0.39432        -3.70961         4.81398
| 79>    H        2.28665        -2.39017         1.70886
| 80>    H       -0.22737        -6.65195         2.16597
| 81>    H       -1.40746        -5.80198         4.85809
| 82>    H       -2.52578        -7.47658         6.00439
| 83>    H       -2.58821       -10.85295         2.18551
| 84>    H       -5.35142       -12.47147         7.51071
| 85>    H       -5.55062       -14.31756         5.71998
| 86>    H       -3.44747        -8.35396         7.75461
| 87>    H       -4.71769       -10.94714         8.75654
| 88>    H       -3.96438        -7.19404         9.71795
| 89>    H       -4.98631        -9.20401        13.39135
| 90>    H       -5.51465       -14.24694        13.12454
| 91>    H       -3.47215       -12.22040         9.91470
| 92>    H       -6.73144       -10.54625        13.31798
| 93>    H       -6.22775       -13.01214        15.07057
| 94>    H       -8.14725        -9.66584        14.72545
| 95>    H       -9.82582       -10.11590        18.41816
| 96>    H       -8.61455       -12.33783        18.70542
| 97> *
| 98>
| 99>                          ****END OF INPUT****

CARTESIAN COORDINATES (ANGSTROEM)
---------------------------------
  C      6.084510   -2.923700    0.852900
  C      5.626820   -2.904690   -0.459690
  N      4.468350   -3.436940   -0.793960
  C      3.744100   -4.034700    0.153550
  C      4.263270   -4.124120    1.459360
  N      5.398730   -3.556030    1.792720
  C      2.493090   -4.648960   -0.224100
  C      2.283070   -5.314910   -1.394250
  C      0.988110   -5.952030   -1.327880
  C      0.404760   -6.688660   -2.363990
  N     -0.070650   -7.306030   -3.207860
  C      0.434000   -5.709620   -0.092720
  C      1.325330   -4.868350    0.640830
  C      1.088110   -4.259430    1.860540
  C      0.165530   -4.704010    2.928250
  C      0.154070   -3.713690    3.891340
  C      1.029590   -2.665430    3.479020
  C      1.625210   -3.013040    2.279670
  C      1.239200   -1.475280    4.188790
  N      1.403930   -0.504180    4.778380
  C     -0.438570   -5.975490    2.982160
  C     -1.227850   -6.432880    3.999200
  C     -1.838090   -7.705930    4.031700
  C     -2.506340   -8.156730    5.163690
  C     -3.111710   -9.391710    5.289850
  C     -3.137390  -10.347810    4.187620
  C     -2.562670  -10.129070    2.984300
  S     -1.717480   -8.693540    2.582400
  C     -3.846950  -11.479240    4.682890
  C     -4.227730  -11.270350    6.011660
  C     -4.937850  -12.381940    6.523300
  C     -5.063930  -13.369780    5.599000
  S     -4.336270  -13.004040    4.074300
  C     -3.767440   -9.966450    6.424240
  C     -3.852110   -9.353360    7.676240
  C     -4.335510   -9.942300    8.820950
  C     -4.351130   -9.334900   10.084340
  C     -4.196530   -7.994860   10.393860
  C     -4.470110   -7.818370   11.776530
  C     -4.401720   -6.591700   12.451330
  N     -4.348120   -5.581040   12.992950
  C     -4.811000   -9.039850   12.345640
  C     -4.707760  -10.034840   11.348420
  C     -4.781160  -11.404270   11.532670
  C     -5.434010  -12.109690   12.648390
  C     -5.156410  -13.442110   12.511370
  C     -4.324610  -13.622360   11.348030
  C     -4.125580  -12.400450   10.746970
  C     -3.816000  -14.848070   10.906110
  N     -3.407910  -15.854090   10.530180
  C     -6.319080  -11.505530   13.597830
  C     -6.656280  -12.064800   14.775680
  C     -7.548140  -11.495940   15.755450
  C     -8.235350  -10.276310   15.612930
  N     -9.027690   -9.809090   16.552830
  C     -9.173280  -10.522580   17.659550
  C     -8.508410  -11.734310   17.814300
  N     -7.712160  -12.205620   16.878130
  H      6.998260   -2.437040    1.159740
  H      6.185520   -2.434320   -1.256690
  H      3.751070   -4.677390    2.235060
  H      2.963730   -5.384720   -2.220780
  H     -0.558640   -5.988800    0.204570
  H     -0.394320   -3.709610    4.813980
  H      2.286650   -2.390170    1.708860
  H     -0.227370   -6.651950    2.165970
  H     -1.407460   -5.801980    4.858090
  H     -2.525780   -7.476580    6.004390
  H     -2.588210  -10.852950    2.185510
  H     -5.351420  -12.471470    7.510710
  H     -5.550620  -14.317560    5.719980
  H     -3.447470   -8.353960    7.754610
  H     -4.717690  -10.947140    8.756540
  H     -3.964380   -7.194040    9.717950
  H     -4.986310   -9.204010   13.391350
  H     -5.514650  -14.246940   13.124540
  H     -3.472150  -12.220400    9.914700
  H     -6.731440  -10.546250   13.317980
  H     -6.227750  -13.012140   15.070570
  H     -8.147250   -9.665840   14.725450
  H     -9.825820  -10.115900   18.418160
  H     -8.614550  -12.337830   18.705420

 Total Charge           Charge          ....    0
 Multiplicity           Mult            ....    1
 Number of Electrons    NEL             ....  400
 Basis Dimension        Dim             ....  940

ORBITAL ENERGIES
----------------

  NO   OCC          E(Eh)            E(eV)
   0   2.0000     -88.993964     -2421.6489
   1   2.0000     -88.971965     -2421.0502
   2   2.0000     -14.431733      -392.7074
   3   2.0000     -14.429958      -392.6591
   4   2.0000     -14.421924      -392.4405
   5   2.0000     -14.420469      -392.4009
   6   2.0000     -14.417332      -392.3155
   7   2.0000     -14.415749      -392.2725
   8   2.0000     -14.413023      -392.1983
   9   2.0000     -14.409421      -392.1003
  10   2.0000     -10.345992      -281.5288
  11   2.0000     -10.343070      -281.4492
  12   2.0000     -10.338430      -281.3230
  13   2.0000     -10.337771      -281.3050
  14   2.0000     -10.337168      -281.2886
  15   2.0000     -10.334525      -281.2167
  16   2.0000     -10.334173      -281.2072
  17   2.0000     -10.324594      -280.9465
  18   2.0000     -10.323889      -280.9273
  19   2.0000     -10.323439      -280.9151
  20   2.0000     -10.321504      -280.8624
  21   2.0000     -10.321394      -280.8594
  22   2.0000     -10.319928      -280.8195
  23   2.0000     -10.319325      -280.8031
  24   2.0000     -10.318296      -280.7751
  25   2.0000     -10.318224      -280.7732
  26   2.0000     -10.318160      -280.7714
  27   2.0000     -10.318077      -280.7691
  28   2.0000     -10.316507      -280.7264
  29   2.0000     -10.313009      -280.6312
  30   2.0000     -10.312309      -280.6122
  31   2.0000     -10.311629      -280.5937
  32   2.0000     -10.311258      -280.5836
  33   2.0000     -10.310542      -280.5641
  34   2.0000     -10.309735      -280.5421
  35   2.0000     -10.309511      -280.5361
  36   2.0000     -10.308808      -280.5169
  37   2.0000     -10.308316      -280.5035
  38   2.0000     -10.308283      -280.5027
  39   2.0000     -10.307824      -280.4901
  40   2.0000     -10.306810      -280.4625
  41   2.0000     -10.305646      -280.4309
  42   2.0000     -10.305171      -280.4180
  43   2.0000     -10.304888      -280.4103
  44   2.0000     -10.304550      -280.4010
  45   2.0000     -10.300639      -280.2946
  46   2.0000     -10.299903      -280.2746
  47   2.0000     -10.299216      -280.2559
  48   2.0000     -10.294457      -280.1264
  49   2.0000     -10.293163      -280.0912
  50   2.0000     -10.292489      -280.0729
  51   2.0000     -10.290912      -280.0300
  52   2.0000     -10.290858      -280.0285
  53   2.0000     -10.290208      -280.0108
  54   2.0000     -10.289058      -279.9795
  55   2.0000     -10.286667      -279.9144
  56   2.0000     -10.283999      -279.8418
  57   2.0000     -10.281382      -279.7706
  58   2.0000      -8.089123      -220.1162
  59   2.0000      -8.067458      -219.5267
  60   2.0000      -6.058596      -164.8628
  61   2.0000      -6.054099      -164.7404
  62   2.0000      -6.051183      -164.6611
  63   2.0000      -6.036860      -164.2713
  64   2.0000      -6.032542      -164.1538
  65   2.0000      -6.029619      -164.0743
  66   2.0000      -1.089503       -29.6469
  67   2.0000      -1.073834       -29.2205
  68   2.0000      -1.027019       -27.9466
  69   2.0000      -1.024242       -27.8711
  70   2.0000      -1.013575       -27.5808
  71   2.0000      -1.011514       -27.5247
  72   2.0000      -1.006873       -27.3984
  73   2.0000      -1.000407       -27.2225
  74   2.0000      -0.998581       -27.1728
  75   2.0000      -0.993500       -27.0345
  76   2.0000      -0.992355       -27.0034
  77   2.0000      -0.988286       -26.8926
  78   2.0000      -0.987551       -26.8726
  79   2.0000      -0.976246       -26.5650
  80   2.0000      -0.949532       -25.8381
  81   2.0000      -0.929345       -25.2888
  82   2.0000      -0.910296       -24.7704
  83   2.0000      -0.903747       -24.5922
  84   2.0000      -0.902124       -24.5480
  85   2.0000      -0.895758       -24.3748
  86   2.0000      -0.885041       -24.0832
  87   2.0000      -0.877455       -23.8768
  88   2.0000      -0.864499       -23.5242
  89   2.0000      -0.858096       -23.3500
  90   2.0000      -0.844386       -22.9769
  91   2.0000      -0.837553       -22.7910
  92   2.0000      -0.828719       -22.5506
  93   2.0000      -0.813798       -22.1446
  94   2.0000      -0.811821       -22.0908
  95   2.0000      -0.807871       -21.9833
  96   2.0000      -0.798550       -21.7296
  97   2.0000      -0.788178       -21.4474
  98   2.0000      -0.762517       -20.7491
  99   2.0000      -0.757606       -20.6155
 100   2.0000      -0.756239       -20.5783
 101   2.0000      -0.754405       -20.5284
 102   2.0000      -0.743998       -20.2452
 103   2.0000      -0.736192       -20.0328
 104   2.0000      -0.733784       -19.9673
 105   2.0000      -0.721281       -19.6271
 106   2.0000      -0.714512       -19.4429
 107   2.0000      -0.701767       -19.0960
 108   2.0000      -0.692160       -18.8346
 109   2.0000      -0.675814       -18.3898
 110   2.0000      -0.671072       -18.2608
 111   2.0000      -0.664175       -18.0731
 112   2.0000      -0.660411       -17.9707
 113   2.0000      -0.650718       -17.7069
 114   2.0000      -0.642737       -17.4898
 115   2.0000      -0.638476       -17.3738
 116   2.0000      -0.634759       -17.2727
 117   2.0000      -0.631788       -17.1918
 118   2.0000      -0.626022       -17.0349
 119   2.0000      -0.617251       -16.7963
 120   2.0000      -0.610246       -16.6057
 121   2.0000      -0.604996       -16.4628
 122   2.0000      -0.603432       -16.4202
 123   2.0000      -0.598083       -16.2747
 124   2.0000      -0.595582       -16.2066
 125   2.0000      -0.591317       -16.0906
 126   2.0000      -0.587517       -15.9871
 127   2.0000      -0.575725       -15.6663
 128   2.0000      -0.573958       -15.6182
 129   2.0000      -0.562584       -15.3087
 130   2.0000      -0.562429       -15.3045
 131   2.0000      -0.547132       -14.8882
 132   2.0000      -0.542867       -14.7722
 133   2.0000      -0.537680       -14.6310
 134   2.0000      -0.535785       -14.5794
 135   2.0000      -0.533891       -14.5279
 136   2.0000      -0.531138       -14.4530
 137   2.0000      -0.530126       -14.4255
 138   2.0000      -0.528335       -14.3767
 139   2.0000      -0.525685       -14.3046
 140   2.0000      -0.521111       -14.1802
 141   2.0000      -0.518634       -14.1127
 142   2.0000      -0.517422       -14.0798
 143   2.0000      -0.516415       -14.0524
 144   2.0000      -0.512800       -13.9540
 145   2.0000      -0.511077       -13.9071
 146   2.0000      -0.508201       -13.8289
 147   2.0000      -0.504861       -13.7380
 148   2.0000      -0.502527       -13.6745
 149   2.0000      -0.501994       -13.6599
 150   2.0000      -0.497884       -13.5481
 151   2.0000      -0.495116       -13.4728
 152   2.0000      -0.490231       -13.3399
 153   2.0000      -0.487337       -13.2611
 154   2.0000      -0.486751       -13.2452
 155   2.0000      -0.483635       -13.1604
 156   2.0000      -0.479588       -13.0503
 157   2.0000      -0.473439       -12.8829
 158   2.0000      -0.467634       -12.7250
 159   2.0000      -0.463238       -12.6053
 160   2.0000      -0.457954       -12.4616
 161   2.0000      -0.455997       -12.4083
 162   2.0000      -0.452675       -12.3179
 163   2.0000      -0.449111       -12.2209
 164   2.0000      -0.448729       -12.2105
 165   2.0000      -0.447351       -12.1730
 166   2.0000      -0.446140       -12.1401
 167   2.0000      -0.441929       -12.0255
 168   2.0000      -0.440705       -11.9922
 169   2.0000      -0.439078       -11.9479
 170   2.0000      -0.437868       -11.9150
 171   2.0000      -0.436778       -11.8853
 172   2.0000      -0.435410       -11.8481
 173   2.0000      -0.429024       -11.6743
 174   2.0000      -0.423558       -11.5256
 175   2.0000      -0.421883       -11.4800
 176   2.0000      -0.420557       -11.4439
 177   2.0000      -0.418080       -11.3765
 178   2.0000      -0.413277       -11.2458
 179   2.0000      -0.411645       -11.2014
 180   2.0000      -0.409762       -11.1502
 181   2.0000      -0.406924       -11.0730
 182   2.0000      -0.391646       -10.6572
 183   2.0000      -0.386815       -10.5258
 184   2.0000      -0.381000       -10.3676
 185   2.0000      -0.378271       -10.2933
 186   2.0000      -0.376301       -10.2397
 187   2.0000      -0.365192        -9.9374
 188   2.0000      -0.349211        -9.5025
 189   2.0000      -0.339089        -9.2271
 190   2.0000      -0.336504        -9.1567
 191   2.0000      -0.328679        -8.9438
 192   2.0000      -0.325356        -8.8534
 193   2.0000      -0.314926        -8.5696
 194   2.0000      -0.313211        -8.5229
 195   2.0000      -0.306534        -8.3412
 196   2.0000      -0.303413        -8.2563
 197   2.0000      -0.278546        -7.5796
 198   2.0000      -0.273763        -7.4495
 199   2.0000      -0.232446        -6.3252
 200   0.0000      -0.145909        -3.9704
 201   0.0000      -0.130676        -3.5559
 202   0.0000      -0.077608        -2.1118
 203   0.0000      -0.045648        -1.2422
 204   0.0000      -0.033775        -0.9191

MULLIKEN ATOMIC CHARGES
-----------------------
   0 C :    0.024089
   1 C :    0.033830
   2 N :   -0.045489
   3 C :   -0.116608
   4 C :    0.010507
   5 N :   -0.043143
   6 C :    0.125046
   7 C :    0.004600
   8 C :   -0.102753
   9 C :   -0.130314
  10 N :    0.145835
  11 C :   -0.027464
  12 C :    0.054179
  13 C :    0.044124
  14 C :    0.096733
  15 C :   -0.039715
  16 C :   -0.082707
  17 C :   -0.035609
  18 C :   -0.130481
  19 N :    0.148652
  20 C :   -0.027665
  21 C :   -0.003252
  22 C :   -0.023599
  23 C :   -0.053211
  24 C :    0.071680
  25 C :    0.065007
  26 C :   -0.112922
  27 S :    0.121873
  28 C :   -0.110139
  29 C :    0.051211
  30 C :   -0.006138
  31 C :   -0.059469
  32 S :    0.145463
  33 C :    0.114555
  34 C :   -0.018131
  35 C :   -0.030827
  36 C :    0.105272
  37 C :   -0.061127
  38 C :   -0.077122
  39 C :   -0.131342
  40 N :    0.143393
  41 C :   -0.066668
  42 C :    0.071125
  43 C :    0.054579
  44 C :    0.080674
  45 C :   -0.027101
  46 C :   -0.107956
  47 C :   -0.052050
  48 C :   -0.129377
  49 N :    0.137688
  50 C :   -0.001995
  51 C :    0.036158
  52 C :   -0.020395
  53 C :   -0.003380
  54 N :   -0.047325
  55 C :    0.020116
  56 C :    0.029970
  57 N :   -0.058736
  58 H :    0.018575
  59 H :    0.015156
  60 H :    0.012818
  61 H :    0.003329
  62 H :    0.002617
  63 H :   -0.007332
  64 H :    0.016120
  65 H :    0.003908
  66 H :   -0.004469
  67 H :   -0.015882
  68 H :    0.045488
  69 H :    0.000642
  70 H :    0.034800
  71 H :   -0.036783
  72 H :   -0.038107
  73 H :   -0.017033
  74 H :   -0.001125
  75 H :   -0.006273
  76 H :    0.003787
  77 H :    0.004390
  78 H :   -0.011334
  79 H :    0.001887
  80 H :    0.012298
  81 H :    0.010375
Sum of atomic charges:    0.0000000

LOEWDIN ATOMIC CHARGES
----------------------
   0 C :    0.002166
   1 C :    0.005055
   2 N :   -0.047338
   3 C :   -0.014648
   4 C :    0.005206
   5 N :   -0.038769
   6 C :   -0.039381
   7 C :    0.036137
   8 C :   -0.048547
   9 C :   -0.031079
  10 N :   -0.037686
  11 C :   -0.007609
  12 C :    0.037931
  13 C :    0.044411
  14 C :   -0.028659
  15 C :    0.000418
  16 C :   -0.041942
  17 C :   -0.011237
  18 C :   -0.029544
  19 N :   -0.033462
  20 C :   -0.032402
  21 C :   -0.024998
  22 C :   -0.158360
  23 C :   -0.011913
  24 C :   -0.009940
  25 C :   -0.049847
  26 C :   -0.133767
  27 S :    0.465472
  28 C :   -0.194877
  29 C :   -0.039465
  30 C :   -0.064780
  31 C :   -0.155772
  32 S :    0.439718
  33 C :   -0.036654
  34 C :    0.008596
  35 C :   -0.032164
  36 C :   -0.010018
  37 C :   -0.035932
  38 C :   -0.032153
  39 C :   -0.027922
  40 N :   -0.039333
  41 C :   -0.043683
  42 C :    0.044899
  43 C :    0.029048
  44 C :   -0.032310
  45 C :    0.008524
  46 C :   -0.057505
  47 C :   -0.016029
  48 C :   -0.031661
  49 N :   -0.049095
  50 C :   -0.013263
  51 C :   -0.015220
  52 C :   -0.013261
  53 C :    0.008098
  54 N :   -0.042206
  55 C :   -0.003973
  56 C :    0.001480
  57 N :   -0.053102
  58 H :    0.028214
  59 H :    0.028108
  60 H :    0.025068
  61 H :    0.039912
  62 H :    0.034073
  63 H :    0.031455
  64 H :    0.036982
  65 H :    0.020955
  66 H :    0.035984
  67 H :    0.038003
  68 H :    0.040355
  69 H :    0.031776
  70 H :    0.028405
  71 H :    0.027236
  72 H :    0.027466
  73 H :    0.026042
  74 H :    0.032306
  75 H :    0.032699
  76 H :    0.033397
  77 H :    0.029228
  78 H :    0.034188
  79 H :    0.021602
  80 H :    0.025267
  81 H :    0.025623

  Mayer bond orders larger than 0.100000
B(  0-C ,  1-C ) :   1.3531 B(  0-C ,  3-C ) :   0.1026 B(  0-C ,  5-N ) :   1.5345
B(  0-C , 58-H ) :   0.9788 B(  1-C ,  2-N ) :   1.5444 B(  1-C , 59-H ) :   0.9760
B(  2-N ,  3-C ) :   1.5877 B(  3-C ,  4-C ) :   1.3282 B(  3-C ,  6-C ) :   0.9482
B(  4-C ,  5-N ) :   1.5919 B(  4-C , 60-H ) :   0.9738 B(  6-C ,  7-C ) :   1.6441
B(  6-C , 12-C ) :   1.0859 B(  7-C ,  8-C ) :   1.0800 B(  7-C , 61-H ) :   1.0263
B(  8-C ,  9-C ) :   1.0620 B(  8-C , 11-C ) :   1.6153 B(  9-C , 10-N ) :   3.0359
B( 11-C , 12-C ) :   1.1012 B( 11-C , 62-H ) :   1.0112 B( 12-C , 13-C ) :   1.4336
B( 13-C , 14-C ) :   1.0347 B( 13-C , 17-C ) :   1.1294 B( 14-C , 15-C ) :   1.5440
B( 14-C , 20-C ) :   1.1548 B( 15-C , 16-C ) :   1.1397 B( 15-C , 63-H ) :   1.0114
B( 16-C , 17-C ) :   1.5811 B( 16-C , 18-C ) :   1.0523 B( 17-C , 64-H ) :   1.0070
B( 18-C , 19-N ) :   3.0397 B( 20-C , 21-C ) :   1.5858 B( 20-C , 65-H ) :   0.9494
B( 21-C , 22-C ) :   1.1854 B( 21-C , 66-H ) :   0.9889 B( 22-C , 23-C ) :   1.4532
B( 22-C , 27-S ) :   1.0517 B( 23-C , 24-C ) :   1.2695 B( 23-C , 67-H ) :   0.9783
B( 24-C , 25-C ) :   1.0623 B( 24-C , 33-C ) :   1.2896 B( 25-C , 26-C ) :   1.6003
B( 25-C , 28-C ) :   1.1715 B( 26-C , 27-S ) :   1.1472 B( 26-C , 68-H ) :   0.9410
B( 28-C , 29-C ) :   1.4480 B( 28-C , 32-S ) :   1.0932 B( 29-C , 30-C ) :   1.2128
B( 29-C , 33-C ) :   1.0756 B( 30-C , 31-C ) :   1.5916 B( 30-C , 69-H ) :   0.9960
B( 31-C , 32-S ) :   1.1571 B( 31-C , 70-H ) :   0.9630 B( 33-C , 34-C ) :   1.2358
B( 34-C , 35-C ) :   1.5211 B( 34-C , 71-H ) :   0.9646 B( 35-C , 36-C ) :   1.1680
B( 35-C , 72-H ) :   0.9709 B( 36-C , 37-C ) :   1.5109 B( 36-C , 42-C ) :   1.0177
B( 37-C , 38-C ) :   1.1721 B( 37-C , 73-H ) :   1.0118 B( 38-C , 39-C ) :   1.0519
B( 38-C , 41-C ) :   1.5210 B( 39-C , 40-N ) :   3.0395 B( 41-C , 42-C ) :   1.1597
B( 41-C , 74-H ) :   1.0172 B( 42-C , 43-C ) :   1.4176 B( 43-C , 44-C ) :   1.0669
B( 43-C , 47-C ) :   1.1063 B( 44-C , 45-C ) :   1.5926 B( 44-C , 50-C ) :   1.0746
B( 45-C , 46-C ) :   1.1123 B( 45-C , 75-H ) :   1.0153 B( 46-C , 47-C ) :   1.5972
B( 46-C , 48-C ) :   1.0571 B( 47-C , 76-H ) :   1.0138 B( 48-C , 49-N ) :   3.0372
B( 50-C , 51-C ) :   1.7078 B( 50-C , 77-H ) :   0.9497 B( 51-C , 52-C ) :   1.0518
B( 51-C , 78-H ) :   0.9826 B( 52-C , 53-C ) :   1.3106 B( 52-C , 57-N ) :   1.5200
B( 53-C , 54-N ) :   1.6007 B( 53-C , 79-H ) :   0.9771 B( 54-N , 55-C ) :   1.5280
B( 55-C , 56-C ) :   1.3573 B( 55-C , 80-H ) :   0.9787 B( 56-C , 57-N ) :   1.5553
B( 56-C , 81-H ) :   0.9761

-----------------------------------------------------------------------------
         ABSORPTION SPECTRUM VIA TRANSITION ELECTRIC DIPOLE MOMENTS
-----------------------------------------------------------------------------
State   Energy  Wavelength   fosc         T2         TX        TY        TZ
        (cm-1)    (nm)                  (au**2)     (au)      (au)      (au)
-----------------------------------------------------------------------------
   0    5020.0   1992.0   0.308932447  20.25982  -1.86800  -1.96673   3.59199
   1    6867.5   1456.1   0.017267095   0.82775  -0.63507  -0.52375  -0.38745
   2   12008.0    832.8   0.025474982   0.69842   0.45889   0.23719  -0.65695
   3   12985.0    770.1   0.003320328   0.08418  -0.28633   0.04026  -0.02399
   4   15122.5    661.3   0.015525212   0.33798   0.47184  -0.00893  -0.33951
   5   16666.6    600.0   0.162278086   3.20545  -0.92263  -0.86612   1.26651
   6   18870.4    529.9   0.281290451   4.90737   1.02630   1.13932  -1.59876
   7   20498.0    487.9   0.003066136   0.04924  -0.19957   0.09697  -0.00335
   8   20848.5    479.7   0.024379721   0.38497   0.08354  -0.34158  -0.51119
   9   21010.9    475.9   0.077361867   1.21215   0.37369   0.96455   0.37703
  10   21481.1    465.5   0.040395387   0.61909   0.40248   0.56382  -0.37310
  11   22605.7    442.4   0.281225390   4.09555   0.76593   0.56705  -1.78532
  12   24480.4    408.5   0.017624211   0.23701  -0.21940   0.09543  -0.42399
  13   24593.1    406.6   0.001498207   0.02006   0.01038   0.02080   0.13970
  14   25004.4    399.9   0.077544780   1.02097  -0.61654  -0.29314   0.74493
  15   26225.1    381.3   0.279021457   3.50264  -0.12501   1.85924   0.17388
  16   26765.5    373.6   0.122142017   1.50233   0.15503   0.73585   0.96790
  17   27509.9    363.5   0.237101195   2.83740   0.43537   0.39422  -1.57875
  18   28341.6    352.8   0.321238564   3.73146   0.45580   1.55269   1.05492
  19   28773.1    347.5   0.018996177   0.21735   0.27900   0.04832  -0.37037
  20   29250.0    341.9   0.108399226   1.22005   0.64899  -0.48288  -0.75212
  21   29853.3    335.0   0.100475881   1.10801   0.04875  -0.26036  -1.01875
  22   30018.7    333.1   0.102758091   1.12694  -0.57886  -0.81006   0.36832
  23   30689.1    325.8   0.006769336   0.07262  -0.00902  -0.26922   0.00750
  24   30884.1    323.8   0.023438602   0.24985  -0.23949   0.30199   0.31827
  25   31518.8    317.3   0.000636758   0.00665   0.03649   0.07141   0.01484
  26   32397.4    308.7   0.077449717   0.78702  -0.58254  -0.40048   0.53599
  27   32867.8    304.2   0.293829415   2.94307   0.05998   1.48206   0.86195
  28   33283.1    300.5   0.114343749   1.13101   0.34345  -0.25851  -0.97274
  29   33628.0    297.4   0.197577393   1.93425   0.64573   0.65966  -1.04026
  30   33945.3    294.6   0.013814613   0.13398   0.20464   0.30253  -0.02405
  31   34250.9    292.0   0.247201200   2.37604  -0.81292  -1.26850  -0.32577
  32   34382.6    290.8   0.002978160   0.02852   0.11719  -0.12124  -0.00916
  33   34417.2    290.6   0.025044781   0.23956  -0.10381   0.35403   0.32164
  34   34513.7    289.7   0.044341559   0.42296  -0.12296  -0.50975  -0.38470
  35   34792.9    287.4   0.031032880   0.29363   0.17219  -0.35774  -0.36880
  36   35216.5    284.0   0.568609815   5.31549  -1.59061  -0.53980   1.57926
  37   35537.1    281.4   0.031140705   0.28848   0.22959   0.43892   0.20765
  38   35580.7    281.1   0.015995882   0.14800  -0.16144  -0.16358   0.30851
  39   36068.7    277.2   1.016465329   9.27764  -0.64098   2.39771   1.76572
  40   36451.0    274.3   0.356393974   3.21882  -0.41597   1.36141   1.09195
  41   36665.8    272.7   0.057967187   0.52047   0.31784   0.61408   0.20579
  42   37483.1    266.8   0.126277737   1.10909   0.64923   0.82876  -0.02758
  43   37494.7    266.7   0.043558915   0.38246  -0.26682  -0.55499   0.05699
  44   38515.6    259.6   0.010435548   0.08920  -0.14074  -0.25997  -0.04251
  45   38670.5    258.6   0.015161529   0.12907  -0.06861   0.16297   0.31274
  46   39271.6    254.6   0.003490624   0.02926  -0.02861  -0.11347  -0.12477
  47   39663.0    252.1   0.043361573   0.35991   0.11717  -0.54873  -0.21231
  48   39778.6    251.4   0.009480013   0.07846   0.01179   0.06360   0.27253
  49   40292.8    248.2   0.007693543   0.06286   0.20210  -0.04689   0.14078

FINAL SINGLE POINT ENERGY     -3074.488150821027

DIPOLE MOMENT
-------------
                                X             Y             Z
Electronic contribution:      6.14358       0.46273     -20.71636
Nuclear contribution   :     -6.01633      -1.06436      19.02775
                        -----------------------------------------
Total Dipole Moment    :      0.12725      -0.60163      -1.68861
                        -----------------------------------------
Magnitude (a.u.)       :      1.79710
Magnitude (Debye)      :      4.56786

Rotational constants in cm-1:     0.002322     0.000412     0.000367
Rotational constants in MHz :    69.598119    12.344696    11.002479

                             ****ORCA TERMINATED NORMALLY****
TOTAL RUN TIME: 0 days 0 hours 14 minutes 31 seconds 988 msec
