                         Program Version 4.2.0 -  RELEASE  -
|  1> # ORCA input file
|  2> # SCF done       -194.003418693376          0.000351462953
|  3> ! CAM-B3LYP def2-SVP def2/J RIJCOSX Grid4 TightSCF
|  4> %maxcore 5000
|  5> %tddft
|  6>     Mode sTDDFT
|  7>     Ethresh 5.0
|  8>     maxcore 5000
|  9> end
| 10>
| 11> %pal
| 12>   nprocs 6
| 13>   end
| 14> * xyz 0 1
| 15>    C        7.34052         4.75480         0.54597
| 16>    C        7.62170         6.01638         0.97622
| 17>    S        9.27014         6.14502         1.46430
| 18>    C        9.59473         4.49645         1.09253
| 19>    C        8.47893         3.88609         0.61255
| 20>    C        8.10901         2.55190         0.15167
| 21>    O        8.81324         1.56289         0.11519
| 22>    C        6.65681         2.65000        -0.20887
| 23>    C        6.20504         4.01955         0.03145
| 24>    C        4.96777         4.54793        -0.20496
| 25>    C        4.68814         5.90458         0.06961
| 26>    N        4.45171         7.00498         0.28975
| 27>    C        3.86474         3.85019        -0.73901
| 28>    N        2.93303         3.34515        -1.17870
| 29>    C        5.89972         1.59670        -0.58752
| 30>    C        6.48146         0.29368        -0.82809
| 31>    N        6.01187        -0.75942        -0.19156
| 32>    N        6.59708        -1.91522        -0.19859
| 33>    C        7.79305        -2.10248        -0.72474
| 34>    C        8.35607        -1.08167        -1.53316
| 35>    C        7.61968         0.13740        -1.66384
| 36>    N        8.15452         0.96398        -2.55614
| 37>    S        9.48050         0.27734        -3.14854
| 38>    N        9.43656        -1.09226        -2.31063
| 39>    C        8.47988        -3.36685        -0.47597
| 40>    C        7.63300        -4.55649        -0.55746
| 41>    C        7.66757        -5.56839         0.40391
| 42>    C        6.82544        -6.67019         0.33624
| 43>    C        5.90849        -6.78077        -0.70428
| 44>    C        5.84389        -5.77899        -1.66825
| 45>    C        6.69341        -4.68432        -1.58329
| 46>    F        6.62759        -3.75369        -2.53836
| 47>    F        4.96978        -5.87762        -2.67057
| 48>    F        5.10039        -7.83791        -0.77642
| 49>    F        6.89599        -7.62550         1.26752
| 50>    F        8.52652        -5.49056         1.42664
| 51>    C        9.80219        -3.36417        -0.13443
| 52>    C       10.42138        -2.06624         0.22573
| 53>    C        9.89352        -1.28021         1.25066
| 54>    C       10.43453        -0.04173         1.57758
| 55>    C       11.51474         0.44668         0.85104
| 56>    C       12.06581        -0.32400        -0.16721
| 57>    C       11.53100        -1.57392        -0.45889
| 58>    F       12.08580        -2.29986        -1.43133
| 59>    F       13.10439         0.14353        -0.86748
| 60>    F       12.02013         1.65020         1.13007
| 61>    F        9.92945         0.67355         2.58167
| 62>    F        8.85739        -1.73042         1.96151
| 63>    C       10.66219        -4.51949        -0.07852
| 64>    C       11.78352        -4.56124         0.74399
| 65>    C       12.65499        -5.64288         0.82743
| 66>    C       12.50407        -6.80309         0.06877
| 67>    C       11.37862        -6.78784        -0.81033
| 68>    C       10.46388        -5.67574        -0.87884
| 69>    N        9.55477        -5.97791        -1.78497
| 70>    O        9.87487        -7.19060        -2.24694
| 71>    N       10.96415        -7.69046        -1.67171
| 72>    C       13.32019        -7.95569         0.08071
| 73>    C       14.42446        -8.24519         0.84120
| 74>    C       15.14724        -9.46799         0.75268
| 75>    C       16.20090        -9.56786         1.60284
| 76>    C       16.38449        -8.42747         2.42311
| 77>    S       15.16131        -7.22441         2.05866
| 78>    C       17.34610        -8.22180         3.38441
| 79>    C       18.38034        -9.12393         3.77147
| 80>    C       19.18212        -8.65952         4.75305
| 81>    C       18.84397        -7.34508         5.22214
| 82>    S       17.43817        -6.75079         4.32242
| 83>    C       19.45296        -6.63474         6.18002
| 84>    H        6.98120         6.87287         1.04453
| 85>    H       10.57310         4.08702         1.24882
| 86>    H        4.82451         1.67554        -0.66876
| 87>    H       11.97916        -3.71325         1.38447
| 88>    H       13.48079        -5.56665         1.51577
| 89>    H       13.01266        -8.72740        -0.61368
| 90>    H       14.85243       -10.23335         0.05703
| 91>    H       16.84782       -10.42400         1.66577
| 92>    H       18.48719       -10.08659         3.30447
| 93>    H       20.01258        -9.19573         5.17640
| 94>    H       20.30402        -7.03440         6.70274
| 95>    H       19.11642        -5.65245         6.45712
| 96> *
| 97>
| 98>                          ****END OF INPUT****

CARTESIAN COORDINATES (ANGSTROEM)
---------------------------------
  C      7.340520    4.754800    0.545970
  C      7.621700    6.016380    0.976220
  S      9.270140    6.145020    1.464300
  C      9.594730    4.496450    1.092530
  C      8.478930    3.886090    0.612550
  C      8.109010    2.551900    0.151670
  O      8.813240    1.562890    0.115190
  C      6.656810    2.650000   -0.208870
  C      6.205040    4.019550    0.031450
  C      4.967770    4.547930   -0.204960
  C      4.688140    5.904580    0.069610
  N      4.451710    7.004980    0.289750
  C      3.864740    3.850190   -0.739010
  N      2.933030    3.345150   -1.178700
  C      5.899720    1.596700   -0.587520
  C      6.481460    0.293680   -0.828090
  N      6.011870   -0.759420   -0.191560
  N      6.597080   -1.915220   -0.198590
  C      7.793050   -2.102480   -0.724740
  C      8.356070   -1.081670   -1.533160
  C      7.619680    0.137400   -1.663840
  N      8.154520    0.963980   -2.556140
  S      9.480500    0.277340   -3.148540
  N      9.436560   -1.092260   -2.310630
  C      8.479880   -3.366850   -0.475970
  C      7.633000   -4.556490   -0.557460
  C      7.667570   -5.568390    0.403910
  C      6.825440   -6.670190    0.336240
  C      5.908490   -6.780770   -0.704280
  C      5.843890   -5.778990   -1.668250
  C      6.693410   -4.684320   -1.583290
  F      6.627590   -3.753690   -2.538360
  F      4.969780   -5.877620   -2.670570
  F      5.100390   -7.837910   -0.776420
  F      6.895990   -7.625500    1.267520
  F      8.526520   -5.490560    1.426640
  C      9.802190   -3.364170   -0.134430
  C     10.421380   -2.066240    0.225730
  C      9.893520   -1.280210    1.250660
  C     10.434530   -0.041730    1.577580
  C     11.514740    0.446680    0.851040
  C     12.065810   -0.324000   -0.167210
  C     11.531000   -1.573920   -0.458890
  F     12.085800   -2.299860   -1.431330
  F     13.104390    0.143530   -0.867480
  F     12.020130    1.650200    1.130070
  F      9.929450    0.673550    2.581670
  F      8.857390   -1.730420    1.961510
  C     10.662190   -4.519490   -0.078520
  C     11.783520   -4.561240    0.743990
  C     12.654990   -5.642880    0.827430
  C     12.504070   -6.803090    0.068770
  C     11.378620   -6.787840   -0.810330
  C     10.463880   -5.675740   -0.878840
  N      9.554770   -5.977910   -1.784970
  O      9.874870   -7.190600   -2.246940
  N     10.964150   -7.690460   -1.671710
  C     13.320190   -7.955690    0.080710
  C     14.424460   -8.245190    0.841200
  C     15.147240   -9.467990    0.752680
  C     16.200900   -9.567860    1.602840
  C     16.384490   -8.427470    2.423110
  S     15.161310   -7.224410    2.058660
  C     17.346100   -8.221800    3.384410
  C     18.380340   -9.123930    3.771470
  C     19.182120   -8.659520    4.753050
  C     18.843970   -7.345080    5.222140
  S     17.438170   -6.750790    4.322420
  C     19.452960   -6.634740    6.180020
  H      6.981200    6.872870    1.044530
  H     10.573100    4.087020    1.248820
  H      4.824510    1.675540   -0.668760
  H     11.979160   -3.713250    1.384470
  H     13.480790   -5.566650    1.515770
  H     13.012660   -8.727400   -0.613680
  H     14.852430  -10.233350    0.057030
  H     16.847820  -10.424000    1.665770
  H     18.487190  -10.086590    3.304470
  H     20.012580   -9.195730    5.176400
  H     20.304020   -7.034400    6.702740
  H     19.116420   -5.652450    6.457120

 Total Charge           Charge          ....    0
 Multiplicity           Mult            ....    1
 Number of Electrons    NEL             ....  508
 Basis Dimension        Dim             .... 1042

ORBITAL ENERGIES
----------------

  NO   OCC          E(Eh)            E(eV)
   0   2.0000     -89.042840     -2422.9789
   1   2.0000     -88.996471     -2421.7171
   2   2.0000     -88.959553     -2420.7125
   3   2.0000     -88.953806     -2420.5561
   4   2.0000     -24.815407      -675.2616
   5   2.0000     -24.805312      -674.9868
   6   2.0000     -24.804309      -674.9596
   7   2.0000     -24.803354      -674.9336
   8   2.0000     -24.802645      -674.9143
   9   2.0000     -24.797675      -674.7790
  10   2.0000     -24.797491      -674.7740
  11   2.0000     -24.796384      -674.7439
  12   2.0000     -24.792576      -674.6403
  13   2.0000     -24.791368      -674.6074
  14   2.0000     -19.350470      -526.5531
  15   2.0000     -19.236988      -523.4651
  16   2.0000     -14.477528      -393.9536
  17   2.0000     -14.473662      -393.8484
  18   2.0000     -14.456315      -393.3763
  19   2.0000     -14.453671      -393.3044
  20   2.0000     -14.451047      -393.2330
  21   2.0000     -14.444108      -393.0441
  22   2.0000     -14.426315      -392.5600
  23   2.0000     -14.426230      -392.5577
  24   2.0000     -10.391055      -282.7550
  25   2.0000     -10.390429      -282.7379
  26   2.0000     -10.385494      -282.6037
  27   2.0000     -10.385011      -282.5905
  28   2.0000     -10.383710      -282.5551
  29   2.0000     -10.382964      -282.5348
  30   2.0000     -10.378437      -282.4116
  31   2.0000     -10.373892      -282.2880
  32   2.0000     -10.372954      -282.2624
  33   2.0000     -10.371493      -282.2227
  34   2.0000     -10.370801      -282.2038
  35   2.0000     -10.357037      -281.8293
  36   2.0000     -10.355405      -281.7849
  37   2.0000     -10.340935      -281.3912
  38   2.0000     -10.340159      -281.3700
  39   2.0000     -10.339110      -281.3415
  40   2.0000     -10.337368      -281.2941
  41   2.0000     -10.334869      -281.2261
  42   2.0000     -10.332927      -281.1732
  43   2.0000     -10.329861      -281.0898
  44   2.0000     -10.328574      -281.0548
  45   2.0000     -10.327631      -281.0291
  46   2.0000     -10.327261      -281.0191
  47   2.0000     -10.323289      -280.9110
  48   2.0000     -10.321926      -280.8739
  49   2.0000     -10.321467      -280.8614
  50   2.0000     -10.321193      -280.8539
  51   2.0000     -10.320706      -280.8407
  52   2.0000     -10.320259      -280.8285
  53   2.0000     -10.316230      -280.7189
  54   2.0000     -10.315985      -280.7122
  55   2.0000     -10.314938      -280.6837
  56   2.0000     -10.308751      -280.5154
  57   2.0000     -10.307735      -280.4877
  58   2.0000     -10.305772      -280.4343
  59   2.0000     -10.303956      -280.3849
  60   2.0000     -10.303232      -280.3652
  61   2.0000     -10.302969      -280.3580
  62   2.0000     -10.300738      -280.2973
  63   2.0000     -10.299769      -280.2710
  64   2.0000     -10.298331      -280.2318
  65   2.0000     -10.293180      -280.0917
  66   2.0000     -10.289461      -279.9905
  67   2.0000     -10.286551      -279.9113
  68   2.0000     -10.285641      -279.8865
  69   2.0000      -8.134258      -221.3444
  70   2.0000      -8.092178      -220.1994
  71   2.0000      -8.055356      -219.1974
  72   2.0000      -8.050673      -219.0699
  73   2.0000      -6.105356      -166.1352
  74   2.0000      -6.097603      -165.9242
  75   2.0000      -6.096929      -165.9059
  76   2.0000      -6.061330      -164.9372
  77   2.0000      -6.056594      -164.8083
  78   2.0000      -6.055100      -164.7677
  79   2.0000      -6.025086      -163.9509
  80   2.0000      -6.021046      -163.8410
  81   2.0000      -6.020478      -163.8255
  82   2.0000      -6.016515      -163.7177
  83   2.0000      -6.016339      -163.7129
  84   2.0000      -6.011217      -163.5735
  85   2.0000      -1.337800       -36.4034
  86   2.0000      -1.327560       -36.1247
  87   2.0000      -1.324311       -36.0363
  88   2.0000      -1.323105       -36.0035
  89   2.0000      -1.318333       -35.8737
  90   2.0000      -1.313358       -35.7383
  91   2.0000      -1.312276       -35.7089
  92   2.0000      -1.309546       -35.6346
  93   2.0000      -1.302987       -35.4561
  94   2.0000      -1.302312       -35.4377
  95   2.0000      -1.297623       -35.3101
  96   2.0000      -1.154432       -31.4137
  97   2.0000      -1.144989       -31.1567
  98   2.0000      -1.124406       -30.5967
  99   2.0000      -1.036048       -28.1923
 100   2.0000      -1.017968       -27.7003
 101   2.0000      -1.012184       -27.5429
 102   2.0000      -1.008073       -27.4311
 103   2.0000      -1.005171       -27.3521
 104   2.0000      -1.004292       -27.3282
 105   2.0000      -0.998283       -27.1647
 106   2.0000      -0.991128       -26.9700
 107   2.0000      -0.983195       -26.7541
 108   2.0000      -0.981825       -26.7168
 109   2.0000      -0.977080       -26.5877
 110   2.0000      -0.955982       -26.0136
 111   2.0000      -0.940235       -25.5851
 112   2.0000      -0.920929       -25.0598
 113   2.0000      -0.916439       -24.9376
 114   2.0000      -0.912458       -24.8292
 115   2.0000      -0.897481       -24.4217
 116   2.0000      -0.886754       -24.1298
 117   2.0000      -0.877423       -23.8759
 118   2.0000      -0.872876       -23.7522
 119   2.0000      -0.860773       -23.4228
 120   2.0000      -0.859062       -23.3763
 121   2.0000      -0.854064       -23.2403
 122   2.0000      -0.849734       -23.1224
 123   2.0000      -0.848430       -23.0870
 124   2.0000      -0.836065       -22.7505
 125   2.0000      -0.829831       -22.5808
 126   2.0000      -0.810783       -22.0625
 127   2.0000      -0.793797       -21.6003
 128   2.0000      -0.778034       -21.1714
 129   2.0000      -0.769218       -20.9315
 130   2.0000      -0.767639       -20.8885
 131   2.0000      -0.766056       -20.8455
 132   2.0000      -0.749260       -20.3884
 133   2.0000      -0.744678       -20.2637
 134   2.0000      -0.742431       -20.2026
 135   2.0000      -0.738225       -20.0881
 136   2.0000      -0.733693       -19.9648
 137   2.0000      -0.731758       -19.9121
 138   2.0000      -0.720900       -19.6167
 139   2.0000      -0.702442       -19.1144
 140   2.0000      -0.695613       -18.9286
 141   2.0000      -0.686848       -18.6901
 142   2.0000      -0.682857       -18.5815
 143   2.0000      -0.681677       -18.5494
 144   2.0000      -0.679179       -18.4814
 145   2.0000      -0.671747       -18.2792
 146   2.0000      -0.670474       -18.2445
 147   2.0000      -0.665545       -18.1104
 148   2.0000      -0.661103       -17.9895
 149   2.0000      -0.655387       -17.8340
 150   2.0000      -0.651801       -17.7364
 151   2.0000      -0.643220       -17.5029
 152   2.0000      -0.639870       -17.4118
 153   2.0000      -0.637755       -17.3542
 154   2.0000      -0.633548       -17.2397
 155   2.0000      -0.631025       -17.1711
 156   2.0000      -0.626651       -17.0520
 157   2.0000      -0.624699       -16.9989
 158   2.0000      -0.620101       -16.8738
 159   2.0000      -0.617869       -16.8131
 160   2.0000      -0.615363       -16.7449
 161   2.0000      -0.614115       -16.7109
 162   2.0000      -0.612101       -16.6561
 163   2.0000      -0.608403       -16.5555
 164   2.0000      -0.605031       -16.4637
 165   2.0000      -0.603013       -16.4088
 166   2.0000      -0.602416       -16.3926
 167   2.0000      -0.598941       -16.2980
 168   2.0000      -0.594951       -16.1895
 169   2.0000      -0.592254       -16.1160
 170   2.0000      -0.588202       -16.0058
 171   2.0000      -0.580988       -15.8095
 172   2.0000      -0.576680       -15.6923
 173   2.0000      -0.573130       -15.5957
 174   2.0000      -0.570466       -15.5232
 175   2.0000      -0.567359       -15.4386
 176   2.0000      -0.563867       -15.3436
 177   2.0000      -0.560571       -15.2539
 178   2.0000      -0.556213       -15.1353
 179   2.0000      -0.554828       -15.0976
 180   2.0000      -0.551402       -15.0044
 181   2.0000      -0.547407       -14.8957
 182   2.0000      -0.546768       -14.8783
 183   2.0000      -0.544844       -14.8260
 184   2.0000      -0.539978       -14.6936
 185   2.0000      -0.537066       -14.6143
 186   2.0000      -0.533051       -14.5051
 187   2.0000      -0.531237       -14.4557
 188   2.0000      -0.526580       -14.3290
 189   2.0000      -0.525055       -14.2875
 190   2.0000      -0.523685       -14.2502
 191   2.0000      -0.523033       -14.2325
 192   2.0000      -0.520222       -14.1560
 193   2.0000      -0.515718       -14.0334
 194   2.0000      -0.509745       -13.8709
 195   2.0000      -0.509356       -13.8603
 196   2.0000      -0.508906       -13.8480
 197   2.0000      -0.508004       -13.8235
 198   2.0000      -0.506985       -13.7958
 199   2.0000      -0.503212       -13.6931
 200   2.0000      -0.499239       -13.5850
 201   2.0000      -0.494920       -13.4675
 202   2.0000      -0.493511       -13.4291
 203   2.0000      -0.492385       -13.3985
 204   2.0000      -0.490540       -13.3483
 205   2.0000      -0.486022       -13.2253
 206   2.0000      -0.483927       -13.1683
 207   2.0000      -0.483502       -13.1568
 208   2.0000      -0.482004       -13.1160
 209   2.0000      -0.476670       -12.9708
 210   2.0000      -0.472873       -12.8675
 211   2.0000      -0.465915       -12.6782
 212   2.0000      -0.464248       -12.6328
 213   2.0000      -0.459415       -12.5013
 214   2.0000      -0.458281       -12.4705
 215   2.0000      -0.456905       -12.4330
 216   2.0000      -0.454096       -12.3566
 217   2.0000      -0.453387       -12.3373
 218   2.0000      -0.451538       -12.2870
 219   2.0000      -0.445128       -12.1125
 220   2.0000      -0.440910       -11.9978
 221   2.0000      -0.440308       -11.9814
 222   2.0000      -0.437872       -11.9151
 223   2.0000      -0.437229       -11.8976
 224   2.0000      -0.436394       -11.8749
 225   2.0000      -0.433310       -11.7910
 226   2.0000      -0.431419       -11.7395
 227   2.0000      -0.426937       -11.6175
 228   2.0000      -0.423315       -11.5190
 229   2.0000      -0.417504       -11.3609
 230   2.0000      -0.410903       -11.1812
 231   2.0000      -0.401981       -10.9385
 232   2.0000      -0.397069       -10.8048
 233   2.0000      -0.394849       -10.7444
 234   2.0000      -0.391314       -10.6482
 235   2.0000      -0.387776       -10.5519
 236   2.0000      -0.379050       -10.3145
 237   2.0000      -0.377321       -10.2674
 238   2.0000      -0.369486       -10.0542
 239   2.0000      -0.363238        -9.8842
 240   2.0000      -0.352339        -9.5876
 241   2.0000      -0.351060        -9.5528
 242   2.0000      -0.348643        -9.4871
 243   2.0000      -0.346592        -9.4313
 244   2.0000      -0.335664        -9.1339
 245   2.0000      -0.334031        -9.0895
 246   2.0000      -0.330265        -8.9870
 247   2.0000      -0.319350        -8.6900
 248   2.0000      -0.317839        -8.6488
 249   2.0000      -0.312563        -8.5053
 250   2.0000      -0.308181        -8.3860
 251   2.0000      -0.302254        -8.2248
 252   2.0000      -0.282150        -7.6777
 253   2.0000      -0.231377        -6.2961
 254   0.0000      -0.109497        -2.9796
 255   0.0000      -0.093406        -2.5417
 256   0.0000      -0.074006        -2.0138
 257   0.0000      -0.059412        -1.6167
 258   0.0000      -0.047249        -1.2857

MULLIKEN ATOMIC CHARGES
-----------------------
   0 C :    0.034081
   1 C :   -0.135049
   2 S :    0.175412
   3 C :   -0.128113
   4 C :    0.028658
   5 C :    0.203589
   6 O :   -0.166339
   7 C :   -0.080859
   8 C :    0.290997
   9 C :   -0.318586
  10 C :   -0.195016
  11 N :    0.165115
  12 C :   -0.190468
  13 N :    0.181323
  14 C :    0.006287
  15 C :   -0.090844
  16 N :   -0.025838
  17 N :   -0.032209
  18 C :   -0.153613
  19 C :    0.067739
  20 C :    0.089240
  21 N :   -0.252385
  22 S :    0.537088
  23 N :   -0.254351
  24 C :    0.059029
  25 C :   -0.056503
  26 C :    0.179154
  27 C :    0.168334
  28 C :    0.136234
  29 C :    0.164432
  30 C :    0.206326
  31 F :   -0.165335
  32 F :   -0.160961
  33 F :   -0.155661
  34 F :   -0.164039
  35 F :   -0.163228
  36 C :    0.093718
  37 C :   -0.278095
  38 C :    0.233773
  39 C :    0.205815
  40 C :    0.134060
  41 C :    0.138863
  42 C :    0.248723
  43 F :   -0.156513
  44 F :   -0.164218
  45 F :   -0.162534
  46 F :   -0.160921
  47 F :   -0.151795
  48 C :    0.025112
  49 C :   -0.005554
  50 C :   -0.060583
  51 C :    0.105899
  52 C :   -0.049531
  53 C :   -0.032986
  54 N :    0.042916
  55 O :   -0.097272
  56 N :    0.053847
  57 C :   -0.072618
  58 C :    0.007536
  59 C :    0.029859
  60 C :    0.038394
  61 C :   -0.041740
  62 S :    0.066363
  63 C :   -0.058810
  64 C :    0.031233
  65 C :    0.061805
  66 C :   -0.069886
  67 S :    0.093375
  68 C :   -0.016629
  69 H :    0.055303
  70 H :    0.038728
  71 H :    0.051073
  72 H :   -0.006643
  73 H :   -0.007860
  74 H :    0.001118
  75 H :   -0.003319
  76 H :   -0.008083
  77 H :   -0.006570
  78 H :   -0.004310
  79 H :    0.027221
  80 H :    0.028094
Sum of atomic charges:   -0.0000000

LOEWDIN ATOMIC CHARGES
----------------------
   0 C :   -0.061350
   1 C :   -0.148430
   2 S :    0.504754
   3 C :   -0.131002
   4 C :   -0.092723
   5 C :    0.101745
   6 O :   -0.138248
   7 C :   -0.058532
   8 C :    0.073466
   9 C :   -0.121414
  10 C :   -0.013994
  11 N :   -0.042941
  12 C :   -0.024075
  13 N :   -0.031338
  14 C :    0.085175
  15 C :   -0.019044
  16 N :   -0.024755
  17 N :   -0.041544
  18 C :    0.002350
  19 C :   -0.057832
  20 C :   -0.053252
  21 N :   -0.276394
  22 S :    0.677033
  23 N :   -0.260596
  24 C :   -0.010926
  25 C :   -0.065092
  26 C :    0.065433
  27 C :    0.025724
  28 C :    0.044461
  29 C :    0.029156
  30 C :    0.081737
  31 F :   -0.035992
  32 F :   -0.038955
  33 F :   -0.033040
  34 F :   -0.042371
  35 F :   -0.035602
  36 C :    0.017911
  37 C :   -0.083838
  38 C :    0.062601
  39 C :    0.027938
  40 C :    0.042154
  41 C :    0.018942
  42 C :    0.065150
  43 F :   -0.032453
  44 F :   -0.044147
  45 F :   -0.037802
  46 F :   -0.035885
  47 F :   -0.031932
  48 C :   -0.045598
  49 C :    0.018520
  50 C :   -0.033894
  51 C :   -0.012957
  52 C :   -0.047301
  53 C :   -0.047399
  54 N :   -0.026822
  55 O :    0.071420
  56 N :   -0.020938
  57 C :   -0.063213
  58 C :   -0.123869
  59 C :   -0.031314
  60 C :   -0.024180
  61 C :   -0.187023
  62 S :    0.389929
  63 C :   -0.162245
  64 C :   -0.026258
  65 C :   -0.018768
  66 C :   -0.140967
  67 S :    0.362757
  68 C :   -0.058710
  69 H :    0.037527
  70 H :    0.035370
  71 H :    0.056139
  72 H :    0.036298
  73 H :    0.017585
  74 H :    0.041466
  75 H :    0.037280
  76 H :    0.033996
  77 H :    0.034547
  78 H :    0.036708
  79 H :    0.032164
  80 H :    0.029515

  Mayer bond orders larger than 0.100000
B(  0-C ,  1-C ) :   1.5253 B(  0-C ,  4-C ) :   1.2216 B(  0-C ,  8-C ) :   1.0070
B(  1-C ,  2-S ) :   1.1863 B(  1-C , 69-H ) :   0.9570 B(  2-S ,  3-C ) :   1.2044
B(  3-C ,  4-C ) :   1.5243 B(  3-C , 70-H ) :   0.9691 B(  4-C ,  5-C ) :   0.9860
B(  5-C ,  6-O ) :   2.1121 B(  5-C ,  7-C ) :   0.9251 B(  7-C ,  8-C ) :   1.0418
B(  7-C , 14-C ) :   1.7697 B(  8-C ,  9-C ) :   1.6909 B(  9-C , 10-C ) :   1.1458
B(  9-C , 12-C ) :   1.1342 B( 10-C , 11-N ) :   2.9954 B( 12-C , 13-N ) :   2.9878
B( 14-C , 15-C ) :   1.0295 B( 14-C , 71-H ) :   0.9371 B( 15-C , 16-N ) :   1.6912
B( 15-C , 18-C ) :   0.1020 B( 15-C , 20-C ) :   1.1034 B( 16-N , 17-N ) :   1.2215
B( 17-N , 18-C ) :   1.6968 B( 18-C , 19-C ) :   1.1010 B( 18-C , 24-C ) :   1.0449
B( 19-C , 20-C ) :   1.1950 B( 19-C , 23-N ) :   1.5409 B( 20-C , 21-N ) :   1.5419
B( 21-N , 22-S ) :   1.2817 B( 21-N , 23-N ) :   0.1441 B( 22-S , 23-N ) :   1.2826
B( 24-C , 25-C ) :   0.9825 B( 24-C , 36-C ) :   1.7601 B( 25-C , 26-C ) :   1.3229
B( 25-C , 28-C ) :   0.1092 B( 25-C , 30-C ) :   1.3136 B( 26-C , 27-C ) :   1.2934
B( 26-C , 35-F ) :   1.1478 B( 27-C , 28-C ) :   1.2825 B( 27-C , 34-F ) :   1.1671
B( 28-C , 29-C ) :   1.2712 B( 28-C , 33-F ) :   1.1763 B( 29-C , 30-C ) :   1.2979
B( 29-C , 32-F ) :   1.1696 B( 30-C , 31-F ) :   1.1548 B( 36-C , 37-C ) :   0.9431
B( 36-C , 48-C ) :   1.0946 B( 37-C , 38-C ) :   1.3360 B( 37-C , 40-C ) :   0.1159
B( 37-C , 42-C ) :   1.3329 B( 38-C , 39-C ) :   1.2831 B( 38-C , 47-F ) :   1.1786
B( 39-C , 40-C ) :   1.2812 B( 39-C , 46-F ) :   1.1646 B( 40-C , 41-C ) :   1.2855
B( 40-C , 45-F ) :   1.1483 B( 41-C , 42-C ) :   1.2864 B( 41-C , 44-F ) :   1.1677
B( 42-C , 43-F ) :   1.1716 B( 48-C , 49-C ) :   1.4649 B( 48-C , 51-C ) :   0.1037
B( 48-C , 53-C ) :   1.1473 B( 49-C , 50-C ) :   1.2600 B( 49-C , 72-H ) :   0.9765
B( 50-C , 51-C ) :   1.3904 B( 50-C , 73-H ) :   0.9781 B( 51-C , 52-C ) :   1.1091
B( 51-C , 57-C ) :   1.1943 B( 52-C , 53-C ) :   1.1491 B( 52-C , 56-N ) :   1.6379
B( 53-C , 54-N ) :   1.5925 B( 54-N , 55-O ) :   1.0528 B( 54-N , 56-N ) :   0.1775
B( 55-O , 56-N ) :   1.0682 B( 57-C , 58-C ) :   1.5271 B( 57-C , 74-H ) :   0.9730
B( 58-C , 59-C ) :   1.1404 B( 58-C , 62-S ) :   1.0556 B( 59-C , 60-C ) :   1.5998
B( 59-C , 75-H ) :   1.0011 B( 60-C , 61-C ) :   1.1725 B( 60-C , 76-H ) :   0.9918
B( 61-C , 62-S ) :   1.0260 B( 61-C , 63-C ) :   1.5504 B( 63-C , 64-C ) :   1.1479
B( 63-C , 67-S ) :   1.0595 B( 64-C , 65-C ) :   1.6663 B( 64-C , 77-H ) :   0.9917
B( 65-C , 66-C ) :   1.0761 B( 65-C , 78-H ) :   0.9935 B( 66-C , 67-S ) :   1.0043
B( 66-C , 68-C ) :   1.8678 B( 68-C , 79-H ) :   0.9511 B( 68-C , 80-H ) :   0.9418

-----------------------------------------------------------------------------
         ABSORPTION SPECTRUM VIA TRANSITION ELECTRIC DIPOLE MOMENTS
-----------------------------------------------------------------------------
State   Energy  Wavelength   fosc         T2         TX        TY        TZ
        (cm-1)    (nm)                  (au**2)     (au)      (au)      (au)
-----------------------------------------------------------------------------
   0   14214.0    703.5   1.145052860  26.52072  -4.02470   2.45302  -2.07489
   1   18051.1    554.0   0.295406770   5.38756  -1.86965  -0.31441  -1.33907
   2   18160.8    550.6   0.056677750   1.02743   0.63813   0.23864   0.75052
   3   22728.3    440.0   0.107807608   1.56156   0.65887  -1.05905  -0.07656
   4   23460.1    426.3   0.050442339   0.70785   0.68245  -0.39016   0.29980
   5   25233.1    396.3   0.139111255   1.81496   0.77021   0.45559   1.00706
   6   26388.8    378.9   0.037030378   0.46197   0.29211   0.02707   0.61312
   7   26659.6    375.1   0.020895152   0.25803  -0.13992   0.36718  -0.32192
   8   26948.9    371.1   0.037622842   0.45961  -0.19157   0.63715  -0.13019
   9   27576.5    362.6   0.049818356   0.59474  -0.07850   0.60017   0.47789
  10   27648.9    361.7   0.073232369   0.87197   0.19295  -0.78303  -0.47074
  11   27846.5    359.1   0.098611751   1.16582  -0.54084   0.82314   0.44244
  12   28909.9    345.9   0.205313618   2.33801  -0.28426   1.41920   0.49302
  13   29564.3    338.2   0.042584501   0.47420   0.54039   0.21297   0.36990
  14   30113.6    332.1   0.093514212   1.02233   0.83665   0.50120   0.26674
  15   30391.3    329.0   0.008819875   0.09554   0.21033  -0.00211   0.22649
  16   30894.6    323.7   0.006898299   0.07351  -0.11662  -0.23177   0.07869
  17   31171.3    320.8   0.003032212   0.03202   0.13013   0.06889   0.10171
  18   31775.2    314.7   0.002663845   0.02760   0.00775   0.15870   0.04852
  19   31969.9    312.8   0.084449940   0.86963   0.10469  -0.91379  -0.15381
  20   32605.1    306.7   0.063273745   0.63887   0.00272   0.71310   0.36104
  21   33159.1    301.6   0.013245406   0.13150  -0.31193  -0.17106  -0.07032
  22   33354.9    299.8   0.066782935   0.65915   0.16710   0.65662   0.44729
  23   33489.0    298.6   0.028823532   0.28335   0.11928   0.51633   0.05026
  24   33726.4    296.5   0.006781317   0.06619   0.24208   0.08209   0.02920
  25   34144.3    292.9   0.068216942   0.65773  -0.17773   0.77799   0.14446
  26   34244.8    292.0   0.046135878   0.44353   0.62736   0.19589   0.10759
  27   34664.0    288.5   0.026819839   0.25471   0.35181  -0.33329  -0.14095
  28   35317.9    283.1   0.025330869   0.23612  -0.23347  -0.06479  -0.42120
  29   35778.2    279.5   0.000529457   0.00487  -0.03944  -0.04418  -0.03694
  30   35862.4    278.8   0.012694133   0.11653  -0.25075   0.20338   0.11087
  31   36068.4    277.3   0.041000566   0.37423   0.06802   0.53556   0.28772
  32   36238.9    275.9   0.006637280   0.06030   0.23081  -0.03398  -0.07661
  33   36449.6    274.4   0.022077051   0.19940  -0.20709  -0.24209  -0.31290
  34   37061.3    269.8   0.016344032   0.14518   0.04550   0.23427   0.29704
  35   37178.6    269.0   0.116975689   1.03581  -1.00433  -0.06610  -0.15086
  36   37371.3    267.6   0.001282635   0.01130  -0.02586  -0.06055  -0.08345
  37   37549.5    266.3   0.006713341   0.05886   0.02190   0.04248   0.23785
  38   37649.2    265.6   0.095064452   0.83126   0.90374  -0.09927   0.06833
  39   37774.9    264.7   0.015999797   0.13944  -0.02973  -0.36022   0.09380
  40   38083.1    262.6   0.246849618   2.13391  -1.27205   0.17696  -0.69606
  41   38308.2    261.0   0.152620746   1.31159  -0.98607   0.53733  -0.22480
  42   38586.0    259.2   0.010823453   0.09234   0.08129   0.00698   0.29273
  43   38742.3    258.1   0.030421295   0.25850   0.18328   0.36331   0.30483
  44   39141.2    255.5   0.051905347   0.43657  -0.53223  -0.35471   0.16577
  45   39329.4    254.3   0.037587572   0.31463  -0.55915  -0.04364   0.00874
  46   39415.1    253.7   0.124668925   1.04129  -0.48585  -0.09048  -0.89277
  47   39481.8    253.3   0.053748440   0.44817   0.59489   0.28239   0.12057
  48   39707.4    251.8   0.086255509   0.71514  -0.47338  -0.64359  -0.27720
  49   39838.8    251.0   0.055536675   0.45893  -0.61248  -0.15678  -0.24334
  50   40074.5    249.5   0.037857987   0.31100   0.15546   0.47894   0.23969
  51   40294.3    248.2   0.019936770   0.16289   0.07429   0.37508  -0.12915

FINAL SINGLE POINT ENERGY     -4896.928096170673

DIPOLE MOMENT
-------------
                                X             Y             Z
Electronic contribution:    -52.36021      19.14903     -23.13700
Nuclear contribution   :     57.77769     -19.62486      24.69790
                        -----------------------------------------
Total Dipole Moment    :      5.41747      -0.47582       1.56090
                        -----------------------------------------
Magnitude (a.u.)       :      5.65790
Magnitude (Debye)      :     14.38124

Rotational constants in cm-1:     0.001449     0.000531     0.000422
Rotational constants in MHz :    43.438568    15.920562    12.661748

                             ****ORCA TERMINATED NORMALLY****
TOTAL RUN TIME: 0 days 0 hours 8 minutes 17 seconds 479 msec
