                         Program Version 4.2.0 -  RELEASE  -
|  1> # ORCA input file
|  2> # SCF done       -219.469227041612          0.000399492415
|  3> ! CAM-B3LYP def2-SVP def2/J RIJCOSX Grid4 TightSCF
|  4> %maxcore 5000
|  5> %tddft
|  6>     Mode sTDDFT
|  7>     Ethresh 5.0
|  8>     maxcore 5000
|  9> end
| 10>
| 11> %pal
| 12>   nprocs 6
| 13>   end
| 14> * xyz 0 1
| 15>    C        4.69501         0.79731         5.19143
| 16>    C        4.50835         1.47385         6.35980
| 17>    S        5.98111         1.58806         7.24515
| 18>    C        6.86398         0.72814         6.04276
| 19>    C        6.05104         0.36919         5.01474
| 20>    C        6.17660        -0.35751         3.75124
| 21>    O        7.18807        -0.78773         3.23912
| 22>    C        4.78928        -0.42793         3.20267
| 23>    C        3.90792         0.37576         4.05285
| 24>    C        2.59464         0.69802         3.85228
| 25>    C        1.88402         1.47778         4.79197
| 26>    N        1.29271         2.10880         5.54494
| 27>    C        1.81067         0.35111         2.73311
| 28>    N        1.12395         0.11501         1.84359
| 29>    C        4.37513        -1.09807         2.10059
| 30>    C        5.07375        -2.00508         1.22212
| 31>    C        4.65015        -1.84655        -0.19138
| 32>    C        4.14906        -2.89899        -0.95565
| 33>    C        3.77835        -2.72722        -2.28340
| 34>    C        3.87078        -1.47099        -2.87458
| 35>    C        4.32604        -0.39336        -2.11993
| 36>    C        4.70318        -0.58970        -0.79573
| 37>    F        5.15055         0.45440        -0.09592
| 38>    F        4.40674         0.81636        -2.66913
| 39>    F        3.52322        -1.30291        -4.14765
| 40>    F        3.33875        -3.77196        -2.98985
| 41>    F        3.99787        -4.11206        -0.41358
| 42>    C        5.96424        -2.98567         1.55563
| 43>    C        6.31165        -3.25820         2.95436
| 44>    C        5.35654        -3.30364         3.96943
| 45>    C        5.71436        -3.36004         5.30900
| 46>    C        7.05839        -3.38702         5.66851
| 47>    C        8.03085        -3.38610         4.67449
| 48>    C        7.65674        -3.31457         3.33813
| 49>    F        8.61226        -3.30931         2.41515
| 50>    F        9.32059        -3.44249         5.00936
| 51>    F        7.40725        -3.41780         6.95574
| 52>    F        4.77060        -3.37215         6.25617
| 53>    F        4.05198        -3.31168         3.66428
| 54>    C        6.64780        -3.72516         0.50786
| 55>    S        7.51549        -2.84207        -0.70086
| 56>    C        7.84151        -4.29287        -1.60776
| 57>    C        7.24174        -5.39427        -1.00438
| 58>    C        6.64200        -5.07870         0.23451
| 59>    C        6.01828        -6.10489         1.14483
| 60>    N        6.41637        -5.84892         2.52384
| 61>    C        6.39865        -7.51453         0.67484
| 62>    C        6.15968        -7.64240        -0.81767
| 63>    C        7.14423        -6.76991        -1.61295
| 64>    N        6.75158        -6.66670        -3.01503
| 65>    C        8.73329        -4.12308        -2.70537
| 66>    C        9.11393        -5.04447        -3.62026
| 67>    C       10.08682        -4.80278        -4.63704
| 68>    C       10.33940        -5.74501        -5.62552
| 69>    C       11.29968        -5.58197        -6.62488
| 70>    C       12.15158        -4.48928        -6.69194
| 71>    C       11.91441        -3.48081        -5.71862
| 72>    C       10.88264        -3.62246        -4.71902
| 73>    N       10.88720        -2.51584        -4.00488
| 74>    O       11.83646        -1.73821        -4.51242
| 75>    N       12.46835        -2.29723        -5.54455
| 76>    C       13.14527        -4.37993        -7.71359
| 77>    C       14.29979        -3.66847        -7.71891
| 78>    C       14.97292        -3.38530        -9.01975
| 79>    O       14.74276        -3.90636       -10.08421
| 80>    C       15.93454        -2.30137        -8.72227
| 81>    C       15.94914        -2.05321        -7.33681
| 82>    C       15.05001        -2.99517        -6.67766
| 83>    C       15.09954        -3.34303        -5.35600
| 84>    C       14.38982        -4.42917        -4.80502
| 85>    N       13.85156        -5.31848        -4.31811
| 86>    C       15.93423        -2.71518        -4.40733
| 87>    N       16.59212        -2.23985        -3.59652
| 88>    C       16.75954        -1.05039        -6.82519
| 89>    C       17.54800        -0.31989        -7.70057
| 90>    C       17.53066        -0.59110        -9.06332
| 91>    C       16.72189        -1.58413        -9.59977
| 92>   Br       18.63913         0.42718       -10.22073
| 93>    H        3.61466         1.90752         6.76179
| 94>    H        7.91177         0.54197         6.16955
| 95>    H        3.35354        -0.92098         1.78365
| 96>    H        4.92757        -5.98743         1.10372
| 97>    H        7.41075        -6.02882         2.62961
| 98>    H        5.92102        -6.47858         3.14559
| 99>    H        5.80792        -8.25160         1.22283
|100>    H        7.45577        -7.69354         0.89315
|101>    H        5.13886        -7.32137        -1.04498
|102>    H        6.26757        -8.68168        -1.13567
|103>    H        8.13991        -7.23749        -1.59304
|104>    H        5.87978        -6.15430        -3.09786
|105>    H        6.60008        -7.59475        -3.39596
|106>    H        9.16893        -3.13367        -2.77122
|107>    H        8.64223        -6.01412        -3.63316
|108>    H        9.75714        -6.65444        -5.62045
|109>    H       11.42063        -6.36882        -7.35511
|110>    H       12.92117        -4.89553        -8.64304
|111>    H       16.77722        -0.82228        -5.77195
|112>    H       18.18243         0.46719        -7.32269
|113>    H       16.70351        -1.79349       -10.65810
|114> *
|115>
|116>                          ****END OF INPUT****

CARTESIAN COORDINATES (ANGSTROEM)
---------------------------------
  C      4.695010    0.797310    5.191430
  C      4.508350    1.473850    6.359800
  S      5.981110    1.588060    7.245150
  C      6.863980    0.728140    6.042760
  C      6.051040    0.369190    5.014740
  C      6.176600   -0.357510    3.751240
  O      7.188070   -0.787730    3.239120
  C      4.789280   -0.427930    3.202670
  C      3.907920    0.375760    4.052850
  C      2.594640    0.698020    3.852280
  C      1.884020    1.477780    4.791970
  N      1.292710    2.108800    5.544940
  C      1.810670    0.351110    2.733110
  N      1.123950    0.115010    1.843590
  C      4.375130   -1.098070    2.100590
  C      5.073750   -2.005080    1.222120
  C      4.650150   -1.846550   -0.191380
  C      4.149060   -2.898990   -0.955650
  C      3.778350   -2.727220   -2.283400
  C      3.870780   -1.470990   -2.874580
  C      4.326040   -0.393360   -2.119930
  C      4.703180   -0.589700   -0.795730
  F      5.150550    0.454400   -0.095920
  F      4.406740    0.816360   -2.669130
  F      3.523220   -1.302910   -4.147650
  F      3.338750   -3.771960   -2.989850
  F      3.997870   -4.112060   -0.413580
  C      5.964240   -2.985670    1.555630
  C      6.311650   -3.258200    2.954360
  C      5.356540   -3.303640    3.969430
  C      5.714360   -3.360040    5.309000
  C      7.058390   -3.387020    5.668510
  C      8.030850   -3.386100    4.674490
  C      7.656740   -3.314570    3.338130
  F      8.612260   -3.309310    2.415150
  F      9.320590   -3.442490    5.009360
  F      7.407250   -3.417800    6.955740
  F      4.770600   -3.372150    6.256170
  F      4.051980   -3.311680    3.664280
  C      6.647800   -3.725160    0.507860
  S      7.515490   -2.842070   -0.700860
  C      7.841510   -4.292870   -1.607760
  C      7.241740   -5.394270   -1.004380
  C      6.642000   -5.078700    0.234510
  C      6.018280   -6.104890    1.144830
  N      6.416370   -5.848920    2.523840
  C      6.398650   -7.514530    0.674840
  C      6.159680   -7.642400   -0.817670
  C      7.144230   -6.769910   -1.612950
  N      6.751580   -6.666700   -3.015030
  C      8.733290   -4.123080   -2.705370
  C      9.113930   -5.044470   -3.620260
  C     10.086820   -4.802780   -4.637040
  C     10.339400   -5.745010   -5.625520
  C     11.299680   -5.581970   -6.624880
  C     12.151580   -4.489280   -6.691940
  C     11.914410   -3.480810   -5.718620
  C     10.882640   -3.622460   -4.719020
  N     10.887200   -2.515840   -4.004880
  O     11.836460   -1.738210   -4.512420
  N     12.468350   -2.297230   -5.544550
  C     13.145270   -4.379930   -7.713590
  C     14.299790   -3.668470   -7.718910
  C     14.972920   -3.385300   -9.019750
  O     14.742760   -3.906360  -10.084210
  C     15.934540   -2.301370   -8.722270
  C     15.949140   -2.053210   -7.336810
  C     15.050010   -2.995170   -6.677660
  C     15.099540   -3.343030   -5.356000
  C     14.389820   -4.429170   -4.805020
  N     13.851560   -5.318480   -4.318110
  C     15.934230   -2.715180   -4.407330
  N     16.592120   -2.239850   -3.596520
  C     16.759540   -1.050390   -6.825190
  C     17.548000   -0.319890   -7.700570
  C     17.530660   -0.591100   -9.063320
  C     16.721890   -1.584130   -9.599770
  Br    18.639130    0.427180  -10.220730
  H      3.614660    1.907520    6.761790
  H      7.911770    0.541970    6.169550
  H      3.353540   -0.920980    1.783650
  H      4.927570   -5.987430    1.103720
  H      7.410750   -6.028820    2.629610
  H      5.921020   -6.478580    3.145590
  H      5.807920   -8.251600    1.222830
  H      7.455770   -7.693540    0.893150
  H      5.138860   -7.321370   -1.044980
  H      6.267570   -8.681680   -1.135670
  H      8.139910   -7.237490   -1.593040
  H      5.879780   -6.154300   -3.097860
  H      6.600080   -7.594750   -3.395960
  H      9.168930   -3.133670   -2.771220
  H      8.642230   -6.014120   -3.633160
  H      9.757140   -6.654440   -5.620450
  H     11.420630   -6.368820   -7.355110
  H     12.921170   -4.895530   -8.643040
  H     16.777220   -0.822280   -5.771950
  H     18.182430    0.467190   -7.322690
  H     16.703510   -1.793490  -10.658100

 Total Charge           Charge          ....    0
 Multiplicity           Mult            ....    1
 Number of Electrons    NEL             ....  582
 Basis Dimension        Dim             .... 1223

ORBITAL ENERGIES
----------------

  NO   OCC          E(Eh)            E(eV)
   0   2.0000    -482.870797    -13139.5824
   1   2.0000     -88.989819     -2421.5361
   2   2.0000     -88.966030     -2420.8887
   3   2.0000     -62.548498     -1702.0312
   4   2.0000     -56.382332     -1534.2413
   5   2.0000     -56.379813     -1534.1727
   6   2.0000     -56.379806     -1534.1725
   7   2.0000     -24.817633      -675.3221
   8   2.0000     -24.815148      -675.2545
   9   2.0000     -24.814096      -675.2259
  10   2.0000     -24.813034      -675.1970
  11   2.0000     -24.810660      -675.1324
  12   2.0000     -24.809297      -675.0953
  13   2.0000     -24.808140      -675.0638
  14   2.0000     -24.806456      -675.0180
  15   2.0000     -24.805112      -674.9814
  16   2.0000     -24.803745      -674.9442
  17   2.0000     -19.359068      -526.7870
  18   2.0000     -19.226760      -523.1867
  19   2.0000     -19.220915      -523.0277
  20   2.0000     -14.487242      -394.2179
  21   2.0000     -14.482183      -394.0802
  22   2.0000     -14.423938      -392.4953
  23   2.0000     -14.420317      -392.3968
  24   2.0000     -14.416046      -392.2806
  25   2.0000     -14.414297      -392.2330
  26   2.0000     -14.403769      -391.9465
  27   2.0000     -14.402845      -391.9213
  28   2.0000     -10.397948      -282.9426
  29   2.0000     -10.394792      -282.8567
  30   2.0000     -10.392793      -282.8023
  31   2.0000     -10.392053      -282.7821
  32   2.0000     -10.391148      -282.7575
  33   2.0000     -10.390153      -282.7304
  34   2.0000     -10.385170      -282.5948
  35   2.0000     -10.384758      -282.5836
  36   2.0000     -10.382364      -282.5185
  37   2.0000     -10.382053      -282.5100
  38   2.0000     -10.378589      -282.4158
  39   2.0000     -10.370994      -282.2091
  40   2.0000     -10.350259      -281.6449
  41   2.0000     -10.349483      -281.6238
  42   2.0000     -10.343443      -281.4594
  43   2.0000     -10.342899      -281.4446
  44   2.0000     -10.339996      -281.3656
  45   2.0000     -10.333157      -281.1795
  46   2.0000     -10.329967      -281.0927
  47   2.0000     -10.329735      -281.0864
  48   2.0000     -10.327985      -281.0388
  49   2.0000     -10.327448      -281.0242
  50   2.0000     -10.326235      -280.9911
  51   2.0000     -10.325745      -280.9778
  52   2.0000     -10.325012      -280.9579
  53   2.0000     -10.322596      -280.8921
  54   2.0000     -10.322374      -280.8861
  55   2.0000     -10.318896      -280.7914
  56   2.0000     -10.317847      -280.7629
  57   2.0000     -10.317687      -280.7585
  58   2.0000     -10.316898      -280.7371
  59   2.0000     -10.316509      -280.7265
  60   2.0000     -10.316080      -280.7148
  61   2.0000     -10.315327      -280.6943
  62   2.0000     -10.314061      -280.6599
  63   2.0000     -10.313707      -280.6502
  64   2.0000     -10.311659      -280.5945
  65   2.0000     -10.311096      -280.5792
  66   2.0000     -10.310542      -280.5641
  67   2.0000     -10.309935      -280.5476
  68   2.0000     -10.309415      -280.5334
  69   2.0000     -10.303928      -280.3841
  70   2.0000     -10.302999      -280.3588
  71   2.0000     -10.301030      -280.3053
  72   2.0000     -10.300690      -280.2960
  73   2.0000     -10.298917      -280.2478
  74   2.0000     -10.297928      -280.2209
  75   2.0000     -10.297717      -280.2151
  76   2.0000     -10.292724      -280.0793
  77   2.0000     -10.292154      -280.0637
  78   2.0000     -10.291233      -280.0387
  79   2.0000     -10.278184      -279.6836
  80   2.0000     -10.277683      -279.6700
  81   2.0000     -10.277155      -279.6556
  82   2.0000      -8.777779      -238.8555
  83   2.0000      -8.085611      -220.0207
  84   2.0000      -8.061156      -219.3552
  85   2.0000      -6.613597      -179.9651
  86   2.0000      -6.599892      -179.5922
  87   2.0000      -6.599480      -179.5810
  88   2.0000      -6.054802      -164.7595
  89   2.0000      -6.050063      -164.6306
  90   2.0000      -6.048446      -164.5866
  91   2.0000      -6.030286      -164.0924
  92   2.0000      -6.026235      -163.9822
  93   2.0000      -6.023501      -163.9078
  94   2.0000      -2.729582       -74.2757
  95   2.0000      -2.725755       -74.1716
  96   2.0000      -2.725453       -74.1634
  97   2.0000      -2.714562       -73.8670
  98   2.0000      -2.714555       -73.8668
  99   2.0000      -1.343822       -36.5672
 100   2.0000      -1.337639       -36.3990
 101   2.0000      -1.336750       -36.3748
 102   2.0000      -1.331960       -36.2445
 103   2.0000      -1.329878       -36.1878
 104   2.0000      -1.324669       -36.0461
 105   2.0000      -1.322109       -35.9764
 106   2.0000      -1.316816       -35.8324
 107   2.0000      -1.314286       -35.7635
 108   2.0000      -1.313114       -35.7316
 109   2.0000      -1.310004       -35.6470
 110   2.0000      -1.142271       -31.0828
 111   2.0000      -1.136286       -30.9199
 112   2.0000      -1.030340       -28.0370
 113   2.0000      -1.023900       -27.8617
 114   2.0000      -1.021274       -27.7903
 115   2.0000      -1.014887       -27.6165
 116   2.0000      -1.013796       -27.5868
 117   2.0000      -1.006324       -27.3835
 118   2.0000      -1.005610       -27.3640
 119   2.0000      -1.000928       -27.2366
 120   2.0000      -1.000529       -27.2258
 121   2.0000      -0.996369       -27.1126
 122   2.0000      -0.992769       -27.0146
 123   2.0000      -0.988951       -26.9107
 124   2.0000      -0.981369       -26.7044
 125   2.0000      -0.971710       -26.4416
 126   2.0000      -0.963388       -26.2151
 127   2.0000      -0.951145       -25.8820
 128   2.0000      -0.928984       -25.2789
 129   2.0000      -0.922020       -25.0894
 130   2.0000      -0.909474       -24.7480
 131   2.0000      -0.908604       -24.7244
 132   2.0000      -0.900104       -24.4931
 133   2.0000      -0.898936       -24.4613
 134   2.0000      -0.891149       -24.2494
 135   2.0000      -0.880579       -23.9618
 136   2.0000      -0.874233       -23.7891
 137   2.0000      -0.869192       -23.6519
 138   2.0000      -0.861577       -23.4447
 139   2.0000      -0.861151       -23.4331
 140   2.0000      -0.850349       -23.1392
 141   2.0000      -0.847935       -23.0735
 142   2.0000      -0.842446       -22.9241
 143   2.0000      -0.833053       -22.6685
 144   2.0000      -0.818748       -22.2793
 145   2.0000      -0.797993       -21.7145
 146   2.0000      -0.789927       -21.4950
 147   2.0000      -0.773037       -21.0354
 148   2.0000      -0.769723       -20.9452
 149   2.0000      -0.766495       -20.8574
 150   2.0000      -0.765567       -20.8321
 151   2.0000      -0.761703       -20.7270
 152   2.0000      -0.755747       -20.5649
 153   2.0000      -0.754289       -20.5252
 154   2.0000      -0.747640       -20.3443
 155   2.0000      -0.744442       -20.2573
 156   2.0000      -0.728831       -19.8325
 157   2.0000      -0.717037       -19.5116
 158   2.0000      -0.714066       -19.4307
 159   2.0000      -0.702370       -19.1125
 160   2.0000      -0.697067       -18.9682
 161   2.0000      -0.692624       -18.8473
 162   2.0000      -0.691065       -18.8048
 163   2.0000      -0.686129       -18.6705
 164   2.0000      -0.681888       -18.5551
 165   2.0000      -0.681503       -18.5446
 166   2.0000      -0.678930       -18.4746
 167   2.0000      -0.675210       -18.3734
 168   2.0000      -0.671772       -18.2799
 169   2.0000      -0.665916       -18.1205
 170   2.0000      -0.658525       -17.9194
 171   2.0000      -0.657573       -17.8935
 172   2.0000      -0.655507       -17.8373
 173   2.0000      -0.643930       -17.5222
 174   2.0000      -0.641117       -17.4457
 175   2.0000      -0.636369       -17.3165
 176   2.0000      -0.634893       -17.2763
 177   2.0000      -0.631460       -17.1829
 178   2.0000      -0.628347       -17.0982
 179   2.0000      -0.627175       -17.0663
 180   2.0000      -0.626738       -17.0544
 181   2.0000      -0.620109       -16.8740
 182   2.0000      -0.618354       -16.8263
 183   2.0000      -0.616013       -16.7626
 184   2.0000      -0.615302       -16.7432
 185   2.0000      -0.614530       -16.7222
 186   2.0000      -0.612032       -16.6542
 187   2.0000      -0.606414       -16.5014
 188   2.0000      -0.605837       -16.4857
 189   2.0000      -0.601704       -16.3732
 190   2.0000      -0.596884       -16.2420
 191   2.0000      -0.590224       -16.0608
 192   2.0000      -0.584397       -15.9023
 193   2.0000      -0.583806       -15.8862
 194   2.0000      -0.583660       -15.8822
 195   2.0000      -0.580214       -15.7884
 196   2.0000      -0.578595       -15.7444
 197   2.0000      -0.575527       -15.6609
 198   2.0000      -0.570825       -15.5329
 199   2.0000      -0.564692       -15.3661
 200   2.0000      -0.562772       -15.3138
 201   2.0000      -0.559168       -15.2157
 202   2.0000      -0.556010       -15.1298
 203   2.0000      -0.552960       -15.0468
 204   2.0000      -0.551258       -15.0005
 205   2.0000      -0.549191       -14.9443
 206   2.0000      -0.547518       -14.8987
 207   2.0000      -0.546585       -14.8733
 208   2.0000      -0.543027       -14.7765
 209   2.0000      -0.541913       -14.7462
 210   2.0000      -0.537093       -14.6150
 211   2.0000      -0.534380       -14.5412
 212   2.0000      -0.533203       -14.5092
 213   2.0000      -0.531435       -14.4611
 214   2.0000      -0.530132       -14.4256
 215   2.0000      -0.528110       -14.3706
 216   2.0000      -0.527288       -14.3482
 217   2.0000      -0.526391       -14.3238
 218   2.0000      -0.525525       -14.3003
 219   2.0000      -0.522071       -14.2063
 220   2.0000      -0.520626       -14.1669
 221   2.0000      -0.518330       -14.1045
 222   2.0000      -0.510375       -13.8880
 223   2.0000      -0.507895       -13.8205
 224   2.0000      -0.505010       -13.7420
 225   2.0000      -0.503733       -13.7073
 226   2.0000      -0.501179       -13.6378
 227   2.0000      -0.500889       -13.6299
 228   2.0000      -0.497668       -13.5422
 229   2.0000      -0.495393       -13.4803
 230   2.0000      -0.494567       -13.4578
 231   2.0000      -0.491390       -13.3714
 232   2.0000      -0.489287       -13.3142
 233   2.0000      -0.487086       -13.2543
 234   2.0000      -0.484488       -13.1836
 235   2.0000      -0.481835       -13.1114
 236   2.0000      -0.479798       -13.0560
 237   2.0000      -0.478092       -13.0095
 238   2.0000      -0.475322       -12.9342
 239   2.0000      -0.471748       -12.8369
 240   2.0000      -0.471385       -12.8270
 241   2.0000      -0.470122       -12.7927
 242   2.0000      -0.465105       -12.6562
 243   2.0000      -0.464374       -12.6363
 244   2.0000      -0.463359       -12.6086
 245   2.0000      -0.459444       -12.5021
 246   2.0000      -0.455117       -12.3844
 247   2.0000      -0.453250       -12.3336
 248   2.0000      -0.452735       -12.3195
 249   2.0000      -0.450032       -12.2460
 250   2.0000      -0.449102       -12.2207
 251   2.0000      -0.447932       -12.1888
 252   2.0000      -0.444409       -12.0930
 253   2.0000      -0.442047       -12.0287
 254   2.0000      -0.441105       -12.0031
 255   2.0000      -0.440612       -11.9897
 256   2.0000      -0.434043       -11.8109
 257   2.0000      -0.433122       -11.7859
 258   2.0000      -0.428122       -11.6498
 259   2.0000      -0.427500       -11.6329
 260   2.0000      -0.424589       -11.5537
 261   2.0000      -0.422068       -11.4850
 262   2.0000      -0.418229       -11.3806
 263   2.0000      -0.418048       -11.3757
 264   2.0000      -0.417560       -11.3624
 265   2.0000      -0.415331       -11.3017
 266   2.0000      -0.407492       -11.0884
 267   2.0000      -0.405431       -11.0323
 268   2.0000      -0.398643       -10.8476
 269   2.0000      -0.394900       -10.7458
 270   2.0000      -0.384875       -10.4730
 271   2.0000      -0.380240       -10.3469
 272   2.0000      -0.367994       -10.0136
 273   2.0000      -0.365673        -9.9505
 274   2.0000      -0.361993        -9.8503
 275   2.0000      -0.352584        -9.5943
 276   2.0000      -0.352211        -9.5842
 277   2.0000      -0.350091        -9.5265
 278   2.0000      -0.346861        -9.4386
 279   2.0000      -0.344374        -9.3709
 280   2.0000      -0.339116        -9.2278
 281   2.0000      -0.332247        -9.0409
 282   2.0000      -0.329494        -8.9660
 283   2.0000      -0.326713        -8.8903
 284   2.0000      -0.322826        -8.7845
 285   2.0000      -0.317445        -8.6381
 286   2.0000      -0.315113        -8.5747
 287   2.0000      -0.305332        -8.3085
 288   2.0000      -0.302733        -8.2378
 289   2.0000      -0.291149        -7.9226
 290   2.0000      -0.259892        -7.0720
 291   0.0000      -0.106593        -2.9005
 292   0.0000      -0.095766        -2.6059
 293   0.0000      -0.066129        -1.7995
 294   0.0000      -0.055882        -1.5206
 295   0.0000      -0.045511        -1.2384

MULLIKEN ATOMIC CHARGES
-----------------------
   0 C :    0.031921
   1 C :   -0.131921
   2 S :    0.170911
   3 C :   -0.137900
   4 C :    0.028181
   5 C :    0.169790
   6 O :   -0.141400
   7 C :   -0.052460
   8 C :    0.307419
   9 C :   -0.335042
  10 C :   -0.193575
  11 N :    0.157456
  12 C :   -0.176954
  13 N :    0.155585
  14 C :   -0.080118
  15 C :    0.021106
  16 C :   -0.167940
  17 C :    0.229152
  18 C :    0.174879
  19 C :    0.133015
  20 C :    0.178054
  21 C :    0.198723
  22 F :   -0.154715
  23 F :   -0.152657
  24 F :   -0.149620
  25 F :   -0.163222
  26 F :   -0.162190
  27 C :    0.117657
  28 C :    0.006649
  29 C :    0.154518
  30 C :    0.154206
  31 C :    0.119324
  32 C :    0.154878
  33 C :    0.202395
  34 F :   -0.151062
  35 F :   -0.159942
  36 F :   -0.157966
  37 F :   -0.163126
  38 F :   -0.166670
  39 C :   -0.275303
  40 S :    0.187804
  41 C :   -0.112579
  42 C :   -0.073279
  43 C :    0.024675
  44 C :    0.064613
  45 N :   -0.181736
  46 C :    0.069928
  47 C :    0.055644
  48 C :    0.070902
  49 N :   -0.175653
  50 C :    0.064038
  51 C :   -0.029763
  52 C :    0.111437
  53 C :   -0.038306
  54 C :    0.007762
  55 C :    0.080281
  56 C :   -0.052540
  57 C :    0.000232
  58 N :    0.049110
  59 O :   -0.088928
  60 N :    0.043006
  61 C :   -0.000464
  62 C :   -0.118803
  63 C :    0.133953
  64 O :   -0.135100
  65 C :   -0.005528
  66 C :    0.016769
  67 C :    0.308702
  68 C :   -0.315932
  69 C :   -0.206045
  70 N :    0.166773
  71 C :   -0.191096
  72 N :    0.162078
  73 C :   -0.021395
  74 C :    0.048975
  75 C :   -0.006860
  76 C :   -0.012760
  77 Br:   -0.020811
  78 H :    0.053440
  79 H :    0.043291
  80 H :    0.033275
  81 H :    0.007148
  82 H :    0.100585
  83 H :    0.099230
  84 H :   -0.002277
  85 H :   -0.006186
  86 H :   -0.004374
  87 H :   -0.001533
  88 H :    0.008606
  89 H :    0.098378
  90 H :    0.098057
  91 H :    0.005618
  92 H :   -0.035310
  93 H :   -0.010667
  94 H :   -0.004008
  95 H :    0.020671
  96 H :    0.013094
  97 H :    0.007292
  98 H :    0.004523
Sum of atomic charges:   -0.0000000

LOEWDIN ATOMIC CHARGES
----------------------
   0 C :   -0.064195
   1 C :   -0.147760
   2 S :    0.499223
   3 C :   -0.141740
   4 C :   -0.092192
   5 C :    0.075845
   6 O :   -0.128034
   7 C :   -0.075711
   8 C :    0.079203
   9 C :   -0.132444
  10 C :   -0.014384
  11 N :   -0.049139
  12 C :   -0.020800
  13 N :   -0.046123
  14 C :    0.068442
  15 C :   -0.027519
  16 C :   -0.085208
  17 C :    0.065304
  18 C :    0.026897
  19 C :    0.043796
  20 C :    0.030345
  21 C :    0.065017
  22 F :   -0.032735
  23 F :   -0.032163
  24 F :   -0.028056
  25 F :   -0.041713
  26 F :   -0.034139
  27 C :    0.023334
  28 C :   -0.057161
  29 C :    0.053081
  30 C :    0.022064
  31 C :    0.034986
  32 C :    0.021878
  33 C :    0.077827
  34 F :   -0.023050
  35 F :   -0.039238
  36 F :   -0.036177
  37 F :   -0.042746
  38 F :   -0.041463
  39 C :   -0.179108
  40 S :    0.487425
  41 C :   -0.158485
  42 C :   -0.058626
  43 C :   -0.049369
  44 C :    0.017701
  45 N :   -0.073107
  46 C :   -0.041402
  47 C :   -0.040107
  48 C :    0.018957
  49 N :   -0.078890
  50 C :   -0.018715
  51 C :   -0.022808
  52 C :    0.010581
  53 C :   -0.015847
  54 C :    0.036473
  55 C :   -0.052524
  56 C :   -0.045888
  57 C :   -0.040574
  58 N :   -0.013246
  59 O :    0.078197
  60 N :   -0.026737
  61 C :    0.066964
  62 C :   -0.081114
  63 C :    0.087064
  64 O :   -0.133523
  65 C :   -0.041307
  66 C :   -0.007153
  67 C :    0.074011
  68 C :   -0.127427
  69 C :   -0.017365
  70 N :   -0.052281
  71 C :   -0.018189
  72 N :   -0.047372
  73 C :    0.008271
  74 C :   -0.010553
  75 C :   -0.100109
  76 C :    0.000737
  77 Br:    0.114903
  78 H :    0.036810
  79 H :    0.037231
  80 H :    0.047862
  81 H :    0.028763
  82 H :    0.054818
  83 H :    0.057057
  84 H :    0.023288
  85 H :    0.020229
  86 H :    0.021130
  87 H :    0.023251
  88 H :    0.027682
  89 H :    0.057127
  90 H :    0.055478
  91 H :    0.029086
  92 H :    0.024612
  93 H :    0.036076
  94 H :    0.039936
  95 H :    0.047925
  96 H :    0.043941
  97 H :    0.040676
  98 H :    0.044210

  Mayer bond orders larger than 0.100000
B(  0-C ,  1-C ) :   1.5235 B(  0-C ,  4-C ) :   1.2213 B(  0-C ,  8-C ) :   0.9986
B(  1-C ,  2-S ) :   1.1899 B(  1-C , 78-H ) :   0.9551 B(  2-S ,  3-C ) :   1.1936
B(  3-C ,  4-C ) :   1.5351 B(  3-C , 79-H ) :   0.9712 B(  4-C ,  5-C ) :   0.9491
B(  5-C ,  6-O ) :   2.1824 B(  5-C ,  7-C ) :   0.9318 B(  7-C ,  8-C ) :   1.0547
B(  7-C , 14-C ) :   1.6841 B(  8-C ,  9-C ) :   1.6626 B(  9-C , 10-C ) :   1.1420
B(  9-C , 12-C ) :   1.1414 B( 10-C , 11-N ) :   2.9941 B( 12-C , 13-N ) :   2.9584
B( 14-C , 15-C ) :   1.0843 B( 14-C , 80-H ) :   0.9206 B( 15-C , 16-C ) :   0.9590
B( 15-C , 27-C ) :   1.7623 B( 16-C , 17-C ) :   1.3285 B( 16-C , 19-C ) :   0.1085
B( 16-C , 21-C ) :   1.3367 B( 17-C , 18-C ) :   1.2917 B( 17-C , 26-F ) :   1.1445
B( 18-C , 19-C ) :   1.2753 B( 18-C , 25-F ) :   1.1649 B( 19-C , 20-C ) :   1.2770
B( 19-C , 24-F ) :   1.1804 B( 20-C , 21-C ) :   1.2816 B( 20-C , 23-F ) :   1.1781
B( 21-C , 22-F ) :   1.1725 B( 27-C , 28-C ) :   1.0042 B( 27-C , 39-C ) :   1.0004
B( 28-C , 29-C ) :   1.3293 B( 28-C , 31-C ) :   0.1099 B( 28-C , 33-C ) :   1.3045
B( 29-C , 30-C ) :   1.2817 B( 29-C , 38-F ) :   1.1478 B( 30-C , 31-C ) :   1.2641
B( 30-C , 37-F ) :   1.1709 B( 31-C , 32-C ) :   1.2816 B( 31-C , 36-F ) :   1.1755
B( 32-C , 33-C ) :   1.3025 B( 32-C , 35-F ) :   1.1732 B( 33-C , 34-F ) :   1.1734
B( 39-C , 40-S ) :   1.1512 B( 39-C , 41-C ) :   0.1089 B( 39-C , 43-C ) :   1.5386
B( 40-S , 41-C ) :   1.1456 B( 41-C , 42-C ) :   1.4705 B( 41-C , 50-C ) :   1.1228
B( 42-C , 43-C ) :   1.3355 B( 42-C , 48-C ) :   0.9987 B( 43-C , 44-C ) :   0.9846
B( 44-C , 45-N ) :   1.1174 B( 44-C , 46-C ) :   1.0707 B( 44-C , 81-H ) :   0.8731
B( 45-N , 82-H ) :   0.9537 B( 45-N , 83-H ) :   0.9634 B( 46-C , 47-C ) :   1.0630
B( 46-C , 84-H ) :   0.9247 B( 46-C , 85-H ) :   0.9250 B( 47-C , 48-C ) :   1.0694
B( 47-C , 86-H ) :   0.9263 B( 47-C , 87-H ) :   0.9243 B( 48-C , 49-N ) :   1.0714
B( 48-C , 88-H ) :   0.8721 B( 49-N , 89-H ) :   0.9607 B( 49-N , 90-H ) :   0.9666
B( 49-N , 92-H ) :   0.1170 B( 50-C , 51-C ) :   1.6580 B( 50-C , 91-H ) :   0.9253
B( 51-C , 52-C ) :   1.1445 B( 51-C , 92-H ) :   0.9397 B( 52-C , 53-C ) :   1.4439
B( 52-C , 57-C ) :   1.0873 B( 53-C , 54-C ) :   1.2190 B( 53-C , 93-H ) :   0.9952
B( 54-C , 55-C ) :   1.4392 B( 54-C , 94-H ) :   0.9942 B( 55-C , 56-C ) :   1.1287
B( 55-C , 61-C ) :   1.0758 B( 56-C , 57-C ) :   1.1525 B( 56-C , 60-N ) :   1.6005
B( 57-C , 58-N ) :   1.5987 B( 58-N , 59-O ) :   1.0685 B( 58-N , 60-N ) :   0.1735
B( 59-O , 60-N ) :   1.0553 B( 61-C , 62-C ) :   1.6926 B( 61-C , 95-H ) :   0.9441
B( 62-C , 63-C ) :   0.9386 B( 62-C , 67-C ) :   1.0280 B( 63-C , 64-O ) :   2.2726
B( 63-C , 65-C ) :   0.9198 B( 65-C , 66-C ) :   1.3308 B( 65-C , 76-C ) :   1.3805
B( 66-C , 67-C ) :   1.0126 B( 66-C , 73-C ) :   1.3695 B( 67-C , 68-C ) :   1.6608
B( 68-C , 69-C ) :   1.1646 B( 68-C , 71-C ) :   1.1384 B( 69-C , 70-N ) :   3.0051
B( 71-C , 72-N ) :   2.9974 B( 73-C , 74-C ) :   1.3814 B( 73-C , 96-H ) :   0.9860
B( 74-C , 75-C ) :   1.3876 B( 74-C , 97-H ) :   0.9853 B( 75-C , 76-C ) :   1.3450
B( 75-C , 77-Br) :   0.9917 B( 76-C , 98-H ) :   1.0062

-----------------------------------------------------------------------------
         ABSORPTION SPECTRUM VIA TRANSITION ELECTRIC DIPOLE MOMENTS
-----------------------------------------------------------------------------
State   Energy  Wavelength   fosc         T2         TX        TY        TZ
        (cm-1)    (nm)                  (au**2)     (au)      (au)      (au)
-----------------------------------------------------------------------------
   0   17519.5    570.8   1.172150617  22.02606   3.52207  -0.49667  -3.06176
   1   20977.3    476.7   0.185285748   2.90783  -0.22294  -1.66366  -0.30063
   2   22859.5    437.5   0.032631131   0.46994  -0.25442   0.09439  -0.62952
   3   26002.3    384.6   0.033584895   0.42521  -0.27909  -0.35130   0.47319
   4   26825.3    372.8   0.154101566   1.89121   0.14551  -0.28358  -1.33777
   5   27409.1    364.8   0.042669307   0.51250   0.22575   0.29661  -0.61120
   6   28219.2    354.4   0.012155103   0.14180   0.09175  -0.34020  -0.13286
   7   29022.1    344.6   0.051380021   0.58283  -0.54463  -0.17569   0.50531
   8   29216.8    342.3   0.042190261   0.47539   0.56941   0.19615  -0.33570
   9   29649.8    337.3   0.033784547   0.37512  -0.36818   0.42971  -0.23434
  10   29685.8    336.9   0.090335412   1.00181  -0.33367  -0.92980   0.16111
  11   30279.6    330.3   0.083372123   0.90645  -0.90809  -0.11261   0.26295
  12   30291.9    330.1   0.013961284   0.15173  -0.00431   0.30701  -0.23971
  13   30541.6    327.4   0.129888551   1.40009   1.12650   0.32953   0.14997
  14   30917.5    323.4   0.003499052   0.03726  -0.02535   0.17068   0.08650
  15   31745.2    315.0   0.033042381   0.34266  -0.08317  -0.37533  -0.44145
  16   32218.9    310.4   0.030735622   0.31406  -0.21819  -0.40516  -0.31983
  17   32344.9    309.2   0.038609835   0.39298   0.51023  -0.34842   0.10608
  18   32976.3    303.2   0.114818401   1.14626   0.31428  -0.02397  -1.02319
  19   33308.8    300.2   0.094125266   0.93030   0.68182  -0.65749   0.18202
  20   33423.3    299.2   0.094405498   0.92987   0.41990   0.38277  -0.77913
  21   33881.6    295.1   0.102079916   0.99186  -0.41700   0.06453   0.90211
  22   34269.8    291.8   0.038317473   0.36810   0.54651  -0.03476  -0.26118
  23   34493.9    289.9   0.360066669   3.43650  -0.67852  -0.68025   1.58536
  24   35431.9    282.2   0.100594004   0.93466   0.13479  -0.85215  -0.43627
  25   35631.6    280.6   0.070128651   0.64794   0.26410   0.49990  -0.57296
  26   36046.7    277.4   0.181543101   1.65802  -0.55961  -0.28093   1.12514
  27   36112.4    276.9   0.051322955   0.46788   0.14525  -0.32036  -0.58664
  28   36249.2    275.9   0.100960038   0.91691  -0.61198  -0.03061   0.73584
  29   36827.9    271.5   0.116965516   1.04558   0.48034  -0.34389   0.83462
  30   36926.8    270.8   0.166482145   1.48423  -0.49658   0.37268   1.04821
  31   37104.1    269.5   0.036546385   0.32426   0.49730   0.06598   0.26945
  32   37231.3    268.6   0.093400094   0.82588   0.58944  -0.64659   0.24569
  33   37287.9    268.2   0.025338624   0.22371   0.06223  -0.39775   0.24827
  34   37427.1    267.2   0.020129891   0.17706   0.00919  -0.38458  -0.17053
  35   37590.5    266.0   0.012554500   0.10995   0.01403   0.14949   0.29564
  36   37987.1    263.2   0.118380460   1.02593   0.16074   0.64672   0.76279
  37   38149.5    262.1   0.018512043   0.15975   0.11881  -0.18609   0.33317
  38   38746.8    258.1   0.157064135   1.33449   1.06977   0.01994   0.43554
  39   38984.3    256.5   0.013200856   0.11148  -0.25450  -0.16366   0.14114
  40   39083.8    255.9   0.021957929   0.18496  -0.42906  -0.02755   0.01027
  41   39581.0    252.6   0.215051959   1.78868  -0.79482  -0.35526  -1.01525
  42   39843.8    251.0   0.012454253   0.10290  -0.17457  -0.26869   0.01537
  43   40041.6    249.7   0.427190061   3.51225  -1.11823  -0.01303  -1.50387

FINAL SINGLE POINT ENERGY     -7097.851213868878

DIPOLE MOMENT
-------------
                                X             Y             Z
Electronic contribution:     62.44198      68.82457     -47.08051
Nuclear contribution   :    -62.80708     -71.38602      47.15235
                        -----------------------------------------
Total Dipole Moment    :     -0.36510      -2.56145       0.07183
                        -----------------------------------------
Magnitude (a.u.)       :      2.58834
Magnitude (Debye)      :      6.57903

Rotational constants in cm-1:     0.001313     0.000284     0.000276
Rotational constants in MHz :    39.361757     8.528802     8.280203

                             ****ORCA TERMINATED NORMALLY****
TOTAL RUN TIME: 0 days 0 hours 12 minutes 40 seconds 408 msec
