                         Program Version 4.2.0 -  RELEASE  -
|  1> # ORCA input file
|  2> # SCF done       -220.547822379877          0.000577799257
|  3> ! CAM-B3LYP def2-SVP def2/J RIJCOSX Grid4 TightSCF
|  4> %maxcore 5000
|  5> %tddft
|  6>     Mode sTDDFT
|  7>     Ethresh 5.0
|  8>     maxcore 5000
|  9> end
| 10>
| 11> %pal
| 12>   nprocs 6
| 13>   end
| 14> * xyz 0 1
| 15>    C        4.92708        -5.73289        -1.85067
| 16>    C        3.75035        -6.01590        -2.47175
| 17>    S        3.48309        -7.71917        -2.53538
| 18>    C        4.96662        -8.05766        -1.72001
| 19>    C        5.62379        -6.91012        -1.41955
| 20>    C        6.88017        -6.52099        -0.75922
| 21>    O        7.72385        -7.24214        -0.26977
| 22>    C        6.89294        -5.03822        -0.82278
| 23>    C        5.70103        -4.56118        -1.48714
| 24>    C        5.32722        -3.26245        -1.74514
| 25>    C        4.11894        -2.97521        -2.41201
| 26>    N        3.13881        -2.72958        -2.95665
| 27>    C        6.04846        -2.10332        -1.40380
| 28>    N        6.59168        -1.12125        -1.15199
| 29>    C        7.88543        -4.22823        -0.32682
| 30>    C        9.05610        -4.60066         0.33280
| 31>    C        9.93272        -3.62520         0.77019
| 32>    C       11.15652        -3.75976         1.46616
| 33>    C       11.76835        -2.57252         1.75842
| 34>    C       11.05468        -1.44478         1.30324
| 35>    S        9.58987        -1.93127         0.49283
| 36>    C       11.31961        -0.08792         1.40172
| 37>    C       12.37402         0.61654         2.01828
| 38>    C       12.25511         1.97204         1.91488
| 39>    C       11.10099         2.40905         1.21509
| 40>    S       10.17959         1.02100         0.68331
| 41>    C       10.76720         3.71076         0.92208
| 42>    C        9.60856         4.14126         0.23821
| 43>    C        8.44701         3.22288         0.14678
| 44>    C        7.94316         2.80902        -1.08590
| 45>    C        6.78458         2.04685        -1.18535
| 46>    C        6.11081         1.66741        -0.02744
| 47>    C        6.62256         2.02993         1.21581
| 48>    C        7.77497         2.80131         1.29290
| 49>    F        8.23236         3.17258         2.49314
| 50>    F        5.98892         1.65992         2.33043
| 51>    F        4.96862         0.99276        -0.09994
| 52>    F        6.30024         1.72259        -2.38141
| 53>    F        8.56636         3.19054        -2.20466
| 54>    C        9.49443         5.39369        -0.33992
| 55>    C       10.66503         6.26658        -0.49911
| 56>    C       11.88317         5.80509        -1.01069
| 57>    C       12.97315         6.64922        -1.18802
| 58>    C       12.86988         7.99910        -0.86404
| 59>    C       11.66513         8.48925        -0.36648
| 60>    C       10.58779         7.63026        -0.19252
| 61>    F        9.45462         8.13208         0.30738
| 62>    F       11.54920         9.78154        -0.05571
| 63>    F       13.91017         8.81357        -1.03170
| 64>    F       14.11815         6.16783        -1.67500
| 65>    F       12.01387         4.52730        -1.37724
| 66>    C        8.26683         5.89621        -0.89945
| 67>    C        8.16476         6.68375        -2.01831
| 68>    C        6.83277         6.90980        -2.43263
| 69>    C        5.90715         6.27654        -1.57728
| 70>    S        6.69298         5.50307        -0.23372
| 71>    C        4.54038         6.16700        -1.81052
| 72>    O        3.87468         5.49452        -0.85251
| 73>    C        2.48848         5.24232        -0.92736
| 74>    C        4.06410         6.73536        -3.01350
| 75>    C        4.99411         7.44252        -3.83762
| 76>    C        6.34545         7.56499        -3.58042
| 77>    O        7.14840         8.21931        -4.47450
| 78>    C        7.79237         9.38280        -3.98626
| 79>    S        4.25080         8.07982        -5.27287
| 80>    C        2.71725         7.36422        -4.81640
| 81>    C        2.78446         6.71442        -3.60779
| 82>    C        1.59233         7.44953        -5.67362
| 83>    C        1.57457         8.20187        -6.93438
| 84>    N        0.46431         8.11866        -7.59948
| 85>    C       -0.34537         7.30764        -6.85707
| 86>    C        0.33614         6.87882        -5.61500
| 87>    C       -0.53084         6.01290        -4.86381
| 88>    S       -0.28854         5.28010        -3.41253
| 89>    C       -1.72649         5.90326        -5.67508
| 90>    C       -1.57974         6.72595        -6.90168
| 91>    N       -2.69081         6.61717        -7.67863
| 92>    C       -3.48176         5.80049        -7.03414
| 93>    C       -2.94192         5.31048        -5.77625
| 94>    H        3.02329        -5.35187        -2.89456
| 95>    H        5.24972        -9.07149        -1.51992
| 96>    H        7.74473        -3.16248        -0.45882
| 97>    H        9.27494        -5.64361         0.50613
| 98>    H       11.54623        -4.72626         1.73243
| 99>    H       12.70316        -2.48375         2.28283
|100>    H       13.18155         0.11296         2.51880
|101>    H       12.96008         2.67437         2.32312
|102>    H       11.47886         4.46822         1.22232
|103>    H        9.01995         7.00249        -2.58809
|104>    H        2.24609         4.72335        -0.00099
|105>    H        2.24312         4.59558        -1.77232
|106>    H        1.91340         6.16932        -0.98125
|107>    H        8.29560         9.20604        -3.03268
|108>    H        7.06961        10.19587        -3.85918
|109>    H        8.52196         9.66246        -4.74347
|110>    H        1.91501         6.22999        -3.20556
|111>    H        2.40033         8.78684        -7.30216
|112>    H       -4.44433         5.54162        -7.44003
|113>    H       -3.43290         4.63003        -5.10878
|114> *
|115>
|116>                          ****END OF INPUT****

CARTESIAN COORDINATES (ANGSTROEM)
---------------------------------
  C      4.927080   -5.732890   -1.850670
  C      3.750350   -6.015900   -2.471750
  S      3.483090   -7.719170   -2.535380
  C      4.966620   -8.057660   -1.720010
  C      5.623790   -6.910120   -1.419550
  C      6.880170   -6.520990   -0.759220
  O      7.723850   -7.242140   -0.269770
  C      6.892940   -5.038220   -0.822780
  C      5.701030   -4.561180   -1.487140
  C      5.327220   -3.262450   -1.745140
  C      4.118940   -2.975210   -2.412010
  N      3.138810   -2.729580   -2.956650
  C      6.048460   -2.103320   -1.403800
  N      6.591680   -1.121250   -1.151990
  C      7.885430   -4.228230   -0.326820
  C      9.056100   -4.600660    0.332800
  C      9.932720   -3.625200    0.770190
  C     11.156520   -3.759760    1.466160
  C     11.768350   -2.572520    1.758420
  C     11.054680   -1.444780    1.303240
  S      9.589870   -1.931270    0.492830
  C     11.319610   -0.087920    1.401720
  C     12.374020    0.616540    2.018280
  C     12.255110    1.972040    1.914880
  C     11.100990    2.409050    1.215090
  S     10.179590    1.021000    0.683310
  C     10.767200    3.710760    0.922080
  C      9.608560    4.141260    0.238210
  C      8.447010    3.222880    0.146780
  C      7.943160    2.809020   -1.085900
  C      6.784580    2.046850   -1.185350
  C      6.110810    1.667410   -0.027440
  C      6.622560    2.029930    1.215810
  C      7.774970    2.801310    1.292900
  F      8.232360    3.172580    2.493140
  F      5.988920    1.659920    2.330430
  F      4.968620    0.992760   -0.099940
  F      6.300240    1.722590   -2.381410
  F      8.566360    3.190540   -2.204660
  C      9.494430    5.393690   -0.339920
  C     10.665030    6.266580   -0.499110
  C     11.883170    5.805090   -1.010690
  C     12.973150    6.649220   -1.188020
  C     12.869880    7.999100   -0.864040
  C     11.665130    8.489250   -0.366480
  C     10.587790    7.630260   -0.192520
  F      9.454620    8.132080    0.307380
  F     11.549200    9.781540   -0.055710
  F     13.910170    8.813570   -1.031700
  F     14.118150    6.167830   -1.675000
  F     12.013870    4.527300   -1.377240
  C      8.266830    5.896210   -0.899450
  C      8.164760    6.683750   -2.018310
  C      6.832770    6.909800   -2.432630
  C      5.907150    6.276540   -1.577280
  S      6.692980    5.503070   -0.233720
  C      4.540380    6.167000   -1.810520
  O      3.874680    5.494520   -0.852510
  C      2.488480    5.242320   -0.927360
  C      4.064100    6.735360   -3.013500
  C      4.994110    7.442520   -3.837620
  C      6.345450    7.564990   -3.580420
  O      7.148400    8.219310   -4.474500
  C      7.792370    9.382800   -3.986260
  S      4.250800    8.079820   -5.272870
  C      2.717250    7.364220   -4.816400
  C      2.784460    6.714420   -3.607790
  C      1.592330    7.449530   -5.673620
  C      1.574570    8.201870   -6.934380
  N      0.464310    8.118660   -7.599480
  C     -0.345370    7.307640   -6.857070
  C      0.336140    6.878820   -5.615000
  C     -0.530840    6.012900   -4.863810
  S     -0.288540    5.280100   -3.412530
  C     -1.726490    5.903260   -5.675080
  C     -1.579740    6.725950   -6.901680
  N     -2.690810    6.617170   -7.678630
  C     -3.481760    5.800490   -7.034140
  C     -2.941920    5.310480   -5.776250
  H      3.023290   -5.351870   -2.894560
  H      5.249720   -9.071490   -1.519920
  H      7.744730   -3.162480   -0.458820
  H      9.274940   -5.643610    0.506130
  H     11.546230   -4.726260    1.732430
  H     12.703160   -2.483750    2.282830
  H     13.181550    0.112960    2.518800
  H     12.960080    2.674370    2.323120
  H     11.478860    4.468220    1.222320
  H      9.019950    7.002490   -2.588090
  H      2.246090    4.723350   -0.000990
  H      2.243120    4.595580   -1.772320
  H      1.913400    6.169320   -0.981250
  H      8.295600    9.206040   -3.032680
  H      7.069610   10.195870   -3.859180
  H      8.521960    9.662460   -4.743470
  H      1.915010    6.229990   -3.205560
  H      2.400330    8.786840   -7.302160
  H     -4.444330    5.541620   -7.440030
  H     -3.432900    4.630030   -5.108780

 Total Charge           Charge          ....    0
 Multiplicity           Mult            ....    1
 Number of Electrons    NEL             ....  594
 Basis Dimension        Dim             .... 1230

ORBITAL ENERGIES
----------------

  NO   OCC          E(Eh)            E(eV)
   0   2.0000     -88.970493     -2421.0102
   1   2.0000     -88.962925     -2420.8043
   2   2.0000     -88.957585     -2420.6590
   3   2.0000     -88.953666     -2420.5523
   4   2.0000     -88.951719     -2420.4993
   5   2.0000     -88.901366     -2419.1292
   6   2.0000     -24.821063      -675.4155
   7   2.0000     -24.816314      -675.2862
   8   2.0000     -24.815289      -675.2584
   9   2.0000     -24.815174      -675.2552
  10   2.0000     -24.814366      -675.2332
  11   2.0000     -24.801365      -674.8795
  12   2.0000     -24.798027      -674.7886
  13   2.0000     -24.797573      -674.7763
  14   2.0000     -24.795098      -674.7089
  15   2.0000     -24.790356      -674.5799
  16   2.0000     -19.255038      -523.9562
  17   2.0000     -19.240309      -523.5554
  18   2.0000     -19.201522      -522.5000
  19   2.0000     -14.418565      -392.3491
  20   2.0000     -14.409034      -392.0898
  21   2.0000     -14.408004      -392.0617
  22   2.0000     -14.399225      -391.8228
  23   2.0000     -10.404158      -283.1115
  24   2.0000     -10.400244      -283.0050
  25   2.0000     -10.399139      -282.9750
  26   2.0000     -10.396923      -282.9147
  27   2.0000     -10.396785      -282.9109
  28   2.0000     -10.382816      -282.5308
  29   2.0000     -10.380107      -282.4571
  30   2.0000     -10.378586      -282.4157
  31   2.0000     -10.374698      -282.3099
  32   2.0000     -10.373003      -282.2638
  33   2.0000     -10.356308      -281.8095
  34   2.0000     -10.347996      -281.5833
  35   2.0000     -10.344251      -281.4814
  36   2.0000     -10.337661      -281.3021
  37   2.0000     -10.333897      -281.1996
  38   2.0000     -10.333238      -281.1817
  39   2.0000     -10.331313      -281.1293
  40   2.0000     -10.330586      -281.1095
  41   2.0000     -10.329076      -281.0684
  42   2.0000     -10.328648      -281.0568
  43   2.0000     -10.328173      -281.0439
  44   2.0000     -10.327302      -281.0202
  45   2.0000     -10.325562      -280.9728
  46   2.0000     -10.324043      -280.9315
  47   2.0000     -10.323633      -280.9203
  48   2.0000     -10.323458      -280.9156
  49   2.0000     -10.322343      -280.8852
  50   2.0000     -10.321485      -280.8619
  51   2.0000     -10.318772      -280.7881
  52   2.0000     -10.314995      -280.6853
  53   2.0000     -10.312598      -280.6201
  54   2.0000     -10.312400      -280.6147
  55   2.0000     -10.310209      -280.5550
  56   2.0000     -10.310139      -280.5531
  57   2.0000     -10.309345      -280.5315
  58   2.0000     -10.309152      -280.5263
  59   2.0000     -10.308987      -280.5218
  60   2.0000     -10.308610      -280.5115
  61   2.0000     -10.306874      -280.4643
  62   2.0000     -10.306828      -280.4630
  63   2.0000     -10.303924      -280.3840
  64   2.0000     -10.303215      -280.3647
  65   2.0000     -10.299374      -280.2602
  66   2.0000     -10.297977      -280.2222
  67   2.0000     -10.296653      -280.1862
  68   2.0000     -10.296120      -280.1717
  69   2.0000     -10.296063      -280.1701
  70   2.0000     -10.293651      -280.1045
  71   2.0000     -10.292147      -280.0636
  72   2.0000     -10.290351      -280.0147
  73   2.0000     -10.288854      -279.9740
  74   2.0000     -10.286561      -279.9116
  75   2.0000     -10.280663      -279.7511
  76   2.0000     -10.279882      -279.7298
  77   2.0000     -10.279432      -279.7176
  78   2.0000     -10.278491      -279.6920
  79   2.0000      -8.066393      -219.4977
  80   2.0000      -8.058529      -219.2837
  81   2.0000      -8.053701      -219.1524
  82   2.0000      -8.047960      -218.9961
  83   2.0000      -8.046967      -218.9691
  84   2.0000      -7.997031      -217.6103
  85   2.0000      -6.035685      -164.2393
  86   2.0000      -6.030949      -164.1105
  87   2.0000      -6.029038      -164.0585
  88   2.0000      -6.028313      -164.0387
  89   2.0000      -6.024026      -163.9221
  90   2.0000      -6.023307      -163.9025
  91   2.0000      -6.019526      -163.7996
  92   2.0000      -6.019215      -163.7912
  93   2.0000      -6.017744      -163.7511
  94   2.0000      -6.016666      -163.7218
  95   2.0000      -6.014845      -163.6723
  96   2.0000      -6.013498      -163.6356
  97   2.0000      -6.012596      -163.6111
  98   2.0000      -6.009270      -163.5206
  99   2.0000      -6.008182      -163.4909
 100   2.0000      -5.965794      -162.3375
 101   2.0000      -5.965390      -162.3265
 102   2.0000      -5.956551      -162.0860
 103   2.0000      -1.347406       -36.6648
 104   2.0000      -1.339639       -36.4534
 105   2.0000      -1.334131       -36.3036
 106   2.0000      -1.325942       -36.0807
 107   2.0000      -1.323823       -36.0230
 108   2.0000      -1.320207       -35.9246
 109   2.0000      -1.320044       -35.9202
 110   2.0000      -1.315168       -35.7875
 111   2.0000      -1.304445       -35.4958
 112   2.0000      -1.298417       -35.3317
 113   2.0000      -1.159901       -31.5625
 114   2.0000      -1.143862       -31.1261
 115   2.0000      -1.115943       -30.3664
 116   2.0000      -1.083252       -29.4768
 117   2.0000      -1.062392       -28.9092
 118   2.0000      -1.016873       -27.6705
 119   2.0000      -1.011837       -27.5335
 120   2.0000      -1.010025       -27.4842
 121   2.0000      -0.999874       -27.2080
 122   2.0000      -0.995919       -27.1003
 123   2.0000      -0.994792       -27.0697
 124   2.0000      -0.987693       -26.8765
 125   2.0000      -0.981771       -26.7154
 126   2.0000      -0.980119       -26.6704
 127   2.0000      -0.961610       -26.1667
 128   2.0000      -0.951833       -25.9007
 129   2.0000      -0.949548       -25.8385
 130   2.0000      -0.918865       -25.0036
 131   2.0000      -0.909920       -24.7602
 132   2.0000      -0.900976       -24.5168
 133   2.0000      -0.885900       -24.1066
 134   2.0000      -0.880257       -23.9530
 135   2.0000      -0.878268       -23.8989
 136   2.0000      -0.874034       -23.7837
 137   2.0000      -0.872528       -23.7427
 138   2.0000      -0.868238       -23.6260
 139   2.0000      -0.862490       -23.4696
 140   2.0000      -0.852910       -23.2089
 141   2.0000      -0.850048       -23.1310
 142   2.0000      -0.846759       -23.0415
 143   2.0000      -0.842696       -22.9309
 144   2.0000      -0.841779       -22.9060
 145   2.0000      -0.832921       -22.6649
 146   2.0000      -0.829197       -22.5636
 147   2.0000      -0.814477       -22.1630
 148   2.0000      -0.811987       -22.0953
 149   2.0000      -0.795909       -21.6578
 150   2.0000      -0.792189       -21.5566
 151   2.0000      -0.779961       -21.2238
 152   2.0000      -0.774431       -21.0733
 153   2.0000      -0.762826       -20.7575
 154   2.0000      -0.757277       -20.6066
 155   2.0000      -0.747829       -20.3495
 156   2.0000      -0.744754       -20.2658
 157   2.0000      -0.741956       -20.1897
 158   2.0000      -0.739902       -20.1337
 159   2.0000      -0.737299       -20.0629
 160   2.0000      -0.731205       -19.8971
 161   2.0000      -0.711647       -19.3649
 162   2.0000      -0.702524       -19.1167
 163   2.0000      -0.701135       -19.0789
 164   2.0000      -0.692441       -18.8423
 165   2.0000      -0.691093       -18.8056
 166   2.0000      -0.679627       -18.4936
 167   2.0000      -0.675620       -18.3846
 168   2.0000      -0.673532       -18.3277
 169   2.0000      -0.673007       -18.3134
 170   2.0000      -0.668310       -18.1856
 171   2.0000      -0.666881       -18.1468
 172   2.0000      -0.664667       -18.0865
 173   2.0000      -0.657986       -17.9047
 174   2.0000      -0.654671       -17.8145
 175   2.0000      -0.649303       -17.6684
 176   2.0000      -0.646631       -17.5957
 177   2.0000      -0.644771       -17.5451
 178   2.0000      -0.638252       -17.3677
 179   2.0000      -0.637640       -17.3511
 180   2.0000      -0.635100       -17.2819
 181   2.0000      -0.631040       -17.1715
 182   2.0000      -0.625769       -17.0281
 183   2.0000      -0.623182       -16.9576
 184   2.0000      -0.620109       -16.8740
 185   2.0000      -0.618789       -16.8381
 186   2.0000      -0.617982       -16.8162
 187   2.0000      -0.615808       -16.7570
 188   2.0000      -0.611233       -16.6325
 189   2.0000      -0.610367       -16.6089
 190   2.0000      -0.608267       -16.5518
 191   2.0000      -0.605014       -16.4633
 192   2.0000      -0.602512       -16.3952
 193   2.0000      -0.596554       -16.2331
 194   2.0000      -0.592188       -16.1142
 195   2.0000      -0.589587       -16.0435
 196   2.0000      -0.585594       -15.9348
 197   2.0000      -0.583964       -15.8905
 198   2.0000      -0.579210       -15.7611
 199   2.0000      -0.576066       -15.6755
 200   2.0000      -0.573694       -15.6110
 201   2.0000      -0.572005       -15.5651
 202   2.0000      -0.564038       -15.3482
 203   2.0000      -0.561834       -15.2883
 204   2.0000      -0.560547       -15.2533
 205   2.0000      -0.559713       -15.2306
 206   2.0000      -0.558471       -15.1968
 207   2.0000      -0.554873       -15.0989
 208   2.0000      -0.548742       -14.9320
 209   2.0000      -0.543754       -14.7963
 210   2.0000      -0.542268       -14.7559
 211   2.0000      -0.542002       -14.7486
 212   2.0000      -0.539053       -14.6684
 213   2.0000      -0.535063       -14.5598
 214   2.0000      -0.534713       -14.5503
 215   2.0000      -0.533103       -14.5065
 216   2.0000      -0.532524       -14.4907
 217   2.0000      -0.531369       -14.4593
 218   2.0000      -0.531071       -14.4512
 219   2.0000      -0.527294       -14.3484
 220   2.0000      -0.526087       -14.3156
 221   2.0000      -0.519886       -14.1468
 222   2.0000      -0.517140       -14.0721
 223   2.0000      -0.515478       -14.0269
 224   2.0000      -0.513620       -13.9763
 225   2.0000      -0.510353       -13.8874
 226   2.0000      -0.508376       -13.8336
 227   2.0000      -0.506634       -13.7862
 228   2.0000      -0.505354       -13.7514
 229   2.0000      -0.502596       -13.6763
 230   2.0000      -0.499064       -13.5802
 231   2.0000      -0.498541       -13.5660
 232   2.0000      -0.495840       -13.4925
 233   2.0000      -0.493160       -13.4196
 234   2.0000      -0.491929       -13.3861
 235   2.0000      -0.487783       -13.2732
 236   2.0000      -0.487206       -13.2576
 237   2.0000      -0.485907       -13.2222
 238   2.0000      -0.483094       -13.1457
 239   2.0000      -0.481552       -13.1037
 240   2.0000      -0.480736       -13.0815
 241   2.0000      -0.479659       -13.0522
 242   2.0000      -0.477677       -12.9983
 243   2.0000      -0.476330       -12.9616
 244   2.0000      -0.474789       -12.9197
 245   2.0000      -0.471373       -12.8267
 246   2.0000      -0.465220       -12.6593
 247   2.0000      -0.464373       -12.6362
 248   2.0000      -0.461055       -12.5459
 249   2.0000      -0.458847       -12.4859
 250   2.0000      -0.457408       -12.4467
 251   2.0000      -0.454793       -12.3756
 252   2.0000      -0.454338       -12.3632
 253   2.0000      -0.450708       -12.2644
 254   2.0000      -0.445642       -12.1265
 255   2.0000      -0.443486       -12.0679
 256   2.0000      -0.440087       -11.9754
 257   2.0000      -0.436992       -11.8912
 258   2.0000      -0.434492       -11.8231
 259   2.0000      -0.433041       -11.7836
 260   2.0000      -0.431042       -11.7292
 261   2.0000      -0.427984       -11.6460
 262   2.0000      -0.426566       -11.6075
 263   2.0000      -0.425498       -11.5784
 264   2.0000      -0.419793       -11.4231
 265   2.0000      -0.418938       -11.3999
 266   2.0000      -0.416587       -11.3359
 267   2.0000      -0.414960       -11.2916
 268   2.0000      -0.407928       -11.1003
 269   2.0000      -0.404508       -11.0072
 270   2.0000      -0.399710       -10.8767
 271   2.0000      -0.396739       -10.7958
 272   2.0000      -0.392307       -10.6752
 273   2.0000      -0.382708       -10.4140
 274   2.0000      -0.364113        -9.9080
 275   2.0000      -0.363210        -9.8834
 276   2.0000      -0.356806        -9.7092
 277   2.0000      -0.355612        -9.6767
 278   2.0000      -0.351624        -9.5682
 279   2.0000      -0.346682        -9.4337
 280   2.0000      -0.342682        -9.3249
 281   2.0000      -0.340191        -9.2571
 282   2.0000      -0.336720        -9.1626
 283   2.0000      -0.336556        -9.1582
 284   2.0000      -0.335701        -9.1349
 285   2.0000      -0.324714        -8.8359
 286   2.0000      -0.324355        -8.8261
 287   2.0000      -0.322807        -8.7840
 288   2.0000      -0.316651        -8.6165
 289   2.0000      -0.312315        -8.4985
 290   2.0000      -0.310007        -8.4357
 291   2.0000      -0.302148        -8.2219
 292   2.0000      -0.290085        -7.8936
 293   2.0000      -0.289152        -7.8682
 294   2.0000      -0.274597        -7.4722
 295   2.0000      -0.244098        -6.6423
 296   2.0000      -0.227262        -6.1841
 297   0.0000      -0.116663        -3.1746
 298   0.0000      -0.107359        -2.9214
 299   0.0000      -0.079312        -2.1582
 300   0.0000      -0.064647        -1.7591
 301   0.0000      -0.038959        -1.0601

MULLIKEN ATOMIC CHARGES
-----------------------
   0 C :    0.025481
   1 C :   -0.135727
   2 S :    0.144121
   3 C :   -0.144034
   4 C :    0.029916
   5 C :    0.155468
   6 O :   -0.153945
   7 C :   -0.089924
   8 C :    0.320467
   9 C :   -0.353764
  10 C :   -0.198403
  11 N :    0.139458
  12 C :   -0.163064
  13 N :    0.118378
  14 C :   -0.066046
  15 C :   -0.006099
  16 C :    0.008623
  17 C :    0.025056
  18 C :    0.052098
  19 C :   -0.039076
  20 S :    0.076337
  21 C :   -0.019238
  22 C :    0.033105
  23 C :    0.052086
  24 C :   -0.022936
  25 S :    0.095357
  26 C :   -0.013453
  27 C :    0.070358
  28 C :   -0.372631
  29 C :    0.286186
  30 C :    0.182734
  31 C :    0.169656
  32 C :    0.156822
  33 C :    0.276398
  34 F :   -0.160118
  35 F :   -0.160687
  36 F :   -0.146658
  37 F :   -0.151997
  38 F :   -0.155950
  39 C :    0.125112
  40 C :   -0.147173
  41 C :    0.172040
  42 C :    0.172509
  43 C :    0.135670
  44 C :    0.167682
  45 C :    0.183987
  46 F :   -0.152372
  47 F :   -0.156651
  48 F :   -0.149524
  49 F :   -0.156751
  50 F :   -0.150299
  51 C :   -0.130888
  52 C :   -0.034902
  53 C :    0.093599
  54 C :   -0.135919
  55 S :    0.147185
  56 C :    0.160738
  57 O :   -0.301621
  58 C :    0.185653
  59 C :    0.050230
  60 C :   -0.096996
  61 C :    0.066348
  62 O :   -0.329024
  63 C :    0.200824
  64 S :    0.122351
  65 C :   -0.051587
  66 C :   -0.065973
  67 C :    0.038449
  68 C :    0.048287
  69 N :   -0.020004
  70 C :    0.009426
  71 C :   -0.021791
  72 C :    0.012136
  73 S :   -0.134957
  74 C :    0.064233
  75 C :   -0.003711
  76 N :   -0.047446
  77 C :    0.090537
  78 C :   -0.083617
  79 H :    0.047897
  80 H :    0.034015
  81 H :    0.021964
  82 H :    0.014616
  83 H :   -0.000574
  84 H :   -0.004660
  85 H :   -0.006178
  86 H :   -0.002575
  87 H :    0.001225
  88 H :   -0.007956
  89 H :    0.037591
  90 H :    0.044151
  91 H :    0.035524
  92 H :    0.013977
  93 H :    0.018057
  94 H :    0.037087
  95 H :   -0.056814
  96 H :    0.020535
  97 H :    0.013240
  98 H :   -0.001266
Sum of atomic charges:   -0.0000000

LOEWDIN ATOMIC CHARGES
----------------------
   0 C :   -0.062210
   1 C :   -0.153254
   2 S :    0.472392
   3 C :   -0.144848
   4 C :   -0.089368
   5 C :    0.079440
   6 O :   -0.153973
   7 C :   -0.103729
   8 C :    0.075971
   9 C :   -0.159453
  10 C :   -0.016227
  11 N :   -0.068906
  12 C :   -0.009348
  13 N :   -0.076227
  14 C :    0.044787
  15 C :   -0.068418
  16 C :   -0.100734
  17 C :   -0.041411
  18 C :   -0.006168
  19 C :   -0.190570
  20 S :    0.417577
  21 C :   -0.151632
  22 C :   -0.033028
  23 C :   -0.009517
  24 C :   -0.142457
  25 S :    0.425717
  26 C :   -0.027566
  27 C :   -0.015012
  28 C :   -0.133727
  29 C :    0.063418
  30 C :    0.034301
  31 C :    0.057668
  32 C :    0.026308
  33 C :    0.053854
  34 F :   -0.040986
  35 F :   -0.039877
  36 F :   -0.020396
  37 F :   -0.028652
  38 F :   -0.035970
  39 C :   -0.015465
  40 C :   -0.077124
  41 C :    0.062767
  42 C :    0.025105
  43 C :    0.043363
  44 C :    0.024690
  45 C :    0.068551
  46 F :   -0.031259
  47 F :   -0.036287
  48 F :   -0.028259
  49 F :   -0.036312
  50 F :   -0.028408
  51 C :   -0.155307
  52 C :   -0.040007
  53 C :   -0.057184
  54 C :   -0.177772
  55 S :    0.446689
  56 C :    0.040376
  57 O :   -0.095986
  58 C :    0.081790
  59 C :   -0.078646
  60 C :   -0.160956
  61 C :    0.006740
  62 O :   -0.131447
  63 C :    0.082824
  64 S :    0.403954
  65 C :   -0.169063
  66 C :   -0.024660
  67 C :   -0.041466
  68 C :    0.085583
  69 N :   -0.072380
  70 C :    0.046757
  71 C :   -0.046057
  72 C :   -0.135389
  73 S :    0.061005
  74 C :   -0.023135
  75 C :    0.028408
  76 N :   -0.090979
  77 C :    0.079965
  78 C :   -0.028136
  79 H :    0.034687
  80 H :    0.033359
  81 H :    0.027282
  82 H :    0.039482
  83 H :    0.038296
  84 H :    0.036125
  85 H :    0.035629
  86 H :    0.037635
  87 H :    0.036922
  88 H :    0.030325
  89 H :    0.032202
  90 H :    0.019620
  91 H :    0.019617
  92 H :    0.010425
  93 H :    0.015636
  94 H :    0.026607
  95 H :    0.006127
  96 H :    0.024435
  97 H :    0.025231
  98 H :    0.035701

  Mayer bond orders larger than 0.100000
B(  0-C ,  1-C ) :   1.5461 B(  0-C ,  4-C ) :   1.2237 B(  0-C ,  8-C ) :   0.9853
B(  1-C ,  2-S ) :   1.1700 B(  1-C , 79-H ) :   0.9547 B(  2-S ,  3-C ) :   1.1803
B(  3-C ,  4-C ) :   1.5488 B(  3-C , 80-H ) :   0.9712 B(  4-C ,  5-C ) :   0.9401
B(  5-C ,  6-O ) :   2.2170 B(  5-C ,  7-C ) :   0.9492 B(  7-C ,  8-C ) :   1.1260
B(  7-C , 14-C ) :   1.5067 B(  8-C ,  9-C ) :   1.5846 B(  9-C , 10-C ) :   1.1555
B(  9-C , 12-C ) :   1.1540 B( 10-C , 11-N ) :   2.9870 B( 12-C , 13-N ) :   2.9254
B( 14-C , 15-C ) :   1.2565 B( 14-C , 81-H ) :   0.9319 B( 15-C , 16-C ) :   1.4160
B( 15-C , 82-H ) :   0.9890 B( 16-C , 17-C ) :   1.1746 B( 16-C , 20-S ) :   1.0882
B( 17-C , 18-C ) :   1.5413 B( 17-C , 83-H ) :   1.0013 B( 18-C , 19-C ) :   1.2175
B( 18-C , 84-H ) :   0.9957 B( 19-C , 20-S ) :   1.0536 B( 19-C , 21-C ) :   1.4547
B( 21-C , 22-C ) :   1.1972 B( 21-C , 25-S ) :   1.0771 B( 22-C , 23-C ) :   1.5767
B( 22-C , 85-H ) :   0.9948 B( 23-C , 24-C ) :   1.1481 B( 23-C , 86-H ) :   0.9985
B( 24-C , 25-S ) :   1.0394 B( 24-C , 26-C ) :   1.5718 B( 26-C , 27-C ) :   1.1728
B( 26-C , 87-H ) :   0.9517 B( 27-C , 28-C ) :   0.9459 B( 27-C , 39-C ) :   1.6575
B( 28-C , 29-C ) :   1.3157 B( 28-C , 31-C ) :   0.1142 B( 28-C , 33-C ) :   1.3120
B( 29-C , 30-C ) :   1.2916 B( 29-C , 38-F ) :   1.1844 B( 30-C , 31-C ) :   1.2709
B( 30-C , 37-F ) :   1.1796 B( 31-C , 32-C ) :   1.2812 B( 31-C , 36-F ) :   1.1727
B( 32-C , 33-C ) :   1.2931 B( 32-C , 35-F ) :   1.1717 B( 33-C , 34-F ) :   1.1888
B( 39-C , 40-C ) :   0.9694 B( 39-C , 51-C ) :   1.0680 B( 40-C , 41-C ) :   1.3237
B( 40-C , 43-C ) :   0.1073 B( 40-C , 45-C ) :   1.3139 B( 41-C , 42-C ) :   1.2757
B( 41-C , 50-F ) :   1.1680 B( 42-C , 43-C ) :   1.2766 B( 42-C , 49-F ) :   1.1734
B( 43-C , 44-C ) :   1.2687 B( 43-C , 48-F ) :   1.1816 B( 44-C , 45-C ) :   1.2834
B( 44-C , 47-F ) :   1.1746 B( 45-C , 46-F ) :   1.1739 B( 51-C , 52-C ) :   1.5640
B( 51-C , 55-S ) :   1.0755 B( 52-C , 53-C ) :   1.1702 B( 52-C , 88-H ) :   0.9891
B( 53-C , 54-C ) :   1.3286 B( 53-C , 61-C ) :   1.2305 B( 54-C , 55-S ) :   1.0337
B( 54-C , 56-C ) :   1.3931 B( 56-C , 57-O ) :   1.2875 B( 56-C , 59-C ) :   1.2035
B( 57-O , 58-C ) :   0.9292 B( 58-C , 89-H ) :   0.9734 B( 58-C , 90-H ) :   0.9683
B( 58-C , 91-H ) :   0.9685 B( 59-C , 60-C ) :   1.2656 B( 59-C , 66-C ) :   1.1698
B( 60-C , 61-C ) :   1.4430 B( 60-C , 64-S ) :   1.0461 B( 61-C , 62-O ) :   1.2147
B( 62-O , 63-C ) :   0.9417 B( 63-C , 92-H ) :   0.9677 B( 63-C , 93-H ) :   0.9690
B( 63-C , 94-H ) :   0.9830 B( 64-S , 65-C ) :   1.0381 B( 65-C , 66-C ) :   1.5528
B( 65-C , 67-C ) :   1.1272 B( 66-C , 95-H ) :   0.9710 B( 67-C , 68-C ) :   1.0287
B( 67-C , 71-C ) :   1.5116 B( 68-C , 69-N ) :   1.7312 B( 68-C , 96-H ) :   0.9854
B( 69-N , 70-C ) :   1.2668 B( 70-C , 71-C ) :   1.0572 B( 70-C , 75-C ) :   1.5379
B( 71-C , 72-C ) :   1.0664 B( 72-C , 73-S ) :   1.6781 B( 72-C , 74-C ) :   0.9885
B( 73-S , 95-H ) :   0.1072 B( 74-C , 75-C ) :   1.0573 B( 74-C , 78-C ) :   1.6084
B( 75-C , 76-N ) :   1.2718 B( 76-N , 77-C ) :   1.6886 B( 77-C , 78-C ) :   1.0448
B( 77-C , 97-H ) :   0.9883 B( 78-C , 98-H ) :   1.0083

-----------------------------------------------------------------------------
         ABSORPTION SPECTRUM VIA TRANSITION ELECTRIC DIPOLE MOMENTS
-----------------------------------------------------------------------------
State   Energy  Wavelength   fosc         T2         TX        TY        TZ
        (cm-1)    (nm)                  (au**2)     (au)      (au)      (au)
-----------------------------------------------------------------------------
   0   10673.2    936.9   0.848649221  26.17642   0.42240   5.08780  -0.33509
   1   13328.3    750.3   0.280626466   6.93154  -2.04683  -1.14925  -1.19216
   2   15605.4    640.8   0.103544171   2.18437   1.07458   0.32880   0.95997
   3   17375.2    575.5   0.000095480   0.00181   0.03605  -0.02163   0.00644
   4   18205.8    549.3   0.136896109   2.47546  -1.28789   0.15457  -0.89045
   5   18317.2    545.9   0.109290486   1.96426  -1.26688  -0.01973  -0.59908
   6   19445.6    514.3   0.000376752   0.00638  -0.07020  -0.03058   0.02270
   7   20125.4    496.9   0.159036899   2.60154   1.45672   0.40076   0.56470
   8   20774.0    481.4   0.441072900   6.98983  -2.30064   0.48169  -1.21031
   9   21717.2    460.5   0.483165914   7.32434   1.93410  -1.32788   1.34919
  10   23187.2    431.3   0.059953650   0.85122  -0.63585  -0.66547   0.06371
  11   24259.9    412.2   0.019035073   0.25831  -0.49535  -0.08614  -0.07431
  12   24485.4    408.4   0.068052066   0.91498   0.30081  -0.77279   0.47674
  13   25192.3    396.9   0.101601491   1.32773  -0.06006   1.02334  -0.52620
  14   25725.4    388.7   0.147294549   1.88495  -0.31948   1.28859  -0.34987
  15   25842.4    387.0   0.002130300   0.02714   0.05426  -0.13702  -0.07362
  16   26168.3    382.1   0.040722151   0.51231  -0.02489   0.66212   0.27071
  17   26614.9    375.7   0.062629409   0.77469  -0.82449  -0.23938  -0.19390
  18   26713.6    374.3   0.071844355   0.88539   0.92464   0.13359   0.11222
  19   26922.7    371.4   0.001505535   0.01841  -0.06110   0.09966   0.06888
  20   27291.6    366.4   0.076377925   0.92133  -0.60883  -0.61627  -0.41335
  21   27627.3    362.0   0.000891806   0.01063   0.00908  -0.03924   0.09489
  22   28177.0    354.9   0.073064684   0.85367  -0.83175  -0.22767  -0.33169
  23   28802.4    347.2   0.057185583   0.65363   0.72990  -0.22808   0.26241
  24   29058.0    344.1   0.000158203   0.00179   0.03746   0.01454   0.01333
  25   30003.4    333.3   0.001232206   0.01352  -0.00509  -0.06063  -0.09909
  26   30660.4    326.2   0.232329571   2.49461  -1.49293  -0.23206  -0.46035
  27   31117.1    321.4   0.316580420   3.34935  -1.41365   0.32908  -1.11474
  28   31342.8    319.1   0.013584354   0.14268   0.32679   0.07305   0.17480
  29   31624.1    316.2   0.077458032   0.80635   0.68495   0.10026   0.57197
  30   32035.4    312.2   0.020509157   0.21076   0.02758  -0.29817   0.34799
  31   32305.8    309.5   0.050344669   0.51304   0.42790   0.53089   0.21930
  32   32520.5    307.5   0.006847308   0.06932  -0.16559   0.14966   0.13964
  33   32936.8    303.6   0.043383685   0.43363  -0.41268  -0.47469  -0.19493
  34   33132.5    301.8   0.063264927   0.62861   0.26885   0.69906  -0.26010
  35   33296.5    300.3   0.027986464   0.27671  -0.16872   0.31483  -0.38617
  36   33415.9    299.3   0.062260468   0.61339  -0.53622  -0.57084  -0.00125
  37   33548.2    298.1   0.018497300   0.18152   0.12838  -0.40308  -0.05064
  38   33975.6    294.3   0.037299019   0.36141   0.27178   0.25833  -0.46991
  39   34165.0    292.7   0.000226057   0.00218   0.01965   0.04162   0.00777
  40   34265.8    291.8   0.038440367   0.36932   0.53900   0.11513   0.25601
  41   34522.3    289.7   0.015449405   0.14733   0.37168   0.02558   0.09236
  42   35040.6    285.4   0.009181219   0.08626  -0.19169   0.21945   0.03681
  43   35278.8    283.5   0.049827245   0.46497  -0.58115   0.35577  -0.02571
  44   35407.0    282.4   0.128487067   1.19466   0.68331   0.85071   0.06365
  45   35626.0    280.7   0.025331783   0.23409  -0.47424   0.04646   0.08381
  46   35757.1    279.7   0.020868509   0.19213   0.23378   0.10596   0.35532
  47   35898.4    278.6   0.033444733   0.30671  -0.05354   0.32172  -0.44759
  48   35928.4    278.3   0.007846724   0.07190   0.09093  -0.22380   0.11638
  49   36174.9    276.4   0.004917333   0.04475   0.07061  -0.03562  -0.19621
  50   36351.8    275.1   0.010441035   0.09456   0.04552   0.23551   0.19241
  51   36763.8    272.0   0.002910060   0.02606  -0.00472  -0.15530  -0.04381
  52   36963.7    270.5   0.008545927   0.07611   0.05158  -0.27101   0.00284
  53   37268.6    268.3   0.051551200   0.45538   0.66266  -0.00874   0.12720
  54   37610.0    265.9   0.083995196   0.73524   0.53997   0.66279   0.06621
  55   37760.4    264.8   0.074798150   0.65212   0.52038   0.48613  -0.38079
  56   37961.7    263.4   0.020023706   0.17365  -0.02826  -0.41556  -0.01273
  57   38094.5    262.5   0.201832694   1.74424  -0.47349  -1.22493   0.13992
  58   38260.2    261.4   0.131945780   1.13533   0.44165   0.94413  -0.22114
  59   38466.2    260.0   0.270293105   2.31329   0.16730   1.38576  -0.60413
  60   38620.4    258.9   0.031142377   0.26547  -0.04399   0.05042   0.51087
  61   38635.9    258.8   0.007603680   0.06479  -0.10103  -0.15724   0.17280
  62   38778.8    257.9   0.057863250   0.49123   0.58349   0.26452   0.28426
  63   39061.9    256.0   0.241195195   2.03278   0.71263   0.53516   1.11290
  64   39148.5    255.4   0.002157469   0.01814   0.11819  -0.03196   0.05614
  65   39313.6    254.4   0.296773487   2.48518   1.47916   0.01694   0.54495
  66   39434.6    253.6   0.044634812   0.37262   0.29743   0.34316   0.40792
  67   39552.5    252.8   0.093735682   0.78020   0.53190  -0.31890   0.62896
  68   39976.5    250.1   0.005207334   0.04288   0.12785  -0.13374  -0.09302
  69   39998.5    250.0   0.019321979   0.15903   0.08741  -0.38092   0.07933
  70   40061.5    249.6   0.022659916   0.18621   0.27422  -0.06737   0.32631
  71   40322.0    248.0   0.044024053   0.35944  -0.23138   0.50753  -0.21980

FINAL SINGLE POINT ENERGY     -5972.974339560481

DIPOLE MOMENT
-------------
                                X             Y             Z
Electronic contribution:     37.79786      21.08331      15.18536
Nuclear contribution   :    -35.55878     -20.86224     -13.24477
                        -----------------------------------------
Total Dipole Moment    :      2.23908       0.22107       1.94059
                        -----------------------------------------
Magnitude (a.u.)       :      2.97123
Magnitude (Debye)      :      7.55228

Rotational constants in cm-1:     0.000667     0.000498     0.000305
Rotational constants in MHz :    19.993619    14.934117     9.151078

                             ****ORCA TERMINATED NORMALLY****
TOTAL RUN TIME: 0 days 0 hours 12 minutes 13 seconds 65 msec
