                         Program Version 4.2.0 -  RELEASE  -
|  1> # ORCA input file
|  2> # SCF done       -193.151909471424          0.000471368439
|  3> ! CAM-B3LYP def2-SVP def2/J RIJCOSX Grid4 TightSCF
|  4> %maxcore 5000
|  5> %tddft
|  6>     Mode sTDDFT
|  7>     Ethresh 5.0
|  8>     maxcore 5000
|  9> end
| 10>
| 11> %pal
| 12>   nprocs 6
| 13>   end
| 14> * xyz 0 1
| 15>    C        2.61121         4.92843         3.33978
| 16>    C        2.13300         6.20252         3.32296
| 17>    S        3.27182         7.27707         2.59881
| 18>    C        4.40446         6.00927         2.31494
| 19>    C        3.91683         4.82277         2.75949
| 20>    C        4.35718         3.42796         2.81759
| 21>    O        5.41551         2.96947         2.42343
| 22>    C        3.25093         2.68764         3.45109
| 23>    C        2.18099         3.61604         3.78349
| 24>    C        0.98633         3.36483         4.40500
| 25>    C        0.06331         4.40286         4.65293
| 26>    N       -0.69639         5.23737         4.85986
| 27>    C        0.53466         2.11339         4.86746
| 28>    N        0.10968         1.12531         5.26988
| 29>    C        3.22276         1.33546         3.67565
| 30>    C        4.18437         0.34694         3.41363
| 31>    C        3.95485        -1.00192         3.71324
| 32>    C        5.03145        -1.80654         3.39397
| 33>    C        6.10600        -1.06630         2.84466
| 34>    S        5.78374         0.60047         2.71412
| 35>    C        7.15709        -1.97054         2.56417
| 36>    C        6.76073        -3.27057         2.92805
| 37>    C        5.40735        -3.21074         3.45939
| 38>    C        4.65548        -4.25070         3.91883
| 39>    C        3.34422        -4.07363         4.41050
| 40>    N        2.27872        -3.93821         4.81046
| 41>    C        5.13891        -5.57666         3.93024
| 42>    N        5.53392        -6.65273         3.94135
| 43>    C        7.74597        -4.22823         2.69371
| 44>    C        8.89256        -3.66597         2.15548
| 45>    S        8.74309        -1.93040         1.93350
| 46>    C       10.09792        -4.32761         1.80413
| 47>    C       10.38567        -5.67851         1.90902
| 48>    C       11.68120        -5.96853         1.48246
| 49>    C       12.38402        -4.83048         1.04917
| 50>    S       11.45132        -3.40721         1.16413
| 51>    C       13.68407        -5.22435         0.64801
| 52>    C       13.80799        -6.61295         0.82823
| 53>    C       12.55216        -7.12789         1.35345
| 54>    C       12.25625        -8.42376         1.65502
| 55>    C       10.99436        -8.81037         2.15578
| 56>    N        9.97005        -9.12680         2.56113
| 57>    C       13.19399        -9.46423         1.48178
| 58>    N       13.95713       -10.30812         1.34193
| 59>    C       15.06457        -7.09623         0.46526
| 60>    C       15.89421        -6.08748         0.00926
| 61>    S       15.10778        -4.51468         0.02962
| 62>    C       17.23282        -6.19916        -0.44317
| 63>    C       18.03849        -5.18241        -0.92619
| 64>    C       19.30108        -5.64765        -1.28645
| 65>    C       19.45998        -7.02914        -1.07317
| 66>    S       18.05075        -7.75365        -0.43172
| 67>    C       20.76487        -7.41166        -1.46798
| 68>    C       21.43327        -6.25493        -1.93771
| 69>    C       20.53697        -5.11427        -1.83638
| 70>    C       20.79176        -3.81968        -2.18007
| 71>    C       19.82406        -2.80401        -2.02860
| 72>    N       19.03446        -1.98187        -1.90439
| 73>    C       22.03465        -3.40815        -2.70724
| 74>    N       23.04155        -3.06476        -3.13396
| 75>    C       22.72117        -6.52935        -2.35485
| 76>    C       23.05662        -7.88090        -2.20763
| 77>    S       21.72388        -8.81743        -1.53012
| 78>    C       24.31700        -8.37160        -2.58399
| 79>    C       24.84010        -9.63615        -2.50778
| 80>    C       24.15190       -10.81493        -1.95040
| 81>    O       23.01886       -10.85815        -1.50374
| 82>    C       25.11395       -11.91429        -2.04436
| 83>    C       25.16228       -13.23307        -1.72543
| 84>    S       26.69118       -13.90603        -2.15013
| 85>    C       27.27034       -12.40130        -2.76343
| 86>    C       26.32359       -11.43120        -2.64127
| 87>    C       26.17361       -10.02072        -2.94462
| 88>    C       27.13757        -9.25238        -3.54223
| 89>    C       28.38470        -9.80294        -3.90615
| 90>    N       29.40283       -10.23751        -4.20765
| 91>    C       27.03040        -7.88634        -3.86842
| 92>    N       27.00684        -6.77649        -4.16272
| 93>    H        1.19920         6.58809         3.68000
| 94>    H        5.34394         6.21938         1.84433
| 95>    H        2.32213         0.93721         4.12849
| 96>    H        3.03085        -1.34208         4.14669
| 97>    H        7.64602        -5.27711         2.90249
| 98>    H        9.68397        -6.40317         2.27824
| 99>    H       15.37586        -8.12383         0.52279
|100>    H       17.70559        -4.16309        -1.00618
|101>    H       23.41273        -5.80803        -2.75337
|102>    H       24.96131        -7.60375        -2.99641
|103>    H       24.40875       -13.84637        -1.27344
|104>    H       28.26178       -12.34336        -3.16574
|105> *
|106>
|107>                          ****END OF INPUT****

CARTESIAN COORDINATES (ANGSTROEM)
---------------------------------
  C      2.611210    4.928430    3.339780
  C      2.133000    6.202520    3.322960
  S      3.271820    7.277070    2.598810
  C      4.404460    6.009270    2.314940
  C      3.916830    4.822770    2.759490
  C      4.357180    3.427960    2.817590
  O      5.415510    2.969470    2.423430
  C      3.250930    2.687640    3.451090
  C      2.180990    3.616040    3.783490
  C      0.986330    3.364830    4.405000
  C      0.063310    4.402860    4.652930
  N     -0.696390    5.237370    4.859860
  C      0.534660    2.113390    4.867460
  N      0.109680    1.125310    5.269880
  C      3.222760    1.335460    3.675650
  C      4.184370    0.346940    3.413630
  C      3.954850   -1.001920    3.713240
  C      5.031450   -1.806540    3.393970
  C      6.106000   -1.066300    2.844660
  S      5.783740    0.600470    2.714120
  C      7.157090   -1.970540    2.564170
  C      6.760730   -3.270570    2.928050
  C      5.407350   -3.210740    3.459390
  C      4.655480   -4.250700    3.918830
  C      3.344220   -4.073630    4.410500
  N      2.278720   -3.938210    4.810460
  C      5.138910   -5.576660    3.930240
  N      5.533920   -6.652730    3.941350
  C      7.745970   -4.228230    2.693710
  C      8.892560   -3.665970    2.155480
  S      8.743090   -1.930400    1.933500
  C     10.097920   -4.327610    1.804130
  C     10.385670   -5.678510    1.909020
  C     11.681200   -5.968530    1.482460
  C     12.384020   -4.830480    1.049170
  S     11.451320   -3.407210    1.164130
  C     13.684070   -5.224350    0.648010
  C     13.807990   -6.612950    0.828230
  C     12.552160   -7.127890    1.353450
  C     12.256250   -8.423760    1.655020
  C     10.994360   -8.810370    2.155780
  N      9.970050   -9.126800    2.561130
  C     13.193990   -9.464230    1.481780
  N     13.957130  -10.308120    1.341930
  C     15.064570   -7.096230    0.465260
  C     15.894210   -6.087480    0.009260
  S     15.107780   -4.514680    0.029620
  C     17.232820   -6.199160   -0.443170
  C     18.038490   -5.182410   -0.926190
  C     19.301080   -5.647650   -1.286450
  C     19.459980   -7.029140   -1.073170
  S     18.050750   -7.753650   -0.431720
  C     20.764870   -7.411660   -1.467980
  C     21.433270   -6.254930   -1.937710
  C     20.536970   -5.114270   -1.836380
  C     20.791760   -3.819680   -2.180070
  C     19.824060   -2.804010   -2.028600
  N     19.034460   -1.981870   -1.904390
  C     22.034650   -3.408150   -2.707240
  N     23.041550   -3.064760   -3.133960
  C     22.721170   -6.529350   -2.354850
  C     23.056620   -7.880900   -2.207630
  S     21.723880   -8.817430   -1.530120
  C     24.317000   -8.371600   -2.583990
  C     24.840100   -9.636150   -2.507780
  C     24.151900  -10.814930   -1.950400
  O     23.018860  -10.858150   -1.503740
  C     25.113950  -11.914290   -2.044360
  C     25.162280  -13.233070   -1.725430
  S     26.691180  -13.906030   -2.150130
  C     27.270340  -12.401300   -2.763430
  C     26.323590  -11.431200   -2.641270
  C     26.173610  -10.020720   -2.944620
  C     27.137570   -9.252380   -3.542230
  C     28.384700   -9.802940   -3.906150
  N     29.402830  -10.237510   -4.207650
  C     27.030400   -7.886340   -3.868420
  N     27.006840   -6.776490   -4.162720
  H      1.199200    6.588090    3.680000
  H      5.343940    6.219380    1.844330
  H      2.322130    0.937210    4.128490
  H      3.030850   -1.342080    4.146690
  H      7.646020   -5.277110    2.902490
  H      9.683970   -6.403170    2.278240
  H     15.375860   -8.123830    0.522790
  H     17.705590   -4.163090   -1.006180
  H     23.412730   -5.808030   -2.753370
  H     24.961310   -7.603750   -2.996410
  H     24.408750  -13.846370   -1.273440
  H     28.261780  -12.343360   -3.165740

 Total Charge           Charge          ....    0
 Multiplicity           Mult            ....    1
 Number of Electrons    NEL             ....  574
 Basis Dimension        Dim             .... 1184

ORBITAL ENERGIES
----------------

  NO   OCC          E(Eh)            E(eV)
   0   2.0000     -89.006984     -2422.0032
   1   2.0000     -89.006274     -2421.9838
   2   2.0000     -89.004996     -2421.9491
   3   2.0000     -89.004946     -2421.9477
   4   2.0000     -88.997334     -2421.7406
   5   2.0000     -88.996483     -2421.7174
   6   2.0000     -88.989930     -2421.5391
   7   2.0000     -88.989660     -2421.5318
   8   2.0000     -19.231406      -523.3132
   9   2.0000     -19.231326      -523.3110
  10   2.0000     -14.443121      -393.0173
  11   2.0000     -14.441295      -392.9676
  12   2.0000     -14.440687      -392.9511
  13   2.0000     -14.437872      -392.8745
  14   2.0000     -14.437454      -392.8631
  15   2.0000     -14.436510      -392.8374
  16   2.0000     -14.421975      -392.4419
  17   2.0000     -14.421519      -392.4295
  18   2.0000     -14.418171      -392.3384
  19   2.0000     -14.417957      -392.3326
  20   2.0000     -10.383531      -282.5502
  21   2.0000     -10.383509      -282.5496
  22   2.0000     -10.379018      -282.4274
  23   2.0000     -10.375076      -282.3202
  24   2.0000     -10.374005      -282.2910
  25   2.0000     -10.365439      -282.0579
  26   2.0000     -10.362917      -281.9893
  27   2.0000     -10.361389      -281.9477
  28   2.0000     -10.349289      -281.6185
  29   2.0000     -10.349014      -281.6110
  30   2.0000     -10.348195      -281.5887
  31   2.0000     -10.348159      -281.5877
  32   2.0000     -10.348034      -281.5843
  33   2.0000     -10.347907      -281.5809
  34   2.0000     -10.346222      -281.5350
  35   2.0000     -10.345951      -281.5276
  36   2.0000     -10.345505      -281.5155
  37   2.0000     -10.344995      -281.5016
  38   2.0000     -10.343942      -281.4730
  39   2.0000     -10.343231      -281.4536
  40   2.0000     -10.343005      -281.4475
  41   2.0000     -10.342542      -281.4349
  42   2.0000     -10.341797      -281.4146
  43   2.0000     -10.340966      -281.3920
  44   2.0000     -10.340756      -281.3863
  45   2.0000     -10.337378      -281.2944
  46   2.0000     -10.337179      -281.2889
  47   2.0000     -10.335903      -281.2542
  48   2.0000     -10.334000      -281.2024
  49   2.0000     -10.333748      -281.1956
  50   2.0000     -10.333659      -281.1932
  51   2.0000     -10.333316      -281.1838
  52   2.0000     -10.329893      -281.0907
  53   2.0000     -10.329879      -281.0903
  54   2.0000     -10.327407      -281.0230
  55   2.0000     -10.327365      -281.0219
  56   2.0000     -10.324213      -280.9361
  57   2.0000     -10.323738      -280.9232
  58   2.0000     -10.321396      -280.8595
  59   2.0000     -10.321036      -280.8497
  60   2.0000     -10.320762      -280.8422
  61   2.0000     -10.320549      -280.8364
  62   2.0000     -10.320508      -280.8353
  63   2.0000     -10.320021      -280.8221
  64   2.0000     -10.319320      -280.8030
  65   2.0000     -10.319120      -280.7975
  66   2.0000     -10.318500      -280.7806
  67   2.0000     -10.317926      -280.7650
  68   2.0000     -10.316628      -280.7297
  69   2.0000     -10.315736      -280.7054
  70   2.0000     -10.313173      -280.6357
  71   2.0000     -10.312668      -280.6220
  72   2.0000     -10.309387      -280.5327
  73   2.0000     -10.309377      -280.5324
  74   2.0000     -10.307852      -280.4909
  75   2.0000     -10.307597      -280.4840
  76   2.0000     -10.298680      -280.2413
  77   2.0000     -10.298653      -280.2406
  78   2.0000      -8.101753      -220.4599
  79   2.0000      -8.100694      -220.4311
  80   2.0000      -8.099861      -220.4084
  81   2.0000      -8.099409      -220.3961
  82   2.0000      -8.089557      -220.1280
  83   2.0000      -8.088810      -220.1077
  84   2.0000      -8.085613      -220.0207
  85   2.0000      -8.085490      -220.0174
  86   2.0000      -6.071085      -165.2026
  87   2.0000      -6.070023      -165.1737
  88   2.0000      -6.069145      -165.1498
  89   2.0000      -6.068719      -165.1382
  90   2.0000      -6.066821      -165.0866
  91   2.0000      -6.065809      -165.0590
  92   2.0000      -6.064945      -165.0356
  93   2.0000      -6.064504      -165.0235
  94   2.0000      -6.064004      -165.0099
  95   2.0000      -6.062943      -164.9811
  96   2.0000      -6.062105      -164.9583
  97   2.0000      -6.061676      -164.9466
  98   2.0000      -6.059024      -164.8744
  99   2.0000      -6.058257      -164.8536
 100   2.0000      -6.054860      -164.7611
 101   2.0000      -6.054734      -164.7577
 102   2.0000      -6.054197      -164.7431
 103   2.0000      -6.053486      -164.7237
 104   2.0000      -6.052100      -164.6860
 105   2.0000      -6.051315      -164.6647
 106   2.0000      -6.050114      -164.6320
 107   2.0000      -6.049996      -164.6288
 108   2.0000      -6.048405      -164.5855
 109   2.0000      -6.048217      -164.5804
 110   2.0000      -1.147593       -31.2276
 111   2.0000      -1.147558       -31.2266
 112   2.0000      -1.061447       -28.8835
 113   2.0000      -1.056746       -28.7555
 114   2.0000      -1.055127       -28.7115
 115   2.0000      -1.034786       -28.1580
 116   2.0000      -1.031766       -28.0758
 117   2.0000      -1.030116       -28.0309
 118   2.0000      -1.029986       -28.0273
 119   2.0000      -1.029580       -28.0163
 120   2.0000      -1.022204       -27.8156
 121   2.0000      -1.019262       -27.7355
 122   2.0000      -1.016648       -27.6644
 123   2.0000      -1.014457       -27.6048
 124   2.0000      -1.012716       -27.5574
 125   2.0000      -1.012431       -27.5496
 126   2.0000      -1.010723       -27.5032
 127   2.0000      -1.001847       -27.2616
 128   2.0000      -0.998575       -27.1726
 129   2.0000      -0.998268       -27.1643
 130   2.0000      -0.978750       -26.6331
 131   2.0000      -0.972865       -26.4730
 132   2.0000      -0.969690       -26.3866
 133   2.0000      -0.965736       -26.2790
 134   2.0000      -0.964164       -26.2362
 135   2.0000      -0.935587       -25.4586
 136   2.0000      -0.928995       -25.2792
 137   2.0000      -0.919650       -25.0249
 138   2.0000      -0.908219       -24.7139
 139   2.0000      -0.906936       -24.6790
 140   2.0000      -0.892014       -24.2729
 141   2.0000      -0.890224       -24.2242
 142   2.0000      -0.887933       -24.1619
 143   2.0000      -0.881684       -23.9918
 144   2.0000      -0.877145       -23.8683
 145   2.0000      -0.871834       -23.7238
 146   2.0000      -0.867131       -23.5958
 147   2.0000      -0.863633       -23.5006
 148   2.0000      -0.849329       -23.1114
 149   2.0000      -0.848446       -23.0874
 150   2.0000      -0.847940       -23.0736
 151   2.0000      -0.827582       -22.5196
 152   2.0000      -0.809601       -22.0304
 153   2.0000      -0.799242       -21.7485
 154   2.0000      -0.791691       -21.5430
 155   2.0000      -0.786068       -21.3900
 156   2.0000      -0.784028       -21.3345
 157   2.0000      -0.766598       -20.8602
 158   2.0000      -0.763527       -20.7766
 159   2.0000      -0.760855       -20.7039
 160   2.0000      -0.745336       -20.2816
 161   2.0000      -0.727165       -19.7872
 162   2.0000      -0.714508       -19.4428
 163   2.0000      -0.713652       -19.4195
 164   2.0000      -0.709145       -19.2968
 165   2.0000      -0.702642       -19.1198
 166   2.0000      -0.697956       -18.9924
 167   2.0000      -0.695829       -18.9345
 168   2.0000      -0.691563       -18.8184
 169   2.0000      -0.689387       -18.7592
 170   2.0000      -0.683063       -18.5871
 171   2.0000      -0.677453       -18.4344
 172   2.0000      -0.676679       -18.4134
 173   2.0000      -0.674467       -18.3532
 174   2.0000      -0.655812       -17.8456
 175   2.0000      -0.651787       -17.7360
 176   2.0000      -0.645873       -17.5751
 177   2.0000      -0.645096       -17.5540
 178   2.0000      -0.641105       -17.4454
 179   2.0000      -0.637072       -17.3356
 180   2.0000      -0.634564       -17.2674
 181   2.0000      -0.631057       -17.1719
 182   2.0000      -0.630101       -17.1459
 183   2.0000      -0.628988       -17.1156
 184   2.0000      -0.622145       -16.9294
 185   2.0000      -0.618948       -16.8424
 186   2.0000      -0.608927       -16.5697
 187   2.0000      -0.607932       -16.5427
 188   2.0000      -0.590258       -16.0617
 189   2.0000      -0.585135       -15.9223
 190   2.0000      -0.573598       -15.6084
 191   2.0000      -0.569675       -15.5016
 192   2.0000      -0.564211       -15.3530
 193   2.0000      -0.559744       -15.2314
 194   2.0000      -0.557586       -15.1727
 195   2.0000      -0.553291       -15.0558
 196   2.0000      -0.549556       -14.9542
 197   2.0000      -0.549436       -14.9509
 198   2.0000      -0.549164       -14.9435
 199   2.0000      -0.548211       -14.9176
 200   2.0000      -0.547984       -14.9114
 201   2.0000      -0.540356       -14.7038
 202   2.0000      -0.534707       -14.5501
 203   2.0000      -0.530369       -14.4321
 204   2.0000      -0.526632       -14.3304
 205   2.0000      -0.522515       -14.2184
 206   2.0000      -0.521301       -14.1853
 207   2.0000      -0.520820       -14.1722
 208   2.0000      -0.515040       -14.0150
 209   2.0000      -0.513699       -13.9785
 210   2.0000      -0.512904       -13.9568
 211   2.0000      -0.510095       -13.8804
 212   2.0000      -0.508484       -13.8366
 213   2.0000      -0.506909       -13.7937
 214   2.0000      -0.504339       -13.7238
 215   2.0000      -0.503941       -13.7129
 216   2.0000      -0.503762       -13.7081
 217   2.0000      -0.502709       -13.6794
 218   2.0000      -0.500963       -13.6319
 219   2.0000      -0.498427       -13.5629
 220   2.0000      -0.497903       -13.5486
 221   2.0000      -0.495932       -13.4950
 222   2.0000      -0.489870       -13.3300
 223   2.0000      -0.489157       -13.3106
 224   2.0000      -0.487125       -13.2553
 225   2.0000      -0.486727       -13.2445
 226   2.0000      -0.481905       -13.1133
 227   2.0000      -0.479697       -13.0532
 228   2.0000      -0.476705       -12.9718
 229   2.0000      -0.475762       -12.9461
 230   2.0000      -0.472297       -12.8519
 231   2.0000      -0.470463       -12.8020
 232   2.0000      -0.468758       -12.7556
 233   2.0000      -0.466718       -12.7001
 234   2.0000      -0.465847       -12.6763
 235   2.0000      -0.463324       -12.6077
 236   2.0000      -0.461302       -12.5527
 237   2.0000      -0.454023       -12.3546
 238   2.0000      -0.453518       -12.3408
 239   2.0000      -0.453318       -12.3354
 240   2.0000      -0.451951       -12.2982
 241   2.0000      -0.451902       -12.2969
 242   2.0000      -0.451810       -12.2944
 243   2.0000      -0.450606       -12.2616
 244   2.0000      -0.449898       -12.2423
 245   2.0000      -0.449191       -12.2231
 246   2.0000      -0.448763       -12.2115
 247   2.0000      -0.447675       -12.1818
 248   2.0000      -0.446570       -12.1518
 249   2.0000      -0.446147       -12.1403
 250   2.0000      -0.446104       -12.1391
 251   2.0000      -0.445567       -12.1245
 252   2.0000      -0.442684       -12.0460
 253   2.0000      -0.442109       -12.0304
 254   2.0000      -0.437970       -11.9178
 255   2.0000      -0.436531       -11.8786
 256   2.0000      -0.435492       -11.8503
 257   2.0000      -0.433667       -11.8007
 258   2.0000      -0.431988       -11.7550
 259   2.0000      -0.431615       -11.7448
 260   2.0000      -0.426407       -11.6031
 261   2.0000      -0.424658       -11.5555
 262   2.0000      -0.424233       -11.5440
 263   2.0000      -0.419693       -11.4204
 264   2.0000      -0.417447       -11.3593
 265   2.0000      -0.415006       -11.2929
 266   2.0000      -0.414678       -11.2840
 267   2.0000      -0.406221       -11.0538
 268   2.0000      -0.399115       -10.8605
 269   2.0000      -0.386122       -10.5069
 270   2.0000      -0.368657       -10.0317
 271   2.0000      -0.365024        -9.9328
 272   2.0000      -0.360200        -9.8015
 273   2.0000      -0.359210        -9.7746
 274   2.0000      -0.348222        -9.4756
 275   2.0000      -0.348142        -9.4734
 276   2.0000      -0.344920        -9.3858
 277   2.0000      -0.344668        -9.3789
 278   2.0000      -0.343780        -9.3547
 279   2.0000      -0.336479        -9.1560
 280   2.0000      -0.331867        -9.0306
 281   2.0000      -0.329577        -8.9682
 282   2.0000      -0.323736        -8.8093
 283   2.0000      -0.317167        -8.6305
 284   2.0000      -0.301892        -8.2149
 285   2.0000      -0.276380        -7.5207
 286   2.0000      -0.252212        -6.8630
 287   0.0000      -0.126856        -3.4519
 288   0.0000      -0.117325        -3.1926
 289   0.0000      -0.112169        -3.0523
 290   0.0000      -0.094016        -2.5583
 291   0.0000      -0.093198        -2.5360

MULLIKEN ATOMIC CHARGES
-----------------------
   0 C :    0.026969
   1 C :   -0.133487
   2 S :    0.162487
   3 C :   -0.135167
   4 C :    0.031460
   5 C :    0.187215
   6 O :   -0.187506
   7 C :   -0.113114
   8 C :    0.310890
   9 C :   -0.339062
  10 C :   -0.193415
  11 N :    0.151892
  12 C :   -0.184714
  13 N :    0.155445
  14 C :   -0.029962
  15 C :   -0.051045
  16 C :   -0.059634
  17 C :    0.042773
  18 C :   -0.067033
  19 S :    0.241916
  20 C :   -0.105144
  21 C :    0.025575
  22 C :    0.306117
  23 C :   -0.293410
  24 C :   -0.192168
  25 N :    0.190018
  26 C :   -0.190055
  27 N :    0.180079
  28 C :   -0.058574
  29 C :   -0.044183
  30 S :    0.191227
  31 C :   -0.056345
  32 C :   -0.047668
  33 C :    0.017465
  34 C :   -0.097705
  35 S :    0.191647
  36 C :   -0.097948
  37 C :    0.020786
  38 C :    0.297973
  39 C :   -0.291656
  40 C :   -0.190872
  41 N :    0.188822
  42 C :   -0.187178
  43 N :    0.176930
  44 C :   -0.064660
  45 C :   -0.053252
  46 S :    0.200013
  47 C :   -0.042017
  48 C :   -0.072756
  49 C :    0.028318
  50 C :   -0.106903
  51 S :    0.209109
  52 C :   -0.067625
  53 C :    0.045368
  54 C :    0.303531
  55 C :   -0.296179
  56 C :   -0.187194
  57 N :    0.171439
  58 C :   -0.194789
  59 N :    0.190829
  60 C :   -0.058083
  61 C :   -0.052410
  62 S :    0.246954
  63 C :   -0.031718
  64 C :   -0.113909
  65 C :    0.187735
  66 O :   -0.185159
  67 C :    0.030451
  68 C :   -0.135748
  69 S :    0.162515
  70 C :   -0.132405
  71 C :    0.026512
  72 C :    0.313707
  73 C :   -0.340968
  74 C :   -0.193553
  75 N :    0.155066
  76 C :   -0.183971
  77 N :    0.152699
  78 H :    0.052702
  79 H :    0.039246
  80 H :    0.017444
  81 H :    0.029345
  82 H :    0.015557
  83 H :    0.016933
  84 H :    0.014411
  85 H :    0.014230
  86 H :    0.029350
  87 H :    0.016641
  88 H :    0.040138
  89 H :    0.052417
Sum of atomic charges:    0.0000000

LOEWDIN ATOMIC CHARGES
----------------------
   0 C :   -0.062336
   1 C :   -0.148415
   2 S :    0.489498
   3 C :   -0.139264
   4 C :   -0.091696
   5 C :    0.085857
   6 O :   -0.174003
   7 C :   -0.109825
   8 C :    0.076333
   9 C :   -0.142309
  10 C :   -0.014929
  11 N :   -0.054407
  12 C :   -0.025066
  13 N :   -0.046583
  14 C :    0.055665
  15 C :   -0.183875
  16 C :    0.013378
  17 C :   -0.078216
  18 C :   -0.166493
  19 S :    0.546521
  20 C :   -0.188860
  21 C :   -0.050348
  22 C :    0.076120
  23 C :   -0.095287
  24 C :   -0.020183
  25 N :   -0.019761
  26 C :   -0.018537
  27 N :   -0.024212
  28 C :   -0.028002
  29 C :   -0.170690
  30 S :    0.471715
  31 C :   -0.182730
  32 C :   -0.019804
  33 C :   -0.064661
  34 C :   -0.179735
  35 S :    0.471762
  36 C :   -0.177706
  37 C :   -0.066111
  38 C :    0.079007
  39 C :   -0.093864
  40 C :   -0.019722
  41 N :   -0.019703
  42 C :   -0.015869
  43 N :   -0.027507
  44 C :   -0.032718
  45 C :   -0.180708
  46 S :    0.489083
  47 C :   -0.169197
  48 C :   -0.042270
  49 C :   -0.052138
  50 C :   -0.186923
  51 S :    0.492205
  52 C :   -0.165775
  53 C :   -0.079199
  54 C :    0.077898
  55 C :   -0.098640
  56 C :   -0.015219
  57 N :   -0.032819
  58 C :   -0.020776
  59 N :   -0.020296
  60 C :    0.013240
  61 C :   -0.183975
  62 S :    0.549689
  63 C :    0.055377
  64 C :   -0.109166
  65 C :    0.085878
  66 O :   -0.172893
  67 C :   -0.091799
  68 C :   -0.138483
  69 S :    0.490058
  70 C :   -0.148433
  71 C :   -0.062490
  72 C :    0.076475
  73 C :   -0.142451
  74 C :   -0.015135
  75 N :   -0.054200
  76 C :   -0.024659
  77 N :   -0.047230
  78 H :    0.036551
  79 H :    0.035940
  80 H :    0.054438
  81 H :    0.048592
  82 H :    0.043565
  83 H :    0.044264
  84 H :    0.037395
  85 H :    0.035911
  86 H :    0.048580
  87 H :    0.054334
  88 H :    0.036359
  89 H :    0.036617

  Mayer bond orders larger than 0.100000
B(  0-C ,  1-C ) :   1.5394 B(  0-C ,  4-C ) :   1.2240 B(  0-C ,  8-C ) :   0.9915
B(  1-C ,  2-S ) :   1.1786 B(  1-C , 78-H ) :   0.9556 B(  2-S ,  3-C ) :   1.1917
B(  3-C ,  4-C ) :   1.5351 B(  3-C , 79-H ) :   0.9710 B(  4-C ,  5-C ) :   0.9737
B(  5-C ,  6-O ) :   2.1112 B(  5-C ,  7-C ) :   0.9774 B(  7-C ,  8-C ) :   1.0845
B(  7-C , 14-C ) :   1.5039 B(  8-C ,  9-C ) :   1.6425 B(  9-C , 10-C ) :   1.1513
B(  9-C , 12-C ) :   1.1359 B( 10-C , 11-N ) :   2.9894 B( 12-C , 13-N ) :   2.9641
B( 14-C , 15-C ) :   1.2692 B( 14-C , 80-H ) :   0.9412 B( 15-C , 16-C ) :   1.3274
B( 15-C , 19-S ) :   1.0678 B( 16-C , 17-C ) :   1.3345 B( 16-C , 81-H ) :   1.0078
B( 17-C , 18-C ) :   1.3541 B( 17-C , 22-C ) :   0.9873 B( 18-C , 19-S ) :   1.1248
B( 18-C , 20-C ) :   1.2092 B( 20-C , 21-C ) :   1.4310 B( 20-C , 30-S ) :   1.1114
B( 21-C , 22-C ) :   0.9921 B( 21-C , 28-C ) :   1.2951 B( 22-C , 23-C ) :   1.7204
B( 23-C , 24-C ) :   1.1337 B( 23-C , 26-C ) :   1.1334 B( 24-C , 25-N ) :   2.9955
B( 26-C , 27-N ) :   2.9889 B( 28-C , 29-C ) :   1.4757 B( 28-C , 82-H ) :   0.9936
B( 29-C , 30-S ) :   1.1094 B( 29-C , 31-C ) :   1.1273 B( 31-C , 32-C ) :   1.4841
B( 31-C , 35-S ) :   1.0971 B( 32-C , 33-C ) :   1.2938 B( 32-C , 83-H ) :   0.9919
B( 33-C , 34-C ) :   1.4382 B( 33-C , 38-C ) :   0.9930 B( 34-C , 35-S ) :   1.1252
B( 34-C , 36-C ) :   1.1927 B( 36-C , 37-C ) :   1.4418 B( 36-C , 46-S ) :   1.1232
B( 37-C , 38-C ) :   0.9939 B( 37-C , 44-C ) :   1.3020 B( 38-C , 39-C ) :   1.7193
B( 39-C , 40-C ) :   1.1340 B( 39-C , 42-C ) :   1.1337 B( 40-C , 41-N ) :   2.9933
B( 42-C , 43-N ) :   2.9910 B( 44-C , 45-C ) :   1.4542 B( 44-C , 84-H ) :   0.9882
B( 45-C , 46-S ) :   1.1069 B( 45-C , 47-C ) :   1.1742 B( 47-C , 48-C ) :   1.4449
B( 47-C , 51-S ) :   1.1204 B( 48-C , 49-C ) :   1.3059 B( 48-C , 85-H ) :   0.9863
B( 49-C , 50-C ) :   1.4356 B( 49-C , 54-C ) :   0.9960 B( 50-C , 51-S ) :   1.1106
B( 50-C , 52-C ) :   1.2050 B( 52-C , 53-C ) :   1.3522 B( 52-C , 62-S ) :   1.1279
B( 53-C , 54-C ) :   0.9885 B( 53-C , 60-C ) :   1.3324 B( 54-C , 55-C ) :   1.7155
B( 55-C , 56-C ) :   1.1344 B( 55-C , 58-C ) :   1.1365 B( 56-C , 57-N ) :   2.9881
B( 58-C , 59-N ) :   2.9968 B( 60-C , 61-C ) :   1.3307 B( 60-C , 86-H ) :   1.0077
B( 61-C , 62-S ) :   1.0686 B( 61-C , 63-C ) :   1.2658 B( 63-C , 64-C ) :   1.5089
B( 63-C , 87-H ) :   0.9403 B( 64-C , 65-C ) :   0.9762 B( 64-C , 72-C ) :   1.0839
B( 65-C , 66-O ) :   2.1128 B( 65-C , 67-C ) :   0.9741 B( 67-C , 68-C ) :   1.5341
B( 67-C , 71-C ) :   1.2257 B( 68-C , 69-S ) :   1.1926 B( 68-C , 88-H ) :   0.9713
B( 69-S , 70-C ) :   1.1787 B( 70-C , 71-C ) :   1.5386 B( 70-C , 89-H ) :   0.9555
B( 71-C , 72-C ) :   0.9919 B( 72-C , 73-C ) :   1.6413 B( 73-C , 74-C ) :   1.1512
B( 73-C , 76-C ) :   1.1383 B( 74-C , 75-N ) :   2.9905 B( 76-C , 77-N ) :   2.9621

-----------------------------------------------------------------------------
         ABSORPTION SPECTRUM VIA TRANSITION ELECTRIC DIPOLE MOMENTS
-----------------------------------------------------------------------------
State   Energy  Wavelength   fosc         T2         TX        TY        TZ
        (cm-1)    (nm)                  (au**2)     (au)      (au)      (au)
-----------------------------------------------------------------------------
   0   11217.3    891.5   0.692070280  20.31125   3.90940  -1.93429  -1.13418
   1   13320.8    750.7   0.248325341   6.13712  -2.20592   0.93237   0.63380
   2   13852.4    721.9   0.094532853   2.24665  -0.80970   1.25088   0.16229
   3   19794.0    505.2   2.191504792  36.44886  -4.98897   3.12002   1.35072
   4   20152.5    496.2   0.052980129   0.86549  -0.52434   0.75853   0.12325
   5   21137.5    473.1   0.124514998   1.93929  -0.58230  -1.23695   0.26492
   6   22581.0    442.9   0.319636060   4.66002  -1.62164   1.36968   0.39279
   7   23331.8    428.6   0.044861577   0.63300   0.15650  -0.78002   0.00828
   8   26019.0    384.3   0.078964103   0.99912  -0.88979  -0.27235   0.36500
   9   27727.3    360.7   0.106056238   1.25923  -0.77247  -0.74233   0.33387
  10   27822.0    359.4   0.020466347   0.24217   0.31816   0.35402  -0.12497
  11   28357.0    352.6   0.012489731   0.14500  -0.30010  -0.21989   0.08119
  12   28403.3    352.1   0.001667217   0.01932  -0.07098  -0.10621   0.05481
  13   28554.9    350.2   0.004947145   0.05704   0.06288  -0.22921  -0.02332
  14   28767.0    347.6   0.004431592   0.05072  -0.12008   0.15520  -0.11050
  15   28833.8    346.8   0.007069785   0.08072   0.00070   0.22339  -0.17555
  16   28871.7    346.4   0.002228093   0.02541   0.08312   0.11463  -0.07318
  17   29937.2    334.0   0.602180076   6.62204  -2.39594   0.15957   0.92522
  18   30363.5    329.3   0.065155526   0.70644  -0.64256  -0.42882   0.33117
  19   30541.1    327.4   0.029674523   0.31987   0.19466  -0.53093   0.00961
  20   30720.2    325.5   0.091918982   0.98505   0.50873  -0.85011   0.05953
  21   30952.0    323.1   0.166685994   1.77291  -0.24407  -1.26069   0.35214
  22   31362.5    318.9   1.302149583  13.66864  -0.54391  -3.57214   0.78269
  23   31644.5    316.0   0.082851085   0.86194  -0.25369   0.88779  -0.09701
  24   32533.9    307.4   0.098331423   0.99502   0.93458   0.00124  -0.34869
  25   32999.7    303.0   0.101484754   1.01243   0.65409  -0.76342  -0.04230
  26   33210.3    301.1   0.081547225   0.80837   0.52241  -0.72764  -0.07754
  27   33467.5    298.8   0.190051569   1.86949  -1.03470  -0.74755   0.48995
  28   33728.2    296.5   0.238141692   2.32444   1.26374   0.62078  -0.58483
  29   33988.4    294.2   0.030723644   0.29759  -0.22997  -0.46701   0.16312
  30   34034.0    293.8   0.160137318   1.54901   0.14989  -1.21460   0.22647
  31   34068.2    293.5   0.073588229   0.71111   0.75800  -0.26916  -0.25317
  32   34141.0    292.9   0.123150570   1.18751  -0.11212   1.07496  -0.13926
  33   34466.2    290.1   0.004829361   0.04613  -0.02171   0.21148   0.03055
  34   34532.0    289.6   0.038807772   0.36998  -0.46647  -0.32005   0.22348
  35   34572.9    289.2   0.010009737   0.09532   0.22077  -0.21581  -0.00168
  36   34667.9    288.5   0.003388343   0.03218  -0.04702   0.16351   0.05683
  37   35163.6    284.4   0.618413359   5.78976  -0.38835  -2.30304   0.57875
  38   35267.2    283.5   0.003002687   0.02803   0.16669  -0.00640  -0.01428
  39   35482.2    281.8   0.032701126   0.30341   0.48953  -0.19936  -0.15500
  40   35812.6    279.2   0.088097417   0.80985   0.29128  -0.84913   0.06306
  41   35907.7    278.5   0.004519468   0.04144   0.05629  -0.19456   0.02033
  42   36288.9    275.6   0.000111338   0.00101  -0.02780   0.01058   0.01118
  43   36400.2    274.7   0.013792808   0.12475   0.32953   0.06752  -0.10770
  44   36573.6    273.4   0.012512688   0.11263  -0.10852  -0.28783   0.13419
  45   36641.8    272.9   0.002080447   0.01869  -0.01357   0.13467  -0.01931
  46   36760.1    272.0   0.003078117   0.02757   0.04788   0.15376  -0.04039
  47   36883.8    271.1   0.035563875   0.31743  -0.06580   0.55204  -0.09140
  48   37277.9    268.3   0.046166730   0.40771   0.28048   0.51570  -0.25120
  49   37347.8    267.8   0.167700697   1.47824   0.28445   1.11717  -0.38634
  50   37447.3    267.0   0.004756597   0.04182  -0.02174   0.20165  -0.02611
  51   37914.6    263.8   0.027912708   0.24237   0.35873  -0.33181  -0.05982
  52   38471.4    259.9   0.563274253   4.82012   1.25773   1.55762  -0.90113
  53   38572.5    259.3   0.144937386   1.23702   0.87653   0.47643  -0.49166
  54   38656.4    258.7   0.011086910   0.09442  -0.27857   0.07295   0.10722
  55   38851.1    257.4   0.024067039   0.20394  -0.09880  -0.40938   0.16305
  56   39030.8    256.2   0.019087359   0.16100   0.23501   0.26869  -0.18323
  57   39256.5    254.7   0.059721673   0.50084   0.26762  -0.65449   0.02932
  58   39572.5    252.7   0.033674681   0.28015  -0.31707  -0.36798   0.21026
  59   39719.6    251.8   0.061596652   0.51054  -0.18323  -0.64380   0.24998
  60   39842.5    251.0   0.011686529   0.09656   0.06853   0.28529  -0.10234
  61   39871.2    250.8   0.032451783   0.26795  -0.35086  -0.30291   0.23041
  62   40182.7    248.9   0.036604964   0.29990  -0.48647   0.08529   0.23658

FINAL SINGLE POINT ENERGY     -6095.938361479041

DIPOLE MOMENT
-------------
                                X             Y             Z
Electronic contribution:     -0.08135      -0.08539      -0.30697
Nuclear contribution   :      1.24339       0.36436      -0.14440
                        -----------------------------------------
Total Dipole Moment    :      1.16204       0.27897      -0.45137
                        -----------------------------------------
Magnitude (a.u.)       :      1.27746
Magnitude (Debye)      :      3.24704

Rotational constants in cm-1:     0.001759     0.000143     0.000132
Rotational constants in MHz :    52.723794     4.286609     3.966318

                             ****ORCA TERMINATED NORMALLY****
TOTAL RUN TIME: 0 days 0 hours 8 minutes 55 seconds 869 msec
