                         Program Version 4.2.0 -  RELEASE  -
|  1> # ORCA input file
|  2> # SCF done       -189.409416280535          0.000269130923
|  3> ! CAM-B3LYP def2-SVP def2/J RIJCOSX Grid4 TightSCF
|  4> %maxcore 5000
|  5> %tddft
|  6>     Mode sTDDFT
|  7>     Ethresh 5.0
|  8>     maxcore 5000
|  9> end
| 10>
| 11> %pal
| 12>   nprocs 6
| 13>   end
| 14> * xyz 0 1
| 15>    C       -1.70337        -6.48664         3.34738
| 16>    C       -2.85959        -6.93888         3.90517
| 17>    S       -2.55118        -8.25486         4.97753
| 18>    C       -0.85448        -8.20188         4.67935
| 19>    C       -0.55458        -7.21561         3.79597
| 20>    C        0.64185        -6.66879         3.15409
| 21>    O        1.79377        -7.03760         3.30133
| 22>    C        0.16509        -5.57261         2.29084
| 23>    C       -1.28012        -5.46175         2.41201
| 24>    C       -2.13064        -4.58275         1.79405
| 25>    C       -3.51947        -4.62012         2.03892
| 26>    N       -4.65107        -4.63740         2.22851
| 27>    C       -1.76761        -3.57367         0.88134
| 28>    N       -1.54044        -2.73251         0.13294
| 29>    C        0.95679        -4.77790         1.50179
| 30>    C        2.34738        -4.78013         1.31028
| 31>    C        2.97589        -3.86103         0.45972
| 32>    C        4.34716        -4.02492         0.42270
| 33>    C        4.77801        -5.08804         1.25389
| 34>    S        3.50667        -5.87193         2.07043
| 35>    C        6.18579        -5.16835         1.16060
| 36>    C        6.65135        -4.17092         0.28382
| 37>    C        5.50769        -3.42002        -0.21193
| 38>    C        5.52993        -2.36922        -1.08096
| 39>    C        4.35525        -1.70565        -1.49466
| 40>    N        3.40725        -1.15957        -1.83674
| 41>    C        6.73529        -1.87515        -1.62240
| 42>    N        7.71674        -1.47399        -2.05921
| 43>    C        8.03758        -4.16973         0.14793
| 44>    C        8.63562        -5.15701         0.91462
| 45>    S        7.45275        -6.10549         1.81265
| 46>    C       10.02409        -5.44194         1.04960
| 47>    C       10.48599        -6.44976         1.86391
| 48>    C       11.82453        -6.76319         2.06683
| 49>    C       12.89103        -6.01074         1.40424
| 50>    C       12.66947        -4.98655         0.55016
| 51>    S       11.10960        -4.41227         0.12485
| 52>    C       14.10138        -6.59551         1.86873
| 53>    C       13.82304        -7.63638         2.76080
| 54>    C       15.00707        -8.24270         3.23725
| 55>    C       16.11751        -7.66067         2.71282
| 56>    S       15.78389        -6.36055         1.62251
| 57>    C       12.39355        -7.75704         2.89563
| 58>    C       11.62790        -8.64796         3.67159
| 59>    C       12.07271        -9.57545         4.56527
| 60>    C       11.19689       -10.40826         5.29825
| 61>    C        9.81120       -10.49892         5.20389
| 62>    C        9.28118       -11.41440         6.10030
| 63>    C       10.25682       -12.04325         6.90061
| 64>    S       11.83503       -11.49575         6.52496
| 65>    C        9.61785       -12.93978         7.78252
| 66>    C        8.22066       -12.88118         7.53200
| 67>    C        7.96944       -11.92248         6.47199
| 68>    C        6.77038       -11.55134         5.93593
| 69>    C        6.68432       -10.58297         4.91394
| 70>    N        6.62561        -9.79093         4.08602
| 71>    C        5.54368       -12.09759         6.36773
| 72>    N        4.54006       -12.53258         6.71115
| 73>    C        7.50557       -13.72404         8.35789
| 74>    C        8.32392       -14.42571         9.25306
| 75>    S       10.02986       -14.01525         9.03830
| 76>    C        7.79429       -15.32616        10.18549
| 77>    C        8.41098       -16.06670        11.16438
| 78>    C        9.85092       -16.05155        11.46970
| 79>    O       10.72096       -15.42706        10.88681
| 80>    C       10.01909       -16.94095        12.62219
| 81>    C       11.03244       -17.37385        13.41400
| 82>    S       10.44213       -18.45389        14.62226
| 83>    C        8.81743       -18.32124        14.05540
| 84>    C        8.74397       -17.48254        12.98674
| 85>    C        7.73278       -16.96142        12.08584
| 86>    C        6.40471       -17.29822        12.14084
| 87>    C        5.92138       -18.19372        13.11713
| 88>    N        5.51288       -18.91886        13.90740
| 89>    C        5.39140       -16.83602        11.27970
| 90>    N        4.51831       -16.50275        10.61161
| 91>    H       -3.86584        -6.59801         3.76606
| 92>    H       -0.19764        -8.89338         5.16800
| 93>    H        0.45262        -4.01174         0.92420
| 94>    H        2.42305        -3.11829        -0.08818
| 95>    H        8.59694        -3.48998        -0.46941
| 96>    H        9.73308        -7.02624         2.38477
| 97>    H       13.46964        -4.44618         0.06950
| 98>    H       15.05591        -9.06590         3.92553
| 99>    H       17.14160        -7.91818         2.90034
|100>    H       10.55874        -8.56118         3.54016
|101>    H       13.12760        -9.68740         4.76063
|102>    H        9.22644        -9.92593         4.50954
|103>    H        6.43687       -13.84782         8.34388
|104>    H        6.71792       -15.42801        10.10898
|105>    H       12.07553       -17.13285        13.36932
|106>    H        8.04126       -18.86846        14.55152
|107> *
|108>
|109>                          ****END OF INPUT****

CARTESIAN COORDINATES (ANGSTROEM)
---------------------------------
  C     -1.703370   -6.486640    3.347380
  C     -2.859590   -6.938880    3.905170
  S     -2.551180   -8.254860    4.977530
  C     -0.854480   -8.201880    4.679350
  C     -0.554580   -7.215610    3.795970
  C      0.641850   -6.668790    3.154090
  O      1.793770   -7.037600    3.301330
  C      0.165090   -5.572610    2.290840
  C     -1.280120   -5.461750    2.412010
  C     -2.130640   -4.582750    1.794050
  C     -3.519470   -4.620120    2.038920
  N     -4.651070   -4.637400    2.228510
  C     -1.767610   -3.573670    0.881340
  N     -1.540440   -2.732510    0.132940
  C      0.956790   -4.777900    1.501790
  C      2.347380   -4.780130    1.310280
  C      2.975890   -3.861030    0.459720
  C      4.347160   -4.024920    0.422700
  C      4.778010   -5.088040    1.253890
  S      3.506670   -5.871930    2.070430
  C      6.185790   -5.168350    1.160600
  C      6.651350   -4.170920    0.283820
  C      5.507690   -3.420020   -0.211930
  C      5.529930   -2.369220   -1.080960
  C      4.355250   -1.705650   -1.494660
  N      3.407250   -1.159570   -1.836740
  C      6.735290   -1.875150   -1.622400
  N      7.716740   -1.473990   -2.059210
  C      8.037580   -4.169730    0.147930
  C      8.635620   -5.157010    0.914620
  S      7.452750   -6.105490    1.812650
  C     10.024090   -5.441940    1.049600
  C     10.485990   -6.449760    1.863910
  C     11.824530   -6.763190    2.066830
  C     12.891030   -6.010740    1.404240
  C     12.669470   -4.986550    0.550160
  S     11.109600   -4.412270    0.124850
  C     14.101380   -6.595510    1.868730
  C     13.823040   -7.636380    2.760800
  C     15.007070   -8.242700    3.237250
  C     16.117510   -7.660670    2.712820
  S     15.783890   -6.360550    1.622510
  C     12.393550   -7.757040    2.895630
  C     11.627900   -8.647960    3.671590
  C     12.072710   -9.575450    4.565270
  C     11.196890  -10.408260    5.298250
  C      9.811200  -10.498920    5.203890
  C      9.281180  -11.414400    6.100300
  C     10.256820  -12.043250    6.900610
  S     11.835030  -11.495750    6.524960
  C      9.617850  -12.939780    7.782520
  C      8.220660  -12.881180    7.532000
  C      7.969440  -11.922480    6.471990
  C      6.770380  -11.551340    5.935930
  C      6.684320  -10.582970    4.913940
  N      6.625610   -9.790930    4.086020
  C      5.543680  -12.097590    6.367730
  N      4.540060  -12.532580    6.711150
  C      7.505570  -13.724040    8.357890
  C      8.323920  -14.425710    9.253060
  S     10.029860  -14.015250    9.038300
  C      7.794290  -15.326160   10.185490
  C      8.410980  -16.066700   11.164380
  C      9.850920  -16.051550   11.469700
  O     10.720960  -15.427060   10.886810
  C     10.019090  -16.940950   12.622190
  C     11.032440  -17.373850   13.414000
  S     10.442130  -18.453890   14.622260
  C      8.817430  -18.321240   14.055400
  C      8.743970  -17.482540   12.986740
  C      7.732780  -16.961420   12.085840
  C      6.404710  -17.298220   12.140840
  C      5.921380  -18.193720   13.117130
  N      5.512880  -18.918860   13.907400
  C      5.391400  -16.836020   11.279700
  N      4.518310  -16.502750   10.611610
  H     -3.865840   -6.598010    3.766060
  H     -0.197640   -8.893380    5.168000
  H      0.452620   -4.011740    0.924200
  H      2.423050   -3.118290   -0.088180
  H      8.596940   -3.489980   -0.469410
  H      9.733080   -7.026240    2.384770
  H     13.469640   -4.446180    0.069500
  H     15.055910   -9.065900    3.925530
  H     17.141600   -7.918180    2.900340
  H     10.558740   -8.561180    3.540160
  H     13.127600   -9.687400    4.760630
  H      9.226440   -9.925930    4.509540
  H      6.436870  -13.847820    8.343880
  H      6.717920  -15.428010   10.108980
  H     12.075530  -17.132850   13.369320
  H      8.041260  -18.868460   14.551520

 Total Charge           Charge          ....    0
 Multiplicity           Mult            ....    1
 Number of Electrons    NEL             ....  564
 Basis Dimension        Dim             .... 1176

ORBITAL ENERGIES
----------------

  NO   OCC          E(Eh)            E(eV)
   0   2.0000     -88.999963     -2421.8121
   1   2.0000     -88.993221     -2421.6287
   2   2.0000     -88.992698     -2421.6144
   3   2.0000     -88.991747     -2421.5885
   4   2.0000     -88.988945     -2421.5123
   5   2.0000     -88.984693     -2421.3966
   6   2.0000     -88.983829     -2421.3731
   7   2.0000     -88.970087     -2420.9992
   8   2.0000     -19.226515      -523.1801
   9   2.0000     -19.223700      -523.1035
  10   2.0000     -14.437074      -392.8528
  11   2.0000     -14.436152      -392.8277
  12   2.0000     -14.433777      -392.7630
  13   2.0000     -14.433004      -392.7420
  14   2.0000     -14.418031      -392.3346
  15   2.0000     -14.415731      -392.2720
  16   2.0000     -14.414204      -392.2304
  17   2.0000     -14.412034      -392.1714
  18   2.0000     -10.378578      -282.4155
  19   2.0000     -10.376200      -282.3507
  20   2.0000     -10.370582      -282.1979
  21   2.0000     -10.368093      -282.1302
  22   2.0000     -10.358825      -281.8780
  23   2.0000     -10.356879      -281.8250
  24   2.0000     -10.345858      -281.5251
  25   2.0000     -10.345101      -281.5045
  26   2.0000     -10.344010      -281.4748
  27   2.0000     -10.342621      -281.4370
  28   2.0000     -10.342249      -281.4269
  29   2.0000     -10.341954      -281.4189
  30   2.0000     -10.339911      -281.3633
  31   2.0000     -10.338638      -281.3286
  32   2.0000     -10.338248      -281.3180
  33   2.0000     -10.337248      -281.2908
  34   2.0000     -10.337213      -281.2899
  35   2.0000     -10.336382      -281.2673
  36   2.0000     -10.333353      -281.1848
  37   2.0000     -10.333036      -281.1762
  38   2.0000     -10.332560      -281.1633
  39   2.0000     -10.329854      -281.0896
  40   2.0000     -10.329454      -281.0787
  41   2.0000     -10.329454      -281.0787
  42   2.0000     -10.326506      -280.9985
  43   2.0000     -10.325361      -280.9673
  44   2.0000     -10.324624      -280.9473
  45   2.0000     -10.324216      -280.9362
  46   2.0000     -10.322599      -280.8922
  47   2.0000     -10.321765      -280.8695
  48   2.0000     -10.320397      -280.8323
  49   2.0000     -10.318479      -280.7801
  50   2.0000     -10.316860      -280.7360
  51   2.0000     -10.316795      -280.7343
  52   2.0000     -10.316417      -280.7240
  53   2.0000     -10.315074      -280.6874
  54   2.0000     -10.314993      -280.6852
  55   2.0000     -10.314654      -280.6760
  56   2.0000     -10.313649      -280.6487
  57   2.0000     -10.312850      -280.6269
  58   2.0000     -10.312583      -280.6197
  59   2.0000     -10.309276      -280.5297
  60   2.0000     -10.309233      -280.5285
  61   2.0000     -10.305142      -280.4172
  62   2.0000     -10.304650      -280.4038
  63   2.0000     -10.304141      -280.3899
  64   2.0000     -10.303610      -280.3755
  65   2.0000     -10.303392      -280.3695
  66   2.0000     -10.302035      -280.3326
  67   2.0000     -10.301502      -280.3181
  68   2.0000     -10.299423      -280.2615
  69   2.0000     -10.298988      -280.2497
  70   2.0000     -10.295436      -280.1531
  71   2.0000     -10.293518      -280.1009
  72   2.0000     -10.292713      -280.0790
  73   2.0000     -10.292077      -280.0617
  74   2.0000     -10.289806      -279.9999
  75   2.0000     -10.288477      -279.9637
  76   2.0000      -8.094122      -220.2523
  77   2.0000      -8.088173      -220.0904
  78   2.0000      -8.086344      -220.0406
  79   2.0000      -8.084874      -220.0006
  80   2.0000      -8.081284      -219.9029
  81   2.0000      -8.080511      -219.8819
  82   2.0000      -8.079691      -219.8596
  83   2.0000      -8.065547      -219.4747
  84   2.0000      -6.063373      -164.9928
  85   2.0000      -6.059263      -164.8809
  86   2.0000      -6.057780      -164.8406
  87   2.0000      -6.056427      -164.8038
  88   2.0000      -6.055550      -164.7799
  89   2.0000      -6.054295      -164.7457
  90   2.0000      -6.053193      -164.7158
  91   2.0000      -6.051436      -164.6679
  92   2.0000      -6.050786      -164.6502
  93   2.0000      -6.050083      -164.6311
  94   2.0000      -6.049726      -164.6214
  95   2.0000      -6.049510      -164.6155
  96   2.0000      -6.048947      -164.6002
  97   2.0000      -6.048766      -164.5953
  98   2.0000      -6.047447      -164.5594
  99   2.0000      -6.045973      -164.5193
 100   2.0000      -6.045012      -164.4931
 101   2.0000      -6.044228      -164.4718
 102   2.0000      -6.043729      -164.4582
 103   2.0000      -6.043266      -164.4456
 104   2.0000      -6.042371      -164.4213
 105   2.0000      -6.034932      -164.2188
 106   2.0000      -6.030700      -164.1037
 107   2.0000      -6.027643      -164.0205
 108   2.0000      -1.142948       -31.1012
 109   2.0000      -1.139746       -31.0141
 110   2.0000      -1.052573       -28.6420
 111   2.0000      -1.047676       -28.5087
 112   2.0000      -1.027707       -27.9653
 113   2.0000      -1.026396       -27.9297
 114   2.0000      -1.025485       -27.9049
 115   2.0000      -1.023783       -27.8585
 116   2.0000      -1.022383       -27.8205
 117   2.0000      -1.012555       -27.5530
 118   2.0000      -1.012467       -27.5506
 119   2.0000      -1.008576       -27.4447
 120   2.0000      -1.007848       -27.4249
 121   2.0000      -1.006629       -27.3918
 122   2.0000      -0.999802       -27.2060
 123   2.0000      -0.994580       -27.0639
 124   2.0000      -0.992496       -27.0072
 125   2.0000      -0.985897       -26.8276
 126   2.0000      -0.968260       -26.3477
 127   2.0000      -0.967361       -26.3232
 128   2.0000      -0.961615       -26.1669
 129   2.0000      -0.959925       -26.1209
 130   2.0000      -0.944107       -25.6905
 131   2.0000      -0.928554       -25.2672
 132   2.0000      -0.923851       -25.1393
 133   2.0000      -0.909416       -24.7465
 134   2.0000      -0.903584       -24.5878
 135   2.0000      -0.900403       -24.5012
 136   2.0000      -0.894524       -24.3412
 137   2.0000      -0.884436       -24.0667
 138   2.0000      -0.881686       -23.9919
 139   2.0000      -0.872937       -23.7538
 140   2.0000      -0.867108       -23.5952
 141   2.0000      -0.862600       -23.4725
 142   2.0000      -0.858251       -23.3542
 143   2.0000      -0.850839       -23.1525
 144   2.0000      -0.843595       -22.9554
 145   2.0000      -0.842617       -22.9288
 146   2.0000      -0.833779       -22.6883
 147   2.0000      -0.820121       -22.3166
 148   2.0000      -0.809656       -22.0319
 149   2.0000      -0.801257       -21.8033
 150   2.0000      -0.787047       -21.4166
 151   2.0000      -0.781809       -21.2741
 152   2.0000      -0.775380       -21.0992
 153   2.0000      -0.763020       -20.7628
 154   2.0000      -0.758355       -20.6359
 155   2.0000      -0.756416       -20.5831
 156   2.0000      -0.741735       -20.1836
 157   2.0000      -0.736602       -20.0440
 158   2.0000      -0.711253       -19.3542
 159   2.0000      -0.709880       -19.3168
 160   2.0000      -0.708458       -19.2781
 161   2.0000      -0.695699       -18.9309
 162   2.0000      -0.692319       -18.8389
 163   2.0000      -0.690777       -18.7970
 164   2.0000      -0.685669       -18.6580
 165   2.0000      -0.679555       -18.4916
 166   2.0000      -0.675435       -18.3795
 167   2.0000      -0.671982       -18.2856
 168   2.0000      -0.669932       -18.2298
 169   2.0000      -0.667841       -18.1729
 170   2.0000      -0.660489       -17.9728
 171   2.0000      -0.648732       -17.6529
 172   2.0000      -0.644540       -17.5388
 173   2.0000      -0.642197       -17.4751
 174   2.0000      -0.637203       -17.3392
 175   2.0000      -0.631426       -17.1820
 176   2.0000      -0.626623       -17.0513
 177   2.0000      -0.626036       -17.0353
 178   2.0000      -0.623416       -16.9640
 179   2.0000      -0.621554       -16.9134
 180   2.0000      -0.618481       -16.8297
 181   2.0000      -0.605296       -16.4709
 182   2.0000      -0.602826       -16.4037
 183   2.0000      -0.597297       -16.2533
 184   2.0000      -0.591429       -16.0936
 185   2.0000      -0.582062       -15.8387
 186   2.0000      -0.576649       -15.6914
 187   2.0000      -0.570779       -15.5317
 188   2.0000      -0.561215       -15.2714
 189   2.0000      -0.555862       -15.1258
 190   2.0000      -0.555788       -15.1238
 191   2.0000      -0.551680       -15.0120
 192   2.0000      -0.548386       -14.9223
 193   2.0000      -0.545071       -14.8321
 194   2.0000      -0.543589       -14.7918
 195   2.0000      -0.542736       -14.7686
 196   2.0000      -0.541244       -14.7280
 197   2.0000      -0.538747       -14.6600
 198   2.0000      -0.532598       -14.4927
 199   2.0000      -0.529611       -14.4115
 200   2.0000      -0.528737       -14.3877
 201   2.0000      -0.524975       -14.2853
 202   2.0000      -0.523614       -14.2483
 203   2.0000      -0.518519       -14.1096
 204   2.0000      -0.512959       -13.9583
 205   2.0000      -0.511165       -13.9095
 206   2.0000      -0.508881       -13.8474
 207   2.0000      -0.506813       -13.7911
 208   2.0000      -0.503276       -13.6948
 209   2.0000      -0.502232       -13.6664
 210   2.0000      -0.500618       -13.6225
 211   2.0000      -0.499426       -13.5901
 212   2.0000      -0.497841       -13.5469
 213   2.0000      -0.497388       -13.5346
 214   2.0000      -0.496069       -13.4987
 215   2.0000      -0.495035       -13.4706
 216   2.0000      -0.491287       -13.3686
 217   2.0000      -0.489603       -13.3228
 218   2.0000      -0.484720       -13.1899
 219   2.0000      -0.483533       -13.1576
 220   2.0000      -0.481042       -13.0898
 221   2.0000      -0.478939       -13.0326
 222   2.0000      -0.478743       -13.0273
 223   2.0000      -0.473227       -12.8772
 224   2.0000      -0.469216       -12.7680
 225   2.0000      -0.468860       -12.7583
 226   2.0000      -0.466217       -12.6864
 227   2.0000      -0.465374       -12.6635
 228   2.0000      -0.464052       -12.6275
 229   2.0000      -0.461381       -12.5548
 230   2.0000      -0.459137       -12.4938
 231   2.0000      -0.455489       -12.3945
 232   2.0000      -0.449770       -12.2389
 233   2.0000      -0.448912       -12.2155
 234   2.0000      -0.448401       -12.2016
 235   2.0000      -0.447591       -12.1796
 236   2.0000      -0.447358       -12.1732
 237   2.0000      -0.445972       -12.1355
 238   2.0000      -0.445499       -12.1226
 239   2.0000      -0.444879       -12.1058
 240   2.0000      -0.443626       -12.0717
 241   2.0000      -0.443007       -12.0548
 242   2.0000      -0.441868       -12.0238
 243   2.0000      -0.441642       -12.0177
 244   2.0000      -0.440314       -11.9816
 245   2.0000      -0.438218       -11.9245
 246   2.0000      -0.436915       -11.8891
 247   2.0000      -0.436555       -11.8793
 248   2.0000      -0.434418       -11.8211
 249   2.0000      -0.431178       -11.7330
 250   2.0000      -0.430548       -11.7158
 251   2.0000      -0.428037       -11.6475
 252   2.0000      -0.427241       -11.6258
 253   2.0000      -0.426100       -11.5948
 254   2.0000      -0.425700       -11.5839
 255   2.0000      -0.419992       -11.4286
 256   2.0000      -0.418454       -11.3867
 257   2.0000      -0.418137       -11.3781
 258   2.0000      -0.414014       -11.2659
 259   2.0000      -0.410900       -11.1812
 260   2.0000      -0.408827       -11.1247
 261   2.0000      -0.406281       -11.0555
 262   2.0000      -0.397639       -10.8203
 263   2.0000      -0.385749       -10.4968
 264   2.0000      -0.378028       -10.2867
 265   2.0000      -0.357063        -9.7162
 266   2.0000      -0.352931        -9.6037
 267   2.0000      -0.351849        -9.5743
 268   2.0000      -0.344212        -9.3665
 269   2.0000      -0.343110        -9.3365
 270   2.0000      -0.341129        -9.2826
 271   2.0000      -0.339660        -9.2426
 272   2.0000      -0.338831        -9.2201
 273   2.0000      -0.331553        -9.0220
 274   2.0000      -0.326461        -8.8834
 275   2.0000      -0.324078        -8.8186
 276   2.0000      -0.315901        -8.5961
 277   2.0000      -0.312061        -8.4916
 278   2.0000      -0.297407        -8.0929
 279   2.0000      -0.284126        -7.7315
 280   2.0000      -0.266934        -7.2637
 281   2.0000      -0.232697        -6.3320
 282   0.0000      -0.118735        -3.2309
 283   0.0000      -0.111055        -3.0220
 284   0.0000      -0.091702        -2.4953
 285   0.0000      -0.088434        -2.4064
 286   0.0000      -0.071457        -1.9444

MULLIKEN ATOMIC CHARGES
-----------------------
   0 C :    0.030695
   1 C :   -0.137012
   2 S :    0.163723
   3 C :   -0.134750
   4 C :    0.029013
   5 C :    0.188258
   6 O :   -0.183265
   7 C :   -0.111696
   8 C :    0.306762
   9 C :   -0.336704
  10 C :   -0.193383
  11 N :    0.152909
  12 C :   -0.185160
  13 N :    0.151663
  14 C :   -0.029944
  15 C :   -0.053500
  16 C :   -0.062888
  17 C :    0.048377
  18 C :   -0.065968
  19 S :    0.253727
  20 C :   -0.099301
  21 C :    0.025095
  22 C :    0.302368
  23 C :   -0.293251
  24 C :   -0.196067
  25 N :    0.188485
  26 C :   -0.188036
  27 N :    0.174555
  28 C :   -0.056471
  29 C :   -0.062822
  30 S :    0.191387
  31 C :   -0.017633
  32 C :   -0.093622
  33 C :    0.060352
  34 C :    0.062774
  35 C :   -0.117864
  36 S :    0.146876
  37 C :   -0.113756
  38 C :    0.055073
  39 C :   -0.006973
  40 C :   -0.065793
  41 S :    0.138034
  42 C :    0.102810
  43 C :   -0.013798
  44 C :    0.031758
  45 C :   -0.063335
  46 C :   -0.054273
  47 C :    0.022391
  48 C :   -0.117910
  49 S :    0.194015
  50 C :   -0.065476
  51 C :    0.038996
  52 C :    0.311488
  53 C :   -0.302569
  54 C :   -0.172717
  55 N :    0.149559
  56 C :   -0.198774
  57 N :    0.188575
  58 C :   -0.059960
  59 C :   -0.054294
  60 S :    0.237682
  61 C :   -0.031801
  62 C :   -0.116359
  63 C :    0.185142
  64 O :   -0.188722
  65 C :    0.033520
  66 C :   -0.139851
  67 S :    0.155214
  68 C :   -0.135208
  69 C :    0.026265
  70 C :    0.310339
  71 C :   -0.339865
  72 C :   -0.195514
  73 N :    0.147099
  74 C :   -0.185217
  75 N :    0.148755
  76 H :    0.052602
  77 H :    0.044496
  78 H :    0.017637
  79 H :    0.029127
  80 H :    0.021042
  81 H :    0.002430
  82 H :    0.043032
  83 H :   -0.012540
  84 H :    0.029889
  85 H :   -0.035005
  86 H :   -0.042029
  87 H :    0.003399
  88 H :    0.028923
  89 H :    0.015479
  90 H :    0.037683
  91 H :    0.051597
Sum of atomic charges:   -0.0000000

LOEWDIN ATOMIC CHARGES
----------------------
   0 C :   -0.062706
   1 C :   -0.149289
   2 S :    0.490963
   3 C :   -0.136810
   4 C :   -0.092092
   5 C :    0.085775
   6 O :   -0.170582
   7 C :   -0.108470
   8 C :    0.076813
   9 C :   -0.143203
  10 C :   -0.015020
  11 N :   -0.055209
  12 C :   -0.024731
  13 N :   -0.048269
  14 C :    0.054711
  15 C :   -0.183369
  16 C :    0.012222
  17 C :   -0.077928
  18 C :   -0.167184
  19 S :    0.555720
  20 C :   -0.182681
  21 C :   -0.053973
  22 C :    0.078136
  23 C :   -0.099296
  24 C :   -0.020833
  25 N :   -0.021451
  26 C :   -0.016011
  27 N :   -0.032112
  28 C :   -0.040159
  29 C :   -0.170767
  30 S :    0.496954
  31 C :   -0.179475
  32 C :   -0.028249
  33 C :   -0.010148
  34 C :   -0.049751
  35 C :   -0.134364
  36 S :    0.472023
  37 C :   -0.199308
  38 C :   -0.036824
  39 C :   -0.065980
  40 C :   -0.161836
  41 S :    0.432303
  42 C :   -0.051127
  43 C :    0.005953
  44 C :   -0.068193
  45 C :   -0.138523
  46 C :   -0.043403
  47 C :   -0.046409
  48 C :   -0.206700
  49 S :    0.474373
  50 C :   -0.155275
  51 C :   -0.086222
  52 C :    0.082383
  53 C :   -0.106308
  54 C :   -0.009529
  55 N :   -0.046799
  56 C :   -0.020933
  57 N :   -0.026690
  58 C :    0.015501
  59 C :   -0.187887
  60 S :    0.539674
  61 C :    0.054044
  62 C :   -0.116923
  63 C :    0.084529
  64 O :   -0.176715
  65 C :   -0.090834
  66 C :   -0.140966
  67 S :    0.482981
  68 C :   -0.149602
  69 C :   -0.062197
  70 C :    0.077216
  71 C :   -0.148048
  72 C :   -0.015200
  73 N :   -0.059562
  74 C :   -0.024757
  75 N :   -0.052375
  76 H :    0.036357
  77 H :    0.037988
  78 H :    0.054155
  79 H :    0.048284
  80 H :    0.036199
  81 H :    0.027160
  82 H :    0.039893
  83 H :    0.029008
  84 H :    0.025451
  85 H :    0.028958
  86 H :    0.025386
  87 H :    0.035246
  88 H :    0.048131
  89 H :    0.053658
  90 H :    0.035092
  91 H :    0.036019

  Mayer bond orders larger than 0.100000
B(  0-C ,  1-C ) :   1.5343 B(  0-C ,  4-C ) :   1.2245 B(  0-C ,  8-C ) :   0.9935
B(  1-C ,  2-S ) :   1.1790 B(  1-C , 76-H ) :   0.9566 B(  2-S ,  3-C ) :   1.1922
B(  3-C ,  4-C ) :   1.5348 B(  3-C , 77-H ) :   0.9715 B(  4-C ,  5-C ) :   0.9739
B(  5-C ,  6-O ) :   2.1139 B(  5-C ,  7-C ) :   0.9750 B(  7-C ,  8-C ) :   1.0865
B(  7-C , 14-C ) :   1.5072 B(  8-C ,  9-C ) :   1.6399 B(  9-C , 10-C ) :   1.1507
B(  9-C , 12-C ) :   1.1367 B( 10-C , 11-N ) :   2.9893 B( 12-C , 13-N ) :   2.9612
B( 14-C , 15-C ) :   1.2666 B( 14-C , 78-H ) :   0.9415 B( 15-C , 16-C ) :   1.3283
B( 15-C , 19-S ) :   1.0695 B( 16-C , 17-C ) :   1.3354 B( 16-C , 79-H ) :   1.0086
B( 17-C , 18-C ) :   1.3484 B( 17-C , 22-C ) :   0.9868 B( 18-C , 19-S ) :   1.1291
B( 18-C , 20-C ) :   1.2057 B( 20-C , 21-C ) :   1.4293 B( 20-C , 30-S ) :   1.1244
B( 21-C , 22-C ) :   0.9982 B( 21-C , 28-C ) :   1.3116 B( 22-C , 23-C ) :   1.7166
B( 23-C , 24-C ) :   1.1356 B( 23-C , 26-C ) :   1.1326 B( 24-C , 25-N ) :   2.9967
B( 26-C , 27-N ) :   2.9897 B( 28-C , 29-C ) :   1.4438 B( 28-C , 80-H ) :   0.9810
B( 29-C , 30-S ) :   1.1151 B( 29-C , 31-C ) :   1.1682 B( 31-C , 32-C ) :   1.5145
B( 31-C , 36-S ) :   1.0627 B( 32-C , 33-C ) :   1.2664 B( 32-C , 81-H ) :   0.9577
B( 33-C , 34-C ) :   1.0563 B( 33-C , 42-C ) :   1.3533 B( 34-C , 35-C ) :   1.6007
B( 34-C , 37-C ) :   1.1780 B( 35-C , 36-S ) :   1.1443 B( 35-C , 82-H ) :   0.9406
B( 37-C , 38-C ) :   1.4488 B( 37-C , 41-S ) :   1.0823 B( 38-C , 39-C ) :   1.2166
B( 38-C , 42-C ) :   1.0717 B( 39-C , 40-C ) :   1.5823 B( 39-C , 83-H ) :   1.0025
B( 40-C , 41-S ) :   1.1599 B( 40-C , 84-H ) :   0.9654 B( 42-C , 43-C ) :   1.2068
B( 43-C , 44-C ) :   1.6054 B( 43-C , 85-H ) :   0.9526 B( 44-C , 45-C ) :   1.1421
B( 44-C , 86-H ) :   0.9706 B( 45-C , 46-C ) :   1.4138 B( 45-C , 49-S ) :   1.1225
B( 46-C , 47-C ) :   1.3251 B( 46-C , 87-H ) :   0.9847 B( 47-C , 48-C ) :   1.4080
B( 47-C , 52-C ) :   1.0009 B( 48-C , 49-S ) :   1.0909 B( 48-C , 50-C ) :   1.2374
B( 50-C , 51-C ) :   1.3304 B( 50-C , 60-S ) :   1.1298 B( 51-C , 52-C ) :   0.9941
B( 51-C , 58-C ) :   1.3429 B( 52-C , 53-C ) :   1.7048 B( 53-C , 54-C ) :   1.1386
B( 53-C , 56-C ) :   1.1362 B( 54-C , 55-N ) :   2.9711 B( 56-C , 57-N ) :   3.0007
B( 58-C , 59-C ) :   1.3181 B( 58-C , 88-H ) :   1.0078 B( 59-C , 60-S ) :   1.0528
B( 59-C , 61-C ) :   1.2922 B( 61-C , 62-C ) :   1.4785 B( 61-C , 89-H ) :   0.9408
B( 62-C , 63-C ) :   0.9813 B( 62-C , 70-C ) :   1.0970 B( 63-C , 64-O ) :   2.1135
B( 63-C , 65-C ) :   0.9712 B( 65-C , 66-C ) :   1.5365 B( 65-C , 69-C ) :   1.2240
B( 66-C , 67-S ) :   1.1879 B( 66-C , 90-H ) :   0.9720 B( 67-S , 68-C ) :   1.1746
B( 68-C , 69-C ) :   1.5417 B( 68-C , 91-H ) :   0.9560 B( 69-C , 70-C ) :   0.9894
B( 70-C , 71-C ) :   1.6297 B( 71-C , 72-C ) :   1.1519 B( 71-C , 74-C ) :   1.1385
B( 72-C , 73-N ) :   2.9876 B( 74-C , 75-N ) :   2.9614

-----------------------------------------------------------------------------
         ABSORPTION SPECTRUM VIA TRANSITION ELECTRIC DIPOLE MOMENTS
-----------------------------------------------------------------------------
State   Energy  Wavelength   fosc         T2         TX        TY        TZ
        (cm-1)    (nm)                  (au**2)     (au)      (au)      (au)
-----------------------------------------------------------------------------
   0   10083.8    991.7   0.442003951  14.43041  -0.85076   2.79114  -2.43232
   1   11652.4    858.2   0.213166818   6.02252   2.44342  -0.06954  -0.21769
   2   16422.8    608.9   0.850922565  17.05757  -0.80280   3.01367  -2.70756
   3   17302.2    578.0   0.126907583   2.41470  -1.04335   0.88910  -0.73185
   4   19495.9    512.9   0.623205512  10.52358  -2.04991  -1.65584   1.89199
   5   19657.5    508.7   0.932368401  15.61472   3.51933   1.04140  -1.46441
   6   21041.6    475.2   0.039636541   0.62014   0.78444  -0.05140   0.04644
   7   23540.3    424.8   0.389089104   5.44141   2.00112   0.77594  -0.91369
   8   24202.0    413.2   0.049567649   0.67425  -0.46551  -0.49084   0.46543
   9   24396.6    409.9   0.108315830   1.46163  -0.86471  -0.64814   0.54206
  10   25345.0    394.6   0.102663584   1.33352  -1.14159   0.14515   0.09609
  11   25832.3    387.1   0.207724726   2.64728  -0.34434   1.13369  -1.11511
  12   26738.6    374.0   0.015440175   0.19010   0.21162   0.25879  -0.27990
  13   27006.4    370.3   0.001812877   0.02210  -0.09494  -0.11392  -0.01041
  14   27971.0    357.5   0.038535716   0.45356   0.51428   0.38734  -0.19758
  15   28083.0    356.1   0.012904746   0.15128  -0.21225   0.23114  -0.22979
  16   28359.1    352.6   0.001859290   0.02158  -0.01730   0.04276   0.13948
  17   28697.1    348.5   0.029691940   0.34062   0.58182   0.03282   0.03217
  18   28990.5    344.9   0.009769494   0.11094   0.32019   0.09140  -0.00800
  19   29115.2    343.5   0.007301582   0.08256  -0.15124   0.03653  -0.24156
  20   29297.4    341.3   0.043281488   0.48635   0.04869  -0.53969   0.43899
  21   30134.6    331.8   0.406797378   4.44414  -0.72619   1.46515  -1.33046
  22   30485.8    328.0   0.541905461   5.85195  -2.27809  -0.65870   0.47787
  23   30759.7    325.1   0.125876438   1.34722   0.47808  -0.68973   0.80183
  24   31111.1    321.4   0.208774116   2.20921   0.81628  -0.70873   1.02010
  25   31917.4    313.3   0.065215378   0.67266   0.50625  -0.50204   0.40537
  26   32277.3    309.8   0.263536228   2.68793  -1.26577  -0.76107   0.71170
  27   32315.4    309.5   0.039031836   0.39764   0.10083  -0.50863   0.35883
  28   32567.8    307.1   0.117488151   1.18763  -0.16351  -0.60717   0.89008
  29   32705.4    305.8   0.177920030   1.79094   0.07148  -1.00431   0.88158
  30   32970.7    303.3   0.103524693   1.03369  -1.01488   0.05183   0.03216
  31   33249.5    300.8   0.103277878   1.02258   0.94552   0.25937  -0.24760
  32   33536.0    298.2   0.182170860   1.78831   0.50884   0.93966  -0.80401
  33   33751.4    296.3   0.065919279   0.64298  -0.41678   0.45003  -0.51647
  34   33992.4    294.2   0.000976751   0.00946   0.03116  -0.09064  -0.01651
  35   34057.7    293.6   0.000789105   0.00763  -0.04761   0.07073   0.01893
  36   34260.0    291.9   0.137552044   1.32177  -0.89287   0.43857  -0.57638
  37   34433.4    290.4   0.009759681   0.09331   0.26430  -0.02182   0.15159
  38   34556.1    289.4   0.310719889   2.96020  -0.75476   1.16170  -1.02028
  39   34745.1    287.8   0.121193083   1.14831   0.01324  -0.82248   0.68677
  40   34822.2    287.2   0.028371119   0.26822  -0.01943  -0.48842   0.17115
  41   35072.1    285.1   0.059503635   0.55854   0.08869   0.57672  -0.46698
  42   35121.6    284.7   0.316099115   2.96295  -0.87512   0.90595  -1.17319
  43   35395.4    282.5   0.046135407   0.42910   0.64467  -0.10415   0.05161
  44   35514.4    281.6   0.262697125   2.43515   1.53530  -0.21805   0.17452
  45   35738.0    279.8   0.339412404   3.12661  -1.71643   0.33424  -0.26220
  46   36064.3    277.3   0.015291207   0.13959  -0.09458  -0.25203   0.25908
  47   36099.7    277.0   0.000394192   0.00359   0.03738  -0.03701   0.02877
  48   36200.6    276.2   0.000268224   0.00244  -0.03836  -0.02811   0.01332
  49   36415.2    274.6   0.004809902   0.04348  -0.19398  -0.05536   0.05284
  50   37127.9    269.3   0.069888131   0.61970   0.66614  -0.28743   0.30550
  51   37343.1    267.8   0.060291937   0.53153  -0.60195   0.28619  -0.29543
  52   37912.9    263.8   0.060932318   0.52910  -0.66127   0.05062  -0.29875
  53   38120.5    262.3   0.362899390   3.13403  -0.46186   1.30703  -1.10108
  54   38251.1    261.4   0.069670994   0.59963  -0.05610   0.64541  -0.42418
  55   38561.9    259.3   0.414456333   3.53831   1.86087   0.11073   0.25145
  56   38649.0    258.7   0.059670323   0.50827  -0.48387   0.45944  -0.25112
  57   39066.4    256.0   0.002592680   0.02185  -0.08510  -0.03700   0.11505
  58   39137.8    255.5   0.025481990   0.21434  -0.31105  -0.23232   0.25223
  59   39176.1    255.3   0.009587756   0.08057  -0.17641  -0.16042   0.15400
  60   39322.8    254.3   0.011947338   0.10002   0.15823  -0.08904   0.25896
  61   39439.7    253.6   0.024345807   0.20322   0.18962   0.34179  -0.22460
  62   39549.3    252.8   0.157528004   1.31128  -0.88081   0.56548  -0.46441
  63   39825.1    251.1   0.010031985   0.08293   0.14881   0.22858  -0.09239
  64   39931.2    250.4   0.056307671   0.46423   0.60731   0.27111  -0.14801
  65   40051.2    249.7   0.174961677   1.43814   1.13010  -0.27693   0.29037
  66   40171.0    248.9   0.011300846   0.09261   0.11712   0.23725  -0.15037

FINAL SINGLE POINT ENERGY     -5988.997892828364

DIPOLE MOMENT
-------------
                                X             Y             Z
Electronic contribution:    -11.60481       0.72654       0.54310
Nuclear contribution   :     17.48454      -1.44344       0.32928
                        -----------------------------------------
Total Dipole Moment    :      5.87973      -0.71690       0.87238
                        -----------------------------------------
Magnitude (a.u.)       :      5.98717
Magnitude (Debye)      :     15.21817

Rotational constants in cm-1:     0.000659     0.000314     0.000214
Rotational constants in MHz :    19.761200     9.416855     6.406653

                             ****ORCA TERMINATED NORMALLY****
TOTAL RUN TIME: 0 days 0 hours 9 minutes 57 seconds 993 msec
