                         Program Version 4.2.0 -  RELEASE  -
|  1> # ORCA input file
|  2> # SCF done       -194.366215257495          0.000781775266
|  3> ! CAM-B3LYP def2-SVP def2/J RIJCOSX Grid4 TightSCF
|  4> %maxcore 5000
|  5> %tddft
|  6>     Mode sTDDFT
|  7>     Ethresh 5.0
|  8>     maxcore 5000
|  9> end
| 10>
| 11> %pal
| 12>   nprocs 6
| 13>   end
| 14> * xyz 0 1
| 15>    C       -3.03432        -1.39672        -1.45827
| 16>    C       -2.29726        -1.75020        -0.35776
| 17>    C       -1.26509        -2.71284        -0.37200
| 18>    N       -0.41499        -3.48164        -0.30819
| 19>    C       -2.43868        -1.22450         0.94369
| 20>    N       -2.47936        -0.85743         2.03167
| 21>    C       -2.86293        -1.94974        -2.79649
| 22>    C       -3.79767        -1.33589        -3.66762
| 23>    C       -3.88588        -1.64709        -5.00309
| 24>    C       -3.00947        -2.61237        -5.50673
| 25>    C       -2.07794        -3.22106        -4.63109
| 26>    C       -1.98877        -2.90537        -3.28053
| 27>    S       -1.09716        -4.38309        -5.46719
| 28>    C       -1.92482        -4.05184        -6.94922
| 29>    C       -2.89179        -3.11555        -6.83275
| 30>    C       -4.60328        -0.36542        -2.91153
| 31>    O       -5.49439         0.33069        -3.35752
| 32>    C       -4.11013        -0.41844        -1.52145
| 33>    C       -4.57773         0.31647        -0.47047
| 34>    C       -5.59582         1.29419        -0.40745
| 35>    C       -5.90469         1.93945         0.77668
| 36>    C       -6.92750         2.89404         0.65794
| 37>    C       -7.41304         2.96654        -0.67832
| 38>    S       -6.59387         1.85647        -1.73636
| 39>    C       -8.41196         3.84400        -1.04378
| 40>    C       -8.94292         4.68105        -0.06544
| 41>    C       -8.45636         4.60298         1.27189
| 42>    C       -7.46815         3.72778         1.64642
| 43>    S       -9.26221         5.75654         2.30583
| 44>    C      -10.21806         6.34025         0.95426
| 45>    C       -9.94028         5.67335        -0.20623
| 46>    C      -11.12706         7.41952         1.13002
| 47>    C      -11.40984         8.11753         2.28669
| 48>    C      -12.31780         9.15577         2.06193
| 49>    C      -12.72550         9.24000         0.72236
| 50>    S      -12.00577         8.04446        -0.25829
| 51>    C      -13.60572        10.34424         0.58354
| 52>    C      -13.75487        10.96089         1.83478
| 53>    C      -12.96034        10.22753         2.80974
| 54>    C      -12.83822        10.49081         4.14163
| 55>    C      -12.03534         9.70197         4.99318
| 56>    N      -11.38301         9.06525         5.68847
| 57>    C      -13.50656        11.56912         4.75995
| 58>    N      -14.04525        12.44543         5.26608
| 59>    C      -14.57784        12.08965         1.78657
| 60>    C      -15.04920        12.33094         0.51230
| 61>    S      -14.47858        11.13897        -0.64715
| 62>    C      -15.86692        13.40479         0.06365
| 63>    C      -16.31657        13.62630        -1.20804
| 64>    C      -17.06973        14.81544        -1.34273
| 65>    C      -17.18709        15.51315        -0.10817
| 66>    S      -16.37238        14.66257         1.17843
| 67>    C      -17.85213        16.71102         0.00194
| 68>    C      -18.42549        17.24849        -1.15415
| 69>    C      -18.31218        16.54765        -2.38697
| 70>    C      -17.65093        15.34464        -2.49392
| 71>    S      -19.07929        17.41662        -3.67863
| 72>    C      -19.57126        18.69447        -2.57849
| 73>    C      -19.14388        18.45488        -1.29665
| 74>    C      -20.23143        19.82488        -3.12512
| 75>    C      -20.94237        20.80685        -2.51320
| 76>    C      -21.50069        20.96001        -1.18561
| 77>    C      -21.96095        19.95512        -0.37530
| 78>    C      -22.58633        20.17388         0.86922
| 79>    N      -23.07925        20.30039         1.89805
| 80>    C      -21.93849        18.59199        -0.73201
| 81>    N      -21.97165        17.47554        -0.99603
| 82>    C      -21.72889        22.38536        -0.97485
| 83>    C      -21.55316        23.06246        -2.20970
| 84>    C      -21.14674        22.09401        -3.24229
| 85>    O      -20.96313        22.29044        -4.42102
| 86>    C      -21.73467        24.41855        -2.33821
| 87>    C      -22.09337        25.14067        -1.19610
| 88>    C      -22.25316        24.45730         0.03394
| 89>    C      -22.07939        23.08418         0.16375
| 90>    S      -22.68413        25.55182         1.30915
| 91>    C      -22.65245        26.88573         0.20851
| 92>    C      -22.33307        26.53686        -1.05675
| 93>    H       -4.60995        -1.15937        -5.63716
| 94>    H       -1.26143        -3.39876        -2.65808
| 95>    H       -1.63105        -4.58800        -7.83066
| 96>    H       -3.50895        -2.78235        -7.64740
| 97>    H       -4.10583         0.14894         0.49044
| 98>    H       -5.39569         1.72557         1.70062
| 99>    H       -8.76965         3.89029        -2.05998
|100>    H       -7.10789         3.68169         2.66171
|101>    H      -10.42885         5.89273        -1.13957
|102>    H      -10.96212         7.87462         3.23361
|103>    H      -14.82419        12.71752         2.62399
|104>    H      -16.10778        12.96183        -2.02818
|105>    H      -17.93357        17.22607         0.94574
|106>    H      -17.57296        14.82764        -3.43680
|107>    H      -19.29205        19.14334        -0.48333
|108>    H      -20.08491        19.97574        -4.19119
|109>    H      -21.60244        24.90646        -3.29136
|110>    H      -22.20526        22.60702         1.12179
|111>    H      -22.87806        27.86490         0.58396
|112>    H      -22.26440        27.23153        -1.87419
|113> *
|114>
|115>                          ****END OF INPUT****

CARTESIAN COORDINATES (ANGSTROEM)
---------------------------------
  C     -3.034320   -1.396720   -1.458270
  C     -2.297260   -1.750200   -0.357760
  C     -1.265090   -2.712840   -0.372000
  N     -0.414990   -3.481640   -0.308190
  C     -2.438680   -1.224500    0.943690
  N     -2.479360   -0.857430    2.031670
  C     -2.862930   -1.949740   -2.796490
  C     -3.797670   -1.335890   -3.667620
  C     -3.885880   -1.647090   -5.003090
  C     -3.009470   -2.612370   -5.506730
  C     -2.077940   -3.221060   -4.631090
  C     -1.988770   -2.905370   -3.280530
  S     -1.097160   -4.383090   -5.467190
  C     -1.924820   -4.051840   -6.949220
  C     -2.891790   -3.115550   -6.832750
  C     -4.603280   -0.365420   -2.911530
  O     -5.494390    0.330690   -3.357520
  C     -4.110130   -0.418440   -1.521450
  C     -4.577730    0.316470   -0.470470
  C     -5.595820    1.294190   -0.407450
  C     -5.904690    1.939450    0.776680
  C     -6.927500    2.894040    0.657940
  C     -7.413040    2.966540   -0.678320
  S     -6.593870    1.856470   -1.736360
  C     -8.411960    3.844000   -1.043780
  C     -8.942920    4.681050   -0.065440
  C     -8.456360    4.602980    1.271890
  C     -7.468150    3.727780    1.646420
  S     -9.262210    5.756540    2.305830
  C    -10.218060    6.340250    0.954260
  C     -9.940280    5.673350   -0.206230
  C    -11.127060    7.419520    1.130020
  C    -11.409840    8.117530    2.286690
  C    -12.317800    9.155770    2.061930
  C    -12.725500    9.240000    0.722360
  S    -12.005770    8.044460   -0.258290
  C    -13.605720   10.344240    0.583540
  C    -13.754870   10.960890    1.834780
  C    -12.960340   10.227530    2.809740
  C    -12.838220   10.490810    4.141630
  C    -12.035340    9.701970    4.993180
  N    -11.383010    9.065250    5.688470
  C    -13.506560   11.569120    4.759950
  N    -14.045250   12.445430    5.266080
  C    -14.577840   12.089650    1.786570
  C    -15.049200   12.330940    0.512300
  S    -14.478580   11.138970   -0.647150
  C    -15.866920   13.404790    0.063650
  C    -16.316570   13.626300   -1.208040
  C    -17.069730   14.815440   -1.342730
  C    -17.187090   15.513150   -0.108170
  S    -16.372380   14.662570    1.178430
  C    -17.852130   16.711020    0.001940
  C    -18.425490   17.248490   -1.154150
  C    -18.312180   16.547650   -2.386970
  C    -17.650930   15.344640   -2.493920
  S    -19.079290   17.416620   -3.678630
  C    -19.571260   18.694470   -2.578490
  C    -19.143880   18.454880   -1.296650
  C    -20.231430   19.824880   -3.125120
  C    -20.942370   20.806850   -2.513200
  C    -21.500690   20.960010   -1.185610
  C    -21.960950   19.955120   -0.375300
  C    -22.586330   20.173880    0.869220
  N    -23.079250   20.300390    1.898050
  C    -21.938490   18.591990   -0.732010
  N    -21.971650   17.475540   -0.996030
  C    -21.728890   22.385360   -0.974850
  C    -21.553160   23.062460   -2.209700
  C    -21.146740   22.094010   -3.242290
  O    -20.963130   22.290440   -4.421020
  C    -21.734670   24.418550   -2.338210
  C    -22.093370   25.140670   -1.196100
  C    -22.253160   24.457300    0.033940
  C    -22.079390   23.084180    0.163750
  S    -22.684130   25.551820    1.309150
  C    -22.652450   26.885730    0.208510
  C    -22.333070   26.536860   -1.056750
  H     -4.609950   -1.159370   -5.637160
  H     -1.261430   -3.398760   -2.658080
  H     -1.631050   -4.588000   -7.830660
  H     -3.508950   -2.782350   -7.647400
  H     -4.105830    0.148940    0.490440
  H     -5.395690    1.725570    1.700620
  H     -8.769650    3.890290   -2.059980
  H     -7.107890    3.681690    2.661710
  H    -10.428850    5.892730   -1.139570
  H    -10.962120    7.874620    3.233610
  H    -14.824190   12.717520    2.623990
  H    -16.107780   12.961830   -2.028180
  H    -17.933570   17.226070    0.945740
  H    -17.572960   14.827640   -3.436800
  H    -19.292050   19.143340   -0.483330
  H    -20.084910   19.975740   -4.191190
  H    -21.602440   24.906460   -3.291360
  H    -22.205260   22.607020    1.121790
  H    -22.878060   27.864900    0.583960
  H    -22.264400   27.231530   -1.874190

 Total Charge           Charge          ....    0
 Multiplicity           Mult            ....    1
 Number of Electrons    NEL             ....  578
 Basis Dimension        Dim             .... 1224

ORBITAL ENERGIES
----------------

  NO   OCC          E(Eh)            E(eV)
   0   2.0000     -88.993764     -2421.6434
   1   2.0000     -88.993633     -2421.6399
   2   2.0000     -88.968064     -2420.9441
   3   2.0000     -88.967710     -2420.9345
   4   2.0000     -88.960220     -2420.7307
   5   2.0000     -88.959731     -2420.7173
   6   2.0000     -88.956661     -2420.6338
   7   2.0000     -88.950247     -2420.4593
   8   2.0000     -19.220495      -523.0163
   9   2.0000     -19.215654      -522.8845
  10   2.0000     -14.432248      -392.7214
  11   2.0000     -14.432187      -392.7198
  12   2.0000     -14.417846      -392.3295
  13   2.0000     -14.417422      -392.3180
  14   2.0000     -14.414981      -392.2516
  15   2.0000     -14.414366      -392.2348
  16   2.0000     -10.369668      -282.1730
  17   2.0000     -10.367696      -282.1194
  18   2.0000     -10.366461      -282.0858
  19   2.0000     -10.354871      -281.7704
  20   2.0000     -10.344938      -281.5001
  21   2.0000     -10.343593      -281.4635
  22   2.0000     -10.342634      -281.4374
  23   2.0000     -10.342002      -281.4202
  24   2.0000     -10.336255      -281.2638
  25   2.0000     -10.336043      -281.2580
  26   2.0000     -10.332249      -281.1548
  27   2.0000     -10.332215      -281.1539
  28   2.0000     -10.330288      -281.1014
  29   2.0000     -10.330284      -281.1013
  30   2.0000     -10.326304      -280.9930
  31   2.0000     -10.325866      -280.9811
  32   2.0000     -10.322894      -280.9002
  33   2.0000     -10.322305      -280.8842
  34   2.0000     -10.321605      -280.8651
  35   2.0000     -10.320810      -280.8435
  36   2.0000     -10.320770      -280.8424
  37   2.0000     -10.319901      -280.8188
  38   2.0000     -10.317477      -280.7528
  39   2.0000     -10.316952      -280.7385
  40   2.0000     -10.316205      -280.7182
  41   2.0000     -10.315729      -280.7052
  42   2.0000     -10.315395      -280.6962
  43   2.0000     -10.315353      -280.6950
  44   2.0000     -10.311805      -280.5985
  45   2.0000     -10.311516      -280.5906
  46   2.0000     -10.311019      -280.5771
  47   2.0000     -10.308707      -280.5142
  48   2.0000     -10.307241      -280.4743
  49   2.0000     -10.306848      -280.4636
  50   2.0000     -10.306790      -280.4620
  51   2.0000     -10.305673      -280.4316
  52   2.0000     -10.305439      -280.4253
  53   2.0000     -10.305096      -280.4159
  54   2.0000     -10.303991      -280.3858
  55   2.0000     -10.303019      -280.3594
  56   2.0000     -10.302971      -280.3581
  57   2.0000     -10.301914      -280.3293
  58   2.0000     -10.300698      -280.2963
  59   2.0000     -10.300157      -280.2815
  60   2.0000     -10.299806      -280.2720
  61   2.0000     -10.299804      -280.2719
  62   2.0000     -10.296211      -280.1742
  63   2.0000     -10.296127      -280.1719
  64   2.0000     -10.296004      -280.1685
  65   2.0000     -10.295528      -280.1556
  66   2.0000     -10.293464      -280.0994
  67   2.0000     -10.293071      -280.0887
  68   2.0000     -10.293060      -280.0884
  69   2.0000     -10.292309      -280.0680
  70   2.0000     -10.291168      -280.0369
  71   2.0000     -10.290269      -280.0125
  72   2.0000     -10.290268      -280.0124
  73   2.0000     -10.289872      -280.0016
  74   2.0000     -10.289724      -279.9976
  75   2.0000     -10.288064      -279.9525
  76   2.0000     -10.287819      -279.9458
  77   2.0000     -10.286601      -279.9126
  78   2.0000      -8.088364      -220.0956
  79   2.0000      -8.088238      -220.0921
  80   2.0000      -8.064337      -219.4418
  81   2.0000      -8.063955      -219.4314
  82   2.0000      -8.055957      -219.2137
  83   2.0000      -8.055470      -219.2005
  84   2.0000      -8.052800      -219.1278
  85   2.0000      -8.044370      -218.8984
  86   2.0000      -6.057622      -164.8363
  87   2.0000      -6.057524      -164.8336
  88   2.0000      -6.053457      -164.7229
  89   2.0000      -6.053329      -164.7195
  90   2.0000      -6.050664      -164.6469
  91   2.0000      -6.050563      -164.6442
  92   2.0000      -6.033840      -164.1891
  93   2.0000      -6.033486      -164.1795
  94   2.0000      -6.029547      -164.0723
  95   2.0000      -6.029145      -164.0614
  96   2.0000      -6.026017      -163.9763
  97   2.0000      -6.025690      -163.9674
  98   2.0000      -6.025630      -163.9657
  99   2.0000      -6.025232      -163.9549
 100   2.0000      -6.022387      -163.8775
 101   2.0000      -6.021640      -163.8572
 102   2.0000      -6.021167      -163.8443
 103   2.0000      -6.018407      -163.7692
 104   2.0000      -6.016975      -163.7302
 105   2.0000      -6.016452      -163.7160
 106   2.0000      -6.014130      -163.6528
 107   2.0000      -6.014000      -163.6493
 108   2.0000      -6.009713      -163.5326
 109   2.0000      -6.005637      -163.4217
 110   2.0000      -1.136556       -30.9273
 111   2.0000      -1.131101       -30.7788
 112   2.0000      -1.048467       -28.5302
 113   2.0000      -1.024477       -27.8774
 114   2.0000      -1.021906       -27.8075
 115   2.0000      -1.021178       -27.7877
 116   2.0000      -1.014291       -27.6003
 117   2.0000      -1.010090       -27.4860
 118   2.0000      -1.009605       -27.4727
 119   2.0000      -1.009435       -27.4681
 120   2.0000      -1.008620       -27.4460
 121   2.0000      -1.001500       -27.2522
 122   2.0000      -0.994789       -27.0696
 123   2.0000      -0.994628       -27.0652
 124   2.0000      -0.989035       -26.9130
 125   2.0000      -0.986621       -26.8473
 126   2.0000      -0.984679       -26.7945
 127   2.0000      -0.980152       -26.6713
 128   2.0000      -0.960506       -26.1367
 129   2.0000      -0.935261       -25.4498
 130   2.0000      -0.934164       -25.4199
 131   2.0000      -0.926466       -25.2104
 132   2.0000      -0.921195       -25.0670
 133   2.0000      -0.909563       -24.7505
 134   2.0000      -0.898633       -24.4531
 135   2.0000      -0.895266       -24.3614
 136   2.0000      -0.885602       -24.0985
 137   2.0000      -0.883455       -24.0400
 138   2.0000      -0.882905       -24.0251
 139   2.0000      -0.882282       -24.0081
 140   2.0000      -0.875151       -23.8141
 141   2.0000      -0.870659       -23.6918
 142   2.0000      -0.863733       -23.5034
 143   2.0000      -0.860718       -23.4213
 144   2.0000      -0.844821       -22.9888
 145   2.0000      -0.842264       -22.9192
 146   2.0000      -0.834589       -22.7103
 147   2.0000      -0.824502       -22.4358
 148   2.0000      -0.824226       -22.4283
 149   2.0000      -0.819521       -22.3003
 150   2.0000      -0.800796       -21.7908
 151   2.0000      -0.793766       -21.5995
 152   2.0000      -0.791193       -21.5295
 153   2.0000      -0.786790       -21.4096
 154   2.0000      -0.775479       -21.1019
 155   2.0000      -0.769139       -20.9293
 156   2.0000      -0.760152       -20.6848
 157   2.0000      -0.757100       -20.6018
 158   2.0000      -0.744999       -20.2724
 159   2.0000      -0.727469       -19.7954
 160   2.0000      -0.712654       -19.3923
 161   2.0000      -0.706469       -19.2240
 162   2.0000      -0.700607       -19.0645
 163   2.0000      -0.695083       -18.9142
 164   2.0000      -0.691381       -18.8134
 165   2.0000      -0.689890       -18.7729
 166   2.0000      -0.688858       -18.7448
 167   2.0000      -0.686268       -18.6743
 168   2.0000      -0.685176       -18.6446
 169   2.0000      -0.677076       -18.4242
 170   2.0000      -0.666893       -18.1471
 171   2.0000      -0.663027       -18.0419
 172   2.0000      -0.662817       -18.0362
 173   2.0000      -0.661757       -18.0073
 174   2.0000      -0.648095       -17.6356
 175   2.0000      -0.645752       -17.5718
 176   2.0000      -0.632752       -17.2181
 177   2.0000      -0.630437       -17.1551
 178   2.0000      -0.628031       -17.0896
 179   2.0000      -0.621779       -16.9195
 180   2.0000      -0.621084       -16.9006
 181   2.0000      -0.620605       -16.8875
 182   2.0000      -0.612559       -16.6686
 183   2.0000      -0.610056       -16.6005
 184   2.0000      -0.600930       -16.3521
 185   2.0000      -0.599368       -16.3096
 186   2.0000      -0.591474       -16.0948
 187   2.0000      -0.587122       -15.9764
 188   2.0000      -0.578722       -15.7478
 189   2.0000      -0.577449       -15.7132
 190   2.0000      -0.568415       -15.4674
 191   2.0000      -0.565873       -15.3982
 192   2.0000      -0.559438       -15.2231
 193   2.0000      -0.557841       -15.1796
 194   2.0000      -0.550908       -14.9910
 195   2.0000      -0.548695       -14.9308
 196   2.0000      -0.546431       -14.8691
 197   2.0000      -0.541546       -14.7362
 198   2.0000      -0.541179       -14.7262
 199   2.0000      -0.539975       -14.6935
 200   2.0000      -0.537916       -14.6374
 201   2.0000      -0.536228       -14.5915
 202   2.0000      -0.534202       -14.5364
 203   2.0000      -0.533539       -14.5183
 204   2.0000      -0.530412       -14.4333
 205   2.0000      -0.524005       -14.2589
 206   2.0000      -0.519523       -14.1369
 207   2.0000      -0.518770       -14.1164
 208   2.0000      -0.516576       -14.0567
 209   2.0000      -0.515943       -14.0395
 210   2.0000      -0.513844       -13.9824
 211   2.0000      -0.512349       -13.9417
 212   2.0000      -0.507537       -13.8108
 213   2.0000      -0.504396       -13.7253
 214   2.0000      -0.504204       -13.7201
 215   2.0000      -0.502555       -13.6752
 216   2.0000      -0.500612       -13.6224
 217   2.0000      -0.499645       -13.5960
 218   2.0000      -0.497807       -13.5460
 219   2.0000      -0.495843       -13.4926
 220   2.0000      -0.493516       -13.4293
 221   2.0000      -0.492693       -13.4069
 222   2.0000      -0.491504       -13.3745
 223   2.0000      -0.490193       -13.3388
 224   2.0000      -0.488394       -13.2899
 225   2.0000      -0.480496       -13.0750
 226   2.0000      -0.478831       -13.0296
 227   2.0000      -0.474562       -12.9135
 228   2.0000      -0.471112       -12.8196
 229   2.0000      -0.469221       -12.7682
 230   2.0000      -0.467390       -12.7183
 231   2.0000      -0.465488       -12.6666
 232   2.0000      -0.462885       -12.5957
 233   2.0000      -0.460399       -12.5281
 234   2.0000      -0.457376       -12.4458
 235   2.0000      -0.455680       -12.3997
 236   2.0000      -0.454586       -12.3699
 237   2.0000      -0.454417       -12.3653
 238   2.0000      -0.452146       -12.3035
 239   2.0000      -0.449704       -12.2371
 240   2.0000      -0.449062       -12.2196
 241   2.0000      -0.443755       -12.0752
 242   2.0000      -0.443371       -12.0647
 243   2.0000      -0.442195       -12.0327
 244   2.0000      -0.441450       -12.0125
 245   2.0000      -0.440877       -11.9969
 246   2.0000      -0.438812       -11.9407
 247   2.0000      -0.437604       -11.9078
 248   2.0000      -0.436938       -11.8897
 249   2.0000      -0.434109       -11.8127
 250   2.0000      -0.433964       -11.8088
 251   2.0000      -0.432919       -11.7803
 252   2.0000      -0.430263       -11.7081
 253   2.0000      -0.427855       -11.6425
 254   2.0000      -0.427529       -11.6337
 255   2.0000      -0.426816       -11.6143
 256   2.0000      -0.425448       -11.5770
 257   2.0000      -0.424208       -11.5433
 258   2.0000      -0.419645       -11.4191
 259   2.0000      -0.419304       -11.4098
 260   2.0000      -0.414274       -11.2730
 261   2.0000      -0.412753       -11.2316
 262   2.0000      -0.408548       -11.1172
 263   2.0000      -0.406397       -11.0586
 264   2.0000      -0.400885       -10.9086
 265   2.0000      -0.397707       -10.8222
 266   2.0000      -0.392287       -10.6747
 267   2.0000      -0.386752       -10.5241
 268   2.0000      -0.385005       -10.4765
 269   2.0000      -0.378676       -10.3043
 270   2.0000      -0.375986       -10.2311
 271   2.0000      -0.367836       -10.0093
 272   2.0000      -0.354429        -9.6445
 273   2.0000      -0.350000        -9.5240
 274   2.0000      -0.344096        -9.3633
 275   2.0000      -0.336723        -9.1627
 276   2.0000      -0.335706        -9.1350
 277   2.0000      -0.333899        -9.0859
 278   2.0000      -0.328041        -8.9265
 279   2.0000      -0.319100        -8.6832
 280   2.0000      -0.315092        -8.5741
 281   2.0000      -0.314740        -8.5645
 282   2.0000      -0.302046        -8.2191
 283   2.0000      -0.297168        -8.0863
 284   2.0000      -0.293960        -7.9991
 285   2.0000      -0.288150        -7.8410
 286   2.0000      -0.278297        -7.5728
 287   2.0000      -0.264011        -7.1841
 288   2.0000      -0.245553        -6.6818
 289   0.0000      -0.109413        -2.9773
 290   0.0000      -0.094493        -2.5713
 291   0.0000      -0.092601        -2.5198
 292   0.0000      -0.063191        -1.7195
 293   0.0000      -0.060241        -1.6392

MULLIKEN ATOMIC CHARGES
-----------------------
   0 C :    0.325664
   1 C :   -0.355700
   2 C :   -0.187250
   3 N :    0.152485
   4 C :   -0.190083
   5 N :    0.146703
   6 C :    0.013286
   7 C :   -0.014802
   8 C :   -0.066811
   9 C :    0.114086
  10 C :   -0.095906
  11 C :   -0.022516
  12 S :    0.142501
  13 C :   -0.047376
  14 C :    0.025001
  15 C :    0.161746
  16 O :   -0.165100
  17 C :   -0.083279
  18 C :   -0.021704
  19 C :   -0.043489
  20 C :   -0.032748
  21 C :    0.124079
  22 C :   -0.035688
  23 S :    0.167958
  24 C :   -0.060482
  25 C :    0.129510
  26 C :   -0.042929
  27 C :   -0.039406
  28 S :    0.124187
  29 C :   -0.026347
  30 C :   -0.065735
  31 C :   -0.040295
  32 C :   -0.056580
  33 C :    0.013123
  34 C :   -0.097850
  35 S :    0.185034
  36 C :   -0.097052
  37 C :    0.015996
  38 C :    0.294192
  39 C :   -0.293846
  40 C :   -0.189335
  41 N :    0.178448
  42 C :   -0.190595
  43 N :    0.179232
  44 C :   -0.056301
  45 C :   -0.040311
  46 S :    0.184629
  47 C :   -0.027749
  48 C :   -0.065411
  49 C :    0.131239
  50 C :   -0.045259
  51 S :    0.126970
  52 C :   -0.041447
  53 C :    0.089331
  54 C :   -0.027597
  55 C :   -0.058787
  56 S :    0.131039
  57 C :   -0.099465
  58 C :    0.023433
  59 C :    0.086809
  60 C :   -0.125544
  61 C :    0.261061
  62 C :   -0.330922
  63 C :   -0.177411
  64 N :    0.156807
  65 C :   -0.207952
  66 N :    0.179327
  67 C :    0.003397
  68 C :    0.004265
  69 C :    0.132239
  70 O :   -0.142906
  71 C :   -0.068688
  72 C :    0.109742
  73 C :   -0.091216
  74 C :   -0.025333
  75 S :    0.140783
  76 C :   -0.051015
  77 C :    0.026730
  78 H :   -0.011417
  79 H :   -0.006152
  80 H :    0.039010
  81 H :   -0.006653
  82 H :    0.009508
  83 H :    0.001792
  84 H :   -0.030029
  85 H :   -0.023105
  86 H :   -0.015448
  87 H :    0.016855
  88 H :    0.016511
  89 H :   -0.015893
  90 H :   -0.022997
  91 H :   -0.028198
  92 H :   -0.004576
  93 H :    0.025770
  94 H :   -0.010606
  95 H :   -0.003561
  96 H :    0.039440
  97 H :   -0.005069
Sum of atomic charges:   -0.0000000

LOEWDIN ATOMIC CHARGES
----------------------
   0 C :    0.078056
   1 C :   -0.141817
   2 C :   -0.017895
   3 N :   -0.053657
   4 C :   -0.021372
   5 N :   -0.053422
   6 C :   -0.022294
   7 C :   -0.053239
   8 C :    0.023771
   9 C :   -0.034669
  10 C :   -0.145065
  11 C :   -0.008092
  12 S :    0.431039
  13 C :   -0.148709
  14 C :   -0.057835
  15 C :    0.084047
  16 O :   -0.155880
  17 C :   -0.101588
  18 C :    0.059390
  19 C :   -0.172203
  20 C :   -0.006169
  21 C :   -0.055422
  22 C :   -0.153301
  23 S :    0.454953
  24 C :   -0.039604
  25 C :   -0.031096
  26 C :   -0.151721
  27 C :   -0.022595
  28 S :    0.401648
  29 C :   -0.159935
  30 C :   -0.065636
  31 C :   -0.177208
  32 C :   -0.028724
  33 C :   -0.068955
  34 C :   -0.177990
  35 S :    0.480342
  36 C :   -0.178384
  37 C :   -0.068786
  38 C :    0.081229
  39 C :   -0.098178
  40 C :   -0.017171
  41 N :   -0.028864
  42 C :   -0.017462
  43 N :   -0.028433
  44 C :   -0.029340
  45 C :   -0.176280
  46 S :    0.480295
  47 C :   -0.161475
  48 C :   -0.064876
  49 C :   -0.032797
  50 C :   -0.150069
  51 S :    0.405297
  52 C :   -0.022241
  53 C :   -0.044729
  54 C :   -0.142180
  55 C :   -0.037389
  56 S :    0.412739
  57 C :   -0.168990
  58 C :   -0.006456
  59 C :    0.048473
  60 C :   -0.086282
  61 C :    0.065497
  62 C :   -0.139241
  63 C :   -0.020915
  64 N :   -0.050387
  65 C :   -0.021158
  66 N :   -0.036722
  67 C :   -0.019984
  68 C :   -0.055598
  69 C :    0.084164
  70 O :   -0.141683
  71 C :    0.024895
  72 C :   -0.035666
  73 C :   -0.144598
  74 C :   -0.011845
  75 S :    0.430109
  76 C :   -0.149370
  77 C :   -0.057341
  78 H :    0.040470
  79 H :    0.040929
  80 H :    0.029617
  81 H :    0.035402
  82 H :    0.050551
  83 H :    0.038350
  84 H :    0.031327
  85 H :    0.034317
  86 H :    0.025724
  87 H :    0.039052
  88 H :    0.039137
  89 H :    0.025574
  90 H :    0.034756
  91 H :    0.032347
  92 H :    0.034184
  93 H :    0.046440
  94 H :    0.041034
  95 H :    0.040450
  96 H :    0.029644
  97 H :    0.035734

  Mayer bond orders larger than 0.100000
B(  0-C ,  1-C ) :   1.6231 B(  0-C ,  6-C ) :   1.0019 B(  0-C , 17-C ) :   1.0738
B(  1-C ,  2-C ) :   1.1449 B(  1-C ,  4-C ) :   1.1456 B(  2-C ,  3-N ) :   2.9693
B(  4-C ,  5-N ) :   2.9574 B(  6-C ,  7-C ) :   1.2694 B(  6-C , 11-C ) :   1.4098
B(  7-C ,  8-C ) :   1.4223 B(  7-C , 15-C ) :   0.9611 B(  8-C ,  9-C ) :   1.2449
B(  8-C , 78-H ) :   1.0169 B(  9-C , 10-C ) :   1.3002 B(  9-C , 14-C ) :   1.1727
B( 10-C , 11-C ) :   1.3251 B( 10-C , 12-S ) :   1.1001 B( 11-C , 79-H ) :   0.9818
B( 12-S , 13-C ) :   1.1266 B( 13-C , 14-C ) :   1.6272 B( 13-C , 80-H ) :   0.9687
B( 14-C , 81-H ) :   0.9992 B( 15-C , 16-O ) :   2.1637 B( 15-C , 17-C ) :   0.9501
B( 17-C , 18-C ) :   1.5424 B( 18-C , 19-C ) :   1.2171 B( 18-C , 82-H ) :   0.9385
B( 19-C , 20-C ) :   1.4433 B( 19-C , 23-S ) :   1.0689 B( 20-C , 21-C ) :   1.1814
B( 20-C , 83-H ) :   1.0100 B( 21-C , 22-C ) :   1.2570 B( 21-C , 27-C ) :   1.2788
B( 22-C , 23-S ) :   1.0228 B( 22-C , 24-C ) :   1.3691 B( 24-C , 25-C ) :   1.3310
B( 24-C , 27-C ) :   0.1005 B( 24-C , 84-H ) :   1.0020 B( 25-C , 26-C ) :   1.2567
B( 25-C , 30-C ) :   1.1599 B( 26-C , 27-C ) :   1.4256 B( 26-C , 28-S ) :   1.0295
B( 27-C , 85-H ) :   1.0016 B( 28-S , 29-C ) :   1.0806 B( 29-C , 30-C ) :   1.5587
B( 29-C , 31-C ) :   1.1574 B( 30-C , 86-H ) :   0.9938 B( 31-C , 32-C ) :   1.4706
B( 31-C , 35-S ) :   1.1037 B( 32-C , 33-C ) :   1.2863 B( 32-C , 87-H ) :   0.9913
B( 33-C , 34-C ) :   1.4514 B( 33-C , 38-C ) :   0.9946 B( 34-C , 35-S ) :   1.1260
B( 34-C , 36-C ) :   1.1813 B( 36-C , 37-C ) :   1.4522 B( 36-C , 46-S ) :   1.1266
B( 37-C , 38-C ) :   0.9948 B( 37-C , 44-C ) :   1.2862 B( 38-C , 39-C ) :   1.7179
B( 39-C , 40-C ) :   1.1323 B( 39-C , 42-C ) :   1.1325 B( 40-C , 41-N ) :   2.9956
B( 42-C , 43-N ) :   2.9962 B( 44-C , 45-C ) :   1.4729 B( 44-C , 88-H ) :   0.9908
B( 45-C , 46-S ) :   1.1031 B( 45-C , 47-C ) :   1.1566 B( 47-C , 48-C ) :   1.5597
B( 47-C , 51-S ) :   1.0813 B( 48-C , 49-C ) :   1.1627 B( 48-C , 89-H ) :   0.9930
B( 49-C , 50-C ) :   1.2701 B( 49-C , 55-C ) :   1.3254 B( 50-C , 51-S ) :   1.0351
B( 50-C , 52-C ) :   1.4083 B( 52-C , 53-C ) :   1.2970 B( 52-C , 55-C ) :   0.1009
B( 52-C , 90-H ) :   1.0008 B( 53-C , 54-C ) :   1.2818 B( 53-C , 58-C ) :   1.1996
B( 54-C , 55-C ) :   1.3732 B( 54-C , 56-S ) :   1.0590 B( 55-C , 91-H ) :   1.0016
B( 56-S , 57-C ) :   1.0693 B( 57-C , 58-C ) :   1.5165 B( 57-C , 59-C ) :   1.1071
B( 58-C , 92-H ) :   0.9900 B( 59-C , 60-C ) :   1.7017 B( 59-C , 93-H ) :   0.9246
B( 60-C , 61-C ) :   1.0319 B( 60-C , 69-C ) :   0.9358 B( 61-C , 62-C ) :   1.6541
B( 61-C , 67-C ) :   1.0121 B( 62-C , 63-C ) :   1.1250 B( 62-C , 65-C ) :   1.1633
B( 63-C , 64-N ) :   2.9916 B( 65-C , 66-N ) :   3.0067 B( 67-C , 68-C ) :   1.2685
B( 67-C , 74-C ) :   1.4165 B( 68-C , 69-C ) :   0.9246 B( 68-C , 71-C ) :   1.4245
B( 69-C , 70-O ) :   2.2637 B( 71-C , 72-C ) :   1.2532 B( 71-C , 94-H ) :   1.0167
B( 72-C , 73-C ) :   1.3026 B( 72-C , 77-C ) :   1.1704 B( 73-C , 74-C ) :   1.3206
B( 73-C , 75-S ) :   1.0973 B( 74-C , 95-H ) :   0.9862 B( 75-S , 76-C ) :   1.1271
B( 76-C , 77-C ) :   1.6291 B( 76-C , 96-H ) :   0.9686 B( 77-C , 97-H ) :   1.0004

-----------------------------------------------------------------------------
         ABSORPTION SPECTRUM VIA TRANSITION ELECTRIC DIPOLE MOMENTS
-----------------------------------------------------------------------------
State   Energy  Wavelength   fosc         T2         TX        TY        TZ
        (cm-1)    (nm)                  (au**2)     (au)      (au)      (au)
-----------------------------------------------------------------------------
   0   12348.3    809.8   0.284457890   7.58380  -1.72276   2.14750  -0.06456
   1   19289.9    518.4   2.306022405  39.35587   4.02685  -4.79607  -0.37159
   2   19988.6    500.3   0.195365849   3.21767   0.76314  -0.86673  -1.37261
   3   20936.4    477.6   0.054174772   0.85186   0.51245  -0.62730  -0.44244
   4   23026.1    434.3   0.210660993   3.01189   1.12831  -1.31302  -0.12160
   5   24056.5    415.7   0.418743493   5.73048  -1.54803   1.80255  -0.29132
   6   24578.0    406.9   0.097356910   1.30406   0.53411  -1.00722  -0.06548
   7   26095.6    383.2   0.003897786   0.04917  -0.15113   0.14928  -0.06363
   8   26546.3    376.7   0.053356737   0.66170  -0.24153   0.64304  -0.43574
   9   26962.3    370.9   0.085953910   1.04951  -0.24025   0.29154  -0.95225
  10   27389.2    365.1   0.102310159   1.22975   0.40632   0.71450   0.74440
  11   27712.5    360.8   0.197256211   2.34331  -0.17845   0.87269  -1.24494
  12   28453.1    351.5   0.379507859   4.39104  -0.88581   1.18121   1.48699
  13   28496.6    350.9   0.548686577   6.33879   1.36220  -2.09932   0.27582
  14   28775.7    347.5   0.000976506   0.01117   0.01332   0.09941   0.03335
  15   29199.4    342.5   0.020013381   0.22564   0.07885  -0.05182   0.46555
  16   29687.8    336.8   0.134389809   1.49026  -0.33371   1.06105  -0.50306
  17   30137.9    331.8   0.043259894   0.47255   0.05402  -0.27505  -0.62768
  18   30296.4    330.1   0.211838647   2.30192  -1.04965   1.09466   0.04313
  19   30787.2    324.8   0.022148521   0.23684  -0.15051  -0.44398   0.13064
  20   31781.5    314.6   0.824569150   8.54139  -0.13096  -0.50026  -2.87645
  21   31899.6    313.5   0.011845808   0.12225   0.23209   0.14214   0.21951
  22   32193.8    310.6   0.007759948   0.07935   0.11019   0.03801   0.25645
  23   32365.3    309.0   0.021021951   0.21383  -0.04815   0.28596   0.36020
  24   32516.0    307.5   0.001085645   0.01099  -0.07407  -0.02115   0.07112
  25   32566.3    307.1   0.036681555   0.37081   0.37040   0.10178  -0.47250
  26   33007.5    303.0   0.068685192   0.68506  -0.05167  -0.50509  -0.65366
  27   33458.6    298.9   0.362738040   3.56912   0.28292  -1.79169  -0.52812
  28   33678.5    296.9   0.253958809   2.48248  -0.50347   0.67002   1.33419
  29   33802.4    295.8   0.459424844   4.47448   0.58104   0.05672   2.03314
  30   34068.6    293.5   0.038684671   0.37382   0.40426  -0.38391   0.25101
  31   34232.5    292.1   0.326896816   3.14375  -0.31385   1.65042  -0.56687
  32   34592.3    289.1   0.144966546   1.37963  -0.14381   1.08958   0.41444
  33   34899.4    286.5   0.055541653   0.52393  -0.02264  -0.49867   0.52417
  34   34932.5    286.3   0.128845237   1.21427   0.18200   1.05691   0.25316
  35   35404.9    282.4   0.065778227   0.61164  -0.32724   0.68595   0.18447
  36   35536.8    281.4   0.017931630   0.16612  -0.24936   0.30349   0.10876
  37   35795.9    279.4   0.013487596   0.12404  -0.14592   0.31912  -0.03027
  38   35867.6    278.8   0.058700968   0.53879   0.44052  -0.58221   0.07594
  39   36302.6    275.5   0.001646533   0.01493   0.06369  -0.10377   0.01040
  40   36809.3    271.7   0.009146580   0.08180   0.00489  -0.04972   0.28162
  41   37550.5    266.3   0.011493667   0.10077  -0.03418   0.27583  -0.15335
  42   37806.7    264.5   0.019451440   0.16938  -0.17789   0.34355  -0.14038
  43   38044.9    262.8   0.030290117   0.26211  -0.01918   0.16638  -0.48379
  44   38485.6    259.8   0.092946171   0.79508   0.73262  -0.36754   0.35107
  45   38598.3    259.1   0.044366129   0.37841   0.27845  -0.48263   0.26066
  46   38962.4    256.7   0.014317352   0.12097   0.30902  -0.06365  -0.14638
  47   39058.1    256.0   0.006160116   0.05192   0.06682   0.02334   0.21659
  48   39275.7    254.6   0.009658020   0.08095   0.03782   0.28194  -0.00573
  49   39517.3    253.1   0.096312035   0.80236   0.78632  -0.42322   0.07028
  50   39626.1    252.4   0.208549850   1.73262   0.75576  -0.98432  -0.43883
  51   39872.1    250.8   0.095484822   0.78839  -0.06901   0.20419  -0.86135
  52   40090.6    249.4   0.012176767   0.09999  -0.23957   0.14570  -0.14618
  53   40135.7    249.2   0.056331741   0.46206   0.14102   0.10450  -0.65670
  54   40266.6    248.3   0.058076774   0.47482  -0.06000  -0.11432   0.67687

FINAL SINGLE POINT ENERGY     -6034.448898794896

DIPOLE MOMENT
-------------
                                X             Y             Z
Electronic contribution:     -0.45472      -6.76381      11.40996
Nuclear contribution   :      0.30264       8.40792     -15.16765
                        -----------------------------------------
Total Dipole Moment    :     -0.15208       1.64411      -3.75769
                        -----------------------------------------
Magnitude (a.u.)       :      4.10444
Magnitude (Debye)      :     10.43265

Rotational constants in cm-1:     0.002059     0.000108     0.000103
Rotational constants in MHz :    61.732215     3.224458     3.096769

                             ****ORCA TERMINATED NORMALLY****
TOTAL RUN TIME: 0 days 0 hours 14 minutes 8 seconds 146 msec
