                         Program Version 4.2.0 -  RELEASE  -
|  1> # ORCA input file
|  2> # SCF done       -185.373784804183          0.000882716002
|  3> ! CAM-B3LYP def2-SVP def2/J RIJCOSX Grid4 TightSCF
|  4> %maxcore 5000
|  5> %tddft
|  6>     Mode sTDDFT
|  7>     Ethresh 5.0
|  8>     maxcore 5000
|  9> end
| 10>
| 11> %pal
| 12>   nprocs 6
| 13>   end
| 14> * xyz 0 1
| 15>    C       -2.93737         4.26055        -5.70904
| 16>    C       -2.59997         2.94075        -5.55408
| 17>    C       -1.52372         2.31625        -6.21994
| 18>    N       -0.66630         1.74546        -6.72691
| 19>    C       -3.26523         2.00370        -4.73608
| 20>    N       -3.74483         1.17374        -4.10267
| 21>    C       -2.25361         5.20557        -6.58407
| 22>    C       -2.93238         6.44875        -6.53168
| 23>    C       -2.52940         7.54766        -7.25118
| 24>    C       -1.39689         7.41752        -8.05984
| 25>    C       -0.72107         6.17420        -8.10407
| 26>    C       -1.13148         5.06181        -7.37882
| 27>    S        0.65351         6.24449        -9.16118
| 28>    C        0.31729         7.90081        -9.52845
| 29>    C       -0.77101         8.38702        -8.89274
| 30>    C       -4.07215         6.34282        -5.60804
| 31>    O       -4.87245         7.22087        -5.35201
| 32>    C       -4.03510         4.96958        -5.06914
| 33>    C       -4.85440         4.45894        -4.10388
| 34>    C       -5.92345         5.04943        -3.39407
| 35>    C       -6.60036         4.36061        -2.40351
| 36>    C       -7.62179         5.10154        -1.78780
| 37>    C       -7.72363         6.40578        -2.34838
| 38>    S       -6.55472         6.67252        -3.60698
| 39>    C       -8.65247         7.32140        -1.89971
| 40>    C       -9.50164         6.94322        -0.86355
| 41>    C       -9.39467         5.63733        -0.30354
| 42>    C       -8.47884         4.71714        -0.74767
| 43>    S      -10.55007         5.40763         0.98458
| 44>    C      -11.15546         7.04163         0.77137
| 45>    C      -10.51143         7.70698        -0.23075
| 46>    C      -12.19473         7.53909         1.61075
| 47>    C      -12.82278         6.90375         2.64168
| 48>    C      -13.79897         7.70201         3.28842
| 49>    C      -13.90067         8.99232         2.70297
| 50>    S      -12.78973         9.17445         1.37429
| 51>    C      -14.77466         9.94972         3.16517
| 52>    C      -15.58027         9.62365         4.25540
| 53>    C      -15.47940         8.33405         4.84223
| 54>    C      -14.60864         7.37476         4.37612
| 55>    S      -16.57260         8.16707         6.18962
| 56>    C      -17.14772         9.81066         5.96431
| 57>    C      -16.53668        10.43307         4.91559
| 58>    C      -18.13524        10.35188         6.83887
| 59>    C      -18.72978         9.75072         7.90965
| 60>    C      -19.66026        10.58102         8.58134
| 61>    C      -19.76188        11.86300         7.97307
| 62>    S      -18.70518        11.99430         6.59427
| 63>    C      -20.59545        12.84539         8.45103
| 64>    C      -21.35976        12.55643         9.58409
| 65>    C      -21.26443        11.27336        10.18970
| 66>    C      -20.42975        10.28967         9.70641
| 67>    S      -22.31050        11.15121        11.57083
| 68>    C      -22.82844        12.81733        11.37337
| 69>    C      -22.24897        13.40439        10.27783
| 70>    C      -23.79680        13.34131        12.26936
| 71>    C      -24.09084        14.63567        12.55533
| 72>    C      -23.42154        15.89053        12.27576
| 73>    C      -22.07057        16.08647        12.15679
| 74>    C      -21.47327        17.35080        11.97667
| 75>    N      -20.93985        18.35330        11.80845
| 76>    C      -21.11113        15.06180        12.28577
| 77>    N      -20.28508        14.27621        12.42088
| 78>    C      -24.41470        16.94977        12.41408
| 79>    C      -25.58586        16.40261        12.99975
| 80>    C      -25.40286        14.95312        13.19187
| 81>    O      -26.16221        14.16639        13.70797
| 82>    C      -26.68592        17.17002        13.29898
| 83>    C      -26.63367        18.53377        12.99562
| 84>    C      -25.46712        19.06567        12.39439
| 85>    C      -24.34984        18.29321        12.09980
| 86>    S      -25.63282        20.76681        12.09723
| 87>    C      -27.22532        20.75443        12.77247
| 88>    C      -27.62331        19.53642        13.19962
| 89>    H       -3.07188         8.47823        -7.18829
| 90>    H       -0.57953         4.13944        -7.44657
| 91>    H        0.96750         8.41695       -10.20783
| 92>    H       -1.13039         9.39453        -8.99808
| 93>    H       -4.66725         3.43717        -3.79531
| 94>    H       -6.35444         3.34833        -2.13286
| 95>    H       -8.71914         8.30653        -2.33290
| 96>    H       -8.40917         3.73255        -0.31359
| 97>    H      -10.74901         8.71990        -0.50443
| 98>    H      -12.58931         5.89507         2.93410
| 99>    H      -14.83637        10.92408         2.70759
|100>    H      -14.54524         6.40115         4.83518
|101>    H      -16.76042        11.44492         4.62662
|102>    H      -18.50368         8.74364         8.21287
|103>    H      -20.65335        13.81404         7.98077
|104>    H      -20.36550         9.32373        10.18101
|105>    H      -22.47899        14.40306         9.94968
|106>    H      -24.43978        12.60999        12.75032
|107>    H      -27.55992        16.73033        13.75377
|108>    H      -23.48520        18.73979        11.63696
|109>    H      -27.77358        21.67566        12.80741
|110>    H      -28.58078        19.33782        13.64605
|111> *
|112>
|113>                          ****END OF INPUT****

CARTESIAN COORDINATES (ANGSTROEM)
---------------------------------
  C     -2.937370    4.260550   -5.709040
  C     -2.599970    2.940750   -5.554080
  C     -1.523720    2.316250   -6.219940
  N     -0.666300    1.745460   -6.726910
  C     -3.265230    2.003700   -4.736080
  N     -3.744830    1.173740   -4.102670
  C     -2.253610    5.205570   -6.584070
  C     -2.932380    6.448750   -6.531680
  C     -2.529400    7.547660   -7.251180
  C     -1.396890    7.417520   -8.059840
  C     -0.721070    6.174200   -8.104070
  C     -1.131480    5.061810   -7.378820
  S      0.653510    6.244490   -9.161180
  C      0.317290    7.900810   -9.528450
  C     -0.771010    8.387020   -8.892740
  C     -4.072150    6.342820   -5.608040
  O     -4.872450    7.220870   -5.352010
  C     -4.035100    4.969580   -5.069140
  C     -4.854400    4.458940   -4.103880
  C     -5.923450    5.049430   -3.394070
  C     -6.600360    4.360610   -2.403510
  C     -7.621790    5.101540   -1.787800
  C     -7.723630    6.405780   -2.348380
  S     -6.554720    6.672520   -3.606980
  C     -8.652470    7.321400   -1.899710
  C     -9.501640    6.943220   -0.863550
  C     -9.394670    5.637330   -0.303540
  C     -8.478840    4.717140   -0.747670
  S    -10.550070    5.407630    0.984580
  C    -11.155460    7.041630    0.771370
  C    -10.511430    7.706980   -0.230750
  C    -12.194730    7.539090    1.610750
  C    -12.822780    6.903750    2.641680
  C    -13.798970    7.702010    3.288420
  C    -13.900670    8.992320    2.702970
  S    -12.789730    9.174450    1.374290
  C    -14.774660    9.949720    3.165170
  C    -15.580270    9.623650    4.255400
  C    -15.479400    8.334050    4.842230
  C    -14.608640    7.374760    4.376120
  S    -16.572600    8.167070    6.189620
  C    -17.147720    9.810660    5.964310
  C    -16.536680   10.433070    4.915590
  C    -18.135240   10.351880    6.838870
  C    -18.729780    9.750720    7.909650
  C    -19.660260   10.581020    8.581340
  C    -19.761880   11.863000    7.973070
  S    -18.705180   11.994300    6.594270
  C    -20.595450   12.845390    8.451030
  C    -21.359760   12.556430    9.584090
  C    -21.264430   11.273360   10.189700
  C    -20.429750   10.289670    9.706410
  S    -22.310500   11.151210   11.570830
  C    -22.828440   12.817330   11.373370
  C    -22.248970   13.404390   10.277830
  C    -23.796800   13.341310   12.269360
  C    -24.090840   14.635670   12.555330
  C    -23.421540   15.890530   12.275760
  C    -22.070570   16.086470   12.156790
  C    -21.473270   17.350800   11.976670
  N    -20.939850   18.353300   11.808450
  C    -21.111130   15.061800   12.285770
  N    -20.285080   14.276210   12.420880
  C    -24.414700   16.949770   12.414080
  C    -25.585860   16.402610   12.999750
  C    -25.402860   14.953120   13.191870
  O    -26.162210   14.166390   13.707970
  C    -26.685920   17.170020   13.298980
  C    -26.633670   18.533770   12.995620
  C    -25.467120   19.065670   12.394390
  C    -24.349840   18.293210   12.099800
  S    -25.632820   20.766810   12.097230
  C    -27.225320   20.754430   12.772470
  C    -27.623310   19.536420   13.199620
  H     -3.071880    8.478230   -7.188290
  H     -0.579530    4.139440   -7.446570
  H      0.967500    8.416950  -10.207830
  H     -1.130390    9.394530   -8.998080
  H     -4.667250    3.437170   -3.795310
  H     -6.354440    3.348330   -2.132860
  H     -8.719140    8.306530   -2.332900
  H     -8.409170    3.732550   -0.313590
  H    -10.749010    8.719900   -0.504430
  H    -12.589310    5.895070    2.934100
  H    -14.836370   10.924080    2.707590
  H    -14.545240    6.401150    4.835180
  H    -16.760420   11.444920    4.626620
  H    -18.503680    8.743640    8.212870
  H    -20.653350   13.814040    7.980770
  H    -20.365500    9.323730   10.181010
  H    -22.478990   14.403060    9.949680
  H    -24.439780   12.609990   12.750320
  H    -27.559920   16.730330   13.753770
  H    -23.485200   18.739790   11.636960
  H    -27.773580   21.675660   12.807410
  H    -28.580780   19.337820   13.646050

 Total Charge           Charge          ....    0
 Multiplicity           Mult            ....    1
 Number of Electrons    NEL             ....  554
 Basis Dimension        Dim             .... 1178

ORBITAL ENERGIES
----------------

  NO   OCC          E(Eh)            E(eV)
   0   2.0000     -88.967434     -2420.9270
   1   2.0000     -88.966404     -2420.8989
   2   2.0000     -88.954275     -2420.5689
   3   2.0000     -88.954069     -2420.5633
   4   2.0000     -88.953725     -2420.5539
   5   2.0000     -88.953131     -2420.5377
   6   2.0000     -88.953045     -2420.5354
   7   2.0000     -88.947720     -2420.3905
   8   2.0000     -19.218511      -522.9623
   9   2.0000     -19.214369      -522.8496
  10   2.0000     -14.416369      -392.2894
  11   2.0000     -14.416196      -392.2846
  12   2.0000     -14.413091      -392.2001
  13   2.0000     -14.412988      -392.1973
  14   2.0000     -10.367703      -282.1196
  15   2.0000     -10.365457      -282.0584
  16   2.0000     -10.343444      -281.4594
  17   2.0000     -10.342446      -281.4323
  18   2.0000     -10.340983      -281.3924
  19   2.0000     -10.340298      -281.3738
  20   2.0000     -10.321817      -280.8709
  21   2.0000     -10.321129      -280.8522
  22   2.0000     -10.320158      -280.8258
  23   2.0000     -10.319578      -280.8100
  24   2.0000     -10.319198      -280.7996
  25   2.0000     -10.318939      -280.7926
  26   2.0000     -10.318156      -280.7713
  27   2.0000     -10.317237      -280.7463
  28   2.0000     -10.316190      -280.7178
  29   2.0000     -10.315319      -280.6941
  30   2.0000     -10.315034      -280.6863
  31   2.0000     -10.314683      -280.6768
  32   2.0000     -10.314557      -280.6734
  33   2.0000     -10.314158      -280.6625
  34   2.0000     -10.314123      -280.6616
  35   2.0000     -10.313779      -280.6522
  36   2.0000     -10.308233      -280.5013
  37   2.0000     -10.307965      -280.4940
  38   2.0000     -10.307043      -280.4689
  39   2.0000     -10.306761      -280.4612
  40   2.0000     -10.305612      -280.4300
  41   2.0000     -10.305378      -280.4236
  42   2.0000     -10.305270      -280.4207
  43   2.0000     -10.304354      -280.3957
  44   2.0000     -10.302509      -280.3455
  45   2.0000     -10.302430      -280.3434
  46   2.0000     -10.301365      -280.3144
  47   2.0000     -10.300006      -280.2774
  48   2.0000     -10.298881      -280.2468
  49   2.0000     -10.298559      -280.2380
  50   2.0000     -10.298453      -280.2351
  51   2.0000     -10.297775      -280.2167
  52   2.0000     -10.293359      -280.0965
  53   2.0000     -10.293124      -280.0901
  54   2.0000     -10.291631      -280.0495
  55   2.0000     -10.291569      -280.0478
  56   2.0000     -10.291208      -280.0380
  57   2.0000     -10.289761      -279.9986
  58   2.0000     -10.289727      -279.9977
  59   2.0000     -10.289603      -279.9943
  60   2.0000     -10.289520      -279.9921
  61   2.0000     -10.289161      -279.9823
  62   2.0000     -10.288875      -279.9745
  63   2.0000     -10.288134      -279.9544
  64   2.0000     -10.287787      -279.9449
  65   2.0000     -10.286817      -279.9185
  66   2.0000     -10.286013      -279.8967
  67   2.0000     -10.285850      -279.8922
  68   2.0000     -10.285432      -279.8808
  69   2.0000     -10.283054      -279.8161
  70   2.0000     -10.282953      -279.8134
  71   2.0000     -10.281957      -279.7863
  72   2.0000     -10.281817      -279.7825
  73   2.0000     -10.281744      -279.7805
  74   2.0000      -8.063758      -219.4260
  75   2.0000      -8.062615      -219.3949
  76   2.0000      -8.050294      -219.0596
  77   2.0000      -8.049852      -219.0476
  78   2.0000      -8.049572      -219.0400
  79   2.0000      -8.048881      -219.0212
  80   2.0000      -8.048841      -219.0201
  81   2.0000      -8.041805      -218.8286
  82   2.0000      -6.033276      -164.1738
  83   2.0000      -6.032129      -164.1426
  84   2.0000      -6.028964      -164.0565
  85   2.0000      -6.027824      -164.0254
  86   2.0000      -6.025404      -163.9596
  87   2.0000      -6.024301      -163.9296
  88   2.0000      -6.019898      -163.8098
  89   2.0000      -6.019575      -163.8010
  90   2.0000      -6.019261      -163.7924
  91   2.0000      -6.018574      -163.7737
  92   2.0000      -6.018529      -163.7725
  93   2.0000      -6.015903      -163.7011
  94   2.0000      -6.015553      -163.6915
  95   2.0000      -6.015252      -163.6833
  96   2.0000      -6.014553      -163.6643
  97   2.0000      -6.014507      -163.6631
  98   2.0000      -6.011556      -163.5827
  99   2.0000      -6.011507      -163.5814
 100   2.0000      -6.010893      -163.5647
 101   2.0000      -6.010650      -163.5581
 102   2.0000      -6.009992      -163.5402
 103   2.0000      -6.009959      -163.5393
 104   2.0000      -6.007153      -163.4629
 105   2.0000      -6.003092      -163.3524
 106   2.0000      -1.134635       -30.8750
 107   2.0000      -1.129816       -30.7439
 108   2.0000      -1.020901       -27.7801
 109   2.0000      -1.019599       -27.7447
 110   2.0000      -1.009873       -27.4800
 111   2.0000      -1.008473       -27.4419
 112   2.0000      -1.008068       -27.4309
 113   2.0000      -1.006466       -27.3873
 114   2.0000      -1.001455       -27.2510
 115   2.0000      -0.993662       -27.0389
 116   2.0000      -0.993166       -27.0254
 117   2.0000      -0.989459       -26.9245
 118   2.0000      -0.985655       -26.8210
 119   2.0000      -0.984386       -26.7865
 120   2.0000      -0.979994       -26.6670
 121   2.0000      -0.971039       -26.4233
 122   2.0000      -0.934364       -25.4253
 123   2.0000      -0.932255       -25.3679
 124   2.0000      -0.925121       -25.1738
 125   2.0000      -0.917723       -24.9725
 126   2.0000      -0.906000       -24.6535
 127   2.0000      -0.896453       -24.3937
 128   2.0000      -0.891484       -24.2585
 129   2.0000      -0.882184       -24.0055
 130   2.0000      -0.881487       -23.9865
 131   2.0000      -0.880765       -23.9668
 132   2.0000      -0.879805       -23.9407
 133   2.0000      -0.878524       -23.9058
 134   2.0000      -0.867825       -23.6147
 135   2.0000      -0.864228       -23.5168
 136   2.0000      -0.843084       -22.9415
 137   2.0000      -0.841072       -22.8867
 138   2.0000      -0.834552       -22.7093
 139   2.0000      -0.831670       -22.6309
 140   2.0000      -0.823773       -22.4160
 141   2.0000      -0.822699       -22.3868
 142   2.0000      -0.815077       -22.1794
 143   2.0000      -0.799941       -21.7675
 144   2.0000      -0.793847       -21.6017
 145   2.0000      -0.786380       -21.3985
 146   2.0000      -0.783405       -21.3175
 147   2.0000      -0.777661       -21.1612
 148   2.0000      -0.768503       -20.9120
 149   2.0000      -0.758474       -20.6391
 150   2.0000      -0.756102       -20.5746
 151   2.0000      -0.742704       -20.2100
 152   2.0000      -0.725299       -19.7364
 153   2.0000      -0.711327       -19.3562
 154   2.0000      -0.701686       -19.0938
 155   2.0000      -0.693942       -18.8831
 156   2.0000      -0.689524       -18.7629
 157   2.0000      -0.688030       -18.7222
 158   2.0000      -0.685974       -18.6663
 159   2.0000      -0.685155       -18.6440
 160   2.0000      -0.682400       -18.5690
 161   2.0000      -0.676114       -18.3980
 162   2.0000      -0.671483       -18.2720
 163   2.0000      -0.662311       -18.0224
 164   2.0000      -0.661386       -17.9972
 165   2.0000      -0.659611       -17.9489
 166   2.0000      -0.647401       -17.6167
 167   2.0000      -0.645571       -17.5669
 168   2.0000      -0.642442       -17.4817
 169   2.0000      -0.627302       -17.0697
 170   2.0000      -0.625357       -17.0168
 171   2.0000      -0.620593       -16.8872
 172   2.0000      -0.620017       -16.8715
 173   2.0000      -0.619108       -16.8468
 174   2.0000      -0.607330       -16.5263
 175   2.0000      -0.601245       -16.3607
 176   2.0000      -0.597825       -16.2676
 177   2.0000      -0.591371       -16.0920
 178   2.0000      -0.585823       -15.9410
 179   2.0000      -0.577887       -15.7251
 180   2.0000      -0.576240       -15.6803
 181   2.0000      -0.569928       -15.5085
 182   2.0000      -0.566166       -15.4062
 183   2.0000      -0.565353       -15.3840
 184   2.0000      -0.558248       -15.1907
 185   2.0000      -0.555841       -15.1252
 186   2.0000      -0.549047       -14.9403
 187   2.0000      -0.547435       -14.8965
 188   2.0000      -0.542389       -14.7591
 189   2.0000      -0.539801       -14.6887
 190   2.0000      -0.539312       -14.6754
 191   2.0000      -0.537537       -14.6271
 192   2.0000      -0.533587       -14.5196
 193   2.0000      -0.532974       -14.5030
 194   2.0000      -0.531353       -14.4588
 195   2.0000      -0.530863       -14.4455
 196   2.0000      -0.527998       -14.3676
 197   2.0000      -0.522025       -14.2050
 198   2.0000      -0.517548       -14.0832
 199   2.0000      -0.516723       -14.0607
 200   2.0000      -0.514999       -14.0138
 201   2.0000      -0.512766       -13.9531
 202   2.0000      -0.510738       -13.8979
 203   2.0000      -0.509633       -13.8678
 204   2.0000      -0.506637       -13.7863
 205   2.0000      -0.502849       -13.6832
 206   2.0000      -0.500703       -13.6248
 207   2.0000      -0.500206       -13.6113
 208   2.0000      -0.499390       -13.5891
 209   2.0000      -0.496595       -13.5130
 210   2.0000      -0.494652       -13.4602
 211   2.0000      -0.493277       -13.4228
 212   2.0000      -0.490319       -13.3422
 213   2.0000      -0.489778       -13.3275
 214   2.0000      -0.484710       -13.1896
 215   2.0000      -0.481531       -13.1031
 216   2.0000      -0.480908       -13.0862
 217   2.0000      -0.473972       -12.8974
 218   2.0000      -0.472186       -12.8488
 219   2.0000      -0.468286       -12.7427
 220   2.0000      -0.467385       -12.7182
 221   2.0000      -0.461795       -12.5661
 222   2.0000      -0.459313       -12.4985
 223   2.0000      -0.455667       -12.3993
 224   2.0000      -0.453570       -12.3423
 225   2.0000      -0.453076       -12.3288
 226   2.0000      -0.451156       -12.2766
 227   2.0000      -0.448421       -12.2022
 228   2.0000      -0.448159       -12.1950
 229   2.0000      -0.447100       -12.1662
 230   2.0000      -0.446675       -12.1546
 231   2.0000      -0.442304       -12.0357
 232   2.0000      -0.441667       -12.0184
 233   2.0000      -0.437870       -11.9151
 234   2.0000      -0.435352       -11.8465
 235   2.0000      -0.434120       -11.8130
 236   2.0000      -0.433112       -11.7856
 237   2.0000      -0.432944       -11.7810
 238   2.0000      -0.430104       -11.7037
 239   2.0000      -0.428465       -11.6591
 240   2.0000      -0.426173       -11.5967
 241   2.0000      -0.425892       -11.5891
 242   2.0000      -0.423957       -11.5365
 243   2.0000      -0.421242       -11.4626
 244   2.0000      -0.418766       -11.3952
 245   2.0000      -0.416918       -11.3449
 246   2.0000      -0.413165       -11.2428
 247   2.0000      -0.409277       -11.1370
 248   2.0000      -0.407323       -11.0838
 249   2.0000      -0.406945       -11.0735
 250   2.0000      -0.406153       -11.0520
 251   2.0000      -0.401363       -10.9216
 252   2.0000      -0.398651       -10.8479
 253   2.0000      -0.390402       -10.6234
 254   2.0000      -0.383976       -10.4485
 255   2.0000      -0.381998       -10.3947
 256   2.0000      -0.380344       -10.3497
 257   2.0000      -0.376701       -10.2505
 258   2.0000      -0.373646       -10.1674
 259   2.0000      -0.368236       -10.0202
 260   2.0000      -0.348638        -9.4869
 261   2.0000      -0.344025        -9.3614
 262   2.0000      -0.334859        -9.1120
 263   2.0000      -0.333268        -9.0687
 264   2.0000      -0.331817        -9.0292
 265   2.0000      -0.330491        -8.9931
 266   2.0000      -0.316825        -8.6213
 267   2.0000      -0.314210        -8.5501
 268   2.0000      -0.313021        -8.5177
 269   2.0000      -0.300553        -8.1784
 270   2.0000      -0.295891        -8.0516
 271   2.0000      -0.292631        -7.9629
 272   2.0000      -0.284225        -7.7342
 273   2.0000      -0.282644        -7.6911
 274   2.0000      -0.268257        -7.2996
 275   2.0000      -0.260660        -7.0929
 276   2.0000      -0.244448        -6.6518
 277   0.0000      -0.094460        -2.5704
 278   0.0000      -0.091381        -2.4866
 279   0.0000      -0.062627        -1.7042
 280   0.0000      -0.058643        -1.5958
 281   0.0000      -0.045999        -1.2517

MULLIKEN ATOMIC CHARGES
-----------------------
   0 C :    0.323428
   1 C :   -0.354494
   2 C :   -0.187748
   3 N :    0.151089
   4 C :   -0.189530
   5 N :    0.145739
   6 C :    0.013468
   7 C :   -0.014992
   8 C :   -0.067048
   9 C :    0.113917
  10 C :   -0.096326
  11 C :   -0.020918
  12 S :    0.142067
  13 C :   -0.049282
  14 C :    0.025837
  15 C :    0.161618
  16 O :   -0.165881
  17 C :   -0.081564
  18 C :   -0.021226
  19 C :   -0.043855
  20 C :   -0.034367
  21 C :    0.128870
  22 C :   -0.039973
  23 S :    0.167752
  24 C :   -0.059177
  25 C :    0.132531
  26 C :   -0.044556
  27 C :   -0.041877
  28 S :    0.111386
  29 C :   -0.012870
  30 C :   -0.062265
  31 C :   -0.022008
  32 C :   -0.055801
  33 C :    0.118976
  34 C :   -0.043478
  35 S :    0.108002
  36 C :   -0.053818
  37 C :    0.120258
  38 C :   -0.043532
  39 C :   -0.054504
  40 S :    0.111158
  41 C :   -0.019631
  42 C :   -0.058094
  43 C :   -0.015755
  44 C :   -0.059523
  45 C :    0.126489
  46 C :   -0.044070
  47 S :    0.110936
  48 C :   -0.041124
  49 C :    0.090601
  50 C :   -0.027086
  51 C :   -0.054422
  52 S :    0.133671
  53 C :   -0.104063
  54 C :    0.019504
  55 C :    0.093674
  56 C :   -0.127949
  57 C :    0.263168
  58 C :   -0.336513
  59 C :   -0.179731
  60 N :    0.153500
  61 C :   -0.205274
  62 N :    0.184195
  63 C :    0.002480
  64 C :    0.003293
  65 C :    0.132907
  66 O :   -0.141995
  67 C :   -0.068872
  68 C :    0.108829
  69 C :   -0.091770
  70 C :   -0.025802
  71 S :    0.140078
  72 C :   -0.051679
  73 C :    0.029281
  74 H :   -0.011757
  75 H :   -0.006685
  76 H :    0.039603
  77 H :   -0.006847
  78 H :    0.009350
  79 H :    0.000282
  80 H :   -0.029392
  81 H :   -0.026574
  82 H :   -0.010037
  83 H :   -0.011991
  84 H :   -0.029956
  85 H :   -0.029690
  86 H :   -0.011144
  87 H :   -0.011500
  88 H :   -0.027586
  89 H :   -0.027824
  90 H :   -0.006528
  91 H :    0.025444
  92 H :   -0.010146
  93 H :   -0.004126
  94 H :    0.039244
  95 H :   -0.006404
Sum of atomic charges:   -0.0000000

LOEWDIN ATOMIC CHARGES
----------------------
   0 C :    0.078431
   1 C :   -0.142751
   2 C :   -0.017934
   3 N :   -0.054428
   4 C :   -0.021299
   5 N :   -0.054527
   6 C :   -0.022424
   7 C :   -0.052912
   8 C :    0.023715
   9 C :   -0.034769
  10 C :   -0.145282
  11 C :   -0.008233
  12 S :    0.430490
  13 C :   -0.149129
  14 C :   -0.057795
  15 C :    0.083915
  16 O :   -0.155497
  17 C :   -0.102157
  18 C :    0.059710
  19 C :   -0.172875
  20 C :   -0.006258
  21 C :   -0.055722
  22 C :   -0.153969
  23 S :    0.454849
  24 C :   -0.038059
  25 C :   -0.031125
  26 C :   -0.151453
  27 C :   -0.024245
  28 S :    0.393228
  29 C :   -0.155749
  30 C :   -0.058334
  31 C :   -0.164475
  32 C :   -0.051196
  33 C :   -0.043072
  34 C :   -0.150077
  35 S :    0.396279
  36 C :   -0.034877
  37 C :   -0.042437
  38 C :   -0.150012
  39 C :   -0.034333
  40 S :    0.395690
  41 C :   -0.164635
  42 C :   -0.052805
  43 C :   -0.156369
  44 C :   -0.056763
  45 C :   -0.033232
  46 C :   -0.149880
  47 S :    0.397537
  48 C :   -0.024559
  49 C :   -0.045000
  50 C :   -0.142318
  51 C :   -0.034944
  52 S :    0.413121
  53 C :   -0.170740
  54 C :   -0.009531
  55 C :    0.051290
  56 C :   -0.086674
  57 C :    0.065630
  58 C :   -0.138811
  59 C :   -0.020390
  60 N :   -0.052081
  61 C :   -0.021103
  62 N :   -0.036601
  63 C :   -0.019933
  64 C :   -0.055458
  65 C :    0.083564
  66 O :   -0.141779
  67 C :    0.024538
  68 C :   -0.035787
  69 C :   -0.144517
  70 C :   -0.012267
  71 S :    0.429136
  72 C :   -0.149520
  73 C :   -0.057069
  74 H :    0.040457
  75 H :    0.040785
  76 H :    0.029604
  77 H :    0.035317
  78 H :    0.050302
  79 H :    0.037695
  80 H :    0.031754
  81 H :    0.032978
  82 H :    0.028508
  83 H :    0.028802
  84 H :    0.031679
  85 H :    0.031748
  86 H :    0.028228
  87 H :    0.028949
  88 H :    0.033037
  89 H :    0.032730
  90 H :    0.033277
  91 H :    0.046760
  92 H :    0.041062
  93 H :    0.040281
  94 H :    0.029533
  95 H :    0.035555

  Mayer bond orders larger than 0.100000
B(  0-C ,  1-C ) :   1.6225 B(  0-C ,  6-C ) :   1.0025 B(  0-C , 17-C ) :   1.0733
B(  1-C ,  2-C ) :   1.1450 B(  1-C ,  4-C ) :   1.1447 B(  2-C ,  3-N ) :   2.9696
B(  4-C ,  5-N ) :   2.9612 B(  6-C ,  7-C ) :   1.2682 B(  6-C , 11-C ) :   1.4107
B(  7-C ,  8-C ) :   1.4242 B(  7-C , 15-C ) :   0.9595 B(  8-C ,  9-C ) :   1.2443
B(  8-C , 74-H ) :   1.0166 B(  9-C , 10-C ) :   1.3007 B(  9-C , 14-C ) :   1.1719
B( 10-C , 11-C ) :   1.3249 B( 10-C , 12-S ) :   1.0995 B( 11-C , 75-H ) :   0.9814
B( 12-S , 13-C ) :   1.1267 B( 13-C , 14-C ) :   1.6281 B( 13-C , 76-H ) :   0.9687
B( 14-C , 77-H ) :   0.9993 B( 15-C , 16-O ) :   2.1630 B( 15-C , 17-C ) :   0.9501
B( 17-C , 18-C ) :   1.5413 B( 18-C , 19-C ) :   1.2190 B( 18-C , 78-H ) :   0.9393
B( 19-C , 20-C ) :   1.4425 B( 19-C , 23-S ) :   1.0689 B( 20-C , 21-C ) :   1.1831
B( 20-C , 79-H ) :   1.0095 B( 21-C , 22-C ) :   1.2554 B( 21-C , 27-C ) :   1.2773
B( 22-C , 23-S ) :   1.0236 B( 22-C , 24-C ) :   1.3685 B( 24-C , 25-C ) :   1.3326
B( 24-C , 27-C ) :   0.1009 B( 24-C , 80-H ) :   1.0022 B( 25-C , 26-C ) :   1.2546
B( 25-C , 30-C ) :   1.1517 B( 26-C , 27-C ) :   1.4267 B( 26-C , 28-S ) :   1.0331
B( 27-C , 81-H ) :   1.0017 B( 28-S , 29-C ) :   1.0748 B( 29-C , 30-C ) :   1.5728
B( 29-C , 31-C ) :   1.1455 B( 30-C , 82-H ) :   0.9956 B( 31-C , 32-C ) :   1.5765
B( 31-C , 35-S ) :   1.0752 B( 32-C , 33-C ) :   1.1503 B( 32-C , 83-H ) :   0.9961
B( 33-C , 34-C ) :   1.2831 B( 33-C , 39-C ) :   1.3174 B( 34-C , 35-S ) :   1.0410
B( 34-C , 36-C ) :   1.3884 B( 36-C , 37-C ) :   1.3178 B( 36-C , 39-C ) :   0.1002
B( 36-C , 84-H ) :   1.0012 B( 37-C , 38-C ) :   1.2830 B( 37-C , 42-C ) :   1.1514
B( 38-C , 39-C ) :   1.3887 B( 38-C , 40-S ) :   1.0406 B( 39-C , 85-H ) :   1.0012
B( 40-S , 41-C ) :   1.0746 B( 41-C , 42-C ) :   1.5758 B( 41-C , 43-C ) :   1.1445
B( 42-C , 86-H ) :   0.9952 B( 43-C , 44-C ) :   1.5759 B( 43-C , 47-S ) :   1.0775
B( 44-C , 45-C ) :   1.1512 B( 44-C , 87-H ) :   0.9964 B( 45-C , 46-C ) :   1.2692
B( 45-C , 51-C ) :   1.3283 B( 46-C , 47-S ) :   1.0379 B( 46-C , 48-C ) :   1.4088
B( 48-C , 49-C ) :   1.2987 B( 48-C , 51-C ) :   0.1010 B( 48-C , 88-H ) :   1.0005
B( 49-C , 50-C ) :   1.2818 B( 49-C , 54-C ) :   1.1954 B( 50-C , 51-C ) :   1.3742
B( 50-C , 52-S ) :   1.0564 B( 51-C , 89-H ) :   1.0013 B( 52-S , 53-C ) :   1.0694
B( 53-C , 54-C ) :   1.5227 B( 53-C , 55-C ) :   1.0967 B( 54-C , 90-H ) :   0.9923
B( 55-C , 56-C ) :   1.7039 B( 55-C , 91-H ) :   0.9286 B( 56-C , 57-C ) :   1.0302
B( 56-C , 65-C ) :   0.9364 B( 57-C , 58-C ) :   1.6548 B( 57-C , 63-C ) :   1.0129
B( 58-C , 59-C ) :   1.1279 B( 58-C , 61-C ) :   1.1641 B( 59-C , 60-N ) :   2.9899
B( 61-C , 62-N ) :   3.0113 B( 63-C , 64-C ) :   1.2712 B( 63-C , 70-C ) :   1.4148
B( 64-C , 65-C ) :   0.9226 B( 64-C , 67-C ) :   1.4263 B( 65-C , 66-O ) :   2.2679
B( 67-C , 68-C ) :   1.2521 B( 67-C , 92-H ) :   1.0158 B( 68-C , 69-C ) :   1.3030
B( 68-C , 73-C ) :   1.1730 B( 69-C , 70-C ) :   1.3215 B( 69-C , 71-S ) :   1.0979
B( 70-C , 93-H ) :   0.9858 B( 71-S , 72-C ) :   1.1262 B( 72-C , 73-C ) :   1.6293
B( 72-C , 94-H ) :   0.9688 B( 73-C , 95-H ) :   0.9990

-----------------------------------------------------------------------------
         ABSORPTION SPECTRUM VIA TRANSITION ELECTRIC DIPOLE MOMENTS
-----------------------------------------------------------------------------
State   Energy  Wavelength   fosc         T2         TX        TY        TZ
        (cm-1)    (nm)                  (au**2)     (au)      (au)      (au)
-----------------------------------------------------------------------------
   0   19186.0    521.2   2.136163074  36.65426   3.95922  -2.28474  -3.96973
   1   20164.8    495.9   0.618426384  10.09648  -2.53905  -0.14463   1.90494
   2   23583.5    424.0   0.726290629  10.13858  -2.25767   1.47933   1.68912
   3   24234.3    412.6   0.037221319   0.50563   0.23318   0.67063  -0.03896
   4   26337.9    379.7   0.303660906   3.79562   1.16454   0.71368  -1.38929
   5   26929.1    371.3   0.030727212   0.37564  -0.27585  -0.39322   0.38070
   6   27205.1    367.6   0.107511823   1.30101   0.84832  -0.36779  -0.66790
   7   27418.2    364.7   0.042277866   0.50763   0.54944   0.34892   0.28985
   8   28021.6    356.9   0.593769465   6.97592   2.08916  -0.85961  -1.36836
   9   28288.6    353.5   0.250159076   2.91125  -0.23232   1.66036  -0.31697
  10   29078.5    343.9   0.097077506   1.09906  -0.67004   0.15935   0.79039
  11   29098.5    343.7   0.064613900   0.73102   0.60866  -0.16900  -0.57618
  12   29673.6    337.0   0.545496035   6.05197  -1.83955   0.66772   1.49070
  13   29816.3    335.4   0.047302863   0.52229  -0.26667   0.16595   0.65087
  14   30200.8    331.1   0.036073164   0.39322  -0.12345  -0.52087   0.32661
  15   30459.8    328.3   0.017924210   0.19373   0.21956   0.22854  -0.30543
  16   30950.0    323.1   0.018474979   0.19652   0.38611  -0.21439  -0.03841
  17   31637.1    316.1   0.069388418   0.72205   0.46526  -0.67820   0.21360
  18   31832.6    314.1   0.062659451   0.64802  -0.33983  -0.53241   0.49907
  19   32450.6    308.2   0.001066426   0.01082   0.07940  -0.00385   0.06708
  20   32629.9    306.5   0.073227903   0.73882  -0.34803   0.72799  -0.29619
  21   33176.3    301.4   0.004841090   0.04804  -0.18812  -0.08223   0.07675
  22   33443.7    299.0   0.089829568   0.88426  -0.51951  -0.68045   0.38905
  23   33605.1    297.6   0.184353621   1.80602   1.25664  -0.14405  -0.45400
  24   33913.1    294.9   0.172482838   1.67438   0.24861  -1.24220   0.26367
  25   34020.1    293.9   0.446393250   4.31974  -0.73770  -1.57173   1.14246
  26   34400.6    290.7   0.111855496   1.07045  -0.84218  -0.23598   0.55272
  27   34599.5    289.0   0.086821455   0.82610   0.65144  -0.63298   0.03270
  28   34999.9    285.7   0.476637936   4.48330   1.64839  -1.31071  -0.21946
  29   35441.3    282.2   0.079290910   0.73653   0.07641   0.70747  -0.47976
  30   35713.3    280.0   0.062250700   0.57384   0.51201  -0.29125  -0.47629
  31   36207.4    276.2   0.037398010   0.34004   0.17563  -0.53564   0.14925
  32   36558.7    273.5   0.001448885   0.01305  -0.04168   0.09643  -0.04485
  33   37507.9    266.6   0.014540557   0.12762   0.06555   0.34999  -0.02893
  34   37591.5    266.0   0.035478257   0.31071  -0.12308   0.54241   0.03667
  35   38249.2    261.4   0.026851058   0.23111   0.29743   0.14183  -0.35004
  36   38499.8    259.7   0.011878404   0.10157  -0.21170  -0.11808   0.20691
  37   38760.6    258.0   0.046264765   0.39295   0.25313   0.30210  -0.48745
  38   39020.6    256.3   0.150088834   1.26628   0.81218  -0.73758  -0.25025
  39   39221.4    255.0   0.135921308   1.14088  -0.32183   0.99829   0.20180
  40   39439.4    253.6   0.015143439   0.12641   0.21175  -0.24673  -0.14386
  41   39844.7    251.0   0.106845504   0.88280  -0.71974   0.28682   0.53152
  42   39882.4    250.7   0.086264089   0.71207   0.55575   0.62177  -0.12889
  43   40185.5    248.8   0.006795364   0.05567   0.04114   0.06305  -0.22361
  44   40288.5    248.2   0.025971557   0.21222   0.22734  -0.38866  -0.09737

FINAL SINGLE POINT ENERGY     -5850.252129530176

DIPOLE MOMENT
-------------
                                X             Y             Z
Electronic contribution:      5.96105      -6.23839       0.50876
Nuclear contribution   :     -7.87565       8.80700      -1.44745
                        -----------------------------------------
Total Dipole Moment    :     -1.91461       2.56861      -0.93869
                        -----------------------------------------
Magnitude (a.u.)       :      3.33835
Magnitude (Debye)      :      8.48542

Rotational constants in cm-1:     0.002627     0.000102     0.000099
Rotational constants in MHz :    78.753812     3.063444     2.965815

                             ****ORCA TERMINATED NORMALLY****
TOTAL RUN TIME: 0 days 0 hours 9 minutes 9 seconds 19 msec
