                         Program Version 4.2.0 -  RELEASE  -
|  1> # ORCA input file
|  2> # SCF done       -213.636330613101          0.000279597007
|  3> ! CAM-B3LYP def2-SVP def2/J RIJCOSX Grid4 TightSCF
|  4> %maxcore 5000
|  5> %tddft
|  6>     Mode sTDDFT
|  7>     Ethresh 5.0
|  8>     maxcore 5000
|  9> end
| 10>
| 11> %pal
| 12>   nprocs 6
| 13>   end
| 14> * xyz 0 1
| 15>    C       -2.80256        -1.01934        -0.40963
| 16>    C       -3.21775        -2.16209        -1.03701
| 17>    C       -2.40294        -3.29732        -1.23713
| 18>    N       -1.79128        -4.24997        -1.42479
| 19>    C       -4.50140        -2.35770        -1.59084
| 20>    N       -5.51832        -2.58053        -2.07419
| 21>    C       -1.46836        -0.75747         0.10541
| 22>    C       -1.40985         0.57537         0.58971
| 23>    C       -0.26908         1.11598         1.13462
| 24>    C        0.86956         0.30894         1.20090
| 25>    C        0.80250        -1.02136         0.71666
| 26>    C       -0.35035        -1.57023         0.16997
| 27>    S        2.32379        -1.83427         0.90250
| 28>    C        3.02210        -0.41856         1.60880
| 29>    C        2.16303         0.61980         1.70594
| 30>    C       -2.71797         1.22291         0.42339
| 31>    O       -3.04181         2.32726         0.79581
| 32>    C       -3.59862         0.18556        -0.20450
| 33>    C       -4.92448         0.34372        -0.38736
| 34>    C       -5.59971         1.62645        -0.25389
| 35>    C       -5.14864         2.77253        -0.91343
| 36>    F       -4.09679         2.68721        -1.73561
| 37>    C       -5.80117         3.98566        -0.77458
| 38>    F       -5.31387         5.05267        -1.42534
| 39>    C       -6.92496         4.13106         0.04400
| 40>    C       -7.38394         2.97827         0.68472
| 41>    C       -6.75100         1.75603         0.52333
| 42>    F       -7.22669         0.67547         1.15816
| 43>    F       -8.48157         3.03706         1.45331
| 44>    C       -7.57230         5.43649         0.23153
| 45>    C       -7.83606         6.25186        -0.87364
| 46>    C       -8.39679         7.49203        -0.67409
| 47>    C       -8.73560         7.91372         0.62344
| 48>    C       -8.48553         7.10319         1.71964
| 49>    C       -7.89884         5.86894         1.51744
| 50>    C       -9.35846         9.21830         0.53718
| 51>    C       -9.40915         9.59780        -0.81289
| 52>    C       -8.75313         8.55296        -1.68983
| 53>    C       -7.49360         9.20636        -2.30686
| 54>    C       -6.58095         8.28211        -3.10198
| 55>    C       -9.70726         8.02450        -2.77114
| 56>    C      -11.01570         7.50512        -2.18586
| 57>    C       -9.96163        10.80094        -1.17832
| 58>    C      -10.47531        11.65569        -0.19467
| 59>    C      -10.42674        11.25988         1.14761
| 60>    C       -9.87437        10.05085         1.51890
| 61>    C      -11.03473        12.93499        -0.57278
| 62>    C      -11.33797        13.99623         0.22071
| 63>    C      -11.85634        15.13236        -0.46213
| 64>    C      -11.97139        14.88670        -1.86713
| 65>    S      -11.38269        13.27875        -2.25009
| 66>    C      -12.48928        15.81212        -2.75958
| 67>    O      -12.65755        15.71196        -4.10624
| 68>    C      -12.34104        14.52572        -4.79136
| 69>    C      -12.90377        17.04459        -2.21603
| 70>    C      -12.76724        17.29314        -0.84103
| 71>    C      -12.24687        16.37446         0.06225
| 72>    O      -12.21812        16.80955         1.35539
| 73>    C      -11.31734        16.27552         2.29403
| 74>    S      -13.32135        18.88231        -0.42267
| 75>    C      -13.73292        19.21906        -2.09952
| 76>    C      -13.45400        18.15516        -2.90458
| 77>    C      -14.28557        20.50754        -2.45730
| 78>    C      -14.54575        21.45643        -1.45966
| 79>    C      -15.06118        22.68155        -1.80293
| 80>    C      -15.33088        22.99408        -3.14465
| 81>    C      -15.07984        22.06267        -4.13989
| 82>    C      -14.56078        20.83080        -3.79135
| 83>    C      -15.85751        24.34540        -3.20592
| 84>    C      -15.91041        24.86054        -1.90126
| 85>    C      -15.41110        23.84265        -0.90284
| 86>    C      -16.50940        23.45693         0.10542
| 87>    C      -17.77384        22.93801        -0.56848
| 88>    C      -14.17336        24.35570        -0.14401
| 89>    C      -13.03138        24.74755        -1.07383
| 90>    C      -16.37448        26.13830        -1.67528
| 91>    C      -16.78692        26.90283        -2.75909
| 92>    C      -16.73507        26.39408        -4.04767
| 93>    C      -16.27002        25.11060        -4.28438
| 94>    H       -0.25865         2.13327         1.49394
| 95>    H       -0.35257        -2.58919        -0.17949
| 96>    H        4.05020        -0.45177         1.91318
| 97>    H        2.42071         1.57839         2.11840
| 98>    H       -5.56160        -0.49985        -0.61865
| 99>    H       -7.62343         5.88976        -1.86689
|100>    H       -8.74295         7.42677         2.71655
|101>    H       -7.67749         5.23680         2.36347
|102>    H       -6.91616         9.65236        -1.49267
|103>    H       -7.83040        10.01906        -2.95469
|104>    H       -6.13492         7.52541        -2.46348
|105>    H       -5.77477         8.86721        -3.53943
|106>    H       -7.11697         7.79406        -3.91162
|107>    H       -9.21688         7.21802        -3.31749
|108>    H       -9.91929         8.83023        -3.47707
|109>    H      -10.82735         6.69913        -1.47975
|110>    H      -11.65644         7.12559        -2.97849
|111>    H      -11.54656         8.29883        -1.66493
|112>    H      -10.00380        11.10317        -2.21497
|113>    H      -10.83899        11.90493         1.90785
|114>    H       -9.84717         9.76132         2.55865
|115>    H      -11.19213        13.96170         1.28207
|116>    H      -12.59850        14.72029        -5.83209
|117>    H      -12.92825        13.67764        -4.42938
|118>    H      -11.27585        14.28840        -4.72428
|119>    H      -11.19401        17.04951         3.05270
|120>    H      -10.34542        16.05352         1.84602
|121>    H      -11.72418        15.37974         2.77475
|122>    H      -13.62480        18.12935        -3.96424
|123>    H      -14.33539        21.21025        -0.42883
|124>    H      -15.28340        22.29302        -5.17515
|125>    H      -14.36012        20.10629        -4.56472
|126>    H      -16.75387        24.33386         0.70891
|127>    H      -16.11450        22.68929         0.77430
|128>    H      -18.19476        23.69317        -1.22878
|129>    H      -18.51912        22.68090         0.18087
|130>    H      -17.55699        22.04986        -1.15779
|131>    H      -13.83302        23.57341         0.53776
|132>    H      -14.46486        25.22011         0.45663
|133>    H      -12.70636        23.89272        -1.66267
|134>    H      -12.18448        25.10949        -0.49516
|135>    H      -13.34474        25.53470        -1.75622
|136>    H      -16.41959        26.54520        -0.67531
|137>    H      -17.15263        27.90623        -2.59604
|138>    H      -17.06123        27.00674        -4.87567
|139>    H      -16.23044        24.71659        -5.28913
|140> *
|141>
|142>                          ****END OF INPUT****

CARTESIAN COORDINATES (ANGSTROEM)
---------------------------------
  C     -2.802560   -1.019340   -0.409630
  C     -3.217750   -2.162090   -1.037010
  C     -2.402940   -3.297320   -1.237130
  N     -1.791280   -4.249970   -1.424790
  C     -4.501400   -2.357700   -1.590840
  N     -5.518320   -2.580530   -2.074190
  C     -1.468360   -0.757470    0.105410
  C     -1.409850    0.575370    0.589710
  C     -0.269080    1.115980    1.134620
  C      0.869560    0.308940    1.200900
  C      0.802500   -1.021360    0.716660
  C     -0.350350   -1.570230    0.169970
  S      2.323790   -1.834270    0.902500
  C      3.022100   -0.418560    1.608800
  C      2.163030    0.619800    1.705940
  C     -2.717970    1.222910    0.423390
  O     -3.041810    2.327260    0.795810
  C     -3.598620    0.185560   -0.204500
  C     -4.924480    0.343720   -0.387360
  C     -5.599710    1.626450   -0.253890
  C     -5.148640    2.772530   -0.913430
  F     -4.096790    2.687210   -1.735610
  C     -5.801170    3.985660   -0.774580
  F     -5.313870    5.052670   -1.425340
  C     -6.924960    4.131060    0.044000
  C     -7.383940    2.978270    0.684720
  C     -6.751000    1.756030    0.523330
  F     -7.226690    0.675470    1.158160
  F     -8.481570    3.037060    1.453310
  C     -7.572300    5.436490    0.231530
  C     -7.836060    6.251860   -0.873640
  C     -8.396790    7.492030   -0.674090
  C     -8.735600    7.913720    0.623440
  C     -8.485530    7.103190    1.719640
  C     -7.898840    5.868940    1.517440
  C     -9.358460    9.218300    0.537180
  C     -9.409150    9.597800   -0.812890
  C     -8.753130    8.552960   -1.689830
  C     -7.493600    9.206360   -2.306860
  C     -6.580950    8.282110   -3.101980
  C     -9.707260    8.024500   -2.771140
  C    -11.015700    7.505120   -2.185860
  C     -9.961630   10.800940   -1.178320
  C    -10.475310   11.655690   -0.194670
  C    -10.426740   11.259880    1.147610
  C     -9.874370   10.050850    1.518900
  C    -11.034730   12.934990   -0.572780
  C    -11.337970   13.996230    0.220710
  C    -11.856340   15.132360   -0.462130
  C    -11.971390   14.886700   -1.867130
  S    -11.382690   13.278750   -2.250090
  C    -12.489280   15.812120   -2.759580
  O    -12.657550   15.711960   -4.106240
  C    -12.341040   14.525720   -4.791360
  C    -12.903770   17.044590   -2.216030
  C    -12.767240   17.293140   -0.841030
  C    -12.246870   16.374460    0.062250
  O    -12.218120   16.809550    1.355390
  C    -11.317340   16.275520    2.294030
  S    -13.321350   18.882310   -0.422670
  C    -13.732920   19.219060   -2.099520
  C    -13.454000   18.155160   -2.904580
  C    -14.285570   20.507540   -2.457300
  C    -14.545750   21.456430   -1.459660
  C    -15.061180   22.681550   -1.802930
  C    -15.330880   22.994080   -3.144650
  C    -15.079840   22.062670   -4.139890
  C    -14.560780   20.830800   -3.791350
  C    -15.857510   24.345400   -3.205920
  C    -15.910410   24.860540   -1.901260
  C    -15.411100   23.842650   -0.902840
  C    -16.509400   23.456930    0.105420
  C    -17.773840   22.938010   -0.568480
  C    -14.173360   24.355700   -0.144010
  C    -13.031380   24.747550   -1.073830
  C    -16.374480   26.138300   -1.675280
  C    -16.786920   26.902830   -2.759090
  C    -16.735070   26.394080   -4.047670
  C    -16.270020   25.110600   -4.284380
  H     -0.258650    2.133270    1.493940
  H     -0.352570   -2.589190   -0.179490
  H      4.050200   -0.451770    1.913180
  H      2.420710    1.578390    2.118400
  H     -5.561600   -0.499850   -0.618650
  H     -7.623430    5.889760   -1.866890
  H     -8.742950    7.426770    2.716550
  H     -7.677490    5.236800    2.363470
  H     -6.916160    9.652360   -1.492670
  H     -7.830400   10.019060   -2.954690
  H     -6.134920    7.525410   -2.463480
  H     -5.774770    8.867210   -3.539430
  H     -7.116970    7.794060   -3.911620
  H     -9.216880    7.218020   -3.317490
  H     -9.919290    8.830230   -3.477070
  H    -10.827350    6.699130   -1.479750
  H    -11.656440    7.125590   -2.978490
  H    -11.546560    8.298830   -1.664930
  H    -10.003800   11.103170   -2.214970
  H    -10.838990   11.904930    1.907850
  H     -9.847170    9.761320    2.558650
  H    -11.192130   13.961700    1.282070
  H    -12.598500   14.720290   -5.832090
  H    -12.928250   13.677640   -4.429380
  H    -11.275850   14.288400   -4.724280
  H    -11.194010   17.049510    3.052700
  H    -10.345420   16.053520    1.846020
  H    -11.724180   15.379740    2.774750
  H    -13.624800   18.129350   -3.964240
  H    -14.335390   21.210250   -0.428830
  H    -15.283400   22.293020   -5.175150
  H    -14.360120   20.106290   -4.564720
  H    -16.753870   24.333860    0.708910
  H    -16.114500   22.689290    0.774300
  H    -18.194760   23.693170   -1.228780
  H    -18.519120   22.680900    0.180870
  H    -17.556990   22.049860   -1.157790
  H    -13.833020   23.573410    0.537760
  H    -14.464860   25.220110    0.456630
  H    -12.706360   23.892720   -1.662670
  H    -12.184480   25.109490   -0.495160
  H    -13.344740   25.534700   -1.756220
  H    -16.419590   26.545200   -0.675310
  H    -17.152630   27.906230   -2.596040
  H    -17.061230   27.006740   -4.875670
  H    -16.230440   24.716590   -5.289130

 Total Charge           Charge          ....    0
 Multiplicity           Mult            ....    1
 Number of Electrons    NEL             ....  570
 Basis Dimension        Dim             .... 1348

ORBITAL ENERGIES
----------------

  NO   OCC          E(Eh)            E(eV)
   0   2.0000     -88.972665     -2421.0693
   1   2.0000     -88.941252     -2420.2145
   2   2.0000     -88.932827     -2419.9852
   3   2.0000     -24.802119      -674.9000
   4   2.0000     -24.799351      -674.8246
   5   2.0000     -24.797061      -674.7623
   6   2.0000     -24.795900      -674.7307
   7   2.0000     -19.239885      -523.5439
   8   2.0000     -19.238579      -523.5083
   9   2.0000     -19.224233      -523.1180
  10   2.0000     -14.422558      -392.4577
  11   2.0000     -14.422162      -392.4470
  12   2.0000     -10.380899      -282.4786
  13   2.0000     -10.380143      -282.4580
  14   2.0000     -10.375538      -282.3328
  15   2.0000     -10.374959      -282.3170
  16   2.0000     -10.374520      -282.3050
  17   2.0000     -10.351990      -281.6920
  18   2.0000     -10.348744      -281.6036
  19   2.0000     -10.328057      -281.0407
  20   2.0000     -10.327725      -281.0317
  21   2.0000     -10.327469      -281.0247
  22   2.0000     -10.325291      -280.9654
  23   2.0000     -10.324487      -280.9436
  24   2.0000     -10.324077      -280.9324
  25   2.0000     -10.320463      -280.8341
  26   2.0000     -10.320241      -280.8280
  27   2.0000     -10.317431      -280.7516
  28   2.0000     -10.314888      -280.6824
  29   2.0000     -10.314084      -280.6605
  30   2.0000     -10.313381      -280.6414
  31   2.0000     -10.311149      -280.5806
  32   2.0000     -10.310110      -280.5523
  33   2.0000     -10.308658      -280.5128
  34   2.0000     -10.305591      -280.4294
  35   2.0000     -10.297689      -280.2144
  36   2.0000     -10.295599      -280.1575
  37   2.0000     -10.294709      -280.1333
  38   2.0000     -10.294373      -280.1241
  39   2.0000     -10.288670      -279.9689
  40   2.0000     -10.287569      -279.9390
  41   2.0000     -10.284545      -279.8567
  42   2.0000     -10.280663      -279.7511
  43   2.0000     -10.278891      -279.7028
  44   2.0000     -10.278690      -279.6974
  45   2.0000     -10.274583      -279.5856
  46   2.0000     -10.274478      -279.5828
  47   2.0000     -10.273674      -279.5609
  48   2.0000     -10.273674      -279.5609
  49   2.0000     -10.272682      -279.5339
  50   2.0000     -10.272197      -279.5207
  51   2.0000     -10.271204      -279.4937
  52   2.0000     -10.270027      -279.4616
  53   2.0000     -10.269875      -279.4575
  54   2.0000     -10.269689      -279.4524
  55   2.0000     -10.269039      -279.4348
  56   2.0000     -10.268616      -279.4232
  57   2.0000     -10.267247      -279.3860
  58   2.0000     -10.264898      -279.3221
  59   2.0000     -10.262630      -279.2604
  60   2.0000     -10.262371      -279.2533
  61   2.0000     -10.262335      -279.2523
  62   2.0000     -10.261087      -279.2184
  63   2.0000     -10.260332      -279.1978
  64   2.0000     -10.260111      -279.1918
  65   2.0000     -10.259708      -279.1809
  66   2.0000     -10.259241      -279.1681
  67   2.0000     -10.259216      -279.1675
  68   2.0000     -10.258784      -279.1557
  69   2.0000     -10.258217      -279.1403
  70   2.0000     -10.257713      -279.1266
  71   2.0000     -10.256862      -279.1034
  72   2.0000     -10.256590      -279.0960
  73   2.0000     -10.253811      -279.0204
  74   2.0000     -10.253711      -279.0177
  75   2.0000     -10.248627      -278.8793
  76   2.0000     -10.245795      -278.8023
  77   2.0000     -10.237183      -278.5679
  78   2.0000     -10.236979      -278.5624
  79   2.0000      -8.068912      -219.5663
  80   2.0000      -8.036120      -218.6740
  81   2.0000      -8.027649      -218.4434
  82   2.0000      -6.038409      -164.3135
  83   2.0000      -6.034112      -164.1965
  84   2.0000      -6.030594      -164.1008
  85   2.0000      -6.005965      -163.4306
  86   2.0000      -6.001724      -163.3152
  87   2.0000      -5.997304      -163.1949
  88   2.0000      -5.997240      -163.1932
  89   2.0000      -5.993206      -163.0834
  90   2.0000      -5.989160      -162.9733
  91   2.0000      -1.322594       -35.9896
  92   2.0000      -1.321404       -35.9572
  93   2.0000      -1.305791       -35.5324
  94   2.0000      -1.305212       -35.5166
  95   2.0000      -1.143682       -31.1212
  96   2.0000      -1.140893       -31.0453
  97   2.0000      -1.139862       -31.0172
  98   2.0000      -1.027031       -27.9469
  99   2.0000      -1.014754       -27.6128
 100   2.0000      -1.000641       -27.2288
 101   2.0000      -0.995117       -27.0785
 102   2.0000      -0.991106       -26.9694
 103   2.0000      -0.987391       -26.8683
 104   2.0000      -0.983129       -26.7523
 105   2.0000      -0.977076       -26.5876
 106   2.0000      -0.965770       -26.2799
 107   2.0000      -0.947558       -25.7844
 108   2.0000      -0.938037       -25.5253
 109   2.0000      -0.931093       -25.3363
 110   2.0000      -0.922873       -25.1127
 111   2.0000      -0.912337       -24.8259
 112   2.0000      -0.904240       -24.6056
 113   2.0000      -0.894433       -24.3387
 114   2.0000      -0.891380       -24.2557
 115   2.0000      -0.887837       -24.1593
 116   2.0000      -0.874944       -23.8085
 117   2.0000      -0.863920       -23.5085
 118   2.0000      -0.860317       -23.4104
 119   2.0000      -0.851783       -23.1782
 120   2.0000      -0.849605       -23.1189
 121   2.0000      -0.837383       -22.7864
 122   2.0000      -0.834226       -22.7004
 123   2.0000      -0.833963       -22.6933
 124   2.0000      -0.829804       -22.5801
 125   2.0000      -0.828414       -22.5423
 126   2.0000      -0.827794       -22.5254
 127   2.0000      -0.823369       -22.4050
 128   2.0000      -0.820702       -22.3324
 129   2.0000      -0.818888       -22.2831
 130   2.0000      -0.805504       -21.9189
 131   2.0000      -0.798439       -21.7266
 132   2.0000      -0.791652       -21.5420
 133   2.0000      -0.784502       -21.3474
 134   2.0000      -0.768247       -20.9051
 135   2.0000      -0.764810       -20.8115
 136   2.0000      -0.763946       -20.7880
 137   2.0000      -0.750840       -20.4314
 138   2.0000      -0.749746       -20.4016
 139   2.0000      -0.736366       -20.0375
 140   2.0000      -0.733068       -19.9478
 141   2.0000      -0.724433       -19.7128
 142   2.0000      -0.714977       -19.4555
 143   2.0000      -0.707645       -19.2560
 144   2.0000      -0.705218       -19.1900
 145   2.0000      -0.696426       -18.9507
 146   2.0000      -0.693878       -18.8814
 147   2.0000      -0.690672       -18.7941
 148   2.0000      -0.686461       -18.6796
 149   2.0000      -0.680690       -18.5225
 150   2.0000      -0.674349       -18.3500
 151   2.0000      -0.668496       -18.1907
 152   2.0000      -0.667431       -18.1617
 153   2.0000      -0.664954       -18.0943
 154   2.0000      -0.664780       -18.0896
 155   2.0000      -0.659526       -17.9466
 156   2.0000      -0.656826       -17.8731
 157   2.0000      -0.655034       -17.8244
 158   2.0000      -0.646876       -17.6024
 159   2.0000      -0.645340       -17.5606
 160   2.0000      -0.642162       -17.4741
 161   2.0000      -0.633272       -17.2322
 162   2.0000      -0.626477       -17.0473
 163   2.0000      -0.621536       -16.9129
 164   2.0000      -0.620003       -16.8711
 165   2.0000      -0.616202       -16.7677
 166   2.0000      -0.614086       -16.7101
 167   2.0000      -0.602231       -16.3875
 168   2.0000      -0.600850       -16.3500
 169   2.0000      -0.595704       -16.2099
 170   2.0000      -0.595138       -16.1945
 171   2.0000      -0.594529       -16.1779
 172   2.0000      -0.585987       -15.9455
 173   2.0000      -0.583619       -15.8811
 174   2.0000      -0.579948       -15.7812
 175   2.0000      -0.575560       -15.6618
 176   2.0000      -0.574274       -15.6268
 177   2.0000      -0.567000       -15.4289
 178   2.0000      -0.565200       -15.3799
 179   2.0000      -0.554933       -15.1005
 180   2.0000      -0.553728       -15.0677
 181   2.0000      -0.552526       -15.0350
 182   2.0000      -0.550610       -14.9829
 183   2.0000      -0.548057       -14.9134
 184   2.0000      -0.547953       -14.9106
 185   2.0000      -0.546702       -14.8765
 186   2.0000      -0.542463       -14.7612
 187   2.0000      -0.541360       -14.7311
 188   2.0000      -0.539292       -14.6749
 189   2.0000      -0.536556       -14.6004
 190   2.0000      -0.535659       -14.5760
 191   2.0000      -0.533216       -14.5095
 192   2.0000      -0.530552       -14.4370
 193   2.0000      -0.527714       -14.3598
 194   2.0000      -0.527159       -14.3447
 195   2.0000      -0.524437       -14.2707
 196   2.0000      -0.523903       -14.2561
 197   2.0000      -0.521488       -14.1904
 198   2.0000      -0.518838       -14.1183
 199   2.0000      -0.517485       -14.0815
 200   2.0000      -0.515473       -14.0267
 201   2.0000      -0.513631       -13.9766
 202   2.0000      -0.510417       -13.8892
 203   2.0000      -0.508046       -13.8246
 204   2.0000      -0.507423       -13.8077
 205   2.0000      -0.506946       -13.7947
 206   2.0000      -0.506370       -13.7790
 207   2.0000      -0.502772       -13.6811
 208   2.0000      -0.497851       -13.5472
 209   2.0000      -0.496916       -13.5218
 210   2.0000      -0.496086       -13.4992
 211   2.0000      -0.493845       -13.4382
 212   2.0000      -0.490472       -13.3464
 213   2.0000      -0.489293       -13.3143
 214   2.0000      -0.486205       -13.2303
 215   2.0000      -0.484736       -13.1903
 216   2.0000      -0.479668       -13.0524
 217   2.0000      -0.474296       -12.9062
 218   2.0000      -0.473693       -12.8898
 219   2.0000      -0.467893       -12.7320
 220   2.0000      -0.467606       -12.7242
 221   2.0000      -0.465525       -12.6676
 222   2.0000      -0.462530       -12.5861
 223   2.0000      -0.461243       -12.5511
 224   2.0000      -0.460032       -12.5181
 225   2.0000      -0.459055       -12.4915
 226   2.0000      -0.456539       -12.4231
 227   2.0000      -0.455060       -12.3828
 228   2.0000      -0.454303       -12.3622
 229   2.0000      -0.451483       -12.2855
 230   2.0000      -0.449744       -12.2381
 231   2.0000      -0.446307       -12.1446
 232   2.0000      -0.444256       -12.0888
 233   2.0000      -0.444152       -12.0860
 234   2.0000      -0.440973       -11.9995
 235   2.0000      -0.440042       -11.9742
 236   2.0000      -0.439129       -11.9493
 237   2.0000      -0.436868       -11.8878
 238   2.0000      -0.435379       -11.8473
 239   2.0000      -0.433703       -11.8017
 240   2.0000      -0.432843       -11.7782
 241   2.0000      -0.429322       -11.6824
 242   2.0000      -0.428461       -11.6590
 243   2.0000      -0.427694       -11.6382
 244   2.0000      -0.426768       -11.6129
 245   2.0000      -0.426022       -11.5926
 246   2.0000      -0.420829       -11.4513
 247   2.0000      -0.419824       -11.4240
 248   2.0000      -0.416166       -11.3244
 249   2.0000      -0.415496       -11.3062
 250   2.0000      -0.413729       -11.2581
 251   2.0000      -0.411308       -11.1923
 252   2.0000      -0.409943       -11.1551
 253   2.0000      -0.408601       -11.1186
 254   2.0000      -0.406575       -11.0635
 255   2.0000      -0.401790       -10.9333
 256   2.0000      -0.397231       -10.8092
 257   2.0000      -0.393916       -10.7190
 258   2.0000      -0.390453       -10.6248
 259   2.0000      -0.386493       -10.5170
 260   2.0000      -0.385289       -10.4842
 261   2.0000      -0.384192       -10.4544
 262   2.0000      -0.383274       -10.4294
 263   2.0000      -0.378579       -10.3016
 264   2.0000      -0.377041       -10.2598
 265   2.0000      -0.374090       -10.1795
 266   2.0000      -0.370843       -10.0911
 267   2.0000      -0.359924        -9.7940
 268   2.0000      -0.354797        -9.6545
 269   2.0000      -0.348751        -9.4900
 270   2.0000      -0.332890        -9.0584
 271   2.0000      -0.331429        -9.0186
 272   2.0000      -0.321403        -8.7458
 273   2.0000      -0.320489        -8.7209
 274   2.0000      -0.317423        -8.6375
 275   2.0000      -0.314837        -8.5672
 276   2.0000      -0.313618        -8.5340
 277   2.0000      -0.309780        -8.4295
 278   2.0000      -0.308131        -8.3847
 279   2.0000      -0.302298        -8.2259
 280   2.0000      -0.300114        -8.1665
 281   2.0000      -0.293361        -7.9828
 282   2.0000      -0.264518        -7.1979
 283   2.0000      -0.251158        -6.8344
 284   2.0000      -0.220989        -6.0134
 285   0.0000      -0.094754        -2.5784
 286   0.0000      -0.063612        -1.7310
 287   0.0000      -0.036936        -1.0051
 288   0.0000      -0.017560        -0.4778
 289   0.0000      -0.006851        -0.1864

MULLIKEN ATOMIC CHARGES
-----------------------
   0 C :    0.301692
   1 C :   -0.332467
   2 C :   -0.183047
   3 N :    0.155753
   4 C :   -0.199378
   5 N :    0.168541
   6 C :    0.015754
   7 C :   -0.018025
   8 C :   -0.057929
   9 C :    0.113418
  10 C :   -0.094620
  11 C :   -0.018429
  12 S :    0.146166
  13 C :   -0.046687
  14 C :    0.027151
  15 C :    0.148059
  16 O :   -0.139885
  17 C :   -0.066247
  18 C :   -0.017692
  19 C :   -0.119989
  20 C :    0.248027
  21 F :   -0.166661
  22 C :    0.182263
  23 F :   -0.166442
  24 C :   -0.071536
  25 C :    0.181096
  26 C :    0.202135
  27 F :   -0.164491
  28 F :   -0.168327
  29 C :    0.058345
  30 C :   -0.068540
  31 C :    0.008088
  32 C :    0.115849
  33 C :   -0.067642
  34 C :    0.021179
  35 C :    0.104047
  36 C :    0.020812
  37 C :   -0.131148
  38 C :    0.073868
  39 C :    0.028801
  40 C :    0.052598
  41 C :    0.023273
  42 C :   -0.127903
  43 C :    0.151527
  44 C :   -0.033724
  45 C :   -0.050242
  46 C :   -0.013908
  47 C :   -0.083323
  48 C :    0.065927
  49 C :   -0.121406
  50 S :    0.040065
  51 C :    0.111123
  52 O :   -0.313323
  53 C :    0.174771
  54 C :    0.062006
  55 C :   -0.097849
  56 C :    0.110807
  57 O :   -0.321754
  58 C :    0.187940
  59 S :    0.102063
  60 C :   -0.028387
  61 C :   -0.075683
  62 C :    0.164572
  63 C :   -0.132554
  64 C :    0.010931
  65 C :    0.108448
  66 C :   -0.049726
  67 C :   -0.036662
  68 C :    0.114841
  69 C :   -0.000634
  70 C :   -0.140390
  71 C :    0.068367
  72 C :    0.026416
  73 C :    0.069406
  74 C :    0.026919
  75 C :   -0.049332
  76 C :    0.028221
  77 C :    0.035609
  78 C :   -0.063926
  79 H :   -0.009334
  80 H :   -0.006384
  81 H :    0.041509
  82 H :   -0.004468
  83 H :    0.051572
  84 H :   -0.026675
  85 H :   -0.033558
  86 H :   -0.018385
  87 H :    0.005584
  88 H :   -0.003211
  89 H :    0.023809
  90 H :    0.011755
  91 H :    0.001947
  92 H :    0.007257
  93 H :   -0.001802
  94 H :    0.021280
  95 H :    0.009737
  96 H :    0.022829
  97 H :   -0.024726
  98 H :   -0.033282
  99 H :   -0.036375
 100 H :   -0.050510
 101 H :    0.034746
 102 H :    0.033564
 103 H :    0.031952
 104 H :    0.033199
 105 H :    0.028903
 106 H :    0.028815
 107 H :   -0.025057
 108 H :   -0.022035
 109 H :   -0.039526
 110 H :   -0.031171
 111 H :   -0.005621
 112 H :   -0.002165
 113 H :    0.021491
 114 H :    0.006093
 115 H :    0.022478
 116 H :   -0.002818
 117 H :   -0.005851
 118 H :    0.022038
 119 H :    0.005352
 120 H :    0.020716
 121 H :   -0.037594
 122 H :   -0.022346
 123 H :   -0.022273
 124 H :   -0.038434
Sum of atomic charges:   -0.0000000

LOEWDIN ATOMIC CHARGES
----------------------
   0 C :    0.073958
   1 C :   -0.127278
   2 C :   -0.017389
   3 N :   -0.044783
   4 C :   -0.021756
   5 N :   -0.040615
   6 C :   -0.022438
   7 C :   -0.053602
   8 C :    0.027506
   9 C :   -0.032477
  10 C :   -0.143471
  11 C :   -0.006576
  12 S :    0.434041
  13 C :   -0.145752
  14 C :   -0.056817
  15 C :    0.084995
  16 O :   -0.129229
  17 C :   -0.066186
  18 C :    0.076469
  19 C :   -0.081005
  20 C :    0.076823
  21 F :   -0.041163
  22 C :    0.059845
  23 F :   -0.044937
  24 C :   -0.045059
  25 C :    0.055284
  26 C :    0.070492
  27 F :   -0.046640
  28 F :   -0.046259
  29 C :   -0.028442
  30 C :   -0.009524
  31 C :    0.002117
  32 C :   -0.007630
  33 C :   -0.020894
  34 C :   -0.005613
  35 C :   -0.021467
  36 C :    0.009445
  37 C :   -0.034544
  38 C :   -0.009553
  39 C :   -0.059989
  40 C :   -0.014945
  41 C :   -0.056705
  42 C :   -0.029851
  43 C :   -0.030853
  44 C :   -0.016537
  45 C :   -0.015308
  46 C :   -0.150174
  47 C :   -0.061765
  48 C :   -0.072978
  49 C :   -0.186370
  50 S :    0.391639
  51 C :    0.026247
  52 O :   -0.105687
  53 C :    0.063241
  54 C :   -0.060937
  55 C :   -0.173575
  56 C :    0.021008
  57 O :   -0.115036
  58 C :    0.078614
  59 S :    0.408451
  60 C :   -0.142819
  61 C :   -0.051088
  62 C :   -0.034130
  63 C :   -0.030237
  64 C :    0.003751
  65 C :   -0.018532
  66 C :   -0.018549
  67 C :   -0.014228
  68 C :   -0.018681
  69 C :    0.001243
  70 C :   -0.035930
  71 C :   -0.011699
  72 C :   -0.057778
  73 C :   -0.011739
  74 C :   -0.057676
  75 C :   -0.028804
  76 C :   -0.025041
  77 C :   -0.027118
  78 C :   -0.022580
  79 H :    0.041959
  80 H :    0.041259
  81 H :    0.030771
  82 H :    0.036383
  83 H :    0.050092
  84 H :    0.026132
  85 H :    0.027649
  86 H :    0.028988
  87 H :    0.026831
  88 H :    0.019980
  89 H :    0.024534
  90 H :    0.027986
  91 H :    0.019609
  92 H :    0.020045
  93 H :    0.020483
  94 H :    0.025612
  95 H :    0.024219
  96 H :    0.025689
  97 H :    0.016583
  98 H :    0.025519
  99 H :    0.027127
 100 H :    0.022936
 101 H :    0.029066
 102 H :    0.012139
 103 H :    0.010367
 104 H :    0.027969
 105 H :    0.018386
 106 H :    0.012986
 107 H :    0.028160
 108 H :    0.016312
 109 H :    0.025932
 110 H :    0.026436
 111 H :    0.018697
 112 H :    0.019989
 113 H :    0.025497
 114 H :    0.022837
 115 H :    0.025993
 116 H :    0.019770
 117 H :    0.018719
 118 H :    0.025857
 119 H :    0.022551
 120 H :    0.025382
 121 H :    0.024006
 122 H :    0.025461
 123 H :    0.025929
 124 H :    0.024446

  Mayer bond orders larger than 0.100000
B(  0-C ,  1-C ) :   1.6668 B(  0-C ,  6-C ) :   1.0202 B(  0-C , 17-C ) :   1.0308
B(  1-C ,  2-C ) :   1.1350 B(  1-C ,  4-C ) :   1.1425 B(  2-C ,  3-N ) :   2.9734
B(  4-C ,  5-N ) :   2.9845 B(  6-C ,  7-C ) :   1.2642 B(  6-C , 11-C ) :   1.4021
B(  7-C ,  8-C ) :   1.4222 B(  7-C , 15-C ) :   0.9528 B(  8-C ,  9-C ) :   1.2502
B(  8-C , 79-H ) :   1.0159 B(  9-C , 10-C ) :   1.2929 B(  9-C , 14-C ) :   1.1734
B( 10-C , 11-C ) :   1.3339 B( 10-C , 12-S ) :   1.1013 B( 11-C , 80-H ) :   0.9816
B( 12-S , 13-C ) :   1.1278 B( 13-C , 14-C ) :   1.6274 B( 13-C , 81-H ) :   0.9680
B( 14-C , 82-H ) :   0.9995 B( 15-C , 16-O ) :   2.2267 B( 15-C , 17-C ) :   0.9162
B( 17-C , 18-C ) :   1.7744 B( 18-C , 19-C ) :   0.9935 B( 18-C , 83-H ) :   0.9393
B( 19-C , 20-C ) :   1.3153 B( 19-C , 24-C ) :   0.1306 B( 19-C , 26-C ) :   1.3211
B( 20-C , 21-F ) :   1.1585 B( 20-C , 22-C ) :   1.3086 B( 22-C , 23-F ) :   1.1438
B( 22-C , 24-C ) :   1.3351 B( 24-C , 25-C ) :   1.3306 B( 24-C , 29-C ) :   0.9472
B( 25-C , 26-C ) :   1.2818 B( 25-C , 28-F ) :   1.1601 B( 26-C , 27-F ) :   1.1856
B( 29-C , 30-C ) :   1.3306 B( 29-C , 34-C ) :   1.3903 B( 30-C , 31-C ) :   1.4078
B( 30-C , 84-H ) :   0.9979 B( 31-C , 32-C ) :   1.3814 B( 31-C , 37-C ) :   0.9160
B( 32-C , 33-C ) :   1.3421 B( 32-C , 35-C ) :   0.9907 B( 33-C , 34-C ) :   1.3830
B( 33-C , 85-H ) :   0.9939 B( 34-C , 86-H ) :   0.9878 B( 35-C , 36-C ) :   1.3854
B( 35-C , 45-C ) :   1.3299 B( 36-C , 37-C ) :   0.9248 B( 36-C , 42-C ) :   1.3960
B( 37-C , 38-C ) :   1.0137 B( 37-C , 40-C ) :   1.0319 B( 38-C , 39-C ) :   1.1161
B( 38-C , 87-H ) :   0.9389 B( 38-C , 88-H ) :   0.9368 B( 39-C , 89-H ) :   0.9592
B( 39-C , 90-H ) :   0.9583 B( 39-C , 91-H ) :   0.9623 B( 40-C , 41-C ) :   1.1028
B( 40-C , 92-H ) :   0.9388 B( 40-C , 93-H ) :   0.9392 B( 41-C , 94-H ) :   0.9654
B( 41-C , 95-H ) :   0.9645 B( 41-C , 96-H ) :   0.9630 B( 42-C , 43-C ) :   1.2965
B( 42-C , 97-H ) :   0.9913 B( 43-C , 44-C ) :   1.3597 B( 43-C , 46-C ) :   1.0441
B( 44-C , 45-C ) :   1.3904 B( 44-C , 98-H ) :   0.9875 B( 45-C , 99-H ) :   0.9914
B( 46-C , 47-C ) :   1.6148 B( 46-C , 50-S ) :   1.0553 B( 47-C , 48-C ) :   1.1333
B( 47-C ,100-H ) :   0.9910 B( 48-C , 49-C ) :   1.2721 B( 48-C , 56-C ) :   1.2442
B( 49-C , 50-S ) :   0.9959 B( 49-C , 51-C ) :   1.3940 B( 51-C , 52-O ) :   1.2131
B( 51-C , 54-C ) :   1.2725 B( 52-O , 53-C ) :   0.9510 B( 53-C ,101-H ) :   0.9758
B( 53-C ,102-H ) :   0.9671 B( 53-C ,103-H ) :   0.9660 B( 54-C , 55-C ) :   1.3828
B( 54-C , 61-C ) :   1.1583 B( 55-C , 56-C ) :   1.3883 B( 55-C , 59-S ) :   1.0348
B( 56-C , 57-O ) :   1.2409 B( 57-O , 58-C ) :   0.9533 B( 58-C ,104-H ) :   0.9741
B( 58-C ,105-H ) :   0.9675 B( 58-C ,106-H ) :   0.9692 B( 59-S , 60-C ) :   1.0667
B( 60-C , 61-C ) :   1.5796 B( 60-C , 62-C ) :   1.0495 B( 61-C ,107-H ) :   1.0037
B( 62-C , 63-C ) :   1.2902 B( 62-C , 67-C ) :   1.3622 B( 63-C , 64-C ) :   1.4036
B( 63-C ,108-H ) :   0.9928 B( 64-C , 65-C ) :   1.3767 B( 64-C , 70-C ) :   0.9182
B( 65-C , 66-C ) :   1.3386 B( 65-C , 68-C ) :   0.9862 B( 66-C , 67-C ) :   1.3859
B( 66-C ,109-H ) :   0.9910 B( 67-C ,110-H ) :   0.9880 B( 68-C , 69-C ) :   1.3743
B( 68-C , 78-C ) :   1.3601 B( 69-C , 70-C ) :   0.9199 B( 69-C , 75-C ) :   1.4040
B( 70-C , 71-C ) :   1.0373 B( 70-C , 73-C ) :   1.0377 B( 71-C , 72-C ) :   1.1021
B( 71-C ,111-H ) :   0.9393 B( 71-C ,112-H ) :   0.9392 B( 72-C ,113-H ) :   0.9641
B( 72-C ,114-H ) :   0.9636 B( 72-C ,115-H ) :   0.9644 B( 73-C , 74-C ) :   1.1016
B( 73-C ,116-H ) :   0.9391 B( 73-C ,117-H ) :   0.9392 B( 74-C ,118-H ) :   0.9641
B( 74-C ,119-H ) :   0.9640 B( 74-C ,120-H ) :   0.9645 B( 75-C , 76-C ) :   1.3539
B( 75-C ,121-H ) :   1.0030 B( 76-C , 77-C ) :   1.3928 B( 76-C ,122-H ) :   0.9851
B( 77-C , 78-C ) :   1.3727 B( 77-C ,123-H ) :   0.9845 B( 78-C ,124-H ) :   0.9912

-----------------------------------------------------------------------------
         ABSORPTION SPECTRUM VIA TRANSITION ELECTRIC DIPOLE MOMENTS
-----------------------------------------------------------------------------
State   Energy  Wavelength   fosc         T2         TX        TY        TZ
        (cm-1)    (nm)                  (au**2)     (au)      (au)      (au)
-----------------------------------------------------------------------------
   0   21055.2    474.9   0.220123699   3.44178  -0.89716   1.62352   0.03301
   1   24774.1    403.6   1.636850827  21.75139   1.91359  -4.24953  -0.17616
   2   25214.4    396.6   0.060762114   0.79334   0.70335  -0.54371   0.05494
   3   27533.8    363.2   0.175313720   2.09617   1.35913  -0.08272   0.49204
   4   27745.7    360.4   0.026701040   0.31682  -0.21028  -0.43504  -0.28868
   5   27917.7    358.2   0.032682376   0.38540  -0.07983  -0.57639  -0.21632
   6   29338.9    340.8   0.032426277   0.36386   0.51186   0.07378  -0.31050
   7   29800.9    335.6   0.034573343   0.38193  -0.19974   0.52165   0.26442
   8   30208.6    331.0   0.081169013   0.88458   0.73750   0.52025   0.26459
   9   30777.9    324.9   0.192735538   2.06157   0.69568  -1.02431   0.72691
  10   31059.6    322.0   0.608883062   6.45377   1.09385  -2.13506   0.83593
  11   31232.9    320.2   0.952001181  10.03462   1.24022  -2.84087   0.65262
  12   33251.7    300.7   0.187305010   1.85443  -1.35683   0.05108  -0.10405
  13   33804.3    295.8   0.643811210   6.26993  -1.89579  -1.18653  -1.12609
  14   33973.0    294.4   0.161206631   1.56215  -0.99789   0.72389  -0.20579
  15   35295.4    283.3   0.041474808   0.38685  -0.18054   0.59000   0.07844
  16   35966.8    278.0   0.020436065   0.18706  -0.25457   0.33611   0.09635
  17   36047.4    277.4   0.043396707   0.39633  -0.32270   0.44889  -0.30115
  18   36744.2    272.2   0.010102925   0.09052  -0.23627  -0.03086   0.18369
  19   36820.1    271.6   0.002402881   0.02148  -0.03880   0.09116  -0.10802
  20   37431.1    267.2   0.004693613   0.04128  -0.14977  -0.11571   0.07391
  21   37656.8    265.6   0.093242341   0.81516  -0.42323   0.74662  -0.28037
  22   38258.6    261.4   0.086658776   0.74569   0.86110  -0.03663   0.05345
  23   38696.5    258.4   0.249011411   2.11847  -0.72802   1.23632  -0.24489
  24   38908.5    257.0   0.136301862   1.15327  -0.47311   0.95946  -0.09427
  25   39321.2    254.3   0.198355249   1.66070  -0.44215   1.16021   0.34515
  26   39720.2    251.8   0.042821652   0.35492  -0.44049   0.39896   0.04143
  27   40276.8    248.3   0.242667590   1.98350   0.61009  -1.23213   0.30521

FINAL SINGLE POINT ENERGY     -4505.466194646503

DIPOLE MOMENT
-------------
                                X             Y             Z
Electronic contribution:    100.10866    -206.42453      18.75820
Nuclear contribution   :    -98.02144     207.54340     -17.54312
                        -----------------------------------------
Total Dipole Moment    :      2.08722       1.11886       1.21509
                        -----------------------------------------
Magnitude (a.u.)       :      2.66172
Magnitude (Debye)      :      6.76557

Rotational constants in cm-1:     0.002906     0.000136     0.000134
Rotational constants in MHz :    87.114571     4.068194     4.025791

                             ****ORCA TERMINATED NORMALLY****
TOTAL RUN TIME: 0 days 0 hours 13 minutes 23 seconds 857 msec
