                         Program Version 4.2.0 -  RELEASE  -
|  1> # ORCA input file
|  2> # SCF done       -203.223398857494          0.000420513470
|  3> ! CAM-B3LYP def2-SVP def2/J RIJCOSX Grid4 TightSCF
|  4> %maxcore 5000
|  5> %tddft
|  6>     Mode sTDDFT
|  7>     Ethresh 5.0
|  8>     maxcore 5000
|  9> end
| 10>
| 11> %pal
| 12>   nprocs 6
| 13>   end
| 14> * xyz 0 1
| 15>    C       -1.72005         4.08412         1.03603
| 16>    C       -1.39307         4.43787         2.32139
| 17>    C       -0.10001         4.81906         2.73163
| 18>    N        0.92934         5.14674         3.12117
| 19>    C       -2.29266         4.43073         3.40696
| 20>    N       -2.96260         4.42325         4.34007
| 21>    C       -0.79275         3.97530        -0.08308
| 22>    C       -1.49379         3.45764        -1.20079
| 23>    C       -0.89052         3.24121        -2.41556
| 24>    C        0.46956         3.54579        -2.53304
| 25>    C        1.16019         4.06403        -1.41208
| 26>    C        0.54963         4.28531        -0.18274
| 27>    S        2.82555         4.37604        -1.78898
| 28>    C        2.58818         3.81984        -3.40952
| 29>    C        1.32402         3.41760        -3.66432
| 30>    C       -2.90637         3.23275        -0.83790
| 31>    O       -3.79153         2.86493        -1.58431
| 32>    C       -3.02438         3.66413         0.57330
| 33>    C       -4.20971         3.87251         1.23202
| 34>    C       -5.46417         3.34397         0.88990
| 35>    S       -6.90080         4.23661         1.33047
| 36>    C       -7.98107         3.08918         0.59672
| 37>    C       -7.24103         2.03333         0.09181
| 38>    C       -5.83239         2.15488         0.25557
| 39>    C       -5.14118         1.00707        -0.19264
| 40>    C       -5.98464         0.08076        -0.73045
| 41>    C       -5.66559        -1.22218        -1.31714
| 42>    O       -6.48794        -1.97031        -1.78666
| 43>    O       -4.35195        -1.48505        -1.27004
| 44>    C       -3.95774        -2.72952        -1.82932
| 45>    S       -7.66407         0.54385        -0.69536
| 46>    C       -9.39953         3.32505         0.56631
| 47>    C      -10.27449         2.36221         0.03982
| 48>    C      -11.62067         2.62737        -0.00278
| 49>    C      -12.12702         3.84585         0.47513
| 50>    C      -11.27254         4.80010         1.01172
| 51>    C       -9.92156         4.53257         1.05410
| 52>    C      -13.56025         3.84787         0.28202
| 53>    C      -13.94266         2.62154        -0.29375
| 54>    C      -12.73443         1.73903        -0.52409
| 55>    C      -12.46852         1.51492        -2.03099
| 56>    C      -13.42439         0.58931        -2.77117
| 57>    C      -12.72630         0.42644         0.29692
| 58>    C      -14.06803        -0.26766         0.49884
| 59>    C      -15.26603         2.40257        -0.60505
| 60>    C      -16.20980         3.40484        -0.36019
| 61>    C      -15.81914         4.60728         0.22874
| 62>    C      -14.49572         4.83519         0.55319
| 63>    C      -17.61050         3.16807        -0.73353
| 64>    C      -17.94668         2.60705        -1.97646
| 65>    O      -17.00249         2.30553        -2.93810
| 66>    C      -16.37566         3.42110        -3.53726
| 67>    C      -19.26664         2.30949        -2.25289
| 68>    C      -20.28629         2.56794        -1.33740
| 69>    C      -19.95907         3.20458        -0.12094
| 70>    C      -18.62833         3.47714         0.16222
| 71>    O      -20.99297         3.45674         0.71304
| 72>    C      -20.72649         3.99870         1.98575
| 73>    C      -21.65723         2.24159        -1.63176
| 74>    C      -22.11014         1.18078        -2.33791
| 75>    C      -21.44185        -0.02570        -2.79723
| 76>    C      -20.39114        -0.65431        -2.18484
| 77>    C      -19.83860        -1.87223        -2.63176
| 78>    N      -19.34533        -2.85421        -2.96363
| 79>    C      -19.79472        -0.22081        -0.98183
| 80>    N      -19.30999         0.02511         0.02926
| 81>    C      -22.25351        -0.58425        -3.87114
| 82>    C      -23.49351         0.10537        -3.91167
| 83>    C      -23.49041         1.17914        -2.90005
| 84>    O      -24.38996         1.93640        -2.61692
| 85>    C      -24.48999        -0.22660        -4.79812
| 86>    C      -24.24977        -1.27606        -5.69005
| 87>    C      -23.00330        -1.94664        -5.65106
| 88>    C      -21.99719        -1.61874        -4.75048
| 89>    S      -22.92501        -3.19806        -6.85097
| 90>    C      -24.52950        -2.82540        -7.37937
| 91>    C      -25.10298        -1.81096        -6.69647
| 92>    H       -1.45141         2.84813        -3.24937
| 93>    H        1.11572         4.68900         0.64015
| 94>    H        3.42407         3.82953        -4.08172
| 95>    H        0.99166         3.04252        -4.61542
| 96>    H       -4.21282         4.55941         2.07034
| 97>    H       -4.08264         0.85195        -0.11519
| 98>    H       -2.87481        -2.76898        -1.74727
| 99>    H       -4.26803        -2.79076        -2.87443
|100>    H       -4.41547        -3.55432        -1.27901
|101>    H       -9.88856         1.42241        -0.32031
|102>    H      -11.65548         5.73660         1.38755
|103>    H       -9.24236         5.26609         1.46406
|104>    H      -11.45668         1.11400        -2.12770
|105>    H      -12.47844         2.49612        -2.51510
|106>    H      -13.40496        -0.41177        -2.35068
|107>    H      -13.11155         0.51890        -3.81147
|108>    H      -14.44274         0.96455        -2.75387
|109>    H      -12.32348         0.65840         1.28689
|110>    H      -12.02885        -0.26319        -0.18253
|111>    H      -14.75534         0.36759         1.05159
|112>    H      -13.91101        -1.17672         1.07631
|113>    H      -14.53194        -0.54451        -0.44212
|114>    H      -15.60564         1.47446        -1.03132
|115>    H      -16.55701         5.37711         0.40272
|116>    H      -14.19372         5.77146         0.99815
|117>    H      -15.65605         3.01579        -4.24611
|118>    H      -15.85328         4.04076        -2.80211
|119>    H      -17.10638         4.03828        -4.07186
|120>    H      -19.50584         1.88193        -3.21539
|121>    H      -18.34939         3.90465         1.11221
|122>    H      -21.69586         4.08774         2.47319
|123>    H      -20.26604         4.98907         1.91311
|124>    H      -20.08443         3.33612         2.57293
|125>    H      -22.40657         2.94754        -1.29063
|126>    H      -25.42728         0.30789        -4.80211
|127>    H      -21.06073        -2.15182        -4.75982
|128>    H      -24.94991        -3.39876        -8.18259
|129>    H      -26.09458        -1.44188        -6.88638
|130> *
|131>
|132>                          ****END OF INPUT****

CARTESIAN COORDINATES (ANGSTROEM)
---------------------------------
  C     -1.720050    4.084120    1.036030
  C     -1.393070    4.437870    2.321390
  C     -0.100010    4.819060    2.731630
  N      0.929340    5.146740    3.121170
  C     -2.292660    4.430730    3.406960
  N     -2.962600    4.423250    4.340070
  C     -0.792750    3.975300   -0.083080
  C     -1.493790    3.457640   -1.200790
  C     -0.890520    3.241210   -2.415560
  C      0.469560    3.545790   -2.533040
  C      1.160190    4.064030   -1.412080
  C      0.549630    4.285310   -0.182740
  S      2.825550    4.376040   -1.788980
  C      2.588180    3.819840   -3.409520
  C      1.324020    3.417600   -3.664320
  C     -2.906370    3.232750   -0.837900
  O     -3.791530    2.864930   -1.584310
  C     -3.024380    3.664130    0.573300
  C     -4.209710    3.872510    1.232020
  C     -5.464170    3.343970    0.889900
  S     -6.900800    4.236610    1.330470
  C     -7.981070    3.089180    0.596720
  C     -7.241030    2.033330    0.091810
  C     -5.832390    2.154880    0.255570
  C     -5.141180    1.007070   -0.192640
  C     -5.984640    0.080760   -0.730450
  C     -5.665590   -1.222180   -1.317140
  O     -6.487940   -1.970310   -1.786660
  O     -4.351950   -1.485050   -1.270040
  C     -3.957740   -2.729520   -1.829320
  S     -7.664070    0.543850   -0.695360
  C     -9.399530    3.325050    0.566310
  C    -10.274490    2.362210    0.039820
  C    -11.620670    2.627370   -0.002780
  C    -12.127020    3.845850    0.475130
  C    -11.272540    4.800100    1.011720
  C     -9.921560    4.532570    1.054100
  C    -13.560250    3.847870    0.282020
  C    -13.942660    2.621540   -0.293750
  C    -12.734430    1.739030   -0.524090
  C    -12.468520    1.514920   -2.030990
  C    -13.424390    0.589310   -2.771170
  C    -12.726300    0.426440    0.296920
  C    -14.068030   -0.267660    0.498840
  C    -15.266030    2.402570   -0.605050
  C    -16.209800    3.404840   -0.360190
  C    -15.819140    4.607280    0.228740
  C    -14.495720    4.835190    0.553190
  C    -17.610500    3.168070   -0.733530
  C    -17.946680    2.607050   -1.976460
  O    -17.002490    2.305530   -2.938100
  C    -16.375660    3.421100   -3.537260
  C    -19.266640    2.309490   -2.252890
  C    -20.286290    2.567940   -1.337400
  C    -19.959070    3.204580   -0.120940
  C    -18.628330    3.477140    0.162220
  O    -20.992970    3.456740    0.713040
  C    -20.726490    3.998700    1.985750
  C    -21.657230    2.241590   -1.631760
  C    -22.110140    1.180780   -2.337910
  C    -21.441850   -0.025700   -2.797230
  C    -20.391140   -0.654310   -2.184840
  C    -19.838600   -1.872230   -2.631760
  N    -19.345330   -2.854210   -2.963630
  C    -19.794720   -0.220810   -0.981830
  N    -19.309990    0.025110    0.029260
  C    -22.253510   -0.584250   -3.871140
  C    -23.493510    0.105370   -3.911670
  C    -23.490410    1.179140   -2.900050
  O    -24.389960    1.936400   -2.616920
  C    -24.489990   -0.226600   -4.798120
  C    -24.249770   -1.276060   -5.690050
  C    -23.003300   -1.946640   -5.651060
  C    -21.997190   -1.618740   -4.750480
  S    -22.925010   -3.198060   -6.850970
  C    -24.529500   -2.825400   -7.379370
  C    -25.102980   -1.810960   -6.696470
  H     -1.451410    2.848130   -3.249370
  H      1.115720    4.689000    0.640150
  H      3.424070    3.829530   -4.081720
  H      0.991660    3.042520   -4.615420
  H     -4.212820    4.559410    2.070340
  H     -4.082640    0.851950   -0.115190
  H     -2.874810   -2.768980   -1.747270
  H     -4.268030   -2.790760   -2.874430
  H     -4.415470   -3.554320   -1.279010
  H     -9.888560    1.422410   -0.320310
  H    -11.655480    5.736600    1.387550
  H     -9.242360    5.266090    1.464060
  H    -11.456680    1.114000   -2.127700
  H    -12.478440    2.496120   -2.515100
  H    -13.404960   -0.411770   -2.350680
  H    -13.111550    0.518900   -3.811470
  H    -14.442740    0.964550   -2.753870
  H    -12.323480    0.658400    1.286890
  H    -12.028850   -0.263190   -0.182530
  H    -14.755340    0.367590    1.051590
  H    -13.911010   -1.176720    1.076310
  H    -14.531940   -0.544510   -0.442120
  H    -15.605640    1.474460   -1.031320
  H    -16.557010    5.377110    0.402720
  H    -14.193720    5.771460    0.998150
  H    -15.656050    3.015790   -4.246110
  H    -15.853280    4.040760   -2.802110
  H    -17.106380    4.038280   -4.071860
  H    -19.505840    1.881930   -3.215390
  H    -18.349390    3.904650    1.112210
  H    -21.695860    4.087740    2.473190
  H    -20.266040    4.989070    1.913110
  H    -20.084430    3.336120    2.572930
  H    -22.406570    2.947540   -1.290630
  H    -25.427280    0.307890   -4.802110
  H    -21.060730   -2.151820   -4.759820
  H    -24.949910   -3.398760   -8.182590
  H    -26.094580   -1.441880   -6.886380

 Total Charge           Charge          ....    0
 Multiplicity           Mult            ....    1
 Number of Electrons    NEL             ....  556
 Basis Dimension        Dim             .... 1284

ORBITAL ENERGIES
----------------

  NO   OCC          E(Eh)            E(eV)
   0   2.0000     -88.973008     -2421.0786
   1   2.0000     -88.964372     -2420.8436
   2   2.0000     -88.962591     -2420.7952
   3   2.0000     -88.961832     -2420.7745
   4   2.0000     -19.262960      -524.1718
   5   2.0000     -19.254632      -523.9452
   6   2.0000     -19.231275      -523.3096
   7   2.0000     -19.208568      -522.6917
   8   2.0000     -19.207903      -522.6736
   9   2.0000     -19.207530      -522.6635
  10   2.0000     -14.410604      -392.1325
  11   2.0000     -14.407806      -392.0563
  12   2.0000     -14.407616      -392.0512
  13   2.0000     -14.406592      -392.0233
  14   2.0000     -10.406932      -283.1870
  15   2.0000     -10.359878      -281.9066
  16   2.0000     -10.359503      -281.8964
  17   2.0000     -10.341234      -281.3993
  18   2.0000     -10.337179      -281.2889
  19   2.0000     -10.336000      -281.2569
  20   2.0000     -10.333570      -281.1907
  21   2.0000     -10.333003      -281.1753
  22   2.0000     -10.329471      -281.0792
  23   2.0000     -10.327443      -281.0240
  24   2.0000     -10.323633      -280.9203
  25   2.0000     -10.323081      -280.9053
  26   2.0000     -10.318198      -280.7725
  27   2.0000     -10.317744      -280.7601
  28   2.0000     -10.315558      -280.7006
  29   2.0000     -10.314723      -280.6779
  30   2.0000     -10.313364      -280.6409
  31   2.0000     -10.313257      -280.6380
  32   2.0000     -10.313124      -280.6344
  33   2.0000     -10.311797      -280.5983
  34   2.0000     -10.311100      -280.5793
  35   2.0000     -10.311050      -280.5779
  36   2.0000     -10.310930      -280.5747
  37   2.0000     -10.310340      -280.5586
  38   2.0000     -10.309385      -280.5326
  39   2.0000     -10.306964      -280.4667
  40   2.0000     -10.303382      -280.3693
  41   2.0000     -10.300095      -280.2798
  42   2.0000     -10.300081      -280.2795
  43   2.0000     -10.299810      -280.2721
  44   2.0000     -10.298872      -280.2466
  45   2.0000     -10.297925      -280.2208
  46   2.0000     -10.296915      -280.1933
  47   2.0000     -10.295899      -280.1657
  48   2.0000     -10.295612      -280.1579
  49   2.0000     -10.293528      -280.1011
  50   2.0000     -10.292730      -280.0794
  51   2.0000     -10.290450      -280.0174
  52   2.0000     -10.289306      -279.9862
  53   2.0000     -10.289000      -279.9779
  54   2.0000     -10.287260      -279.9306
  55   2.0000     -10.286855      -279.9196
  56   2.0000     -10.285460      -279.8816
  57   2.0000     -10.284747      -279.8622
  58   2.0000     -10.284384      -279.8523
  59   2.0000     -10.281509      -279.7741
  60   2.0000     -10.281297      -279.7683
  61   2.0000     -10.281187      -279.7653
  62   2.0000     -10.279703      -279.7249
  63   2.0000     -10.279596      -279.7220
  64   2.0000     -10.278236      -279.6850
  65   2.0000     -10.278072      -279.6806
  66   2.0000     -10.275773      -279.6180
  67   2.0000     -10.275129      -279.6005
  68   2.0000     -10.274590      -279.5858
  69   2.0000     -10.274344      -279.5791
  70   2.0000     -10.274188      -279.5749
  71   2.0000     -10.272081      -279.5175
  72   2.0000     -10.268080      -279.4087
  73   2.0000     -10.263190      -279.2756
  74   2.0000     -10.261543      -279.2308
  75   2.0000     -10.247966      -278.8613
  76   2.0000     -10.245159      -278.7849
  77   2.0000      -8.068145      -219.5454
  78   2.0000      -8.060516      -219.3378
  79   2.0000      -8.058818      -219.2916
  80   2.0000      -8.056449      -219.2271
  81   2.0000      -6.037391      -164.2858
  82   2.0000      -6.033238      -164.1727
  83   2.0000      -6.030378      -164.0949
  84   2.0000      -6.030040      -164.0857
  85   2.0000      -6.028313      -164.0387
  86   2.0000      -6.026297      -163.9839
  87   2.0000      -6.025730      -163.9684
  88   2.0000      -6.024045      -163.9226
  89   2.0000      -6.022227      -163.8731
  90   2.0000      -6.021973      -163.8662
  91   2.0000      -6.020504      -163.8263
  92   2.0000      -6.017642      -163.7484
  93   2.0000      -1.194545       -32.5052
  94   2.0000      -1.160054       -31.5667
  95   2.0000      -1.133714       -30.8499
  96   2.0000      -1.123532       -30.5729
  97   2.0000      -1.122995       -30.5582
  98   2.0000      -1.101066       -29.9615
  99   2.0000      -1.018959       -27.7273
 100   2.0000      -1.015407       -27.6306
 101   2.0000      -1.013302       -27.5733
 102   2.0000      -1.003786       -27.3144
 103   2.0000      -1.002382       -27.2762
 104   2.0000      -0.991349       -26.9760
 105   2.0000      -0.987624       -26.8746
 106   2.0000      -0.986567       -26.8459
 107   2.0000      -0.980201       -26.6726
 108   2.0000      -0.979004       -26.6401
 109   2.0000      -0.964093       -26.2343
 110   2.0000      -0.959393       -26.1064
 111   2.0000      -0.946664       -25.7600
 112   2.0000      -0.928927       -25.2774
 113   2.0000      -0.924898       -25.1677
 114   2.0000      -0.918975       -25.0066
 115   2.0000      -0.901448       -24.5297
 116   2.0000      -0.899185       -24.4681
 117   2.0000      -0.887118       -24.1397
 118   2.0000      -0.880247       -23.9527
 119   2.0000      -0.877858       -23.8877
 120   2.0000      -0.875838       -23.8328
 121   2.0000      -0.866749       -23.5854
 122   2.0000      -0.853175       -23.2161
 123   2.0000      -0.849041       -23.1036
 124   2.0000      -0.848120       -23.0785
 125   2.0000      -0.840374       -22.8678
 126   2.0000      -0.837268       -22.7832
 127   2.0000      -0.833095       -22.6697
 128   2.0000      -0.830306       -22.5938
 129   2.0000      -0.819856       -22.3094
 130   2.0000      -0.818192       -22.2641
 131   2.0000      -0.815975       -22.2038
 132   2.0000      -0.805848       -21.9282
 133   2.0000      -0.798203       -21.7202
 134   2.0000      -0.794016       -21.6063
 135   2.0000      -0.775307       -21.0972
 136   2.0000      -0.770356       -20.9625
 137   2.0000      -0.765135       -20.8204
 138   2.0000      -0.753461       -20.5027
 139   2.0000      -0.750846       -20.4316
 140   2.0000      -0.748616       -20.3709
 141   2.0000      -0.729837       -19.8599
 142   2.0000      -0.722286       -19.6544
 143   2.0000      -0.720275       -19.5997
 144   2.0000      -0.709495       -19.3063
 145   2.0000      -0.696696       -18.9581
 146   2.0000      -0.690936       -18.8013
 147   2.0000      -0.689804       -18.7705
 148   2.0000      -0.685805       -18.6617
 149   2.0000      -0.682562       -18.5735
 150   2.0000      -0.680547       -18.5186
 151   2.0000      -0.677638       -18.4395
 152   2.0000      -0.672541       -18.3008
 153   2.0000      -0.666674       -18.1411
 154   2.0000      -0.657925       -17.9030
 155   2.0000      -0.656012       -17.8510
 156   2.0000      -0.654079       -17.7984
 157   2.0000      -0.646662       -17.5966
 158   2.0000      -0.641835       -17.4652
 159   2.0000      -0.634639       -17.2694
 160   2.0000      -0.634303       -17.2602
 161   2.0000      -0.618511       -16.8305
 162   2.0000      -0.615926       -16.7602
 163   2.0000      -0.614213       -16.7136
 164   2.0000      -0.609598       -16.5880
 165   2.0000      -0.602739       -16.4014
 166   2.0000      -0.598736       -16.2924
 167   2.0000      -0.595372       -16.2009
 168   2.0000      -0.590292       -16.0626
 169   2.0000      -0.589769       -16.0484
 170   2.0000      -0.583325       -15.8731
 171   2.0000      -0.579753       -15.7759
 172   2.0000      -0.573524       -15.6064
 173   2.0000      -0.571861       -15.5611
 174   2.0000      -0.569892       -15.5075
 175   2.0000      -0.566637       -15.4190
 176   2.0000      -0.560132       -15.2420
 177   2.0000      -0.557715       -15.1762
 178   2.0000      -0.550338       -14.9755
 179   2.0000      -0.546918       -14.8824
 180   2.0000      -0.543439       -14.7877
 181   2.0000      -0.543340       -14.7850
 182   2.0000      -0.541478       -14.7344
 183   2.0000      -0.538053       -14.6412
 184   2.0000      -0.534786       -14.5523
 185   2.0000      -0.534156       -14.5351
 186   2.0000      -0.532454       -14.4888
 187   2.0000      -0.531037       -14.4503
 188   2.0000      -0.530225       -14.4282
 189   2.0000      -0.528779       -14.3888
 190   2.0000      -0.526626       -14.3302
 191   2.0000      -0.525305       -14.2943
 192   2.0000      -0.524563       -14.2741
 193   2.0000      -0.520016       -14.1503
 194   2.0000      -0.519407       -14.1338
 195   2.0000      -0.517203       -14.0738
 196   2.0000      -0.515723       -14.0335
 197   2.0000      -0.510297       -13.8859
 198   2.0000      -0.509606       -13.8671
 199   2.0000      -0.505918       -13.7667
 200   2.0000      -0.501353       -13.6425
 201   2.0000      -0.499833       -13.6012
 202   2.0000      -0.498284       -13.5590
 203   2.0000      -0.496295       -13.5049
 204   2.0000      -0.494928       -13.4677
 205   2.0000      -0.491489       -13.3741
 206   2.0000      -0.488948       -13.3050
 207   2.0000      -0.487554       -13.2670
 208   2.0000      -0.486285       -13.2325
 209   2.0000      -0.485643       -13.2150
 210   2.0000      -0.482960       -13.1420
 211   2.0000      -0.482219       -13.1219
 212   2.0000      -0.479992       -13.0613
 213   2.0000      -0.477444       -12.9919
 214   2.0000      -0.475799       -12.9471
 215   2.0000      -0.471209       -12.8223
 216   2.0000      -0.469278       -12.7697
 217   2.0000      -0.466995       -12.7076
 218   2.0000      -0.461230       -12.5507
 219   2.0000      -0.460217       -12.5232
 220   2.0000      -0.457450       -12.4478
 221   2.0000      -0.451829       -12.2949
 222   2.0000      -0.450416       -12.2564
 223   2.0000      -0.449275       -12.2254
 224   2.0000      -0.448303       -12.1989
 225   2.0000      -0.444337       -12.0910
 226   2.0000      -0.443526       -12.0690
 227   2.0000      -0.441957       -12.0262
 228   2.0000      -0.441144       -12.0041
 229   2.0000      -0.438028       -11.9194
 230   2.0000      -0.436830       -11.8867
 231   2.0000      -0.436622       -11.8811
 232   2.0000      -0.436225       -11.8703
 233   2.0000      -0.429322       -11.6824
 234   2.0000      -0.429267       -11.6809
 235   2.0000      -0.428858       -11.6698
 236   2.0000      -0.427943       -11.6449
 237   2.0000      -0.427101       -11.6220
 238   2.0000      -0.424382       -11.5480
 239   2.0000      -0.423745       -11.5307
 240   2.0000      -0.421345       -11.4654
 241   2.0000      -0.420401       -11.4397
 242   2.0000      -0.418905       -11.3990
 243   2.0000      -0.417899       -11.3716
 244   2.0000      -0.417424       -11.3587
 245   2.0000      -0.416140       -11.3237
 246   2.0000      -0.413828       -11.2608
 247   2.0000      -0.410606       -11.1732
 248   2.0000      -0.408122       -11.1056
 249   2.0000      -0.405397       -11.0314
 250   2.0000      -0.401659       -10.9297
 251   2.0000      -0.396441       -10.7877
 252   2.0000      -0.392825       -10.6893
 253   2.0000      -0.387547       -10.5457
 254   2.0000      -0.382928       -10.4200
 255   2.0000      -0.382119       -10.3980
 256   2.0000      -0.380417       -10.3517
 257   2.0000      -0.378393       -10.2966
 258   2.0000      -0.373903       -10.1744
 259   2.0000      -0.368658       -10.0317
 260   2.0000      -0.361073        -9.8253
 261   2.0000      -0.357103        -9.7173
 262   2.0000      -0.351677        -9.5696
 263   2.0000      -0.344377        -9.3710
 264   2.0000      -0.338443        -9.2095
 265   2.0000      -0.329382        -8.9629
 266   2.0000      -0.327129        -8.9016
 267   2.0000      -0.319536        -8.6950
 268   2.0000      -0.317224        -8.6321
 269   2.0000      -0.313943        -8.5428
 270   2.0000      -0.313027        -8.5179
 271   2.0000      -0.307679        -8.3724
 272   2.0000      -0.307115        -8.3570
 273   2.0000      -0.295062        -8.0290
 274   2.0000      -0.290944        -7.9170
 275   2.0000      -0.289324        -7.8729
 276   2.0000      -0.272182        -7.4065
 277   2.0000      -0.248964        -6.7747
 278   0.0000      -0.095310        -2.5935
 279   0.0000      -0.080448        -2.1891
 280   0.0000      -0.060090        -1.6351
 281   0.0000      -0.048962        -1.3323
 282   0.0000      -0.025150        -0.6844

MULLIKEN ATOMIC CHARGES
-----------------------
   0 C :    0.300075
   1 C :   -0.347439
   2 C :   -0.186864
   3 N :    0.148163
   4 C :   -0.210679
   5 N :    0.159695
   6 C :    0.019686
   7 C :   -0.018281
   8 C :   -0.071818
   9 C :    0.113872
  10 C :   -0.095584
  11 C :   -0.026395
  12 S :    0.138126
  13 C :   -0.051435
  14 C :    0.025470
  15 C :    0.127559
  16 O :   -0.152544
  17 C :   -0.111389
  18 C :    0.016131
  19 C :   -0.133375
  20 S :    0.156188
  21 C :   -0.119182
  22 C :   -0.058827
  23 C :    0.176284
  24 C :    0.050074
  25 C :   -0.132825
  26 C :    0.209034
  27 O :   -0.200529
  28 O :   -0.298362
  29 C :    0.188351
  30 S :    0.140618
  31 C :    0.145645
  32 C :   -0.099593
  33 C :    0.009970
  34 C :    0.098623
  35 C :   -0.047089
  36 C :   -0.045382
  37 C :    0.101268
  38 C :    0.028598
  39 C :   -0.113364
  40 C :    0.058607
  41 C :    0.030863
  42 C :    0.060893
  43 C :    0.017983
  44 C :   -0.080215
  45 C :    0.012025
  46 C :   -0.002363
  47 C :   -0.061573
  48 C :    0.103282
  49 C :    0.124507
  50 O :   -0.346713
  51 C :    0.202970
  52 C :   -0.041523
  53 C :   -0.033339
  54 C :    0.279656
  55 C :   -0.164221
  56 O :   -0.300171
  57 C :    0.175925
  58 C :    0.058534
  59 C :   -0.116067
  60 C :    0.260067
  61 C :   -0.342494
  62 C :   -0.185524
  63 N :    0.155203
  64 C :   -0.177035
  65 N :    0.170913
  66 C :    0.002623
  67 C :   -0.002519
  68 C :    0.135413
  69 O :   -0.143949
  70 C :   -0.068362
  71 C :    0.108818
  72 C :   -0.094301
  73 C :   -0.022291
  74 S :    0.138550
  75 C :   -0.051295
  76 C :    0.027703
  77 H :   -0.015324
  78 H :   -0.007847
  79 H :    0.037753
  80 H :   -0.008906
  81 H :    0.026987
  82 H :   -0.000987
  83 H :    0.036716
  84 H :    0.035838
  85 H :    0.035344
  86 H :   -0.030923
  87 H :   -0.032438
  88 H :   -0.011143
  89 H :   -0.000597
  90 H :    0.000118
  91 H :    0.015886
  92 H :    0.010629
  93 H :    0.020982
  94 H :    0.008374
  95 H :    0.004962
  96 H :    0.032190
  97 H :    0.014157
  98 H :    0.014004
  99 H :   -0.008196
 100 H :   -0.026252
 101 H :   -0.035735
 102 H :    0.032023
 103 H :    0.030436
 104 H :    0.010956
 105 H :   -0.021916
 106 H :   -0.038449
 107 H :    0.043111
 108 H :    0.022572
 109 H :    0.038122
 110 H :    0.029611
 111 H :   -0.011734
 112 H :   -0.004175
 113 H :    0.038352
 114 H :   -0.007556
Sum of atomic charges:   -0.0000000

LOEWDIN ATOMIC CHARGES
----------------------
   0 C :    0.075024
   1 C :   -0.147062
   2 C :   -0.018861
   3 N :   -0.058565
   4 C :   -0.025737
   5 N :   -0.056297
   6 C :   -0.022859
   7 C :   -0.051479
   8 C :    0.019685
   9 C :   -0.036503
  10 C :   -0.147117
  11 C :   -0.009849
  12 S :    0.427249
  13 C :   -0.151628
  14 C :   -0.058863
  15 C :    0.075534
  16 O :   -0.143311
  17 C :   -0.108622
  18 C :    0.044905
  19 C :   -0.183753
  20 S :    0.479282
  21 C :   -0.146023
  22 C :   -0.187973
  23 C :   -0.036210
  24 C :    0.001592
  25 C :   -0.189117
  26 C :    0.066007
  27 O :   -0.175468
  28 O :   -0.089511
  29 C :    0.082721
  30 S :    0.442472
  31 C :   -0.045882
  32 C :   -0.015613
  33 C :    0.011628
  34 C :   -0.009396
  35 C :   -0.015762
  36 C :   -0.019587
  37 C :   -0.017009
  38 C :    0.004396
  39 C :   -0.032782
  40 C :   -0.010830
  41 C :   -0.059039
  42 C :   -0.014140
  43 C :   -0.055756
  44 C :   -0.005023
  45 C :   -0.022733
  46 C :   -0.021865
  47 C :   -0.021155
  48 C :   -0.005701
  49 C :    0.031711
  50 O :   -0.134644
  51 C :    0.076886
  52 C :   -0.007507
  53 C :   -0.068232
  54 C :    0.075159
  55 C :   -0.057209
  56 O :   -0.091076
  57 C :    0.079717
  58 C :    0.091291
  59 C :   -0.091393
  60 C :    0.067985
  61 C :   -0.134810
  62 C :   -0.018282
  63 N :   -0.054534
  64 C :   -0.014730
  65 N :   -0.049956
  66 C :   -0.020032
  67 C :   -0.055306
  68 C :    0.083638
  69 O :   -0.143571
  70 C :    0.022983
  71 C :   -0.036113
  72 C :   -0.144956
  73 C :   -0.011560
  74 S :    0.427420
  75 C :   -0.150680
  76 C :   -0.057709
  77 H :    0.038970
  78 H :    0.040284
  79 H :    0.028690
  80 H :    0.034343
  81 H :    0.044813
  82 H :    0.037897
  83 H :    0.026843
  84 H :    0.024797
  85 H :    0.024792
  86 H :    0.012703
  87 H :    0.028892
  88 H :    0.020757
  89 H :    0.021102
  90 H :    0.023793
  91 H :    0.023854
  92 H :    0.028028
  93 H :    0.024340
  94 H :    0.027384
  95 H :    0.022870
  96 H :    0.027096
  97 H :    0.028699
  98 H :    0.020995
  99 H :    0.031715
 100 H :    0.026457
 101 H :    0.026457
 102 H :    0.024172
 103 H :    0.014029
 104 H :    0.011075
 105 H :    0.034971
 106 H :    0.029878
 107 H :    0.031848
 108 H :    0.015308
 109 H :    0.022222
 110 H :    0.047162
 111 H :    0.040335
 112 H :    0.040476
 113 H :    0.029048
 114 H :    0.035004

  Mayer bond orders larger than 0.100000
B(  0-C ,  1-C ) :   1.6267 B(  0-C ,  6-C ) :   1.0029 B(  0-C , 17-C ) :   1.0809
B(  1-C ,  2-C ) :   1.1437 B(  1-C ,  4-C ) :   1.1444 B(  2-C ,  3-N ) :   2.9722
B(  4-C ,  5-N ) :   2.9977 B(  6-C ,  7-C ) :   1.2695 B(  6-C , 11-C ) :   1.4162
B(  7-C ,  8-C ) :   1.4313 B(  7-C , 15-C ) :   0.9395 B(  8-C ,  9-C ) :   1.2415
B(  8-C , 77-H ) :   1.0161 B(  9-C , 10-C ) :   1.3087 B(  9-C , 14-C ) :   1.1715
B( 10-C , 11-C ) :   1.3175 B( 10-C , 12-S ) :   1.0968 B( 11-C , 78-H ) :   0.9826
B( 12-S , 13-C ) :   1.1270 B( 13-C , 14-C ) :   1.6280 B( 13-C , 79-H ) :   0.9687
B( 14-C , 80-H ) :   0.9989 B( 15-C , 16-O ) :   2.2013 B( 15-C , 17-C ) :   0.9602
B( 17-C , 18-C ) :   1.5425 B( 18-C , 19-C ) :   1.2354 B( 18-C , 81-H ) :   0.9345
B( 19-C , 20-S ) :   1.0879 B( 19-C , 23-C ) :   1.3356 B( 20-S , 21-C ) :   1.1755
B( 21-C , 22-C ) :   1.4748 B( 21-C , 31-C ) :   1.0913 B( 22-C , 23-C ) :   1.2693
B( 22-C , 30-S ) :   1.0509 B( 23-C , 24-C ) :   1.1472 B( 24-C , 25-C ) :   1.6110
B( 24-C , 82-H ) :   0.9938 B( 25-C , 26-C ) :   0.9555 B( 25-C , 30-S ) :   1.0783
B( 26-C , 27-O ) :   2.1398 B( 26-C , 28-O ) :   1.2497 B( 28-O , 29-C ) :   0.9207
B( 29-C , 83-H ) :   0.9810 B( 29-C , 84-H ) :   0.9753 B( 29-C , 85-H ) :   0.9766
B( 31-C , 32-C ) :   1.2998 B( 31-C , 36-C ) :   1.3113 B( 32-C , 33-C ) :   1.4279
B( 32-C , 86-H ) :   0.9812 B( 33-C , 34-C ) :   1.3839 B( 33-C , 39-C ) :   0.9331
B( 34-C , 35-C ) :   1.3277 B( 34-C , 37-C ) :   0.9901 B( 35-C , 36-C ) :   1.4130
B( 35-C , 87-H ) :   0.9901 B( 36-C , 88-H ) :   0.9824 B( 37-C , 38-C ) :   1.3927
B( 37-C , 47-C ) :   1.3436 B( 38-C , 39-C ) :   0.9270 B( 38-C , 44-C ) :   1.3761
B( 39-C , 40-C ) :   1.0160 B( 39-C , 42-C ) :   0.9967 B( 40-C , 41-C ) :   1.1157
B( 40-C , 89-H ) :   0.9348 B( 40-C , 90-H ) :   0.9402 B( 41-C , 91-H ) :   0.9564
B( 41-C , 92-H ) :   0.9566 B( 41-C , 93-H ) :   0.9616 B( 42-C , 43-C ) :   1.1302
B( 42-C , 94-H ) :   0.9394 B( 42-C , 95-H ) :   0.9357 B( 43-C , 96-H ) :   0.9565
B( 43-C , 97-H ) :   0.9573 B( 43-C , 98-H ) :   0.9621 B( 44-C , 45-C ) :   1.3363
B( 44-C , 99-H ) :   1.0080 B( 45-C , 46-C ) :   1.3777 B( 45-C , 48-C ) :   0.9457
B( 46-C , 47-C ) :   1.3652 B( 46-C ,100-H ) :   0.9903 B( 47-C ,101-H ) :   0.9919
B( 48-C , 49-C ) :   1.3602 B( 48-C , 55-C ) :   1.3338 B( 49-C , 50-O ) :   1.0866
B( 49-C , 52-C ) :   1.3921 B( 50-O , 51-C ) :   0.9413 B( 51-C ,102-H ) :   0.9812
B( 51-C ,103-H ) :   0.9646 B( 51-C ,104-H ) :   0.9669 B( 52-C , 53-C ) :   1.2958
B( 52-C ,105-H ) :   1.0075 B( 53-C , 54-C ) :   1.3434 B( 53-C , 58-C ) :   1.0312
B( 54-C , 55-C ) :   1.2696 B( 54-C , 56-O ) :   1.2143 B( 55-C ,106-H ) :   0.9955
B( 56-O , 57-C ) :   0.9540 B( 57-C ,107-H ) :   0.9783 B( 57-C ,108-H ) :   0.9692
B( 57-C ,109-H ) :   0.9700 B( 58-C , 59-C ) :   1.7124 B( 58-C ,110-H ) :   0.9425
B( 59-C , 60-C ) :   1.0164 B( 59-C , 68-C ) :   0.9344 B( 60-C , 61-C ) :   1.6711
B( 60-C , 66-C ) :   1.0173 B( 61-C , 62-C ) :   1.1337 B( 61-C , 64-C ) :   1.1584
B( 62-C , 63-N ) :   2.9908 B( 64-C , 65-N ) :   3.0026 B( 66-C , 67-C ) :   1.2691
B( 66-C , 73-C ) :   1.4125 B( 67-C , 68-C ) :   0.9196 B( 67-C , 70-C ) :   1.4268
B( 68-C , 69-O ) :   2.2756 B( 70-C , 71-C ) :   1.2525 B( 70-C ,111-H ) :   1.0155
B( 71-C , 72-C ) :   1.3012 B( 71-C , 76-C ) :   1.1731 B( 72-C , 73-C ) :   1.3234
B( 72-C , 74-S ) :   1.0963 B( 73-C ,112-H ) :   0.9859 B( 74-S , 75-C ) :   1.1250
B( 75-C , 76-C ) :   1.6306 B( 75-C ,113-H ) :   0.9686 B( 76-C ,114-H ) :   0.9987

-----------------------------------------------------------------------------
         ABSORPTION SPECTRUM VIA TRANSITION ELECTRIC DIPOLE MOMENTS
-----------------------------------------------------------------------------
State   Energy  Wavelength   fosc         T2         TX        TY        TZ
        (cm-1)    (nm)                  (au**2)     (au)      (au)      (au)
-----------------------------------------------------------------------------
   0   17691.5    565.2   1.436424010  26.72970   5.05408   0.94270   0.54522
   1   22152.7    451.4   0.271107718   4.02893  -1.15786  -1.35469  -0.92364
   2   24639.0    405.9   0.009875141   0.13195  -0.18629   0.10321   0.29426
   3   26113.7    382.9   0.139679111   1.76092  -1.19239   0.26802   0.51701
   4   26790.1    373.3   0.140797742   1.73020  -0.95025   0.54518   0.72802
   5   27506.7    363.5   0.081144418   0.97117  -0.15411  -0.62938   0.74250
   6   27568.9    362.7   0.020257847   0.24191  -0.35380   0.12089   0.31956
   7   28530.1    350.5   0.147116205   1.69759  -0.78205  -0.01831  -1.04194
   8   29112.2    343.5   0.011968838   0.13535  -0.18131   0.05133  -0.31597
   9   29769.2    335.9   0.152408551   1.68546   1.12344  -0.22298   0.61124
  10   29951.2    333.9   0.100791316   1.10786  -0.35603  -0.87214  -0.46956
  11   30775.1    324.9   0.103229452   1.10428   0.04879   0.95552   0.43461
  12   30922.7    323.4   0.077567025   0.82580   0.83534   0.22535   0.27789
  13   31721.7    315.2   0.230013917   2.38711   1.28080   0.38296   0.77461
  14   31887.1    313.6   0.058573346   0.60473   0.45283   0.22160   0.59209
  15   32161.8    310.9   0.006416278   0.06568   0.20811   0.03218  -0.14605
  16   32743.7    305.4   0.541164238   5.44097   1.78331  -0.49146  -1.42101
  17   32867.8    304.2   0.320207883   3.20728   0.97887   0.08898   1.49706
  18   33374.6    299.6   0.127681426   1.25947  -0.51456   0.93295  -0.35256
  19   33534.9    298.2   0.031676937   0.31097  -0.31743  -0.33982  -0.30779
  20   33948.9    294.6   0.213604715   2.07138  -1.43863   0.01776  -0.03771
  21   34861.7    286.8   0.528304791   4.98898  -1.44604  -0.47742  -1.63402
  22   35004.1    285.7   0.384165075   3.61305  -1.53459   0.17519   1.10788
  23   35763.3    279.6   0.044992698   0.41417   0.15276   0.36683   0.50623
  24   36140.9    276.7   0.005303576   0.04831   0.17454   0.11394   0.06974
  25   36296.1    275.5   0.043715630   0.39651   0.36868  -0.16491   0.48311
  26   36495.9    274.0   0.044758681   0.40375  -0.50337   0.38766  -0.00947
  27   36844.7    271.4   0.215537944   1.92586  -0.75234  -0.53800  -1.03460
  28   37043.5    270.0   0.102042707   0.90687   0.42669   0.33771   0.78151
  29   37860.9    264.1   0.067094368   0.58341   0.59623   0.33131   0.34372
  30   38132.5    262.2   0.001472493   0.01271  -0.09775   0.03634   0.04285
  31   38769.5    257.9   0.033762238   0.28669   0.50842  -0.16131  -0.04671
  32   39194.1    255.1   0.102794174   0.86342   0.85628  -0.21116  -0.29259
  33   39472.1    253.3   0.052038697   0.43402  -0.51187  -0.36026  -0.20549
  34   39886.7    250.7   0.180216199   1.48745   0.16891  -1.08953  -0.52138

FINAL SINGLE POINT ENERGY     -4682.268991563274

DIPOLE MOMENT
-------------
                                X             Y             Z
Electronic contribution:     43.46333       6.70637       5.78945
Nuclear contribution   :    -44.77580      -6.07252      -8.91057
                        -----------------------------------------
Total Dipole Moment    :     -1.31247       0.63385      -3.12112
                        -----------------------------------------
Magnitude (a.u.)       :      3.44466
Magnitude (Debye)      :      8.75564

Rotational constants in cm-1:     0.001909     0.000200     0.000189
Rotational constants in MHz :    57.234198     6.008451     5.668569

                             ****ORCA TERMINATED NORMALLY****
TOTAL RUN TIME: 0 days 0 hours 12 minutes 21 seconds 126 msec
