                         Program Version 4.2.0 -  RELEASE  -
|  1> # ORCA input file
|  2> # SCF done       -200.136615701447          0.000431745913
|  3> ! CAM-B3LYP def2-SVP def2/J RIJCOSX Grid4 TightSCF
|  4> %maxcore 5000
|  5> %tddft
|  6>     Mode sTDDFT
|  7>     Ethresh 5.0
|  8>     maxcore 5000
|  9> end
| 10>
| 11> %pal
| 12>   nprocs 6
| 13>   end
| 14> * xyz 0 1
| 15>    C       -4.91785         2.02400         5.78910
| 16>    C       -3.72679         1.34135         5.83788
| 17>    C       -2.95918         1.17099         7.00825
| 18>    N       -2.28686         0.99166         7.92176
| 19>    C       -3.09818         0.71167         4.74528
| 20>    N       -2.52459         0.17552         3.90574
| 21>    C       -5.56770         2.67274         6.92423
| 22>    C       -6.78021         3.26073         6.47991
| 23>    C       -7.62242         3.94870         7.31885
| 24>    C       -7.25309         4.06295         8.66308
| 25>    C       -6.04277         3.47304         9.09842
| 26>    C       -5.18973         2.77717         8.24839
| 27>    S       -5.78911         3.73779        10.79428
| 28>    C       -7.27382         4.61781        10.90406
| 29>    C       -7.93496         4.71325         9.72972
| 30>    C       -6.93742         2.99964         5.04182
| 31>    O       -7.86659         3.35544         4.33237
| 32>    C       -5.76242         2.23073         4.63286
| 33>    C       -5.52002         1.78441         3.35458
| 34>    C       -6.28833         1.92078         2.19928
| 35>    S       -7.83267         2.72350         2.02241
| 36>    C       -7.94056         2.31822         0.32876
| 37>    C       -6.82371         1.59547        -0.07403
| 38>    C       -5.88869         1.37501         0.96106
| 39>    C       -4.75533         0.66168         0.51571
| 40>    C       -4.83715         0.35875        -0.81384
| 41>    C       -3.86789        -0.35381        -1.65208
| 42>    O       -4.03355        -0.58766        -2.82421
| 43>    O       -2.77931        -0.70566        -0.95852
| 44>    C       -1.77590        -1.39529        -1.69025
| 45>    S       -6.29904         0.92095        -1.58067
| 46>    C       -9.04849         2.70580        -0.45664
| 47>    C       -9.34174         2.32000        -1.75443
| 48>    C      -10.53462         2.86934        -2.22329
| 49>    C      -11.14945         3.71034        -1.29118
| 50>    S      -10.26286         3.77925         0.18740
| 51>    C      -12.30964         4.41458        -1.67972
| 52>    C      -12.90872         4.10153        -2.89320
| 53>    C      -12.38780         2.94627        -3.69472
| 54>    O      -11.00922         2.66798        -3.47052
| 55>    C      -13.99443         4.92018        -3.18559
| 56>    C      -14.23484         5.87094        -2.20896
| 57>    S      -13.08980         5.74070        -0.89612
| 58>    C      -15.23808         6.86927        -2.20270
| 59>    C      -15.40505         7.89533        -1.28718
| 60>    C      -16.48429         8.71335        -1.61241
| 61>    C      -17.15322         8.30417        -2.77992
| 62>    S      -16.44424         6.91443        -3.47974
| 63>    C      -18.21628         9.20176        -3.03521
| 64>    C      -18.21636        10.18816        -2.02645
| 65>    C      -17.12758         9.91749        -1.10616
| 66>    C      -16.76665        10.66315        -0.02258
| 67>    C      -15.67840        10.31443         0.80409
| 68>    N      -14.79848        10.02590         1.48009
| 69>    C      -17.46992        11.83424         0.33074
| 70>    N      -18.05351        12.78052         0.61165
| 71>    C      -19.19989        11.15070        -2.21174
| 72>    C      -19.95854        10.91626        -3.34916
| 73>    S      -19.45018         9.44762        -4.18001
| 74>    C      -21.04856        11.65407        -3.85842
| 75>    C      -21.39660        12.94640        -3.60554
| 76>    C      -20.70108        14.06523        -3.00514
| 77>    C      -19.34910        14.29693        -3.01720
| 78>    C      -18.74877        15.47991        -2.53773
| 79>    N      -18.20628        16.42195        -2.16999
| 80>    C      -18.40385        13.43483        -3.60437
| 81>    N      -17.59599        12.78224        -4.09496
| 82>    C      -21.70989        15.05217        -2.63529
| 83>    C      -22.95267        14.66987        -3.20384
| 84>    C      -22.79135        13.38290        -3.90165
| 85>    O      -23.61447        12.77103        -4.54406
| 86>    C      -24.08851        15.43139        -3.06786
| 87>    C      -23.99691        16.61520        -2.32925
| 88>    C      -22.75641        16.97617        -1.74950
| 89>    C      -21.60448        16.21120        -1.89224
| 90>    S      -22.88257        18.46739        -0.87244
| 91>    C      -24.55690        18.59735        -1.28596
| 92>    C      -25.00951        17.57362        -2.04232
| 93>    H       -8.53736         4.38497         6.94925
| 94>    H       -4.27893         2.34714         8.63012
| 95>    H       -7.56414         5.01544        11.85708
| 96>    H       -8.87328         5.22304         9.60654
| 97>    H       -4.60305         1.23310         3.19395
| 98>    H       -3.91479         0.38098         1.12405
| 99>    H       -0.98068        -1.60916        -0.98131
|100>    H       -1.40695        -0.77175        -2.50730
|101>    H       -2.17925        -2.31964        -2.10876
|102>    H       -8.72398         1.66279        -2.33637
|103>    H      -12.47738         3.13908        -4.76694
|104>    H      -12.97276         2.04088        -3.45544
|105>    H      -14.59230         4.83897        -4.07580
|106>    H      -14.75641         8.02661        -0.43971
|107>    H      -19.39364        11.96570        -1.53824
|108>    H      -21.74428        11.11048        -4.49076
|109>    H      -25.01898        15.12330        -3.51886
|110>    H      -20.68332        16.51912        -1.42572
|111>    H      -25.10792        19.44635        -0.93058
|112>    H      -26.02178        17.48551        -2.39316
|113> *
|114>
|115>                          ****END OF INPUT****

CARTESIAN COORDINATES (ANGSTROEM)
---------------------------------
  C     -4.917850    2.024000    5.789100
  C     -3.726790    1.341350    5.837880
  C     -2.959180    1.170990    7.008250
  N     -2.286860    0.991660    7.921760
  C     -3.098180    0.711670    4.745280
  N     -2.524590    0.175520    3.905740
  C     -5.567700    2.672740    6.924230
  C     -6.780210    3.260730    6.479910
  C     -7.622420    3.948700    7.318850
  C     -7.253090    4.062950    8.663080
  C     -6.042770    3.473040    9.098420
  C     -5.189730    2.777170    8.248390
  S     -5.789110    3.737790   10.794280
  C     -7.273820    4.617810   10.904060
  C     -7.934960    4.713250    9.729720
  C     -6.937420    2.999640    5.041820
  O     -7.866590    3.355440    4.332370
  C     -5.762420    2.230730    4.632860
  C     -5.520020    1.784410    3.354580
  C     -6.288330    1.920780    2.199280
  S     -7.832670    2.723500    2.022410
  C     -7.940560    2.318220    0.328760
  C     -6.823710    1.595470   -0.074030
  C     -5.888690    1.375010    0.961060
  C     -4.755330    0.661680    0.515710
  C     -4.837150    0.358750   -0.813840
  C     -3.867890   -0.353810   -1.652080
  O     -4.033550   -0.587660   -2.824210
  O     -2.779310   -0.705660   -0.958520
  C     -1.775900   -1.395290   -1.690250
  S     -6.299040    0.920950   -1.580670
  C     -9.048490    2.705800   -0.456640
  C     -9.341740    2.320000   -1.754430
  C    -10.534620    2.869340   -2.223290
  C    -11.149450    3.710340   -1.291180
  S    -10.262860    3.779250    0.187400
  C    -12.309640    4.414580   -1.679720
  C    -12.908720    4.101530   -2.893200
  C    -12.387800    2.946270   -3.694720
  O    -11.009220    2.667980   -3.470520
  C    -13.994430    4.920180   -3.185590
  C    -14.234840    5.870940   -2.208960
  S    -13.089800    5.740700   -0.896120
  C    -15.238080    6.869270   -2.202700
  C    -15.405050    7.895330   -1.287180
  C    -16.484290    8.713350   -1.612410
  C    -17.153220    8.304170   -2.779920
  S    -16.444240    6.914430   -3.479740
  C    -18.216280    9.201760   -3.035210
  C    -18.216360   10.188160   -2.026450
  C    -17.127580    9.917490   -1.106160
  C    -16.766650   10.663150   -0.022580
  C    -15.678400   10.314430    0.804090
  N    -14.798480   10.025900    1.480090
  C    -17.469920   11.834240    0.330740
  N    -18.053510   12.780520    0.611650
  C    -19.199890   11.150700   -2.211740
  C    -19.958540   10.916260   -3.349160
  S    -19.450180    9.447620   -4.180010
  C    -21.048560   11.654070   -3.858420
  C    -21.396600   12.946400   -3.605540
  C    -20.701080   14.065230   -3.005140
  C    -19.349100   14.296930   -3.017200
  C    -18.748770   15.479910   -2.537730
  N    -18.206280   16.421950   -2.169990
  C    -18.403850   13.434830   -3.604370
  N    -17.595990   12.782240   -4.094960
  C    -21.709890   15.052170   -2.635290
  C    -22.952670   14.669870   -3.203840
  C    -22.791350   13.382900   -3.901650
  O    -23.614470   12.771030   -4.544060
  C    -24.088510   15.431390   -3.067860
  C    -23.996910   16.615200   -2.329250
  C    -22.756410   16.976170   -1.749500
  C    -21.604480   16.211200   -1.892240
  S    -22.882570   18.467390   -0.872440
  C    -24.556900   18.597350   -1.285960
  C    -25.009510   17.573620   -2.042320
  H     -8.537360    4.384970    6.949250
  H     -4.278930    2.347140    8.630120
  H     -7.564140    5.015440   11.857080
  H     -8.873280    5.223040    9.606540
  H     -4.603050    1.233100    3.193950
  H     -3.914790    0.380980    1.124050
  H     -0.980680   -1.609160   -0.981310
  H     -1.406950   -0.771750   -2.507300
  H     -2.179250   -2.319640   -2.108760
  H     -8.723980    1.662790   -2.336370
  H    -12.477380    3.139080   -4.766940
  H    -12.972760    2.040880   -3.455440
  H    -14.592300    4.838970   -4.075800
  H    -14.756410    8.026610   -0.439710
  H    -19.393640   11.965700   -1.538240
  H    -21.744280   11.110480   -4.490760
  H    -25.018980   15.123300   -3.518860
  H    -20.683320   16.519120   -1.425720
  H    -25.107920   19.446350   -0.930580
  H    -26.021780   17.485510   -2.393160

 Total Charge           Charge          ....    0
 Multiplicity           Mult            ....    1
 Number of Electrons    NEL             ....  584
 Basis Dimension        Dim             .... 1224

ORBITAL ENERGIES
----------------

  NO   OCC          E(Eh)            E(eV)
   0   2.0000     -88.996010     -2421.7046
   1   2.0000     -88.995780     -2421.6983
   2   2.0000     -88.979623     -2421.2586
   3   2.0000     -88.975582     -2421.1487
   4   2.0000     -88.975143     -2421.1367
   5   2.0000     -88.968273     -2420.9498
   6   2.0000     -88.965272     -2420.8681
   7   2.0000     -88.963745     -2420.8266
   8   2.0000     -19.264383      -524.2105
   9   2.0000     -19.264005      -524.2002
  10   2.0000     -19.218384      -522.9588
  11   2.0000     -19.213691      -522.8311
  12   2.0000     -19.209488      -522.7167
  13   2.0000     -14.433910      -392.7666
  14   2.0000     -14.433405      -392.7529
  15   2.0000     -14.416271      -392.2867
  16   2.0000     -14.414970      -392.2513
  17   2.0000     -14.412203      -392.1760
  18   2.0000     -14.408961      -392.0877
  19   2.0000     -10.409159      -283.2476
  20   2.0000     -10.368736      -282.1477
  21   2.0000     -10.365166      -282.0505
  22   2.0000     -10.364929      -282.0440
  23   2.0000     -10.355775      -281.7950
  24   2.0000     -10.351313      -281.6735
  25   2.0000     -10.350536      -281.6524
  26   2.0000     -10.343814      -281.4695
  27   2.0000     -10.342187      -281.4252
  28   2.0000     -10.341595      -281.4091
  29   2.0000     -10.337345      -281.2935
  30   2.0000     -10.336961      -281.2830
  31   2.0000     -10.335348      -281.2391
  32   2.0000     -10.335292      -281.2376
  33   2.0000     -10.334037      -281.2034
  34   2.0000     -10.333461      -281.1878
  35   2.0000     -10.329230      -281.0726
  36   2.0000     -10.327216      -281.0178
  37   2.0000     -10.326783      -281.0060
  38   2.0000     -10.326552      -280.9998
  39   2.0000     -10.325951      -280.9834
  40   2.0000     -10.323800      -280.9249
  41   2.0000     -10.322882      -280.8999
  42   2.0000     -10.319875      -280.8181
  43   2.0000     -10.319626      -280.8113
  44   2.0000     -10.319487      -280.8075
  45   2.0000     -10.319086      -280.7966
  46   2.0000     -10.318600      -280.7834
  47   2.0000     -10.317966      -280.7661
  48   2.0000     -10.317953      -280.7658
  49   2.0000     -10.316938      -280.7382
  50   2.0000     -10.314779      -280.6794
  51   2.0000     -10.314254      -280.6651
  52   2.0000     -10.312899      -280.6282
  53   2.0000     -10.312632      -280.6210
  54   2.0000     -10.312238      -280.6103
  55   2.0000     -10.312152      -280.6079
  56   2.0000     -10.311205      -280.5822
  57   2.0000     -10.306724      -280.4602
  58   2.0000     -10.306099      -280.4432
  59   2.0000     -10.305700      -280.4324
  60   2.0000     -10.304121      -280.3894
  61   2.0000     -10.302354      -280.3413
  62   2.0000     -10.301866      -280.3280
  63   2.0000     -10.300471      -280.2901
  64   2.0000     -10.299489      -280.2634
  65   2.0000     -10.298980      -280.2495
  66   2.0000     -10.298618      -280.2396
  67   2.0000     -10.298354      -280.2325
  68   2.0000     -10.298305      -280.2311
  69   2.0000     -10.298268      -280.2301
  70   2.0000     -10.297880      -280.2196
  71   2.0000     -10.296118      -280.1716
  72   2.0000     -10.293616      -280.1035
  73   2.0000     -10.291014      -280.0327
  74   2.0000     -10.289946      -280.0037
  75   2.0000     -10.287968      -279.9498
  76   2.0000     -10.287099      -279.9262
  77   2.0000     -10.286312      -279.9048
  78   2.0000      -8.090542      -220.1548
  79   2.0000      -8.090458      -220.1526
  80   2.0000      -8.074819      -219.7270
  81   2.0000      -8.070842      -219.6188
  82   2.0000      -8.067666      -219.5324
  83   2.0000      -8.063037      -219.4064
  84   2.0000      -8.061582      -219.3668
  85   2.0000      -8.060021      -219.3243
  86   2.0000      -6.059845      -164.8968
  87   2.0000      -6.059629      -164.8909
  88   2.0000      -6.055685      -164.7836
  89   2.0000      -6.055492      -164.7783
  90   2.0000      -6.052963      -164.7095
  91   2.0000      -6.052754      -164.7038
  92   2.0000      -6.044191      -164.4708
  93   2.0000      -6.040287      -164.3646
  94   2.0000      -6.040126      -164.3602
  95   2.0000      -6.037348      -164.2846
  96   2.0000      -6.036704      -164.2671
  97   2.0000      -6.036190      -164.2531
  98   2.0000      -6.032756      -164.1596
  99   2.0000      -6.032581      -164.1549
 100   2.0000      -6.032499      -164.1526
 101   2.0000      -6.031103      -164.1146
 102   2.0000      -6.029775      -164.0785
 103   2.0000      -6.029525      -164.0717
 104   2.0000      -6.028449      -164.0424
 105   2.0000      -6.026779      -163.9970
 106   2.0000      -6.025226      -163.9547
 107   2.0000      -6.024482      -163.9345
 108   2.0000      -6.023235      -163.9006
 109   2.0000      -6.021694      -163.8586
 110   2.0000      -1.196231       -32.5511
 111   2.0000      -1.172530       -31.9062
 112   2.0000      -1.132781       -30.8245
 113   2.0000      -1.128858       -30.7178
 114   2.0000      -1.102965       -30.0132
 115   2.0000      -1.050660       -28.5899
 116   2.0000      -1.025822       -27.9140
 117   2.0000      -1.024421       -27.8759
 118   2.0000      -1.020263       -27.7628
 119   2.0000      -1.016568       -27.6622
 120   2.0000      -1.015041       -27.6207
 121   2.0000      -1.011059       -27.5123
 122   2.0000      -1.007306       -27.4102
 123   2.0000      -1.005477       -27.3604
 124   2.0000      -1.001561       -27.2539
 125   2.0000      -0.993192       -27.0261
 126   2.0000      -0.991331       -26.9755
 127   2.0000      -0.990562       -26.9545
 128   2.0000      -0.983844       -26.7718
 129   2.0000      -0.981842       -26.7173
 130   2.0000      -0.963657       -26.2224
 131   2.0000      -0.958916       -26.0934
 132   2.0000      -0.932344       -25.3704
 133   2.0000      -0.928171       -25.2568
 134   2.0000      -0.921961       -25.0878
 135   2.0000      -0.910776       -24.7835
 136   2.0000      -0.901634       -24.5347
 137   2.0000      -0.891820       -24.2676
 138   2.0000      -0.888014       -24.1641
 139   2.0000      -0.880313       -23.9545
 140   2.0000      -0.877966       -23.8907
 141   2.0000      -0.877553       -23.8794
 142   2.0000      -0.872935       -23.7538
 143   2.0000      -0.862766       -23.4771
 144   2.0000      -0.862432       -23.4680
 145   2.0000      -0.856986       -23.3198
 146   2.0000      -0.850902       -23.1542
 147   2.0000      -0.846476       -23.0338
 148   2.0000      -0.831954       -22.6386
 149   2.0000      -0.822039       -22.3688
 150   2.0000      -0.820066       -22.3151
 151   2.0000      -0.811581       -22.0843
 152   2.0000      -0.805695       -21.9241
 153   2.0000      -0.801205       -21.8019
 154   2.0000      -0.788907       -21.4673
 155   2.0000      -0.781620       -21.2689
 156   2.0000      -0.776140       -21.1199
 157   2.0000      -0.759703       -20.6726
 158   2.0000      -0.755668       -20.5628
 159   2.0000      -0.746781       -20.3210
 160   2.0000      -0.735960       -20.0265
 161   2.0000      -0.724762       -19.7218
 162   2.0000      -0.718755       -19.5583
 163   2.0000      -0.704987       -19.1837
 164   2.0000      -0.700170       -19.0526
 165   2.0000      -0.697633       -18.9835
 166   2.0000      -0.689252       -18.7555
 167   2.0000      -0.687509       -18.7081
 168   2.0000      -0.686489       -18.6803
 169   2.0000      -0.682635       -18.5754
 170   2.0000      -0.677966       -18.4484
 171   2.0000      -0.669077       -18.2065
 172   2.0000      -0.660662       -17.9775
 173   2.0000      -0.658681       -17.9236
 174   2.0000      -0.656321       -17.8594
 175   2.0000      -0.646940       -17.6041
 176   2.0000      -0.643609       -17.5135
 177   2.0000      -0.641690       -17.4613
 178   2.0000      -0.634185       -17.2571
 179   2.0000      -0.627611       -17.0782
 180   2.0000      -0.626068       -17.0362
 181   2.0000      -0.619959       -16.8699
 182   2.0000      -0.619072       -16.8458
 183   2.0000      -0.618452       -16.8289
 184   2.0000      -0.606961       -16.5162
 185   2.0000      -0.601350       -16.3636
 186   2.0000      -0.598789       -16.2939
 187   2.0000      -0.593985       -16.1631
 188   2.0000      -0.589877       -16.0514
 189   2.0000      -0.584564       -15.9068
 190   2.0000      -0.582066       -15.8388
 191   2.0000      -0.579378       -15.7657
 192   2.0000      -0.574565       -15.6347
 193   2.0000      -0.574073       -15.6213
 194   2.0000      -0.563955       -15.3460
 195   2.0000      -0.559224       -15.2173
 196   2.0000      -0.556025       -15.1302
 197   2.0000      -0.552976       -15.0472
 198   2.0000      -0.551151       -14.9976
 199   2.0000      -0.548894       -14.9362
 200   2.0000      -0.543953       -14.8017
 201   2.0000      -0.538909       -14.6645
 202   2.0000      -0.538665       -14.6578
 203   2.0000      -0.537045       -14.6137
 204   2.0000      -0.534197       -14.5362
 205   2.0000      -0.531657       -14.4671
 206   2.0000      -0.529646       -14.4124
 207   2.0000      -0.527280       -14.3480
 208   2.0000      -0.523573       -14.2471
 209   2.0000      -0.523330       -14.2405
 210   2.0000      -0.517000       -14.0683
 211   2.0000      -0.516215       -14.0469
 212   2.0000      -0.514182       -13.9916
 213   2.0000      -0.511362       -13.9149
 214   2.0000      -0.509574       -13.8662
 215   2.0000      -0.506276       -13.7765
 216   2.0000      -0.502650       -13.6778
 217   2.0000      -0.500594       -13.6218
 218   2.0000      -0.499417       -13.5898
 219   2.0000      -0.497770       -13.5450
 220   2.0000      -0.497136       -13.5278
 221   2.0000      -0.495432       -13.4814
 222   2.0000      -0.495286       -13.4774
 223   2.0000      -0.492455       -13.4004
 224   2.0000      -0.491912       -13.3856
 225   2.0000      -0.489750       -13.3268
 226   2.0000      -0.487575       -13.2676
 227   2.0000      -0.486640       -13.2422
 228   2.0000      -0.482291       -13.1238
 229   2.0000      -0.480545       -13.0763
 230   2.0000      -0.479468       -13.0470
 231   2.0000      -0.475817       -12.9477
 232   2.0000      -0.473242       -12.8776
 233   2.0000      -0.467998       -12.7349
 234   2.0000      -0.467346       -12.7171
 235   2.0000      -0.464402       -12.6370
 236   2.0000      -0.461751       -12.5649
 237   2.0000      -0.459932       -12.5154
 238   2.0000      -0.455238       -12.3876
 239   2.0000      -0.452812       -12.3217
 240   2.0000      -0.449783       -12.2392
 241   2.0000      -0.448901       -12.2152
 242   2.0000      -0.448400       -12.2016
 243   2.0000      -0.447225       -12.1696
 244   2.0000      -0.443575       -12.0703
 245   2.0000      -0.442394       -12.0382
 246   2.0000      -0.441607       -12.0167
 247   2.0000      -0.439849       -11.9689
 248   2.0000      -0.439490       -11.9591
 249   2.0000      -0.436702       -11.8833
 250   2.0000      -0.435683       -11.8555
 251   2.0000      -0.435428       -11.8486
 252   2.0000      -0.433607       -11.7990
 253   2.0000      -0.432693       -11.7742
 254   2.0000      -0.430758       -11.7215
 255   2.0000      -0.430023       -11.7015
 256   2.0000      -0.429538       -11.6883
 257   2.0000      -0.428909       -11.6712
 258   2.0000      -0.428238       -11.6530
 259   2.0000      -0.425225       -11.5710
 260   2.0000      -0.423972       -11.5369
 261   2.0000      -0.423249       -11.5172
 262   2.0000      -0.420280       -11.4364
 263   2.0000      -0.414246       -11.2722
 264   2.0000      -0.409478       -11.1425
 265   2.0000      -0.406340       -11.0571
 266   2.0000      -0.403440       -10.9782
 267   2.0000      -0.402659       -10.9569
 268   2.0000      -0.401042       -10.9129
 269   2.0000      -0.391842       -10.6626
 270   2.0000      -0.382211       -10.4005
 271   2.0000      -0.381166       -10.3721
 272   2.0000      -0.375423       -10.2158
 273   2.0000      -0.370411       -10.0794
 274   2.0000      -0.363049        -9.8791
 275   2.0000      -0.360147        -9.8001
 276   2.0000      -0.353770        -9.6266
 277   2.0000      -0.342866        -9.3298
 278   2.0000      -0.338695        -9.2163
 279   2.0000      -0.334675        -9.1070
 280   2.0000      -0.333212        -9.0671
 281   2.0000      -0.332240        -9.0407
 282   2.0000      -0.327149        -8.9022
 283   2.0000      -0.321122        -8.7382
 284   2.0000      -0.316487        -8.6121
 285   2.0000      -0.312436        -8.5018
 286   2.0000      -0.310326        -8.4444
 287   2.0000      -0.295653        -8.0451
 288   2.0000      -0.293117        -7.9761
 289   2.0000      -0.288729        -7.8567
 290   2.0000      -0.265379        -7.2213
 291   2.0000      -0.234531        -6.3819
 292   0.0000      -0.113939        -3.1005
 293   0.0000      -0.100765        -2.7419
 294   0.0000      -0.087634        -2.3846
 295   0.0000      -0.062795        -1.7087
 296   0.0000      -0.057144        -1.5550

MULLIKEN ATOMIC CHARGES
-----------------------
   0 C :    0.332692
   1 C :   -0.360944
   2 C :   -0.186538
   3 N :    0.144042
   4 C :   -0.189283
   5 N :    0.141230
   6 C :    0.010111
   7 C :   -0.009050
   8 C :   -0.069095
   9 C :    0.113167
  10 C :   -0.096510
  11 C :   -0.024827
  12 S :    0.140662
  13 C :   -0.048869
  14 C :    0.024427
  15 C :    0.167174
  16 O :   -0.196150
  17 C :   -0.099610
  18 C :   -0.049832
  19 C :   -0.069515
  20 S :    0.215286
  21 C :   -0.074789
  22 C :   -0.042170
  23 C :    0.122163
  24 C :   -0.001676
  25 C :   -0.133021
  26 C :    0.209169
  27 O :   -0.199217
  28 O :   -0.294039
  29 C :    0.188711
  30 S :    0.168657
  31 C :   -0.067928
  32 C :   -0.063585
  33 C :    0.205981
  34 C :   -0.167388
  35 S :    0.175830
  36 C :   -0.054478
  37 C :   -0.124015
  38 C :    0.357070
  39 O :   -0.295371
  40 C :   -0.050021
  41 C :   -0.055934
  42 S :    0.169895
  43 C :   -0.027890
  44 C :   -0.068554
  45 C :    0.024235
  46 C :   -0.108031
  47 S :    0.186642
  48 C :   -0.065965
  49 C :   -0.009385
  50 C :    0.304044
  51 C :   -0.286914
  52 C :   -0.189210
  53 N :    0.175315
  54 C :   -0.184390
  55 N :    0.173137
  56 C :    0.002196
  57 C :   -0.114515
  58 S :    0.210409
  59 C :    0.076184
  60 C :   -0.132927
  61 C :    0.269039
  62 C :   -0.334413
  63 C :   -0.173093
  64 N :    0.159150
  65 C :   -0.203011
  66 N :    0.165283
  67 C :   -0.004866
  68 C :    0.006789
  69 C :    0.131447
  70 O :   -0.148176
  71 C :   -0.068945
  72 C :    0.109860
  73 C :   -0.093017
  74 C :   -0.018985
  75 S :    0.143011
  76 C :   -0.050943
  77 C :    0.026987
  78 H :   -0.013627
  79 H :   -0.007365
  80 H :    0.037358
  81 H :   -0.007543
  82 H :   -0.006110
  83 H :    0.026351
  84 H :    0.042780
  85 H :    0.035446
  86 H :    0.034627
  87 H :   -0.006699
  88 H :    0.026486
  89 H :    0.029149
  90 H :   -0.013570
  91 H :    0.014758
  92 H :    0.023664
  93 H :    0.021204
  94 H :   -0.011975
  95 H :    0.001010
  96 H :    0.038387
  97 H :   -0.007242
Sum of atomic charges:   -0.0000000

LOEWDIN ATOMIC CHARGES
----------------------
   0 C :    0.078470
   1 C :   -0.151187
   2 C :   -0.018902
   3 N :   -0.059476
   4 C :   -0.016949
   5 N :   -0.064769
   6 C :   -0.021273
   7 C :   -0.052480
   8 C :    0.022596
   9 C :   -0.036394
  10 C :   -0.146617
  11 C :   -0.008797
  12 S :    0.429883
  13 C :   -0.150612
  14 C :   -0.057721
  15 C :    0.086200
  16 O :   -0.176956
  17 C :   -0.114585
  18 C :    0.049938
  19 C :   -0.186508
  20 S :    0.522039
  21 C :   -0.185168
  22 C :   -0.194156
  23 C :   -0.044985
  24 C :   -0.016080
  25 C :   -0.187602
  26 C :    0.063182
  27 O :   -0.175147
  28 O :   -0.085138
  29 C :    0.084733
  30 S :    0.449164
  31 C :   -0.181464
  32 C :   -0.058573
  33 C :    0.031444
  34 C :   -0.235401
  35 S :    0.448788
  36 C :   -0.183635
  37 C :   -0.077954
  38 C :    0.107602
  39 O :   -0.093232
  40 C :   -0.054567
  41 C :   -0.186561
  42 S :    0.457462
  43 C :   -0.164917
  44 C :   -0.040321
  45 C :   -0.052994
  46 C :   -0.190009
  47 S :    0.477273
  48 C :   -0.156116
  49 C :   -0.070123
  50 C :    0.083028
  51 C :   -0.096574
  52 C :   -0.016809
  53 N :   -0.029085
  54 C :   -0.013474
  55 N :   -0.030738
  56 C :    0.009312
  57 C :   -0.183328
  58 S :    0.496219
  59 C :    0.041097
  60 C :   -0.092443
  61 C :    0.066701
  62 C :   -0.139760
  63 C :   -0.019547
  64 N :   -0.047981
  65 C :   -0.015661
  66 N :   -0.049933
  67 C :   -0.019223
  68 C :   -0.056020
  69 C :    0.083104
  70 O :   -0.147098
  71 C :    0.023911
  72 C :   -0.035915
  73 C :   -0.144401
  74 C :   -0.008437
  75 S :    0.431315
  76 C :   -0.149912
  77 C :   -0.057802
  78 H :    0.039879
  79 H :    0.040675
  80 H :    0.028922
  81 H :    0.035056
  82 H :    0.048840
  83 H :    0.045032
  84 H :    0.029744
  85 H :    0.024864
  86 H :    0.024623
  87 H :    0.030449
  88 H :    0.035001
  89 H :    0.024620
  90 H :    0.027540
  91 H :    0.037648
  92 H :    0.042735
  93 H :    0.045408
  94 H :    0.040412
  95 H :    0.042155
  96 H :    0.029314
  97 H :    0.035134

  Mayer bond orders larger than 0.100000
B(  0-C ,  1-C ) :   1.6035 B(  0-C ,  6-C ) :   0.9951 B(  0-C , 17-C ) :   1.0944
B(  1-C ,  2-C ) :   1.1489 B(  1-C ,  4-C ) :   1.1496 B(  2-C ,  3-N ) :   2.9649
B(  4-C ,  5-N ) :   2.9711 B(  6-C ,  7-C ) :   1.2677 B(  6-C , 11-C ) :   1.4216
B(  7-C ,  8-C ) :   1.4263 B(  7-C , 15-C ) :   0.9627 B(  8-C ,  9-C ) :   1.2400
B(  8-C , 78-H ) :   1.0171 B(  9-C , 10-C ) :   1.3072 B(  9-C , 14-C ) :   1.1715
B( 10-C , 11-C ) :   1.3143 B( 10-C , 12-S ) :   1.1000 B( 11-C , 79-H ) :   0.9819
B( 12-S , 13-C ) :   1.1270 B( 13-C , 14-C ) :   1.6282 B( 13-C , 80-H ) :   0.9687
B( 14-C , 81-H ) :   0.9992 B( 15-C , 16-O ) :   2.0940 B( 15-C , 17-C ) :   0.9927
B( 17-C , 18-C ) :   1.4625 B( 18-C , 19-C ) :   1.3258 B( 18-C , 82-H ) :   0.9346
B( 19-C , 20-S ) :   1.0800 B( 19-C , 23-C ) :   1.2575 B( 20-S , 21-C ) :   1.1272
B( 21-C , 22-C ) :   1.4332 B( 21-C , 31-C ) :   1.1860 B( 22-C , 23-C ) :   1.3068
B( 22-C , 30-S ) :   1.0573 B( 23-C , 24-C ) :   1.1649 B( 24-C , 25-C ) :   1.5871
B( 24-C , 83-H ) :   0.9928 B( 25-C , 26-C ) :   0.9533 B( 25-C , 30-S ) :   1.0927
B( 26-C , 27-O ) :   2.1401 B( 26-C , 28-O ) :   1.2559 B( 28-O , 29-C ) :   0.9169
B( 29-C , 84-H ) :   0.9810 B( 29-C , 85-H ) :   0.9764 B( 29-C , 86-H ) :   0.9761
B( 31-C , 32-C ) :   1.4333 B( 31-C , 34-C ) :   0.1054 B( 31-C , 35-S ) :   1.1055
B( 32-C , 33-C ) :   1.2895 B( 32-C , 87-H ) :   1.0022 B( 33-C , 34-C ) :   1.4338
B( 33-C , 39-O ) :   1.1662 B( 34-C , 35-S ) :   1.0872 B( 34-C , 36-C ) :   1.1579
B( 36-C , 37-C ) :   1.5261 B( 36-C , 42-S ) :   1.1157 B( 37-C , 38-C ) :   1.0235
B( 37-C , 40-C ) :   1.3025 B( 38-C , 39-O ) :   0.9483 B( 38-C , 88-H ) :   0.9374
B( 38-C , 89-H ) :   0.9312 B( 40-C , 41-C ) :   1.4652 B( 40-C , 90-H ) :   0.9956
B( 41-C , 42-S ) :   1.1193 B( 41-C , 43-C ) :   1.1724 B( 43-C , 44-C ) :   1.4439
B( 43-C , 47-S ) :   1.1167 B( 44-C , 45-C ) :   1.3075 B( 44-C , 91-H ) :   0.9896
B( 45-C , 46-C ) :   1.4426 B( 45-C , 50-C ) :   0.9913 B( 46-C , 47-S ) :   1.1041
B( 46-C , 48-C ) :   1.2017 B( 48-C , 49-C ) :   1.4048 B( 48-C , 58-S ) :   1.1554
B( 49-C , 50-C ) :   1.0028 B( 49-C , 56-C ) :   1.3596 B( 50-C , 51-C ) :   1.7180
B( 51-C , 52-C ) :   1.1320 B( 51-C , 54-C ) :   1.1347 B( 52-C , 53-N ) :   2.9930
B( 54-C , 55-N ) :   2.9836 B( 56-C , 57-C ) :   1.3973 B( 56-C , 92-H ) :   0.9815
B( 57-C , 58-S ) :   1.0836 B( 57-C , 59-C ) :   1.1332 B( 59-C , 60-C ) :   1.6713
B( 59-C , 93-H ) :   0.9286 B( 60-C , 61-C ) :   1.0385 B( 60-C , 69-C ) :   0.9427
B( 61-C , 62-C ) :   1.6447 B( 61-C , 67-C ) :   1.0108 B( 62-C , 63-C ) :   1.1255
B( 62-C , 65-C ) :   1.1740 B( 63-C , 64-N ) :   2.9939 B( 65-C , 66-N ) :   2.9970
B( 67-C , 68-C ) :   1.2689 B( 67-C , 74-C ) :   1.4170 B( 68-C , 69-C ) :   0.9252
B( 68-C , 71-C ) :   1.4257 B( 69-C , 70-O ) :   2.2619 B( 71-C , 72-C ) :   1.2511
B( 71-C , 94-H ) :   1.0163 B( 72-C , 73-C ) :   1.3029 B( 72-C , 77-C ) :   1.1713
B( 73-C , 74-C ) :   1.3205 B( 73-C , 75-S ) :   1.0985 B( 74-C , 95-H ) :   0.9858
B( 75-S , 76-C ) :   1.1275 B( 76-C , 77-C ) :   1.6302 B( 76-C , 96-H ) :   0.9683
B( 77-C , 97-H ) :   0.9992

-----------------------------------------------------------------------------
         ABSORPTION SPECTRUM VIA TRANSITION ELECTRIC DIPOLE MOMENTS
-----------------------------------------------------------------------------
State   Energy  Wavelength   fosc         T2         TX        TY        TZ
        (cm-1)    (nm)                  (au**2)     (au)      (au)      (au)
-----------------------------------------------------------------------------
   0   11154.1    896.5   0.527569280  15.57116   2.90393  -2.36059   1.25139
   1   14898.5    671.2   1.287276819  28.44499  -3.64026   1.68004  -3.51724
   2   18714.0    534.4   0.345638580   6.08040   1.10424  -2.09799  -0.67786
   3   19668.3    508.4   0.234372953   3.92299  -0.76782   1.79942   0.30907
   4   22658.3    441.3   0.240565084   3.49526  -0.67929   0.79554   1.54950
   5   23549.3    424.6   0.031251331   0.43688  -0.15154  -0.10540  -0.63467
   6   24986.0    400.2   0.201196599   2.65093   1.19351  -1.00157  -0.47258
   7   25636.5    390.1   0.203313138   2.61085   1.38585  -0.69241  -0.45917
   8   26445.6    378.1   0.022382112   0.27863   0.02863   0.03730   0.52575
   9   26577.6    376.3   0.463344539   5.73937  -1.53621   1.66861   0.77148
  10   26700.5    374.5   0.108196367   1.33404  -0.25385   0.62224  -0.93937
  11   27856.8    359.0   0.004324207   0.05110  -0.12086  -0.08991  -0.16856
  12   27942.2    357.9   0.080116444   0.94392  -0.00730   0.20203   0.95029
  13   28239.4    354.1   0.042738890   0.49824  -0.17302   0.56880   0.38050
  14   28820.9    347.0   0.002341820   0.02675   0.04707  -0.06395  -0.14299
  15   29141.6    343.2   0.031572517   0.35667  -0.42260   0.31769   0.27777
  16   29437.7    339.7   0.118065547   1.32037  -1.02274   0.52366   0.01208
  17   29979.4    333.6   0.133769766   1.46896  -1.01054   0.65442   0.13963
  18   30141.6    331.8   0.081842730   0.89390   0.80260  -0.33959   0.36662
  19   30438.6    328.5   0.249191959   2.69516  -0.22672  -0.77423  -1.42980
  20   31159.3    320.9   0.095654268   1.01063   0.17824   0.78710   0.59945
  21   31290.5    319.6   0.130549111   1.37353   0.68940   0.36288   0.87554
  22   31814.7    314.3   0.065851018   0.68141   0.78837  -0.23536  -0.06699
  23   32079.1    311.7   0.233805444   2.39943  -0.67637   1.26652   0.58128
  24   32298.5    309.6   0.019677147   0.20057  -0.24893   0.25704  -0.26931
  25   32399.7    308.6   0.100648250   1.02268   0.30530  -0.20904  -0.94116
  26   32940.6    303.6   0.306700823   3.06520   1.03599  -0.93449  -1.05766
  27   33053.7    302.5   0.238159337   2.37204   0.79099  -0.62186  -1.16605
  28   33295.4    300.3   0.281946040   2.78778  -1.12180   1.01369   0.70835
  29   33465.6    298.8   0.001549170   0.01524  -0.06950   0.10173  -0.00780
  30   33567.0    297.9   0.021021302   0.20617   0.33506   0.11344  -0.28466
  31   33705.4    296.7   0.043793795   0.42775  -0.49498   0.23151  -0.35937
  32   33893.7    295.0   0.201493017   1.95712   1.26634  -0.43418   0.40620
  33   34273.0    291.8   0.083421885   0.80131   0.43644   0.00176   0.78156
  34   34498.2    289.9   0.288137853   2.74966   1.33541  -0.81758  -0.54579
  35   34579.0    289.2   0.117667061   1.12026   1.01105  -0.28136   0.13735
  36   35153.4    284.5   0.076028350   0.71201   0.33783   0.47666   0.60883
  37   35238.4    283.8   0.043442716   0.40586   0.32316   0.17799   0.51937
  38   35553.2    281.3   0.128158437   1.18671  -0.13494   0.64102   0.87040
  39   36017.4    277.6   0.066725915   0.60990  -0.43035   0.49336   0.42579
  40   36418.6    274.6   0.001469322   0.01328  -0.06508   0.06402   0.07034
  41   36545.1    273.6   0.007333926   0.06607   0.08349   0.09256   0.22479
  42   37280.3    268.2   0.029586819   0.26127  -0.43862   0.25891   0.04302
  43   37808.4    264.5   0.100168309   0.87220  -0.80102   0.26116  -0.40294
  44   37983.6    263.3   0.018457819   0.15998   0.34688  -0.19640  -0.03280
  45   38363.5    260.7   0.079269418   0.68024   0.66751  -0.04652   0.48219
  46   38523.9    259.6   0.095784129   0.81854   0.57237  -0.36295   0.59933
  47   38718.9    258.3   0.041812641   0.35552  -0.29571  -0.29452  -0.42583
  48   38773.7    257.9   0.051249431   0.43514  -0.02728  -0.31205  -0.58054
  49   39179.0    255.2   0.072381527   0.60821   0.41118   0.56098   0.35276
  50   39536.1    252.9   0.009716776   0.08091  -0.22533   0.12499  -0.12047
  51   39657.1    252.2   0.031476858   0.26130   0.38524  -0.32821   0.07195
  52   39712.4    251.8   0.011447241   0.09490   0.18147   0.22225  -0.11213
  53   39869.6    250.8   0.007618172   0.06290   0.12026   0.13566  -0.17332
  54   39981.8    250.1   0.117422898   0.96687   0.95274  -0.02377   0.24206
  55   40268.1    248.3   0.066427073   0.54307  -0.51698   0.49098  -0.18641

FINAL SINGLE POINT ENERGY     -6145.668439440065

DIPOLE MOMENT
-------------
                                X             Y             Z
Electronic contribution:    -13.19577      11.23471      -0.69948
Nuclear contribution   :      9.71050     -11.69382       0.26630
                        -----------------------------------------
Total Dipole Moment    :     -3.48527      -0.45911      -0.43317
                        -----------------------------------------
Magnitude (a.u.)       :      3.54197
Magnitude (Debye)      :      9.00297

Rotational constants in cm-1:     0.001112     0.000174     0.000154
Rotational constants in MHz :    33.345128     5.231366     4.628227

                             ****ORCA TERMINATED NORMALLY****
TOTAL RUN TIME: 0 days 0 hours 10 minutes 50 seconds 956 msec
