                         Program Version 4.2.0 -  RELEASE  -
|  1> # ORCA input file
|  2> # SCF done       -176.857041613776          0.000800740714
|  3> ! CAM-B3LYP def2-SVP def2/J RIJCOSX Grid4 TightSCF
|  4> %maxcore 5000
|  5> %tddft
|  6>     Mode sTDDFT
|  7>     Ethresh 5.0
|  8>     maxcore 5000
|  9> end
| 10>
| 11> %pal
| 12>   nprocs 6
| 13>   end
| 14> * xyz 0 1
| 15>    C       -5.15271        -0.82988        -3.22197
| 16>    C       -3.89773        -1.38214        -3.16194
| 17>    C       -3.38498        -2.28545        -4.11608
| 18>    N       -2.91076        -3.02431        -4.85570
| 19>    C       -2.93622        -1.10433        -2.16939
| 20>    N       -2.10684        -0.90852        -1.39791
| 21>    C       -6.12603        -1.04933        -4.28518
| 22>    C       -7.24408        -0.20561        -4.05955
| 23>    C       -8.33349        -0.17609        -4.89595
| 24>    C       -8.32325        -1.02387        -6.00779
| 25>    C       -7.20564        -1.86581        -6.22432
| 26>    C       -6.10161        -1.89239        -5.37954
| 27>    S       -7.41255        -2.82893        -7.65244
| 28>    C       -8.95932        -2.11148        -7.94211
| 29>    C       -9.31235        -1.19238        -7.01694
| 30>    C       -7.02144         0.57092        -2.83202
| 31>    O       -7.76893         1.40700        -2.35526
| 32>    C       -5.73190         0.12164        -2.29176
| 33>    C       -5.20168         0.47590        -1.07919
| 34>    C       -5.65446         1.40044        -0.12559
| 35>    S       -7.04252         2.44228        -0.29053
| 36>    C       -6.73575         3.15677         1.26304
| 37>    C       -5.62859         2.58443         1.89208
| 38>    C       -5.00934         1.61946         1.10204
| 39>    C       -3.77683         0.88607         1.53580
| 40>    C       -3.10001         1.59602         2.71655
| 41>    C       -2.06407         0.74743         3.26435
| 42>    N       -1.27272         0.05599         3.71067
| 43>    C       -4.15183         1.91403         3.79819
| 44>    C       -3.51987         2.43500         4.98999
| 45>    N       -3.02696         2.88120         5.91854
| 46>    C       -5.15015         2.94927         3.26206
| 47>    C       -7.59377         4.19280         1.70804
| 48>    C       -8.69825         4.67129         1.01764
| 49>    C       -9.33753         5.70800         1.69010
| 50>    C       -8.71684         6.03289         2.91063
| 51>    S       -7.34964         5.06357         3.22160
| 52>    C       -9.43858         7.08333         3.52357
| 53>    C      -10.51727         7.43361         2.68880
| 54>    C      -10.48732         6.58172         1.50891
| 55>    C      -11.35285         6.59849         0.45610
| 56>    C      -11.22850         5.71976        -0.64167
| 57>    N      -11.14230         5.01279        -1.53998
| 58>    C      -12.43900         7.49720         0.38389
| 59>    N      -13.32655         8.21876         0.31028
| 60>    C      -11.29520         8.46244         3.21371
| 61>    C      -10.81575         8.88984         4.44161
| 62>    S       -9.38548         8.01784         4.95214
| 63>    C      -11.37582         9.90354         5.25278
| 64>    N      -12.42343        10.60038         4.91892
| 65>    C      -12.73629        11.47156         5.87395
| 66>    C      -11.91635        11.47761         7.01750
| 67>    S      -10.67632        10.30263         6.84798
| 68>    N      -12.22963        12.34355         7.97645
| 69>    C      -13.28151        13.04143         7.64404
| 70>    S      -13.97534        12.65037         6.04857
| 71>    C      -13.84913        14.04162         8.47872
| 72>    C      -13.33645        14.28471         9.73100
| 73>    C      -13.83380        15.23835        10.61670
| 74>    C      -15.04105        16.01668        10.27611
| 75>    C      -15.68774        15.94084         9.09301
| 76>    S      -15.21421        14.91512         7.80244
| 77>    C      -15.32039        16.79737        11.42764
| 78>    C      -14.36292        16.53386        12.41298
| 79>    C      -14.58721        17.28946        13.58708
| 80>    C      -15.68165        18.08322        13.46758
| 81>    S      -16.48358        17.95515        11.93501
| 82>    C      -13.41982        15.57900        11.91152
| 83>    C      -12.28767        15.12050        12.67132
| 84>    C      -11.14279        14.64082        12.18708
| 85>    H       -9.16659         0.47989        -4.69662
| 86>    H       -5.27696        -2.55379        -5.58657
| 87>    H       -9.51766        -2.42815        -8.80154
| 88>    H      -10.23710        -0.64464        -7.03371
| 89>    H       -4.29629        -0.03874        -0.78866
| 90>    H       -3.06154         0.80625         0.71359
| 91>    H       -4.04359        -0.13500         1.83247
| 92>    H       -2.63838         2.53161         2.37777
| 93>    H       -4.67786         0.98868         4.06437
| 94>    H       -4.67731         3.93792         3.23828
| 95>    H       -5.99735         3.01447         3.95023
| 96>    H       -9.00312         4.26385         0.07035
| 97>    H      -12.16678         8.89719         2.76093
| 98>    H      -12.50990        13.65699        10.02806
| 99>    H      -16.55932        16.53671         8.87116
|100>    H      -13.97624        17.25072        14.47061
|101>    H      -16.08686        18.75826        14.19594
|102>    H      -12.39787        15.23009        13.74391
|103>    H      -10.94230        14.57126        11.13265
|104>    H      -10.34985        14.32886        12.84486
|105> *
|106>
|107>                          ****END OF INPUT****

CARTESIAN COORDINATES (ANGSTROEM)
---------------------------------
  C     -5.152710   -0.829880   -3.221970
  C     -3.897730   -1.382140   -3.161940
  C     -3.384980   -2.285450   -4.116080
  N     -2.910760   -3.024310   -4.855700
  C     -2.936220   -1.104330   -2.169390
  N     -2.106840   -0.908520   -1.397910
  C     -6.126030   -1.049330   -4.285180
  C     -7.244080   -0.205610   -4.059550
  C     -8.333490   -0.176090   -4.895950
  C     -8.323250   -1.023870   -6.007790
  C     -7.205640   -1.865810   -6.224320
  C     -6.101610   -1.892390   -5.379540
  S     -7.412550   -2.828930   -7.652440
  C     -8.959320   -2.111480   -7.942110
  C     -9.312350   -1.192380   -7.016940
  C     -7.021440    0.570920   -2.832020
  O     -7.768930    1.407000   -2.355260
  C     -5.731900    0.121640   -2.291760
  C     -5.201680    0.475900   -1.079190
  C     -5.654460    1.400440   -0.125590
  S     -7.042520    2.442280   -0.290530
  C     -6.735750    3.156770    1.263040
  C     -5.628590    2.584430    1.892080
  C     -5.009340    1.619460    1.102040
  C     -3.776830    0.886070    1.535800
  C     -3.100010    1.596020    2.716550
  C     -2.064070    0.747430    3.264350
  N     -1.272720    0.055990    3.710670
  C     -4.151830    1.914030    3.798190
  C     -3.519870    2.435000    4.989990
  N     -3.026960    2.881200    5.918540
  C     -5.150150    2.949270    3.262060
  C     -7.593770    4.192800    1.708040
  C     -8.698250    4.671290    1.017640
  C     -9.337530    5.708000    1.690100
  C     -8.716840    6.032890    2.910630
  S     -7.349640    5.063570    3.221600
  C     -9.438580    7.083330    3.523570
  C    -10.517270    7.433610    2.688800
  C    -10.487320    6.581720    1.508910
  C    -11.352850    6.598490    0.456100
  C    -11.228500    5.719760   -0.641670
  N    -11.142300    5.012790   -1.539980
  C    -12.439000    7.497200    0.383890
  N    -13.326550    8.218760    0.310280
  C    -11.295200    8.462440    3.213710
  C    -10.815750    8.889840    4.441610
  S     -9.385480    8.017840    4.952140
  C    -11.375820    9.903540    5.252780
  N    -12.423430   10.600380    4.918920
  C    -12.736290   11.471560    5.873950
  C    -11.916350   11.477610    7.017500
  S    -10.676320   10.302630    6.847980
  N    -12.229630   12.343550    7.976450
  C    -13.281510   13.041430    7.644040
  S    -13.975340   12.650370    6.048570
  C    -13.849130   14.041620    8.478720
  C    -13.336450   14.284710    9.731000
  C    -13.833800   15.238350   10.616700
  C    -15.041050   16.016680   10.276110
  C    -15.687740   15.940840    9.093010
  S    -15.214210   14.915120    7.802440
  C    -15.320390   16.797370   11.427640
  C    -14.362920   16.533860   12.412980
  C    -14.587210   17.289460   13.587080
  C    -15.681650   18.083220   13.467580
  S    -16.483580   17.955150   11.935010
  C    -13.419820   15.579000   11.911520
  C    -12.287670   15.120500   12.671320
  C    -11.142790   14.640820   12.187080
  H     -9.166590    0.479890   -4.696620
  H     -5.276960   -2.553790   -5.586570
  H     -9.517660   -2.428150   -8.801540
  H    -10.237100   -0.644640   -7.033710
  H     -4.296290   -0.038740   -0.788660
  H     -3.061540    0.806250    0.713590
  H     -4.043590   -0.135000    1.832470
  H     -2.638380    2.531610    2.377770
  H     -4.677860    0.988680    4.064370
  H     -4.677310    3.937920    3.238280
  H     -5.997350    3.014470    3.950230
  H     -9.003120    4.263850    0.070350
  H    -12.166780    8.897190    2.760930
  H    -12.509900   13.656990   10.028060
  H    -16.559320   16.536710    8.871160
  H    -13.976240   17.250720   14.470610
  H    -16.086860   18.758260   14.195940
  H    -12.397870   15.230090   13.743910
  H    -10.942300   14.571260   11.132650
  H    -10.349850   14.328860   12.844860

 Total Charge           Charge          ....    0
 Multiplicity           Mult            ....    1
 Number of Electrons    NEL             ....  530
 Basis Dimension        Dim             .... 1112

ORBITAL ENERGIES
----------------

  NO   OCC          E(Eh)            E(eV)
   0   2.0000     -89.004084     -2421.9243
   1   2.0000     -89.000074     -2421.8151
   2   2.0000     -88.977803     -2421.2091
   3   2.0000     -88.975452     -2421.1451
   4   2.0000     -88.975281     -2421.1405
   5   2.0000     -88.974713     -2421.1250
   6   2.0000     -88.969273     -2420.9770
   7   2.0000     -88.955696     -2420.6075
   8   2.0000     -19.225851      -523.1620
   9   2.0000     -14.436411      -392.8347
  10   2.0000     -14.435158      -392.8006
  11   2.0000     -14.430956      -392.6863
  12   2.0000     -14.425871      -392.5479
  13   2.0000     -14.423323      -392.4786
  14   2.0000     -14.416779      -392.3005
  15   2.0000     -14.415546      -392.2670
  16   2.0000     -14.411471      -392.1561
  17   2.0000     -10.373674      -282.2820
  18   2.0000     -10.372793      -282.2580
  19   2.0000     -10.359122      -281.8860
  20   2.0000     -10.358885      -281.8796
  21   2.0000     -10.356337      -281.8103
  22   2.0000     -10.347382      -281.5666
  23   2.0000     -10.345690      -281.5205
  24   2.0000     -10.345633      -281.5190
  25   2.0000     -10.344839      -281.4974
  26   2.0000     -10.343253      -281.4542
  27   2.0000     -10.341049      -281.3943
  28   2.0000     -10.339099      -281.3412
  29   2.0000     -10.337620      -281.3009
  30   2.0000     -10.336034      -281.2578
  31   2.0000     -10.334938      -281.2280
  32   2.0000     -10.334649      -281.2201
  33   2.0000     -10.332752      -281.1685
  34   2.0000     -10.331933      -281.1462
  35   2.0000     -10.328563      -281.0545
  36   2.0000     -10.328254      -281.0461
  37   2.0000     -10.326714      -281.0042
  38   2.0000     -10.323708      -280.9224
  39   2.0000     -10.323248      -280.9099
  40   2.0000     -10.319870      -280.8179
  41   2.0000     -10.319690      -280.8130
  42   2.0000     -10.316851      -280.7358
  43   2.0000     -10.316465      -280.7253
  44   2.0000     -10.315682      -280.7040
  45   2.0000     -10.314025      -280.6589
  46   2.0000     -10.313585      -280.6469
  47   2.0000     -10.313078      -280.6331
  48   2.0000     -10.312479      -280.6168
  49   2.0000     -10.312406      -280.6148
  50   2.0000     -10.309418      -280.5335
  51   2.0000     -10.309242      -280.5287
  52   2.0000     -10.307618      -280.4846
  53   2.0000     -10.307545      -280.4826
  54   2.0000     -10.306255      -280.4475
  55   2.0000     -10.304420      -280.3975
  56   2.0000     -10.302587      -280.3476
  57   2.0000     -10.302069      -280.3336
  58   2.0000     -10.296280      -280.1760
  59   2.0000     -10.296073      -280.1704
  60   2.0000     -10.294654      -280.1318
  61   2.0000     -10.293819      -280.1090
  62   2.0000     -10.291247      -280.0391
  63   2.0000     -10.286374      -279.9065
  64   2.0000     -10.280702      -279.7521
  65   2.0000     -10.274857      -279.5931
  66   2.0000     -10.274366      -279.5797
  67   2.0000     -10.273047      -279.5438
  68   2.0000     -10.271557      -279.5033
  69   2.0000     -10.261831      -279.2386
  70   2.0000      -8.097807      -220.3525
  71   2.0000      -8.094770      -220.2699
  72   2.0000      -8.073800      -219.6993
  73   2.0000      -8.070928      -219.6211
  74   2.0000      -8.070551      -219.6109
  75   2.0000      -8.068480      -219.5545
  76   2.0000      -8.065469      -219.4726
  77   2.0000      -8.051161      -219.0832
  78   2.0000      -6.067146      -165.0954
  79   2.0000      -6.064022      -165.0104
  80   2.0000      -6.062808      -164.9774
  81   2.0000      -6.060275      -164.9085
  82   2.0000      -6.059868      -164.8974
  83   2.0000      -6.057087      -164.8217
  84   2.0000      -6.042940      -164.4368
  85   2.0000      -6.040568      -164.3722
  86   2.0000      -6.039757      -164.3502
  87   2.0000      -6.039305      -164.3378
  88   2.0000      -6.038044      -164.3035
  89   2.0000      -6.036069      -164.2498
  90   2.0000      -6.036017      -164.2484
  91   2.0000      -6.035553      -164.2357
  92   2.0000      -6.034977      -164.2201
  93   2.0000      -6.033402      -164.1772
  94   2.0000      -6.032565      -164.1544
  95   2.0000      -6.032262      -164.1462
  96   2.0000      -6.030656      -164.1025
  97   2.0000      -6.030505      -164.0984
  98   2.0000      -6.027177      -164.0078
  99   2.0000      -6.020620      -163.8294
 100   2.0000      -6.016375      -163.7139
 101   2.0000      -6.013138      -163.6258
 102   2.0000      -1.141432       -31.0599
 103   2.0000      -1.101150       -29.9638
 104   2.0000      -1.062066       -28.9003
 105   2.0000      -1.052969       -28.6528
 106   2.0000      -1.029123       -28.0039
 107   2.0000      -1.025926       -27.9169
 108   2.0000      -1.023916       -27.8622
 109   2.0000      -1.013154       -27.5693
 110   2.0000      -1.012219       -27.5439
 111   2.0000      -1.011005       -27.5109
 112   2.0000      -1.003728       -27.3128
 113   2.0000      -1.000971       -27.2378
 114   2.0000      -0.998404       -27.1679
 115   2.0000      -0.996076       -27.1046
 116   2.0000      -0.988899       -26.9093
 117   2.0000      -0.970832       -26.4177
 118   2.0000      -0.967778       -26.3346
 119   2.0000      -0.961683       -26.1687
 120   2.0000      -0.936902       -25.4944
 121   2.0000      -0.930293       -25.3145
 122   2.0000      -0.927081       -25.2272
 123   2.0000      -0.919402       -25.0182
 124   2.0000      -0.911169       -24.7942
 125   2.0000      -0.899332       -24.4721
 126   2.0000      -0.896754       -24.4019
 127   2.0000      -0.886688       -24.1280
 128   2.0000      -0.884435       -24.0667
 129   2.0000      -0.884088       -24.0573
 130   2.0000      -0.877937       -23.8899
 131   2.0000      -0.870408       -23.6850
 132   2.0000      -0.864132       -23.5142
 133   2.0000      -0.861175       -23.4338
 134   2.0000      -0.851967       -23.1832
 135   2.0000      -0.836154       -22.7529
 136   2.0000      -0.831602       -22.6290
 137   2.0000      -0.826155       -22.4808
 138   2.0000      -0.814725       -22.1698
 139   2.0000      -0.797994       -21.7145
 140   2.0000      -0.787981       -21.4421
 141   2.0000      -0.782347       -21.2888
 142   2.0000      -0.775381       -21.0992
 143   2.0000      -0.770849       -20.9759
 144   2.0000      -0.762465       -20.7477
 145   2.0000      -0.754690       -20.5361
 146   2.0000      -0.739699       -20.1282
 147   2.0000      -0.727256       -19.7896
 148   2.0000      -0.724764       -19.7218
 149   2.0000      -0.708635       -19.2829
 150   2.0000      -0.699876       -19.0446
 151   2.0000      -0.696598       -18.9554
 152   2.0000      -0.694617       -18.9015
 153   2.0000      -0.691238       -18.8095
 154   2.0000      -0.682804       -18.5800
 155   2.0000      -0.671835       -18.2816
 156   2.0000      -0.668005       -18.1773
 157   2.0000      -0.665125       -18.0990
 158   2.0000      -0.662223       -18.0200
 159   2.0000      -0.654213       -17.8020
 160   2.0000      -0.648428       -17.6446
 161   2.0000      -0.641562       -17.4578
 162   2.0000      -0.633242       -17.2314
 163   2.0000      -0.632528       -17.2120
 164   2.0000      -0.629179       -17.1208
 165   2.0000      -0.626228       -17.0405
 166   2.0000      -0.622743       -16.9457
 167   2.0000      -0.619262       -16.8510
 168   2.0000      -0.607322       -16.5261
 169   2.0000      -0.600428       -16.3385
 170   2.0000      -0.594678       -16.1820
 171   2.0000      -0.594145       -16.1675
 172   2.0000      -0.587110       -15.9761
 173   2.0000      -0.577646       -15.7186
 174   2.0000      -0.573523       -15.6063
 175   2.0000      -0.571620       -15.5546
 176   2.0000      -0.563927       -15.3452
 177   2.0000      -0.560071       -15.2403
 178   2.0000      -0.558497       -15.1975
 179   2.0000      -0.552150       -15.0248
 180   2.0000      -0.551274       -15.0009
 181   2.0000      -0.548439       -14.9238
 182   2.0000      -0.546936       -14.8829
 183   2.0000      -0.541642       -14.7388
 184   2.0000      -0.540526       -14.7084
 185   2.0000      -0.537738       -14.6326
 186   2.0000      -0.534879       -14.5548
 187   2.0000      -0.528427       -14.3792
 188   2.0000      -0.525743       -14.3062
 189   2.0000      -0.523899       -14.2560
 190   2.0000      -0.523303       -14.2398
 191   2.0000      -0.520968       -14.1763
 192   2.0000      -0.519724       -14.1424
 193   2.0000      -0.513949       -13.9853
 194   2.0000      -0.512629       -13.9493
 195   2.0000      -0.510384       -13.8883
 196   2.0000      -0.508078       -13.8255
 197   2.0000      -0.507468       -13.8089
 198   2.0000      -0.504530       -13.7290
 199   2.0000      -0.501910       -13.6577
 200   2.0000      -0.499897       -13.6029
 201   2.0000      -0.499507       -13.5923
 202   2.0000      -0.495329       -13.4786
 203   2.0000      -0.493403       -13.4262
 204   2.0000      -0.488259       -13.2862
 205   2.0000      -0.486906       -13.2494
 206   2.0000      -0.481844       -13.1116
 207   2.0000      -0.477393       -12.9905
 208   2.0000      -0.475855       -12.9487
 209   2.0000      -0.470789       -12.8108
 210   2.0000      -0.466233       -12.6868
 211   2.0000      -0.465497       -12.6668
 212   2.0000      -0.464825       -12.6485
 213   2.0000      -0.462824       -12.5941
 214   2.0000      -0.458821       -12.4852
 215   2.0000      -0.456937       -12.4339
 216   2.0000      -0.455644       -12.3987
 217   2.0000      -0.454336       -12.3631
 218   2.0000      -0.451841       -12.2952
 219   2.0000      -0.448869       -12.2143
 220   2.0000      -0.446531       -12.1507
 221   2.0000      -0.445245       -12.1157
 222   2.0000      -0.445164       -12.1135
 223   2.0000      -0.444289       -12.0897
 224   2.0000      -0.443452       -12.0669
 225   2.0000      -0.440334       -11.9821
 226   2.0000      -0.437705       -11.9106
 227   2.0000      -0.437219       -11.8973
 228   2.0000      -0.436501       -11.8778
 229   2.0000      -0.431894       -11.7524
 230   2.0000      -0.431730       -11.7480
 231   2.0000      -0.430339       -11.7101
 232   2.0000      -0.427157       -11.6235
 233   2.0000      -0.424129       -11.5411
 234   2.0000      -0.423221       -11.5164
 235   2.0000      -0.418992       -11.4014
 236   2.0000      -0.415754       -11.3132
 237   2.0000      -0.414573       -11.2811
 238   2.0000      -0.412152       -11.2152
 239   2.0000      -0.411822       -11.2063
 240   2.0000      -0.410244       -11.1633
 241   2.0000      -0.407590       -11.0911
 242   2.0000      -0.406852       -11.0710
 243   2.0000      -0.402460       -10.9515
 244   2.0000      -0.401779       -10.9330
 245   2.0000      -0.397279       -10.8105
 246   2.0000      -0.387281       -10.5385
 247   2.0000      -0.383984       -10.4487
 248   2.0000      -0.378640       -10.3033
 249   2.0000      -0.362593        -9.8666
 250   2.0000      -0.358349        -9.7512
 251   2.0000      -0.355454        -9.6724
 252   2.0000      -0.353974        -9.6321
 253   2.0000      -0.341045        -9.2803
 254   2.0000      -0.336243        -9.1496
 255   2.0000      -0.334415        -9.0999
 256   2.0000      -0.330653        -8.9975
 257   2.0000      -0.326615        -8.8876
 258   2.0000      -0.324811        -8.8386
 259   2.0000      -0.317403        -8.6370
 260   2.0000      -0.299559        -8.1514
 261   2.0000      -0.293480        -7.9860
 262   2.0000      -0.276954        -7.5363
 263   2.0000      -0.257684        -7.0119
 264   2.0000      -0.231737        -6.3059
 265   0.0000      -0.116790        -3.1780
 266   0.0000      -0.097989        -2.6664
 267   0.0000      -0.070942        -1.9304
 268   0.0000      -0.064888        -1.7657
 269   0.0000      -0.042428        -1.1545

MULLIKEN ATOMIC CHARGES
-----------------------
   0 C :    0.315699
   1 C :   -0.349821
   2 C :   -0.182788
   3 N :    0.149889
   4 C :   -0.183311
   5 N :    0.139593
   6 C :    0.009209
   7 C :   -0.013247
   8 C :   -0.064146
   9 C :    0.110834
  10 C :   -0.097540
  11 C :   -0.019708
  12 S :    0.143776
  13 C :   -0.047990
  14 C :    0.027778
  15 C :    0.163364
  16 O :   -0.179621
  17 C :   -0.085399
  18 C :   -0.065070
  19 C :   -0.072531
  20 S :    0.187680
  21 C :   -0.050184
  22 C :   -0.098749
  23 C :   -0.078167
  24 C :    0.190439
  25 C :   -0.090260
  26 C :   -0.254319
  27 N :    0.168650
  28 C :   -0.081892
  29 C :   -0.261166
  30 N :    0.167181
  31 C :    0.173255
  32 C :   -0.096184
  33 C :   -0.060799
  34 C :    0.037855
  35 C :   -0.085172
  36 S :    0.156756
  37 C :   -0.095199
  38 C :    0.011370
  39 C :    0.300878
  40 C :   -0.293838
  41 C :   -0.193585
  42 N :    0.184582
  43 C :   -0.194019
  44 N :    0.188578
  45 C :   -0.036479
  46 C :   -0.033489
  47 S :    0.200245
  48 C :   -0.114866
  49 N :   -0.025557
  50 C :   -0.066597
  51 C :   -0.046126
  52 S :    0.117139
  53 N :   -0.042242
  54 C :   -0.080191
  55 S :    0.133053
  56 C :   -0.062820
  57 C :   -0.052238
  58 C :    0.051270
  59 C :    0.064197
  60 C :   -0.123555
  61 S :    0.125295
  62 C :   -0.106234
  63 C :    0.045918
  64 C :    0.015712
  65 C :   -0.071098
  66 S :    0.126004
  67 C :    0.057217
  68 C :   -0.039944
  69 C :   -0.023556
  70 H :   -0.006209
  71 H :   -0.004827
  72 H :    0.039667
  73 H :   -0.004511
  74 H :    0.002524
  75 H :    0.067622
  76 H :    0.039569
  77 H :    0.050136
  78 H :    0.050109
  79 H :    0.037591
  80 H :    0.046737
  81 H :    0.031627
  82 H :    0.022493
  83 H :    0.003060
  84 H :    0.036433
  85 H :   -0.016475
  86 H :    0.026775
  87 H :   -0.011731
  88 H :    0.023918
  89 H :    0.021776
Sum of atomic charges:   -0.0000000

LOEWDIN ATOMIC CHARGES
----------------------
   0 C :    0.078845
   1 C :   -0.145814
   2 C :   -0.019206
   3 N :   -0.052262
   4 C :   -0.016985
   5 N :   -0.058973
   6 C :   -0.022790
   7 C :   -0.053437
   8 C :    0.025683
   9 C :   -0.034519
  10 C :   -0.145484
  11 C :   -0.007359
  12 S :    0.432501
  13 C :   -0.148010
  14 C :   -0.056622
  15 C :    0.085250
  16 O :   -0.165268
  17 C :   -0.104802
  18 C :    0.048964
  19 C :   -0.190825
  20 S :    0.525429
  21 C :   -0.166731
  22 C :   -0.080449
  23 C :   -0.024072
  24 C :   -0.008360
  25 C :   -0.029943
  26 C :   -0.038102
  27 N :   -0.037243
  28 C :   -0.030838
  29 C :   -0.038259
  30 N :   -0.042199
  31 C :   -0.022301
  32 C :   -0.186524
  33 C :   -0.020297
  34 C :   -0.065637
  35 C :   -0.178480
  36 S :    0.491822
  37 C :   -0.182601
  38 C :   -0.064333
  39 C :    0.078176
  40 C :   -0.093439
  41 C :   -0.018691
  42 N :   -0.024365
  43 C :   -0.018830
  44 N :   -0.022185
  45 C :   -0.003803
  46 C :   -0.192378
  47 S :    0.478504
  48 C :   -0.140534
  49 N :   -0.092250
  50 C :   -0.215226
  51 C :   -0.206452
  52 S :    0.397089
  53 N :   -0.105709
  54 C :   -0.125119
  55 S :    0.405637
  56 C :   -0.215917
  57 C :    0.014928
  58 C :   -0.031548
  59 C :   -0.048922
  60 C :   -0.137428
  61 S :    0.435972
  62 C :   -0.200279
  63 C :   -0.041592
  64 C :   -0.062437
  65 C :   -0.164318
  66 S :    0.419102
  67 C :   -0.037647
  68 C :   -0.023577
  69 C :   -0.043054
  70 H :    0.042529
  71 H :    0.041274
  72 H :    0.029991
  73 H :    0.036317
  74 H :    0.046743
  75 H :    0.051589
  76 H :    0.048702
  77 H :    0.059567
  78 H :    0.059717
  79 H :    0.039419
  80 H :    0.032406
  81 H :    0.039632
  82 H :    0.048303
  83 H :    0.042873
  84 H :    0.036664
  85 H :    0.030769
  86 H :    0.023372
  87 H :    0.029743
  88 H :    0.022015
  89 H :    0.024899

  Mayer bond orders larger than 0.100000
B(  0-C ,  1-C ) :   1.6209 B(  0-C ,  6-C ) :   1.0030 B(  0-C , 17-C ) :   1.0747
B(  1-C ,  2-C ) :   1.1416 B(  1-C ,  4-C ) :   1.1516 B(  2-C ,  3-N ) :   2.9706
B(  4-C ,  5-N ) :   2.9567 B(  6-C ,  7-C ) :   1.2676 B(  6-C , 11-C ) :   1.4165
B(  7-C ,  8-C ) :   1.4251 B(  7-C , 15-C ) :   0.9639 B(  8-C ,  9-C ) :   1.2424
B(  8-C , 70-H ) :   1.0171 B(  9-C , 10-C ) :   1.3024 B(  9-C , 14-C ) :   1.1744
B( 10-C , 11-C ) :   1.3205 B( 10-C , 12-S ) :   1.1009 B( 11-C , 71-H ) :   0.9820
B( 12-S , 13-C ) :   1.1278 B( 13-C , 14-C ) :   1.6263 B( 13-C , 72-H ) :   0.9686
B( 14-C , 73-H ) :   0.9992 B( 15-C , 16-O ) :   2.1254 B( 15-C , 17-C ) :   0.9712
B( 17-C , 18-C ) :   1.5189 B( 18-C , 19-C ) :   1.2658 B( 18-C , 74-H ) :   0.9310
B( 19-C , 20-S ) :   1.0841 B( 19-C , 23-C ) :   1.3845 B( 20-S , 21-C ) :   1.1369
B( 21-C , 22-C ) :   1.4165 B( 21-C , 32-C ) :   1.1863 B( 22-C , 23-C ) :   1.4001
B( 22-C , 31-C ) :   1.0478 B( 23-C , 24-C ) :   1.0570 B( 24-C , 25-C ) :   1.0858
B( 24-C , 75-H ) :   0.8985 B( 24-C , 76-H ) :   0.8825 B( 25-C , 26-C ) :   1.0927
B( 25-C , 28-C ) :   1.0686 B( 25-C , 77-H ) :   0.8546 B( 26-C , 27-N ) :   3.1214
B( 28-C , 29-C ) :   1.0869 B( 28-C , 31-C ) :   1.0856 B( 28-C , 78-H ) :   0.8532
B( 29-C , 30-N ) :   3.1257 B( 31-C , 79-H ) :   0.8884 B( 31-C , 80-H ) :   0.9046
B( 32-C , 33-C ) :   1.4313 B( 32-C , 36-S ) :   1.0866 B( 33-C , 34-C ) :   1.3135
B( 33-C , 81-H ) :   0.9876 B( 34-C , 35-C ) :   1.4157 B( 34-C , 39-C ) :   0.9913
B( 35-C , 36-S ) :   1.1286 B( 35-C , 37-C ) :   1.1978 B( 37-C , 38-C ) :   1.4246
B( 37-C , 47-S ) :   1.1270 B( 38-C , 39-C ) :   0.9886 B( 38-C , 45-C ) :   1.2742
B( 39-C , 40-C ) :   1.7234 B( 40-C , 41-C ) :   1.1357 B( 40-C , 43-C ) :   1.1343
B( 41-C , 42-N ) :   2.9941 B( 43-C , 44-N ) :   3.0013 B( 45-C , 46-C ) :   1.4687
B( 45-C , 82-H ) :   1.0110 B( 46-C , 47-S ) :   1.1061 B( 46-C , 48-C ) :   1.1074
B( 48-C , 49-N ) :   1.7336 B( 48-C , 52-S ) :   1.0745 B( 49-N , 50-C ) :   1.3978
B( 49-N , 52-S ) :   0.1022 B( 50-C , 51-C ) :   1.2932 B( 50-C , 55-S ) :   1.0944
B( 51-C , 52-S ) :   1.1006 B( 51-C , 53-N ) :   1.4053 B( 53-N , 54-C ) :   1.6971
B( 54-C , 55-S ) :   1.0888 B( 54-C , 56-C ) :   1.0991 B( 56-C , 57-C ) :   1.5647
B( 56-C , 61-S ) :   1.0300 B( 57-C , 58-C ) :   1.2014 B( 57-C , 83-H ) :   0.9710
B( 58-C , 59-C ) :   1.0387 B( 58-C , 67-C ) :   1.4244 B( 59-C , 60-C ) :   1.6133
B( 59-C , 62-C ) :   1.1898 B( 60-C , 61-S ) :   1.1390 B( 60-C , 84-H ) :   0.9414
B( 62-C , 63-C ) :   1.4258 B( 62-C , 66-S ) :   1.0759 B( 63-C , 64-C ) :   1.2128
B( 63-C , 67-C ) :   1.1309 B( 64-C , 65-C ) :   1.5904 B( 64-C , 85-H ) :   0.9970
B( 65-C , 66-S ) :   1.1493 B( 65-C , 86-H ) :   0.9667 B( 67-C , 68-C ) :   1.1027
B( 68-C , 69-C ) :   1.9239 B( 68-C , 87-H ) :   0.9554 B( 69-C , 88-H ) :   0.9587
B( 69-C , 89-H ) :   0.9464

-----------------------------------------------------------------------------
         ABSORPTION SPECTRUM VIA TRANSITION ELECTRIC DIPOLE MOMENTS
-----------------------------------------------------------------------------
State   Energy  Wavelength   fosc         T2         TX        TY        TZ
        (cm-1)    (nm)                  (au**2)     (au)      (au)      (au)
-----------------------------------------------------------------------------
   0   11454.8    873.0   0.462924034  13.30444   1.44789  -2.59810  -2.11138
   1   16999.0    588.3   0.533599914  10.33397  -0.90334   2.14139   2.22090
   2   18385.5    543.9   1.465574482  26.24263   1.84267  -3.55864  -3.19113
   3   20910.9    478.2   0.281828750   4.43699   0.12595  -1.18757  -1.73516
   4   22914.8    436.4   0.000305687   0.00439  -0.05546  -0.01499  -0.03303
   5   23490.7    425.7   0.001899330   0.02662   0.03557   0.00072   0.15922
   6   23769.0    420.7   0.282262403   3.90946   0.59138  -1.31546  -1.35251
   7   25401.7    393.7   0.018498512   0.23974   0.37884  -0.28450   0.12363
   8   26535.5    376.9   0.117572868   1.45866  -0.17246  -0.85208  -0.83838
   9   26664.3    375.0   0.136532403   1.68571  -1.05782   0.75193  -0.03631
  10   27747.4    360.4   0.019800870   0.23493   0.33618  -0.17445   0.30246
  11   28050.3    356.5   0.076485653   0.89767  -0.74869   0.57821   0.05293
  12   29072.1    344.0   0.009190190   0.10407  -0.30169   0.11180   0.02352
  13   29304.2    341.2   0.048389252   0.54362  -0.18681   0.49656   0.51201
  14   29935.5    334.1   0.122092043   1.34269  -0.18746  -0.51265  -1.02212
  15   30434.5    328.6   0.118934515   1.28652   0.83056   0.04463   0.77117
  16   30771.0    325.0   0.129074907   1.38094  -0.58945  -0.27401  -0.97898
  17   31250.4    320.0   0.211460171   2.22766   0.61010   0.32238   1.32344
  18   31452.2    317.9   0.006676655   0.06988  -0.16051  -0.02581   0.20846
  19   31679.0    315.7   0.110838487   1.15185  -0.85637   0.50070  -0.40961
  20   31965.6    312.8   0.103137457   1.06221   0.63971   0.16169   0.79173
  21   32746.8    305.4   0.186444381   1.87438   0.96399   0.26932   0.93412
  22   32893.1    304.0   0.135048757   1.35164  -0.73784  -0.24824  -0.86349
  23   33050.7    302.6   0.152814967   1.52216  -1.03850   0.62315  -0.23529
  24   33382.5    299.6   0.420147915   4.14343  -1.55114   0.37231  -1.26443
  25   33793.6    295.9   0.027927181   0.27206  -0.40912   0.30541   0.10680
  26   34160.3    292.7   0.064642083   0.62297   0.56542  -0.17544   0.52201
  27   34977.9    285.9   0.193349535   1.81981   1.12760  -0.74018   0.02133
  28   35143.2    284.6   0.017905544   0.16773   0.09037   0.23297   0.32449
  29   35426.2    282.3   0.046064114   0.42807  -0.47520   0.44762  -0.04347
  30   35740.1    279.8   0.300574799   2.76868  -0.33287  -0.54346  -1.53705
  31   35815.7    279.2   0.010996989   0.10108   0.18972  -0.04152   0.25172
  32   35890.1    278.6   0.168925683   1.54952  -0.91742   0.08297  -0.83725
  33   36275.9    275.7   0.001448407   0.01314  -0.09195   0.06844  -0.00216
  34   36483.6    274.1   0.102236207   0.92253   0.63177  -0.63586  -0.34508
  35   36888.8    271.1   0.374259760   3.34006  -0.59433  -0.54796  -1.63908
  36   37487.0    266.8   0.066330786   0.58252  -0.43143  -0.09521  -0.62235
  37   37756.8    264.9   0.019638340   0.17123  -0.29745   0.07626  -0.27738
  38   37986.8    263.2   0.030577096   0.26500  -0.43966   0.25479   0.08230
  39   38407.2    260.4   0.125963791   1.07971  -0.78710   0.65949   0.15896
  40   38712.9    258.3   0.214981556   1.82819   0.69353  -0.87131  -0.76683
  41   39495.9    253.2   0.031884836   0.26577   0.17450   0.11366   0.47160
  42   39615.5    252.4   0.052550655   0.43671   0.16728   0.16445   0.61780
  43   40069.5    249.6   0.031684879   0.26032   0.39426  -0.28808  -0.14797
  44   40104.5    249.3   0.037591212   0.30858  -0.41837   0.32284   0.17122

FINAL SINGLE POINT ENERGY     -5726.095070862507

DIPOLE MOMENT
-------------
                                X             Y             Z
Electronic contribution:    -11.63384       1.36710     -17.51277
Nuclear contribution   :      8.45594       0.38082      17.62083
                        -----------------------------------------
Total Dipole Moment    :     -3.17790       1.74791       0.10806
                        -----------------------------------------
Magnitude (a.u.)       :      3.62849
Magnitude (Debye)      :      9.22288

Rotational constants in cm-1:     0.001987     0.000196     0.000179
Rotational constants in MHz :    59.580306     5.873415     5.357176

                             ****ORCA TERMINATED NORMALLY****
TOTAL RUN TIME: 0 days 0 hours 8 minutes 14 seconds 974 msec
