                         Program Version 4.2.0 -  RELEASE  -
|  1> # ORCA input file
|  2> # SCF done       -135.449527806255          0.000646895981
|  3> ! CAM-B3LYP def2-SVP def2/J RIJCOSX Grid4 TightSCF
|  4> %maxcore 5000
|  5> %tddft
|  6>     Mode sTDDFT
|  7>     Ethresh 5.0
|  8>     maxcore 5000
|  9> end
| 10>
| 11> %pal
| 12>   nprocs 6
| 13>   end
| 14> * xyz 0 1
| 15>    C        1.29167        -0.80630         3.63138
| 16>    C        2.03785         0.28163         4.03485
| 17>    C        2.01612         1.53986         3.30108
| 18>    N        2.79835         2.45828         3.89295
| 19>    S        3.47476         1.81164         5.19001
| 20>    N        2.84271         0.34881         5.11194
| 21>    C        1.21765         1.72661         2.16638
| 22>    C        0.49056         0.58968         1.72621
| 23>    C       -0.27173         0.46134         0.58151
| 24>    S       -0.95052        -1.08789         0.41988
| 25>    C       -0.23327        -1.64256         1.85483
| 26>    C        0.53065        -0.66223         2.46512
| 27>    C        1.15152         3.02707         1.53106
| 28>    C        2.25324         3.86363         1.45131
| 29>    C        2.22104         5.14917         0.90656
| 30>    C        1.06933         5.73684         0.40425
| 31>    C       -0.09194         4.91862         0.47657
| 32>    C       -0.05388         3.58049         1.02308
| 33>    N       -1.28718         3.11377         0.98085
| 34>    O       -2.04185         4.06999         0.44464
| 35>    N       -1.34005         5.16540         0.13126
| 36>    C        1.00806         7.05728        -0.13406
| 37>    N       -0.15659         7.55648        -0.67148
| 38>    C        0.07447         8.82301        -1.09808
| 39>    C       -0.50682         9.92803        -1.71238
| 40>    C        0.49536        10.90283        -1.78899
| 41>    N        1.65928        10.40536        -1.23256
| 42>    C        1.43129         9.13353        -0.81393
| 43>    C        2.01762         8.02558        -0.21401
| 44>    C        0.45618        12.21877        -2.31604
| 45>    C       -0.58898        12.75667        -2.98960
| 46>    C       -0.63659        14.07911        -3.52977
| 47>    C        0.27299        15.09962        -3.29628
| 48>    C        0.17658        16.36580        -3.88045
| 49>    C       -0.84293        16.75035        -4.73569
| 50>    C       -1.81090        15.74400        -5.00001
| 51>    C       -1.69915        14.43058        -4.40837
| 52>    N       -2.69833        13.70589        -4.86675
| 53>    O       -3.38656        14.49536        -5.69091
| 54>    N       -2.86924        15.72175        -5.78758
| 55>    C       -0.86167        18.05087        -5.37400
| 56>    C        0.33447        18.64378        -5.79604
| 57>    C        0.35843        19.89843        -6.53594
| 58>    N        1.61279        20.25261        -6.87278
| 59>    S        2.62196        19.13967        -6.33570
| 60>    N        1.57421        18.14758        -5.64557
| 61>    C       -0.79941        20.58619        -6.83555
| 62>    C       -2.00348        20.04319        -6.37182
| 63>    C       -3.26370        20.60108        -6.50545
| 64>    S       -4.45766        19.66210        -5.74788
| 65>    C       -3.33338        18.49732        -5.23286
| 66>    C       -2.04568        18.78706        -5.64010
| 67>    H        1.30294        -1.72886         4.18705
| 68>    H       -0.46877         1.19381        -0.17149
| 69>    H       -0.37993        -2.65112         2.18355
| 70>    H        3.19553         3.49794         1.82634
| 71>    H        3.14190         5.70970         0.87957
| 72>    H       -1.01834         7.03143        -0.69322
| 73>    H       -1.51466        10.03791        -2.05615
| 74>    H        2.52850        10.90829        -1.18448
| 75>    H        3.02635         7.91808         0.12917
| 76>    H        1.35502        12.80489        -2.17075
| 77>    H       -1.46404        12.15399        -3.18270
| 78>    H        1.09888        14.92409        -2.62418
| 79>    H        0.93937        17.09039        -3.64358
| 80>    H       -0.77402        21.50601        -7.39533
| 81>    H       -3.52018        21.51743        -6.99668
| 82>    H       -3.67753        17.66170        -4.66228
| 83> *
| 84>
| 85>                          ****END OF INPUT****

CARTESIAN COORDINATES (ANGSTROEM)
---------------------------------
  C      1.291670   -0.806300    3.631380
  C      2.037850    0.281630    4.034850
  C      2.016120    1.539860    3.301080
  N      2.798350    2.458280    3.892950
  S      3.474760    1.811640    5.190010
  N      2.842710    0.348810    5.111940
  C      1.217650    1.726610    2.166380
  C      0.490560    0.589680    1.726210
  C     -0.271730    0.461340    0.581510
  S     -0.950520   -1.087890    0.419880
  C     -0.233270   -1.642560    1.854830
  C      0.530650   -0.662230    2.465120
  C      1.151520    3.027070    1.531060
  C      2.253240    3.863630    1.451310
  C      2.221040    5.149170    0.906560
  C      1.069330    5.736840    0.404250
  C     -0.091940    4.918620    0.476570
  C     -0.053880    3.580490    1.023080
  N     -1.287180    3.113770    0.980850
  O     -2.041850    4.069990    0.444640
  N     -1.340050    5.165400    0.131260
  C      1.008060    7.057280   -0.134060
  N     -0.156590    7.556480   -0.671480
  C      0.074470    8.823010   -1.098080
  C     -0.506820    9.928030   -1.712380
  C      0.495360   10.902830   -1.788990
  N      1.659280   10.405360   -1.232560
  C      1.431290    9.133530   -0.813930
  C      2.017620    8.025580   -0.214010
  C      0.456180   12.218770   -2.316040
  C     -0.588980   12.756670   -2.989600
  C     -0.636590   14.079110   -3.529770
  C      0.272990   15.099620   -3.296280
  C      0.176580   16.365800   -3.880450
  C     -0.842930   16.750350   -4.735690
  C     -1.810900   15.744000   -5.000010
  C     -1.699150   14.430580   -4.408370
  N     -2.698330   13.705890   -4.866750
  O     -3.386560   14.495360   -5.690910
  N     -2.869240   15.721750   -5.787580
  C     -0.861670   18.050870   -5.374000
  C      0.334470   18.643780   -5.796040
  C      0.358430   19.898430   -6.535940
  N      1.612790   20.252610   -6.872780
  S      2.621960   19.139670   -6.335700
  N      1.574210   18.147580   -5.645570
  C     -0.799410   20.586190   -6.835550
  C     -2.003480   20.043190   -6.371820
  C     -3.263700   20.601080   -6.505450
  S     -4.457660   19.662100   -5.747880
  C     -3.333380   18.497320   -5.232860
  C     -2.045680   18.787060   -5.640100
  H      1.302940   -1.728860    4.187050
  H     -0.468770    1.193810   -0.171490
  H     -0.379930   -2.651120    2.183550
  H      3.195530    3.497940    1.826340
  H      3.141900    5.709700    0.879570
  H     -1.018340    7.031430   -0.693220
  H     -1.514660   10.037910   -2.056150
  H      2.528500   10.908290   -1.184480
  H      3.026350    7.918080    0.129170
  H      1.355020   12.804890   -2.170750
  H     -1.464040   12.153990   -3.182700
  H      1.098880   14.924090   -2.624180
  H      0.939370   17.090390   -3.643580
  H     -0.774020   21.506010   -7.395330
  H     -3.520180   21.517430   -6.996680
  H     -3.677530   17.661700   -4.662280

 Total Charge           Charge          ....    0
 Multiplicity           Mult            ....    1
 Number of Electrons    NEL             ....  382
 Basis Dimension        Dim             ....  824

ORBITAL ENERGIES
----------------

  NO   OCC          E(Eh)            E(eV)
   0   2.0000     -89.023918     -2422.4640
   1   2.0000     -89.022106     -2422.4147
   2   2.0000     -88.973311     -2421.0869
   3   2.0000     -88.971041     -2421.0251
   4   2.0000     -19.351918      -526.5925
   5   2.0000     -19.341331      -526.3044
   6   2.0000     -14.481605      -394.0645
   7   2.0000     -14.474680      -393.8761
   8   2.0000     -14.467331      -393.6761
   9   2.0000     -14.463763      -393.5790
  10   2.0000     -14.455742      -393.3607
  11   2.0000     -14.447387      -393.1334
  12   2.0000     -14.425513      -392.5382
  13   2.0000     -14.425220      -392.5302
  14   2.0000     -14.423798      -392.4915
  15   2.0000     -14.423577      -392.4855
  16   2.0000     -10.324571      -280.9459
  17   2.0000     -10.321136      -280.8524
  18   2.0000     -10.312873      -280.6275
  19   2.0000     -10.312242      -280.6104
  20   2.0000     -10.310985      -280.5762
  21   2.0000     -10.310801      -280.5712
  22   2.0000     -10.310268      -280.5567
  23   2.0000     -10.308462      -280.5075
  24   2.0000     -10.305367      -280.4233
  25   2.0000     -10.303679      -280.3774
  26   2.0000     -10.303661      -280.3769
  27   2.0000     -10.294082      -280.1162
  28   2.0000     -10.293424      -280.0983
  29   2.0000     -10.290622      -280.0221
  30   2.0000     -10.290560      -280.0204
  31   2.0000     -10.289879      -280.0018
  32   2.0000     -10.289504      -279.9916
  33   2.0000     -10.287736      -279.9435
  34   2.0000     -10.287502      -279.9371
  35   2.0000     -10.286775      -279.9174
  36   2.0000     -10.285506      -279.8828
  37   2.0000     -10.285004      -279.8692
  38   2.0000     -10.284697      -279.8608
  39   2.0000     -10.284607      -279.8584
  40   2.0000     -10.284240      -279.8484
  41   2.0000     -10.284006      -279.8420
  42   2.0000     -10.283146      -279.8186
  43   2.0000     -10.282659      -279.8054
  44   2.0000     -10.282504      -279.8012
  45   2.0000     -10.279617      -279.7226
  46   2.0000     -10.279229      -279.7120
  47   2.0000     -10.277086      -279.6537
  48   2.0000     -10.275252      -279.6038
  49   2.0000     -10.272393      -279.5260
  50   2.0000     -10.264242      -279.3042
  51   2.0000     -10.260435      -279.2006
  52   2.0000      -8.115084      -220.8227
  53   2.0000      -8.113337      -220.7751
  54   2.0000      -8.068452      -219.5537
  55   2.0000      -8.066220      -219.4930
  56   2.0000      -6.085871      -165.6050
  57   2.0000      -6.084140      -165.5579
  58   2.0000      -6.078468      -165.4035
  59   2.0000      -6.078196      -165.3961
  60   2.0000      -6.076712      -165.3557
  61   2.0000      -6.076431      -165.3481
  62   2.0000      -6.036929      -164.2732
  63   2.0000      -6.034705      -164.2127
  64   2.0000      -6.032641      -164.1565
  65   2.0000      -6.032576      -164.1547
  66   2.0000      -6.030375      -164.0948
  67   2.0000      -6.030351      -164.0942
  68   2.0000      -1.303177       -35.4613
  69   2.0000      -1.292813       -35.1792
  70   2.0000      -1.114336       -30.3226
  71   2.0000      -1.112596       -30.2753
  72   2.0000      -1.086633       -29.5688
  73   2.0000      -1.051198       -28.6046
  74   2.0000      -1.008722       -27.4487
  75   2.0000      -0.999109       -27.1871
  76   2.0000      -0.997949       -27.1556
  77   2.0000      -0.992878       -27.0176
  78   2.0000      -0.988081       -26.8871
  79   2.0000      -0.983745       -26.7691
  80   2.0000      -0.966865       -26.3097
  81   2.0000      -0.964790       -26.2533
  82   2.0000      -0.930137       -25.3103
  83   2.0000      -0.927650       -25.2426
  84   2.0000      -0.912115       -24.8199
  85   2.0000      -0.911137       -24.7933
  86   2.0000      -0.894853       -24.3502
  87   2.0000      -0.888962       -24.1899
  88   2.0000      -0.874175       -23.7875
  89   2.0000      -0.861970       -23.4554
  90   2.0000      -0.856650       -23.3106
  91   2.0000      -0.843418       -22.9506
  92   2.0000      -0.840179       -22.8624
  93   2.0000      -0.838161       -22.8075
  94   2.0000      -0.828415       -22.5423
  95   2.0000      -0.793570       -21.5941
  96   2.0000      -0.785372       -21.3711
  97   2.0000      -0.773762       -21.0551
  98   2.0000      -0.765004       -20.8168
  99   2.0000      -0.753906       -20.5148
 100   2.0000      -0.746351       -20.3092
 101   2.0000      -0.742111       -20.1939
 102   2.0000      -0.738640       -20.0994
 103   2.0000      -0.731434       -19.9033
 104   2.0000      -0.728981       -19.8366
 105   2.0000      -0.697526       -18.9807
 106   2.0000      -0.688994       -18.7485
 107   2.0000      -0.688371       -18.7315
 108   2.0000      -0.675638       -18.3850
 109   2.0000      -0.672169       -18.2906
 110   2.0000      -0.670556       -18.2468
 111   2.0000      -0.657671       -17.8961
 112   2.0000      -0.643840       -17.5198
 113   2.0000      -0.640508       -17.4291
 114   2.0000      -0.638073       -17.3629
 115   2.0000      -0.628291       -17.0967
 116   2.0000      -0.627676       -17.0799
 117   2.0000      -0.621308       -16.9066
 118   2.0000      -0.610912       -16.6238
 119   2.0000      -0.604949       -16.4615
 120   2.0000      -0.603504       -16.4222
 121   2.0000      -0.598897       -16.2968
 122   2.0000      -0.593164       -16.1408
 123   2.0000      -0.588971       -16.0267
 124   2.0000      -0.585761       -15.9394
 125   2.0000      -0.584791       -15.9130
 126   2.0000      -0.576582       -15.6896
 127   2.0000      -0.565482       -15.3876
 128   2.0000      -0.559442       -15.2232
 129   2.0000      -0.554680       -15.0936
 130   2.0000      -0.549177       -14.9439
 131   2.0000      -0.544534       -14.8175
 132   2.0000      -0.538789       -14.6612
 133   2.0000      -0.537888       -14.6367
 134   2.0000      -0.535995       -14.5852
 135   2.0000      -0.532351       -14.4860
 136   2.0000      -0.528768       -14.3885
 137   2.0000      -0.520894       -14.1743
 138   2.0000      -0.515842       -14.0368
 139   2.0000      -0.506771       -13.7899
 140   2.0000      -0.499112       -13.5815
 141   2.0000      -0.497034       -13.5250
 142   2.0000      -0.492381       -13.3984
 143   2.0000      -0.489394       -13.3171
 144   2.0000      -0.483445       -13.1552
 145   2.0000      -0.481750       -13.1091
 146   2.0000      -0.480359       -13.0712
 147   2.0000      -0.471730       -12.8364
 148   2.0000      -0.470391       -12.8000
 149   2.0000      -0.468870       -12.7586
 150   2.0000      -0.466553       -12.6955
 151   2.0000      -0.466157       -12.6848
 152   2.0000      -0.464985       -12.6529
 153   2.0000      -0.460501       -12.5309
 154   2.0000      -0.459904       -12.5146
 155   2.0000      -0.458110       -12.4658
 156   2.0000      -0.454594       -12.3701
 157   2.0000      -0.447817       -12.1857
 158   2.0000      -0.447617       -12.1803
 159   2.0000      -0.439462       -11.9584
 160   2.0000      -0.433540       -11.7972
 161   2.0000      -0.425050       -11.5662
 162   2.0000      -0.424198       -11.5430
 163   2.0000      -0.421358       -11.4657
 164   2.0000      -0.418457       -11.3868
 165   2.0000      -0.409836       -11.1522
 166   2.0000      -0.403429       -10.9779
 167   2.0000      -0.400950       -10.9104
 168   2.0000      -0.398673       -10.8484
 169   2.0000      -0.395370       -10.7586
 170   2.0000      -0.392723       -10.6865
 171   2.0000      -0.391365       -10.6496
 172   2.0000      -0.385251       -10.4832
 173   2.0000      -0.381548       -10.3824
 174   2.0000      -0.381148       -10.3716
 175   2.0000      -0.377641       -10.2761
 176   2.0000      -0.364809        -9.9270
 177   2.0000      -0.360125        -9.7995
 178   2.0000      -0.358315        -9.7502
 179   2.0000      -0.348354        -9.4792
 180   2.0000      -0.345052        -9.3893
 181   2.0000      -0.339735        -9.2447
 182   2.0000      -0.334072        -9.0905
 183   2.0000      -0.315851        -8.5947
 184   2.0000      -0.313817        -8.5394
 185   2.0000      -0.311155        -8.4669
 186   2.0000      -0.286395        -7.7932
 187   2.0000      -0.283397        -7.7116
 188   2.0000      -0.244587        -6.6556
 189   2.0000      -0.231831        -6.3084
 190   2.0000      -0.211273        -5.7490
 191   0.0000      -0.089545        -2.4367
 192   0.0000      -0.081782        -2.2254
 193   0.0000      -0.059466        -1.6181
 194   0.0000      -0.046230        -1.2580
 195   0.0000       0.001818         0.0495

MULLIKEN ATOMIC CHARGES
-----------------------
   0 C :   -0.091794
   1 C :    0.088132
   2 C :   -0.044366
   3 N :   -0.309297
   4 S :    0.523606
   5 N :   -0.288341
   6 C :    0.123026
   7 C :    0.042749
   8 C :   -0.149470
   9 S :    0.190295
  10 C :   -0.157036
  11 C :    0.122122
  12 C :   -0.026028
  13 C :    0.015797
  14 C :   -0.062222
  15 C :    0.151682
  16 C :   -0.043480
  17 C :   -0.031837
  18 N :    0.054029
  19 O :   -0.099753
  20 N :   -0.002381
  21 C :    0.003214
  22 N :   -0.031439
  23 C :    0.119879
  24 C :   -0.169963
  25 C :    0.102916
  26 N :   -0.034627
  27 C :    0.117281
  28 C :   -0.168602
  29 C :    0.029761
  30 C :   -0.046045
  31 C :    0.110100
  32 C :   -0.062111
  33 C :    0.017016
  34 C :   -0.023134
  35 C :   -0.037019
  36 C :   -0.057020
  37 N :    0.043835
  38 O :   -0.104854
  39 N :    0.044832
  40 C :    0.121550
  41 C :   -0.039810
  42 C :    0.084199
  43 N :   -0.287549
  44 S :    0.521045
  45 N :   -0.308512
  46 C :   -0.088439
  47 C :    0.121265
  48 C :   -0.157875
  49 S :    0.190227
  50 C :   -0.146124
  51 C :    0.042303
  52 H :   -0.031779
  53 H :    0.023842
  54 H :    0.017225
  55 H :   -0.011278
  56 H :   -0.024520
  57 H :    0.129327
  58 H :   -0.026469
  59 H :    0.118819
  60 H :   -0.041237
  61 H :   -0.034009
  62 H :   -0.002269
  63 H :   -0.024811
  64 H :   -0.013775
  65 H :   -0.032620
  66 H :    0.016196
  67 H :    0.025629
Sum of atomic charges:    0.0000000

LOEWDIN ATOMIC CHARGES
----------------------
   0 C :   -0.016736
   1 C :   -0.059434
   2 C :   -0.048387
   3 N :   -0.310551
   4 S :    0.669613
   5 N :   -0.304649
   6 C :   -0.026906
   7 C :   -0.042383
   8 C :   -0.205224
   9 S :    0.539404
  10 C :   -0.224300
  11 C :   -0.043005
  12 C :   -0.039622
  13 C :    0.017124
  14 C :   -0.017378
  15 C :   -0.026183
  16 C :   -0.041879
  17 C :   -0.045642
  18 N :   -0.018779
  19 O :    0.068720
  20 N :   -0.043634
  21 C :   -0.001176
  22 N :    0.076349
  23 C :   -0.012991
  24 C :   -0.083665
  25 C :   -0.002123
  26 N :    0.067254
  27 C :   -0.020031
  28 C :   -0.090866
  29 C :   -0.015047
  30 C :   -0.027609
  31 C :   -0.022105
  32 C :   -0.020942
  33 C :    0.014373
  34 C :   -0.034505
  35 C :   -0.050271
  36 C :   -0.052351
  37 N :   -0.028575
  38 O :    0.067542
  39 N :   -0.028890
  40 C :   -0.025962
  41 C :   -0.048078
  42 C :   -0.059760
  43 N :   -0.305003
  44 S :    0.667694
  45 N :   -0.310254
  46 C :   -0.016688
  47 C :   -0.042955
  48 C :   -0.225313
  49 S :    0.539713
  50 C :   -0.203164
  51 C :   -0.041970
  52 H :    0.036058
  53 H :    0.019228
  54 H :    0.022549
  55 H :    0.034827
  56 H :    0.032147
  57 H :    0.077251
  58 H :    0.027323
  59 H :    0.087540
  60 H :    0.022289
  61 H :    0.024455
  62 H :    0.033947
  63 H :    0.027906
  64 H :    0.033572
  65 H :    0.035795
  66 H :    0.022157
  67 H :    0.020159

  Mayer bond orders larger than 0.100000
B(  0-C ,  1-C ) :   1.3308 B(  0-C ,  6-C ) :   0.1448 B(  0-C , 11-C ) :   1.2188
B(  0-C , 52-H ) :   1.0345 B(  1-C ,  2-C ) :   1.1058 B(  1-C ,  5-N ) :   1.4006
B(  2-C ,  3-N ) :   1.4288 B(  2-C ,  6-C ) :   1.3562 B(  3-N ,  4-S ) :   1.2960
B(  3-N ,  5-N ) :   0.1807 B(  4-S ,  5-N ) :   1.3233 B(  6-C ,  7-C ) :   1.2744
B(  6-C , 12-C ) :   0.9888 B(  7-C ,  8-C ) :   1.4085 B(  7-C , 11-C ) :   1.1382
B(  8-C ,  9-S ) :   1.2527 B(  8-C , 10-C ) :   0.1336 B(  8-C , 53-H ) :   0.9469
B(  9-S , 10-C ) :   1.2585 B( 10-C , 11-C ) :   1.3325 B( 10-C , 54-H ) :   0.9698
B( 12-C , 13-C ) :   1.4992 B( 12-C , 15-C ) :   0.1099 B( 12-C , 17-C ) :   1.1838
B( 13-C , 14-C ) :   1.2098 B( 13-C , 55-H ) :   0.9838 B( 14-C , 15-C ) :   1.4758
B( 14-C , 56-H ) :   0.9934 B( 15-C , 16-C ) :   1.1076 B( 15-C , 21-C ) :   1.0638
B( 16-C , 17-C ) :   1.1409 B( 16-C , 20-N ) :   1.5677 B( 17-C , 18-N ) :   1.5919
B( 18-N , 19-O ) :   1.0601 B( 18-N , 20-N ) :   0.1796 B( 19-O , 20-N ) :   1.0609
B( 21-C , 22-N ) :   1.2486 B( 21-C , 28-C ) :   1.3908 B( 22-N , 23-C ) :   1.1750
B( 22-N , 57-H ) :   0.8994 B( 23-C , 24-C ) :   1.2582 B( 23-C , 27-C ) :   1.2965
B( 24-C , 25-C ) :   1.3998 B( 24-C , 58-H ) :   1.0338 B( 25-C , 26-N ) :   1.1638
B( 25-C , 29-C ) :   1.1169 B( 26-N , 27-C ) :   1.1671 B( 26-N , 59-H ) :   0.9363
B( 27-C , 28-C ) :   1.2683 B( 28-C , 60-H ) :   1.0182 B( 29-C , 30-C ) :   1.6366
B( 29-C , 61-H ) :   0.9600 B( 30-C , 31-C ) :   1.1330 B( 30-C , 62-H ) :   0.9862
B( 31-C , 32-C ) :   1.4330 B( 31-C , 34-C ) :   0.1077 B( 31-C , 36-C ) :   1.1146
B( 32-C , 33-C ) :   1.2202 B( 32-C , 63-H ) :   0.9910 B( 33-C , 34-C ) :   1.5097
B( 33-C , 64-H ) :   0.9833 B( 34-C , 35-C ) :   1.1842 B( 34-C , 40-C ) :   0.9874
B( 35-C , 36-C ) :   1.1371 B( 35-C , 39-N ) :   1.5909 B( 36-C , 37-N ) :   1.6211
B( 37-N , 38-O ) :   1.0628 B( 37-N , 39-N ) :   0.1825 B( 38-O , 39-N ) :   1.0513
B( 40-C , 41-C ) :   1.3553 B( 40-C , 46-C ) :   0.1454 B( 40-C , 51-C ) :   1.2744
B( 41-C , 42-C ) :   1.1056 B( 41-C , 45-N ) :   1.4284 B( 42-C , 43-N ) :   1.4020
B( 42-C , 46-C ) :   1.3313 B( 43-N , 44-S ) :   1.3223 B( 43-N , 45-N ) :   0.1808
B( 44-S , 45-N ) :   1.2959 B( 46-C , 47-C ) :   1.2208 B( 46-C , 65-H ) :   1.0338
B( 47-C , 48-C ) :   1.3322 B( 47-C , 51-C ) :   1.1381 B( 48-C , 49-S ) :   1.2582
B( 48-C , 50-C ) :   0.1335 B( 48-C , 66-H ) :   0.9698 B( 49-S , 50-C ) :   1.2541
B( 50-C , 51-C ) :   1.4075 B( 50-C , 67-H ) :   0.9466

-----------------------------------------------------------------------------
         ABSORPTION SPECTRUM VIA TRANSITION ELECTRIC DIPOLE MOMENTS
-----------------------------------------------------------------------------
State   Energy  Wavelength   fosc         T2         TX        TY        TZ
        (cm-1)    (nm)                  (au**2)     (au)      (au)      (au)
-----------------------------------------------------------------------------
   0   12686.3    788.3   1.561344158  40.51715   0.54544  -5.71403   2.75127
   1   14775.5    676.8   0.018730868   0.41734  -0.09465   0.55173  -0.32245
   2   17806.1    561.6   0.056844842   1.05099  -0.12807   0.95022  -0.36285
   3   18166.2    550.5   0.130161775   2.35882   0.31033  -1.39594   0.56024
   4   18612.2    537.3   0.001899730   0.03360   0.04077   0.16683  -0.06410
   5   20186.3    495.4   0.043325508   0.70658  -0.31512   0.66778  -0.40168
   6   23128.8    432.4   0.029062126   0.41367  -0.00328  -0.58191   0.27392
   7   23772.7    420.7   0.037037264   0.51290   0.18418  -0.60574   0.33475
   8   25765.9    388.1   0.024185589   0.30902  -0.21155   0.44148  -0.26336
   9   26205.7    381.6   0.006922045   0.08696  -0.09984   0.23387  -0.14932
  10   27817.6    359.5   0.053170996   0.62926  -0.48435   0.51584  -0.35857
  11   29094.7    343.7   0.059076133   0.66846   0.05854  -0.74567   0.33016
  12   29716.7    336.5   0.107149841   1.18704   0.01304  -1.01444   0.39721
  13   30657.5    326.2   0.172977160   1.85749   0.32972  -1.19893   0.55798
  14   31539.3    317.1   0.146579517   1.53002   0.10903  -1.14561   0.45355
  15   32031.1    312.2   0.007993502   0.08216  -0.21221   0.13830  -0.13416
  16   32687.6    305.9   0.155173015   1.56282  -0.25426   1.09984  -0.53715
  17   33060.5    302.5   0.426785536   4.24987   2.02202  -0.10329  -0.38814
  18   33195.3    301.2   0.010581923   0.10495  -0.04048   0.04901   0.31765
  19   33294.2    300.4   0.469929024   4.64664  -1.41390  -0.90517  -1.35211
  20   33599.6    297.6   0.050944528   0.49916  -0.34290   0.38448  -0.48348
  21   34085.7    293.4   0.007976861   0.07704   0.05136   0.21267  -0.17081
  22   34633.5    288.7   0.003322874   0.03159   0.14359   0.03274  -0.09947
  23   34770.8    287.6   0.000839582   0.00795   0.03081  -0.06983   0.04608
  24   35276.0    283.5   0.010358716   0.09667  -0.13463   0.16364  -0.22753
  25   35934.3    278.3   0.003499239   0.03206  -0.07268   0.02981   0.16090
  26   36470.0    274.2   0.009633398   0.08696   0.11934   0.24430  -0.11417
  27   36695.9    272.5   0.001553979   0.01394   0.01417   0.01650  -0.11605
  28   37191.3    268.9   0.050600883   0.44791   0.01141   0.57980  -0.33409
  29   38004.4    263.1   0.011143935   0.09653  -0.19855   0.22313  -0.08560
  30   38195.6    261.8   0.006593601   0.05683  -0.21042   0.06660  -0.09010
  31   38236.2    261.5   0.011110882   0.09566  -0.13137  -0.23812   0.14732
  32   38736.9    258.2   0.022950812   0.19505   0.11843   0.41909  -0.07342
  33   39121.0    255.6   0.170026144   1.43081   0.75131   0.65966   0.65665
  34   39285.2    254.5   0.061995964   0.51953  -0.39934   0.33436  -0.49826
  35   39536.8    252.9   0.126041580   1.04951  -1.01695   0.07037   0.10190
  36   39844.1    251.0   0.003249184   0.02685   0.00535   0.08130  -0.14216
  37   39990.5    250.1   0.003839422   0.03161   0.05533  -0.14299  -0.08999

FINAL SINGLE POINT ENERGY     -3668.857307366089

DIPOLE MOMENT
-------------
                                X             Y             Z
Electronic contribution:     -1.96641      -2.58140       0.06730
Nuclear contribution   :      3.62338       2.62129       0.66462
                        -----------------------------------------
Total Dipole Moment    :      1.65697       0.03988       0.73192
                        -----------------------------------------
Magnitude (a.u.)       :      1.81186
Magnitude (Debye)      :      4.60539

Rotational constants in cm-1:     0.005065     0.000318     0.000305
Rotational constants in MHz :   151.855810     9.520767     9.147003

                             ****ORCA TERMINATED NORMALLY****
TOTAL RUN TIME: 0 days 0 hours 5 minutes 1 seconds 540 msec
