                         Program Version 4.2.0 -  RELEASE  -
|  1> # ORCA input file
|  2> # SCF done       -181.028861692732          0.000914097031
|  3> ! CAM-B3LYP def2-SVP def2/J RIJCOSX Grid4 TightSCF
|  4> %maxcore 5000
|  5> %tddft
|  6>     Mode sTDDFT
|  7>     Ethresh 5.0
|  8>     maxcore 5000
|  9> end
| 10>
| 11> %pal
| 12>   nprocs 6
| 13>   end
| 14> * xyz 0 1
| 15>    C       -0.18997         3.72390        -0.18363
| 16>    C       -0.15323         4.02941        -1.53781
| 17>    C        0.58127         3.25539        -2.42683
| 18>    C        1.27600         2.17019        -1.92528
| 19>    C        1.23856         1.86240        -0.55979
| 20>    C        0.50666         2.63477         0.32318
| 21>    C        2.06189         0.66113        -0.28050
| 22>    O        2.22265         0.15082         0.80814
| 23>    C        2.62044         0.25148        -1.58346
| 24>    C        2.13006         1.18755        -2.62721
| 25>    O        2.38948         1.14283        -3.80930
| 26>    C        3.45498        -0.76012        -1.94506
| 27>    C        4.06737        -1.77610        -1.18004
| 28>    C        3.99462        -2.08179         0.17138
| 29>    C        4.77735        -3.18222         0.50195
| 30>    C        5.46062        -3.72783        -0.60752
| 31>    S        5.13251        -2.89028        -2.04818
| 32>    C        6.23117        -4.83046        -0.16569
| 33>    C        6.03883        -4.98797         1.21698
| 34>    C        5.11660        -3.96008         1.68230
| 35>    C        4.67476        -3.78427         2.95942
| 36>    C        5.09444        -4.62898         4.01008
| 37>    N        5.44066        -5.31184         4.86357
| 38>    C        3.77162        -2.76814         3.34332
| 39>    N        3.03925        -1.96259         3.70060
| 40>    C        6.76539        -6.05265         1.74728
| 41>    C        7.50915        -6.70440         0.77923
| 42>    S        7.30574        -5.99222        -0.81311
| 43>    C        8.36630        -7.81940         0.95846
| 44>    C        9.12004        -8.47013        -0.00147
| 45>    C        9.85273        -9.52624         0.53941
| 46>    C        9.65245        -9.67876         1.92206
| 47>    S        8.56528        -8.52592         2.55648
| 48>    C       10.43727       -10.76895         2.37529
| 49>    C       11.13503       -11.30629         1.28012
| 50>    C       10.79076       -10.54360         0.08981
| 51>    C       11.25034       -10.73909        -1.17889
| 52>    C       12.16656       -11.76477        -1.49455
| 53>    N       12.91134       -12.59742        -1.75200
| 54>    C       10.84022        -9.92629        -2.25701
| 55>    N       10.50216        -9.26832        -3.13289
| 56>    C       11.94091       -12.39014         1.62894
| 57>    C       11.86051       -12.67992         2.97882
| 58>    S       10.77059       -11.59462         3.83138
| 59>    C       12.53217       -13.70568         3.69139
| 60>    C       12.43622       -13.98366         5.04325
| 61>    C       13.23485       -15.06579         5.40871
| 62>    C       13.94492       -15.61618         4.32759
| 63>    S       13.62782       -14.79946         2.86025
| 64>    C       14.72376       -16.70714         4.79236
| 65>    C       14.49739       -16.83951         6.18159
| 66>    C       13.55845       -15.81704         6.61121
| 67>    C       13.07745       -15.60406         7.86962
| 68>    C       13.46359       -16.40199         8.96720
| 69>    N       13.77213       -17.04903         9.86186
| 70>    C       12.16092       -14.57007         8.15448
| 71>    N       11.41582       -13.72837         8.38102
| 72>    C       15.21630       -17.88669         6.73249
| 73>    C       15.98794       -18.55908         5.78465
| 74>    S       15.81121       -17.86372         4.17428
| 75>    C       16.79964       -19.66437         6.10296
| 76>    C       17.59177       -20.42619         5.29855
| 77>    C       18.37120       -21.56983         5.82362
| 78>    O       18.41490       -21.95283         6.97086
| 79>    C       19.07780       -22.13936         4.65034
| 80>    C       19.93373       -23.22154         4.57780
| 81>    C       20.46785       -23.55261         3.33838
| 82>    C       20.15201       -22.81776         2.20397
| 83>    C       19.29174       -21.72907         2.27262
| 84>    C       18.75832       -21.39776         3.50415
| 85>    C       17.82592       -20.30485         3.86047
| 86>    O       17.35238       -19.47529         3.10327
| 87>    H       -0.76948         4.34374         0.48447
| 88>    H       -0.70475         4.88262        -1.90423
| 89>    H        0.61524         3.48553        -3.48064
| 90>    H        0.48505         2.38799         1.37355
| 91>    H        3.68897        -0.78303        -3.00736
| 92>    H        3.39295        -1.50822         0.85558
| 93>    H        6.76678        -6.35123         2.78018
| 94>    H        9.12438        -8.17666        -1.03594
| 95>    H       12.55898       -12.94909         0.94942
| 96>    H       11.81240       -13.41829         5.71219
| 97>    H       15.19985       -18.17332         7.76893
| 98>    H       16.78722       -19.95384         7.15030
| 99>    H       20.17379       -23.78742         5.46477
|100>    H       21.13895       -24.39464         3.25553
|101>    H       20.58171       -23.09763         1.25358
|102>    H       19.04072       -21.15284         1.39528
|103> *
|104>
|105>                          ****END OF INPUT****

CARTESIAN COORDINATES (ANGSTROEM)
---------------------------------
  C     -0.189970    3.723900   -0.183630
  C     -0.153230    4.029410   -1.537810
  C      0.581270    3.255390   -2.426830
  C      1.276000    2.170190   -1.925280
  C      1.238560    1.862400   -0.559790
  C      0.506660    2.634770    0.323180
  C      2.061890    0.661130   -0.280500
  O      2.222650    0.150820    0.808140
  C      2.620440    0.251480   -1.583460
  C      2.130060    1.187550   -2.627210
  O      2.389480    1.142830   -3.809300
  C      3.454980   -0.760120   -1.945060
  C      4.067370   -1.776100   -1.180040
  C      3.994620   -2.081790    0.171380
  C      4.777350   -3.182220    0.501950
  C      5.460620   -3.727830   -0.607520
  S      5.132510   -2.890280   -2.048180
  C      6.231170   -4.830460   -0.165690
  C      6.038830   -4.987970    1.216980
  C      5.116600   -3.960080    1.682300
  C      4.674760   -3.784270    2.959420
  C      5.094440   -4.628980    4.010080
  N      5.440660   -5.311840    4.863570
  C      3.771620   -2.768140    3.343320
  N      3.039250   -1.962590    3.700600
  C      6.765390   -6.052650    1.747280
  C      7.509150   -6.704400    0.779230
  S      7.305740   -5.992220   -0.813110
  C      8.366300   -7.819400    0.958460
  C      9.120040   -8.470130   -0.001470
  C      9.852730   -9.526240    0.539410
  C      9.652450   -9.678760    1.922060
  S      8.565280   -8.525920    2.556480
  C     10.437270  -10.768950    2.375290
  C     11.135030  -11.306290    1.280120
  C     10.790760  -10.543600    0.089810
  C     11.250340  -10.739090   -1.178890
  C     12.166560  -11.764770   -1.494550
  N     12.911340  -12.597420   -1.752000
  C     10.840220   -9.926290   -2.257010
  N     10.502160   -9.268320   -3.132890
  C     11.940910  -12.390140    1.628940
  C     11.860510  -12.679920    2.978820
  S     10.770590  -11.594620    3.831380
  C     12.532170  -13.705680    3.691390
  C     12.436220  -13.983660    5.043250
  C     13.234850  -15.065790    5.408710
  C     13.944920  -15.616180    4.327590
  S     13.627820  -14.799460    2.860250
  C     14.723760  -16.707140    4.792360
  C     14.497390  -16.839510    6.181590
  C     13.558450  -15.817040    6.611210
  C     13.077450  -15.604060    7.869620
  C     13.463590  -16.401990    8.967200
  N     13.772130  -17.049030    9.861860
  C     12.160920  -14.570070    8.154480
  N     11.415820  -13.728370    8.381020
  C     15.216300  -17.886690    6.732490
  C     15.987940  -18.559080    5.784650
  S     15.811210  -17.863720    4.174280
  C     16.799640  -19.664370    6.102960
  C     17.591770  -20.426190    5.298550
  C     18.371200  -21.569830    5.823620
  O     18.414900  -21.952830    6.970860
  C     19.077800  -22.139360    4.650340
  C     19.933730  -23.221540    4.577800
  C     20.467850  -23.552610    3.338380
  C     20.152010  -22.817760    2.203970
  C     19.291740  -21.729070    2.272620
  C     18.758320  -21.397760    3.504150
  C     17.825920  -20.304850    3.860470
  O     17.352380  -19.475290    3.103270
  H     -0.769480    4.343740    0.484470
  H     -0.704750    4.882620   -1.904230
  H      0.615240    3.485530   -3.480640
  H      0.485050    2.387990    1.373550
  H      3.688970   -0.783030   -3.007360
  H      3.392950   -1.508220    0.855580
  H      6.766780   -6.351230    2.780180
  H      9.124380   -8.176660   -1.035940
  H     12.558980  -12.949090    0.949420
  H     11.812400  -13.418290    5.712190
  H     15.199850  -18.173320    7.768930
  H     16.787220  -19.953840    7.150300
  H     20.173790  -23.787420    5.464770
  H     21.138950  -24.394640    3.255530
  H     20.581710  -23.097630    1.253580
  H     19.040720  -21.152840    1.395280

 Total Charge           Charge          ....    0
 Multiplicity           Mult            ....    1
 Number of Electrons    NEL             ....  522
 Basis Dimension        Dim             .... 1112

ORBITAL ENERGIES
----------------

  NO   OCC          E(Eh)            E(eV)
   0   2.0000     -88.999938     -2421.8114
   1   2.0000     -88.999684     -2421.8045
   2   2.0000     -88.998573     -2421.7743
   3   2.0000     -88.997680     -2421.7500
   4   2.0000     -88.993471     -2421.6355
   5   2.0000     -88.988152     -2421.4907
   6   2.0000     -19.219416      -522.9869
   7   2.0000     -19.212264      -522.7923
   8   2.0000     -19.209104      -522.7063
   9   2.0000     -19.207086      -522.6514
  10   2.0000     -14.438824      -392.9004
  11   2.0000     -14.438531      -392.8924
  12   2.0000     -14.434072      -392.7711
  13   2.0000     -14.434018      -392.7696
  14   2.0000     -14.432877      -392.7386
  15   2.0000     -14.428146      -392.6098
  16   2.0000     -10.373796      -282.2853
  17   2.0000     -10.368667      -282.1458
  18   2.0000     -10.367899      -282.1249
  19   2.0000     -10.367882      -282.1244
  20   2.0000     -10.363297      -281.9996
  21   2.0000     -10.360738      -281.9300
  22   2.0000     -10.359860      -281.9061
  23   2.0000     -10.357317      -281.8369
  24   2.0000     -10.355971      -281.8003
  25   2.0000     -10.354833      -281.7693
  26   2.0000     -10.342883      -281.4441
  27   2.0000     -10.341613      -281.4096
  28   2.0000     -10.341306      -281.4012
  29   2.0000     -10.340190      -281.3709
  30   2.0000     -10.339512      -281.3524
  31   2.0000     -10.339002      -281.3385
  32   2.0000     -10.338623      -281.3282
  33   2.0000     -10.338598      -281.3275
  34   2.0000     -10.338521      -281.3255
  35   2.0000     -10.337856      -281.3074
  36   2.0000     -10.336954      -281.2828
  37   2.0000     -10.334535      -281.2170
  38   2.0000     -10.334222      -281.2085
  39   2.0000     -10.333298      -281.1833
  40   2.0000     -10.333021      -281.1758
  41   2.0000     -10.326903      -281.0093
  42   2.0000     -10.323712      -280.9225
  43   2.0000     -10.323295      -280.9111
  44   2.0000     -10.319736      -280.8143
  45   2.0000     -10.317418      -280.7512
  46   2.0000     -10.313494      -280.6444
  47   2.0000     -10.312808      -280.6258
  48   2.0000     -10.312766      -280.6246
  49   2.0000     -10.312517      -280.6179
  50   2.0000     -10.312018      -280.6043
  51   2.0000     -10.311731      -280.5965
  52   2.0000     -10.310459      -280.5619
  53   2.0000     -10.309733      -280.5421
  54   2.0000     -10.309371      -280.5323
  55   2.0000     -10.306254      -280.4474
  56   2.0000     -10.304361      -280.3959
  57   2.0000     -10.301172      -280.3091
  58   2.0000     -10.292070      -280.0615
  59   2.0000     -10.291861      -280.0558
  60   2.0000     -10.291459      -280.0448
  61   2.0000     -10.290751      -280.0256
  62   2.0000     -10.288735      -279.9707
  63   2.0000     -10.288652      -279.9685
  64   2.0000     -10.288291      -279.9586
  65   2.0000     -10.287978      -279.9501
  66   2.0000     -10.287516      -279.9375
  67   2.0000     -10.287253      -279.9304
  68   2.0000     -10.284532      -279.8563
  69   2.0000     -10.284165      -279.8464
  70   2.0000     -10.279399      -279.7167
  71   2.0000     -10.279084      -279.7081
  72   2.0000      -8.094397      -220.2598
  73   2.0000      -8.094130      -220.2525
  74   2.0000      -8.093070      -220.2236
  75   2.0000      -8.092130      -220.1981
  76   2.0000      -8.088332      -220.0947
  77   2.0000      -8.080714      -219.8874
  78   2.0000      -6.063670      -165.0008
  79   2.0000      -6.063407      -164.9937
  80   2.0000      -6.062372      -164.9655
  81   2.0000      -6.061391      -164.9388
  82   2.0000      -6.059513      -164.8877
  83   2.0000      -6.059259      -164.8808
  84   2.0000      -6.058230      -164.8528
  85   2.0000      -6.057384      -164.8298
  86   2.0000      -6.057249      -164.8261
  87   2.0000      -6.056660      -164.8101
  88   2.0000      -6.056410      -164.8033
  89   2.0000      -6.055275      -164.7724
  90   2.0000      -6.054421      -164.7492
  91   2.0000      -6.053317      -164.7191
  92   2.0000      -6.050921      -164.6539
  93   2.0000      -6.050080      -164.6310
  94   2.0000      -6.045361      -164.5026
  95   2.0000      -6.043308      -164.4468
  96   2.0000      -1.134552       -30.8727
  97   2.0000      -1.127794       -30.6888
  98   2.0000      -1.122675       -30.5495
  99   2.0000      -1.120384       -30.4872
 100   2.0000      -1.055015       -28.7084
 101   2.0000      -1.049978       -28.5713
 102   2.0000      -1.048180       -28.5224
 103   2.0000      -1.030671       -28.0460
 104   2.0000      -1.025586       -27.9076
 105   2.0000      -1.024235       -27.8709
 106   2.0000      -1.016680       -27.6653
 107   2.0000      -1.014514       -27.6063
 108   2.0000      -1.011084       -27.5130
 109   2.0000      -1.007562       -27.4172
 110   2.0000      -1.003643       -27.3105
 111   2.0000      -0.994564       -27.0635
 112   2.0000      -0.980591       -26.6832
 113   2.0000      -0.976706       -26.5775
 114   2.0000      -0.970992       -26.4220
 115   2.0000      -0.962031       -26.1782
 116   2.0000      -0.959653       -26.1135
 117   2.0000      -0.931228       -25.3400
 118   2.0000      -0.928236       -25.2586
 119   2.0000      -0.922559       -25.1041
 120   2.0000      -0.913302       -24.8522
 121   2.0000      -0.906787       -24.6749
 122   2.0000      -0.883058       -24.0292
 123   2.0000      -0.880383       -23.9565
 124   2.0000      -0.876814       -23.8593
 125   2.0000      -0.874684       -23.8014
 126   2.0000      -0.866639       -23.5824
 127   2.0000      -0.865604       -23.5543
 128   2.0000      -0.858981       -23.3741
 129   2.0000      -0.856497       -23.3065
 130   2.0000      -0.854987       -23.2654
 131   2.0000      -0.851589       -23.1729
 132   2.0000      -0.839797       -22.8520
 133   2.0000      -0.817813       -22.2538
 134   2.0000      -0.800052       -21.7705
 135   2.0000      -0.789396       -21.4805
 136   2.0000      -0.787121       -21.4186
 137   2.0000      -0.779551       -21.2127
 138   2.0000      -0.774145       -21.0656
 139   2.0000      -0.758433       -20.6380
 140   2.0000      -0.739415       -20.1205
 141   2.0000      -0.736036       -20.0286
 142   2.0000      -0.732300       -19.9269
 143   2.0000      -0.720924       -19.6173
 144   2.0000      -0.709802       -19.3147
 145   2.0000      -0.708231       -19.2719
 146   2.0000      -0.702924       -19.1275
 147   2.0000      -0.696120       -18.9424
 148   2.0000      -0.691782       -18.8243
 149   2.0000      -0.686618       -18.6838
 150   2.0000      -0.683623       -18.6023
 151   2.0000      -0.678121       -18.4526
 152   2.0000      -0.668011       -18.1775
 153   2.0000      -0.663122       -18.0445
 154   2.0000      -0.654600       -17.8126
 155   2.0000      -0.650367       -17.6974
 156   2.0000      -0.641746       -17.4628
 157   2.0000      -0.638942       -17.3865
 158   2.0000      -0.635884       -17.3033
 159   2.0000      -0.630588       -17.1592
 160   2.0000      -0.628196       -17.0941
 161   2.0000      -0.625262       -17.0142
 162   2.0000      -0.622916       -16.9504
 163   2.0000      -0.619845       -16.8669
 164   2.0000      -0.616763       -16.7830
 165   2.0000      -0.609993       -16.5987
 166   2.0000      -0.592288       -16.1170
 167   2.0000      -0.585009       -15.9189
 168   2.0000      -0.583109       -15.8672
 169   2.0000      -0.573577       -15.6078
 170   2.0000      -0.569692       -15.5021
 171   2.0000      -0.564542       -15.3620
 172   2.0000      -0.558301       -15.1921
 173   2.0000      -0.558061       -15.1856
 174   2.0000      -0.553813       -15.0700
 175   2.0000      -0.552458       -15.0331
 176   2.0000      -0.550568       -14.9817
 177   2.0000      -0.547562       -14.8999
 178   2.0000      -0.538331       -14.6487
 179   2.0000      -0.533974       -14.5302
 180   2.0000      -0.531087       -14.4516
 181   2.0000      -0.530401       -14.4329
 182   2.0000      -0.529077       -14.3969
 183   2.0000      -0.527854       -14.3636
 184   2.0000      -0.525407       -14.2970
 185   2.0000      -0.524180       -14.2637
 186   2.0000      -0.519279       -14.1303
 187   2.0000      -0.516597       -14.0573
 188   2.0000      -0.516206       -14.0467
 189   2.0000      -0.515016       -14.0143
 190   2.0000      -0.514192       -13.9919
 191   2.0000      -0.510813       -13.8999
 192   2.0000      -0.508437       -13.8353
 193   2.0000      -0.507250       -13.8030
 194   2.0000      -0.506588       -13.7849
 195   2.0000      -0.505137       -13.7455
 196   2.0000      -0.502634       -13.6774
 197   2.0000      -0.501576       -13.6486
 198   2.0000      -0.497085       -13.5264
 199   2.0000      -0.493907       -13.4399
 200   2.0000      -0.491940       -13.3864
 201   2.0000      -0.491015       -13.3612
 202   2.0000      -0.487887       -13.2761
 203   2.0000      -0.484248       -13.1771
 204   2.0000      -0.480062       -13.0632
 205   2.0000      -0.476874       -12.9764
 206   2.0000      -0.472441       -12.8558
 207   2.0000      -0.472314       -12.8523
 208   2.0000      -0.469434       -12.7740
 209   2.0000      -0.468708       -12.7542
 210   2.0000      -0.465760       -12.6740
 211   2.0000      -0.464524       -12.6403
 212   2.0000      -0.463608       -12.6154
 213   2.0000      -0.461898       -12.5689
 214   2.0000      -0.459708       -12.5093
 215   2.0000      -0.458782       -12.4841
 216   2.0000      -0.455751       -12.4016
 217   2.0000      -0.455612       -12.3978
 218   2.0000      -0.454302       -12.3622
 219   2.0000      -0.452292       -12.3075
 220   2.0000      -0.451021       -12.2729
 221   2.0000      -0.448764       -12.2115
 222   2.0000      -0.448670       -12.2089
 223   2.0000      -0.447203       -12.1690
 224   2.0000      -0.445741       -12.1292
 225   2.0000      -0.443809       -12.0766
 226   2.0000      -0.443700       -12.0737
 227   2.0000      -0.441868       -12.0238
 228   2.0000      -0.440746       -11.9933
 229   2.0000      -0.440480       -11.9861
 230   2.0000      -0.439213       -11.9516
 231   2.0000      -0.438446       -11.9307
 232   2.0000      -0.437139       -11.8951
 233   2.0000      -0.434095       -11.8123
 234   2.0000      -0.432327       -11.7642
 235   2.0000      -0.425534       -11.5794
 236   2.0000      -0.423353       -11.5200
 237   2.0000      -0.422310       -11.4917
 238   2.0000      -0.414518       -11.2796
 239   2.0000      -0.400003       -10.8846
 240   2.0000      -0.397774       -10.8240
 241   2.0000      -0.386487       -10.5168
 242   2.0000      -0.363015        -9.8781
 243   2.0000      -0.360435        -9.8079
 244   2.0000      -0.354987        -9.6597
 245   2.0000      -0.351624        -9.5682
 246   2.0000      -0.348472        -9.4824
 247   2.0000      -0.347003        -9.4424
 248   2.0000      -0.342392        -9.3169
 249   2.0000      -0.339895        -9.2490
 250   2.0000      -0.338587        -9.2134
 251   2.0000      -0.336102        -9.1458
 252   2.0000      -0.334622        -9.1055
 253   2.0000      -0.328838        -8.9481
 254   2.0000      -0.326058        -8.8725
 255   2.0000      -0.322916        -8.7870
 256   2.0000      -0.322740        -8.7822
 257   2.0000      -0.320105        -8.7105
 258   2.0000      -0.300825        -8.1859
 259   2.0000      -0.271303        -7.3825
 260   2.0000      -0.245928        -6.6920
 261   0.0000      -0.117611        -3.2004
 262   0.0000      -0.108979        -2.9655
 263   0.0000      -0.108081        -2.9410
 264   0.0000      -0.074386        -2.0242
 265   0.0000      -0.070961        -1.9310

MULLIKEN ATOMIC CHARGES
-----------------------
   0 C :    0.040637
   1 C :    0.038035
   2 C :   -0.023569
   3 C :    0.012798
   4 C :   -0.010956
   5 C :   -0.023869
   6 C :    0.187543
   7 O :   -0.151341
   8 C :   -0.172827
   9 C :    0.144845
  10 O :   -0.152217
  11 C :    0.056322
  12 C :   -0.106811
  13 C :   -0.011913
  14 C :   -0.004748
  15 C :   -0.086639
  16 S :    0.198274
  17 C :   -0.100999
  18 C :    0.022608
  19 C :    0.310823
  20 C :   -0.294773
  21 C :   -0.191021
  22 N :    0.169296
  23 C :   -0.193986
  24 N :    0.200033
  25 C :   -0.070686
  26 C :   -0.043399
  27 S :    0.199212
  28 C :   -0.052702
  29 C :   -0.064598
  30 C :    0.016389
  31 C :   -0.095386
  32 S :    0.202704
  33 C :   -0.096799
  34 C :    0.012337
  35 C :    0.299268
  36 C :   -0.290763
  37 C :   -0.186929
  38 N :    0.174354
  39 C :   -0.188465
  40 N :    0.175267
  41 C :   -0.062498
  42 C :   -0.053337
  43 S :    0.201372
  44 C :   -0.045283
  45 C :   -0.069168
  46 C :    0.017925
  47 C :   -0.105005
  48 S :    0.205480
  49 C :   -0.069121
  50 C :    0.032042
  51 C :    0.304676
  52 C :   -0.294311
  53 C :   -0.192069
  54 N :    0.178272
  55 C :   -0.186896
  56 N :    0.169348
  57 C :   -0.047258
  58 C :   -0.044615
  59 S :    0.239785
  60 C :   -0.009810
  61 C :   -0.173671
  62 C :    0.156409
  63 O :   -0.145180
  64 C :    0.003471
  65 C :   -0.022606
  66 C :    0.037756
  67 C :    0.040638
  68 C :   -0.022942
  69 C :   -0.007201
  70 C :    0.193464
  71 O :   -0.189937
  72 H :   -0.000488
  73 H :   -0.002039
  74 H :   -0.005960
  75 H :   -0.000799
  76 H :    0.010611
  77 H :    0.034085
  78 H :    0.013545
  79 H :    0.012694
  80 H :    0.013329
  81 H :    0.014013
  82 H :    0.015867
  83 H :    0.021673
  84 H :   -0.004323
  85 H :    0.000509
  86 H :   -0.001604
  87 H :   -0.006191
Sum of atomic charges:   -0.0000000

LOEWDIN ATOMIC CHARGES
----------------------
   0 C :   -0.003388
   1 C :   -0.004187
   2 C :    0.009356
   3 C :   -0.046019
   4 C :   -0.042679
   5 C :    0.010531
   6 C :    0.082777
   7 O :   -0.138154
   8 C :   -0.128638
   9 C :    0.078203
  10 O :   -0.150034
  11 C :    0.046712
  12 C :   -0.178888
  13 C :    0.012024
  14 C :   -0.075881
  15 C :   -0.165971
  16 S :    0.487836
  17 C :   -0.187649
  18 C :   -0.055015
  19 C :    0.076326
  20 C :   -0.092831
  21 C :   -0.014155
  22 N :   -0.033483
  23 C :   -0.024923
  24 N :   -0.010389
  25 C :   -0.041226
  26 C :   -0.172986
  27 S :    0.485639
  28 C :   -0.180352
  29 C :   -0.035617
  30 C :   -0.067813
  31 C :   -0.178237
  32 S :    0.491035
  33 C :   -0.178852
  34 C :   -0.067708
  35 C :    0.082098
  36 C :   -0.098705
  37 C :   -0.016678
  38 N :   -0.029420
  39 C :   -0.016280
  40 N :   -0.030165
  41 C :   -0.035394
  42 C :   -0.179354
  43 S :    0.490680
  44 C :   -0.174153
  45 C :   -0.041233
  46 C :   -0.057793
  47 C :   -0.183583
  48 S :    0.490193
  49 C :   -0.171484
  50 C :   -0.080796
  51 C :    0.080830
  52 C :   -0.102707
  53 C :   -0.017985
  54 N :   -0.029058
  55 C :   -0.016049
  56 N :   -0.034199
  57 C :    0.003662
  58 C :   -0.183639
  59 S :    0.548068
  60 C :    0.061906
  61 C :   -0.143090
  62 C :    0.077847
  63 O :   -0.145346
  64 C :   -0.043540
  65 C :    0.010038
  66 C :   -0.002605
  67 C :   -0.004153
  68 C :    0.009217
  69 C :   -0.044683
  70 C :    0.080819
  71 O :   -0.174249
  72 H :    0.033705
  73 H :    0.033251
  74 H :    0.038119
  75 H :    0.039687
  76 H :    0.041361
  77 H :    0.042731
  78 H :    0.035906
  79 H :    0.036378
  80 H :    0.036851
  81 H :    0.035678
  82 H :    0.044443
  83 H :    0.053240
  84 H :    0.038858
  85 H :    0.034004
  86 H :    0.033539
  87 H :    0.037868

  Mayer bond orders larger than 0.100000
B(  0-C ,  1-C ) :   1.3794 B(  0-C ,  5-C ) :   1.3564 B(  0-C , 72-H ) :   0.9889
B(  1-C ,  2-C ) :   1.3585 B(  1-C , 73-H ) :   0.9885 B(  2-C ,  3-C ) :   1.3868
B(  2-C , 74-H ) :   1.0048 B(  3-C ,  4-C ) :   1.3513 B(  3-C ,  9-C ) :   0.9166
B(  4-C ,  5-C ) :   1.3857 B(  4-C ,  6-C ) :   0.9435 B(  5-C , 75-H ) :   1.0050
B(  6-C ,  7-O ) :   2.1550 B(  6-C ,  8-C ) :   0.9477 B(  7-O , 77-H ) :   0.1072
B(  8-C ,  9-C ) :   0.9636 B(  8-C , 11-C ) :   1.6848 B(  9-C , 10-O ) :   2.2447
B( 11-C , 12-C ) :   1.1353 B( 11-C , 76-H ) :   0.9300 B( 12-C , 13-C ) :   1.4281
B( 12-C , 16-S ) :   1.0765 B( 13-C , 14-C ) :   1.2906 B( 13-C , 77-H ) :   0.9677
B( 14-C , 15-C ) :   1.3964 B( 14-C , 19-C ) :   0.9986 B( 15-C , 16-S ) :   1.1606
B( 15-C , 17-C ) :   1.1934 B( 17-C , 18-C ) :   1.4463 B( 17-C , 27-S ) :   1.1091
B( 18-C , 19-C ) :   0.9917 B( 18-C , 25-C ) :   1.3061 B( 19-C , 20-C ) :   1.7157
B( 20-C , 21-C ) :   1.1359 B( 20-C , 23-C ) :   1.1326 B( 21-C , 22-N ) :   2.9856
B( 23-C , 24-N ) :   3.0031 B( 25-C , 26-C ) :   1.4508 B( 25-C , 78-H ) :   0.9856
B( 26-C , 27-S ) :   1.1164 B( 26-C , 28-C ) :   1.1705 B( 28-C , 29-C ) :   1.4567
B( 28-C , 32-S ) :   1.1081 B( 29-C , 30-C ) :   1.3033 B( 29-C , 79-H ) :   0.9869
B( 30-C , 31-C ) :   1.4431 B( 30-C , 35-C ) :   0.9950 B( 31-C , 32-S ) :   1.1239
B( 31-C , 33-C ) :   1.1852 B( 33-C , 34-C ) :   1.4446 B( 33-C , 43-S ) :   1.1230
B( 34-C , 35-C ) :   0.9933 B( 34-C , 41-C ) :   1.3011 B( 35-C , 36-C ) :   1.7173
B( 36-C , 37-C ) :   1.1306 B( 36-C , 39-C ) :   1.1330 B( 37-C , 38-N ) :   2.9921
B( 39-C , 40-N ) :   2.9910 B( 41-C , 42-C ) :   1.4577 B( 41-C , 80-H ) :   0.9882
B( 42-C , 43-S ) :   1.1094 B( 42-C , 44-C ) :   1.1696 B( 44-C , 45-C ) :   1.4512
B( 44-C , 48-S ) :   1.1169 B( 45-C , 46-C ) :   1.3038 B( 45-C , 81-H ) :   0.9860
B( 46-C , 47-C ) :   1.4427 B( 46-C , 51-C ) :   0.9950 B( 47-C , 48-S ) :   1.1149
B( 47-C , 49-C ) :   1.1945 B( 49-C , 50-C ) :   1.3721 B( 49-C , 59-S ) :   1.1259
B( 50-C , 51-C ) :   0.9919 B( 50-C , 57-C ) :   1.3187 B( 51-C , 52-C ) :   1.7141
B( 52-C , 53-C ) :   1.1351 B( 52-C , 55-C ) :   1.1307 B( 53-C , 54-N ) :   2.9938
B( 55-C , 56-N ) :   2.9889 B( 57-C , 58-C ) :   1.3599 B( 57-C , 82-H ) :   1.0084
B( 58-C , 59-S ) :   1.0784 B( 58-C , 60-C ) :   1.1867 B( 60-C , 61-C ) :   1.5899
B( 60-C , 83-H ) :   0.9631 B( 61-C , 62-C ) :   0.9563 B( 61-C , 70-C ) :   0.9882
B( 62-C , 63-O ) :   2.2647 B( 62-C , 64-C ) :   0.9136 B( 64-C , 65-C ) :   1.3936
B( 64-C , 69-C ) :   1.3515 B( 65-C , 66-C ) :   1.3539 B( 65-C , 84-H ) :   1.0040
B( 66-C , 67-C ) :   1.3838 B( 66-C , 85-H ) :   0.9890 B( 67-C , 68-C ) :   1.3560
B( 67-C , 86-H ) :   0.9883 B( 68-C , 69-C ) :   1.3857 B( 68-C , 87-H ) :   1.0046
B( 69-C , 70-C ) :   0.9486 B( 70-C , 71-O ) :   2.1230

-----------------------------------------------------------------------------
         ABSORPTION SPECTRUM VIA TRANSITION ELECTRIC DIPOLE MOMENTS
-----------------------------------------------------------------------------
State   Energy  Wavelength   fosc         T2         TX        TY        TZ
        (cm-1)    (nm)                  (au**2)     (au)      (au)      (au)
-----------------------------------------------------------------------------
   0   11124.0    899.0   0.416129124  12.31522   1.97997  -2.73669   0.95155
   1   13094.4    763.7   0.323173834   8.12503  -1.62965   2.23921  -0.67467
   2   13450.6    743.5   0.001520363   0.03721   0.08906  -0.12007   0.12191
   3   20327.8    491.9   0.003599237   0.05829   0.14666  -0.18090   0.06371
   4   21318.1    469.1   1.696854127  26.20419  -2.94409   4.01979  -1.17380
   5   22544.7    443.6   0.015827654   0.23113  -0.29928   0.37227  -0.05452
   6   23691.1    422.1   1.347042851  18.71850  -2.55435   3.42442  -0.68350
   7   24588.1    406.7   0.087332238   1.16930   0.47513  -0.83073   0.50342
   8   26477.0    377.7   0.000053612   0.00067   0.01332  -0.02092  -0.00717
   9   26628.9    375.5   0.015106734   0.18676  -0.26664   0.32785   0.09045
  10   26813.2    373.0   0.000448830   0.00551  -0.05869  -0.04530   0.00379
  11   28683.2    348.6   0.029771390   0.34170  -0.13931   0.28836  -0.48902
  12   28981.9    345.0   0.002127482   0.02417   0.11031  -0.06712  -0.08656
  13   29577.3    338.1   0.024659628   0.27448  -0.02119  -0.05447   0.52063
  14   30689.9    325.8   0.000203711   0.00219   0.01345  -0.04418   0.00724
  15   30738.4    325.3   0.000781220   0.00837  -0.02377  -0.03058   0.08287
  16   30898.6    323.6   0.088986634   0.94812   0.61583  -0.75355  -0.03206
  17   31058.0    322.0   0.385757363   4.08899  -0.55713   0.11568   1.94042
  18   31229.7    320.2   0.001293040   0.01363  -0.06456   0.06555   0.07188
  19   31380.3    318.7   0.035144142   0.36870   0.39282  -0.46242  -0.02357
  20   31577.8    316.7   0.035672156   0.37190   0.37425  -0.46210   0.13528
  21   31688.4    315.6   1.644667695  17.08650  -1.39207   0.57631   3.84922
  22   32247.0    310.1   0.048162543   0.49170   0.41761  -0.55492   0.09674
  23   32288.5    309.7   0.001641788   0.01674   0.01433   0.10683   0.07157
  24   32595.2    306.8   0.658186673   6.64769   1.62403  -1.96771  -0.37189
  25   32742.6    305.4   0.314832157   3.16550  -0.99959   1.39262  -0.47638
  26   32978.6    303.2   0.076485512   0.76352   0.11309  -0.37204   0.78251
  27   33283.1    300.5   0.102539932   1.01425   0.32804  -0.13732  -0.94222
  28   33436.3    299.1   0.071602365   0.70499   0.30006  -0.54555   0.56333
  29   33521.5    298.3   0.047512647   0.46662  -0.11729  -0.02767   0.67238
  30   34561.4    289.3   0.049657035   0.47300   0.21739  -0.39156   0.52195
  31   34739.4    287.9   0.008025840   0.07606   0.16109  -0.12241  -0.18741
  32   34853.5    286.9   0.000726750   0.00686   0.05160   0.06459   0.00547
  33   35142.1    284.6   0.002870909   0.02689   0.03938   0.14747  -0.05998
  34   35186.9    284.2   0.004840774   0.04529   0.11600  -0.14594   0.10264
  35   35209.8    284.0   0.020968358   0.19605   0.18235  -0.26750   0.30207
  36   35781.4    279.5   0.003669874   0.03377   0.09865  -0.09740  -0.12061
  37   36274.5    275.7   0.018380039   0.16681  -0.21453   0.31061  -0.15591
  38   36334.4    275.2   0.006438590   0.05834  -0.14161   0.19427  -0.02328
  39   36391.7    274.8   0.045872610   0.41498   0.40289  -0.45793  -0.20727
  40   36437.0    274.4   0.156860647   1.41725  -0.45493   0.23339   1.07509
  41   37030.5    270.0   0.009767299   0.08683  -0.02746  -0.05979   0.28724
  42   37103.4    269.5   0.000004604   0.00004   0.00184  -0.00533  -0.00300
  43   37143.2    269.2   0.000049652   0.00044   0.00540   0.01453  -0.01414
  44   37321.2    267.9   0.049183220   0.43385  -0.12654  -0.04859   0.64457
  45   37477.8    266.8   0.004422339   0.03885  -0.08130   0.14709  -0.10297
  46   38200.5    261.8   0.020614229   0.17765  -0.18884   0.12022   0.35713
  47   38460.1    260.0   0.010820255   0.09262  -0.10094   0.18396  -0.22043
  48   38545.5    259.4   0.000043800   0.00037   0.01922   0.00161   0.00146
  49   38722.1    258.3   0.000456199   0.00388  -0.02613  -0.05652   0.00128
  50   38992.9    256.5   0.000098573   0.00083   0.00071  -0.00324   0.02866
  51   39036.8    256.2   0.009357749   0.07892  -0.01629  -0.04062   0.27749
  52   39196.7    255.1   0.002486176   0.02088   0.06631  -0.09935   0.08132
  53   39320.3    254.3   0.005792381   0.04850  -0.10542   0.09356   0.16921
  54   39492.5    253.2   0.001548175   0.01291  -0.06459   0.07573   0.05477
  55   39606.4    252.5   0.007022316   0.05837   0.03730  -0.11826   0.20735
  56   39687.7    252.0   0.000358182   0.00297   0.02074  -0.03464   0.03662
  57   39977.8    250.1   0.007733473   0.06368  -0.15739   0.16066   0.11446
  58   40094.9    249.4   0.000092019   0.00076   0.02100   0.01036   0.01439
  59   40196.3    248.8   0.007844958   0.06425  -0.06742   0.01875   0.24363

FINAL SINGLE POINT ENERGY     -5157.774143277205

DIPOLE MOMENT
-------------
                                X             Y             Z
Electronic contribution:      0.43808      -2.75516       3.94929
Nuclear contribution   :      0.22380       2.55020      -5.85284
                        -----------------------------------------
Total Dipole Moment    :      0.66188      -0.20496      -1.90356
                        -----------------------------------------
Magnitude (a.u.)       :      2.02574
Magnitude (Debye)      :      5.14902

Rotational constants in cm-1:     0.002932     0.000170     0.000161
Rotational constants in MHz :    87.913652     5.095771     4.817024

                             ****ORCA TERMINATED NORMALLY****
TOTAL RUN TIME: 0 days 0 hours 8 minutes 11 seconds 877 msec
