                         Program Version 4.2.0 -  RELEASE  -
|  1> # ORCA input file
|  2> # SCF done       -212.129406992153          0.000477480114
|  3> ! CAM-B3LYP def2-SVP def2/J RIJCOSX Grid4 TightSCF
|  4> %maxcore 5000
|  5> %tddft
|  6>     Mode sTDDFT
|  7>     Ethresh 5.0
|  8>     maxcore 5000
|  9> end
| 10>
| 11> %pal
| 12>   nprocs 6
| 13>   end
| 14> * xyz 0 1
| 15>    C       -0.80988         3.33326        -0.64625
| 16>    C       -0.64593         3.73518        -1.96539
| 17>    C        0.22119         3.06231        -2.81652
| 18>    C        0.91816         1.97954        -2.31296
| 19>    C        0.75331         1.57519        -0.98250
| 20>    C       -0.11111         2.24638        -0.13749
| 21>    C        1.61087         0.40045        -0.69204
| 22>    O        1.68583        -0.17530         0.37309
| 23>    C        2.32384         0.10973        -1.95035
| 24>    C        1.89506         1.09068        -2.97904
| 25>    O        2.27975         1.14141        -4.12655
| 26>    C        3.24484        -0.83455        -2.28332
| 27>    C        3.83376        -1.86671        -1.52225
| 28>    C        3.65179        -2.26243        -0.20476
| 29>    C        4.46166        -3.34057         0.13478
| 30>    C        5.27549        -3.77704        -0.93303
| 31>    S        5.03814        -2.86684        -2.34649
| 32>    C        6.06464        -4.86449        -0.48488
| 33>    C        5.75406        -5.12223         0.85967
| 34>    C        4.73577        -4.17538         1.29448
| 35>    C        4.17094        -4.10163         2.53231
| 36>    C        4.53892        -4.98571         3.57030
| 37>    N        4.83456        -5.70075         4.41637
| 38>    C        3.18467        -3.15534         2.88885
| 39>    N        2.38285        -2.40818         3.22313
| 40>    C        6.49321        -6.18023         1.39174
| 41>    C        7.36030        -6.72238         0.46351
| 42>    S        7.26366        -5.91893        -1.09382
| 43>    C        8.27674        -7.79245         0.65161
| 44>    C        9.15920        -8.29839        -0.26014
| 45>    C        9.95816        -9.34978         0.24470
| 46>    C       10.98300       -10.05534        -0.41765
| 47>    C       11.39501        -9.75387        -1.77336
| 48>    C       11.77322       -10.63411        -2.74669
| 49>    C       12.17769        -9.99384        -3.93805
| 50>    C       12.13023        -8.63082        -3.89110
| 51>    S       11.55772        -8.11275        -2.34217
| 52>    C       12.48846        -7.64874        -4.94457
| 53>   Cl       12.68732       -10.87616        -5.32516
| 54>    C       11.61660       -11.05354         0.31452
| 55>    C       11.29598       -11.36285         1.66055
| 56>    C       10.27513       -10.65189         2.32526
| 57>    C        9.62785        -9.66628         1.58658
| 58>    S        8.36927        -8.62241         2.19042
| 59>    C        9.92141       -10.89555         3.70877
| 60>    C        8.67562       -10.87312         4.26848
| 61>    C        8.69588       -11.09757         5.66199
| 62>    C        9.94234       -11.27844         6.18723
| 63>    S       11.13076       -11.18412         4.93273
| 64>    C       10.33290       -11.52854         7.59705
| 65>   Cl        7.25662       -11.13548         6.60525
| 66>    C       12.11112       -12.40172         2.16780
| 67>    C       13.04378       -12.85255         1.27718
| 68>    S       12.93782       -12.02955        -0.26448
| 69>    C       14.03526       -13.85029         1.48128
| 70>    C       14.98761       -14.27887         0.57733
| 71>    C       15.82845       -15.24835         1.12518
| 72>    C       15.50731       -15.55779         2.45643
| 73>    S       14.17127       -14.65954         3.03219
| 74>    C       16.42429       -16.52854         2.92978
| 75>    C       17.33255       -16.83337         1.89269
| 76>    C       16.97968       -16.04445         0.72267
| 77>    C       17.58506       -16.03990        -0.49810
| 78>    C       18.69663       -16.84862        -0.82340
| 79>    N       19.59425       -17.48908        -1.13487
| 80>    C       17.13194       -15.21387        -1.55002
| 81>    N       16.76923       -14.54458        -2.40736
| 82>    C       18.29566       -17.76293         2.26817
| 83>    C       18.13679       -18.17794         3.58255
| 84>    S       16.75131       -17.39358         4.35417
| 85>    C       18.87872       -19.07752         4.37731
| 86>    C       20.00730       -19.78794         4.10746
| 87>    C       20.58307       -20.65313         5.16784
| 88>    O       20.13688       -20.81555         6.28219
| 89>    C       21.79924       -21.25987         4.58383
| 90>    C       22.70751       -22.13707         5.14713
| 91>    C       23.77943       -22.55711         4.37017
| 92>    C       23.93584       -22.11046         3.06461
| 93>    C       23.02560       -21.22909         2.49620
| 94>    C       21.95800       -20.80878         3.26783
| 95>    C       20.86005       -19.87928         2.90696
| 96>    O       20.72620       -19.32427         1.83662
| 97>    H       -1.49099         3.87561        -0.00720
| 98>    H       -1.20202         4.58438        -2.33415
| 99>    H        0.35407         3.36754        -3.84306
|100>    H       -0.22990         1.92579         0.88611
|101>    H        3.58709        -0.77473        -3.31443
|102>    H        2.95631        -1.76570         0.44997
|103>    H        6.42128        -6.54815         2.39939
|104>    H        9.22703        -7.92137        -1.26412
|105>    H       11.73380       -11.70247        -2.64445
|106>    H       12.79160        -8.17564        -5.84570
|107>    H       13.30954        -7.01317        -4.61376
|108>    H       11.63995        -7.00605        -5.17672
|109>    H        7.76547       -10.74103         3.71394
|110>    H        9.44310       -11.56681         8.22022
|111>    H       10.98617       -10.73608         7.96120
|112>    H       10.86971       -12.47251         7.68611
|113>    H       12.01961       -12.80934         3.15783
|114>    H       15.05344       -13.88829        -0.42219
|115>    H       19.08961       -18.13480         1.64341
|116>    H       18.49391       -19.22328         5.38451
|117>    H       22.57834       -22.47886         6.16260
|118>    H       24.50334       -23.24180         4.78683
|119>    H       24.77894       -22.45428         2.48369
|120>    H       23.13772       -20.87507         1.48287
|121> *
|122>
|123>                          ****END OF INPUT****

CARTESIAN COORDINATES (ANGSTROEM)
---------------------------------
  C     -0.809880    3.333260   -0.646250
  C     -0.645930    3.735180   -1.965390
  C      0.221190    3.062310   -2.816520
  C      0.918160    1.979540   -2.312960
  C      0.753310    1.575190   -0.982500
  C     -0.111110    2.246380   -0.137490
  C      1.610870    0.400450   -0.692040
  O      1.685830   -0.175300    0.373090
  C      2.323840    0.109730   -1.950350
  C      1.895060    1.090680   -2.979040
  O      2.279750    1.141410   -4.126550
  C      3.244840   -0.834550   -2.283320
  C      3.833760   -1.866710   -1.522250
  C      3.651790   -2.262430   -0.204760
  C      4.461660   -3.340570    0.134780
  C      5.275490   -3.777040   -0.933030
  S      5.038140   -2.866840   -2.346490
  C      6.064640   -4.864490   -0.484880
  C      5.754060   -5.122230    0.859670
  C      4.735770   -4.175380    1.294480
  C      4.170940   -4.101630    2.532310
  C      4.538920   -4.985710    3.570300
  N      4.834560   -5.700750    4.416370
  C      3.184670   -3.155340    2.888850
  N      2.382850   -2.408180    3.223130
  C      6.493210   -6.180230    1.391740
  C      7.360300   -6.722380    0.463510
  S      7.263660   -5.918930   -1.093820
  C      8.276740   -7.792450    0.651610
  C      9.159200   -8.298390   -0.260140
  C      9.958160   -9.349780    0.244700
  C     10.983000  -10.055340   -0.417650
  C     11.395010   -9.753870   -1.773360
  C     11.773220  -10.634110   -2.746690
  C     12.177690   -9.993840   -3.938050
  C     12.130230   -8.630820   -3.891100
  S     11.557720   -8.112750   -2.342170
  C     12.488460   -7.648740   -4.944570
  Cl    12.687320  -10.876160   -5.325160
  C     11.616600  -11.053540    0.314520
  C     11.295980  -11.362850    1.660550
  C     10.275130  -10.651890    2.325260
  C      9.627850   -9.666280    1.586580
  S      8.369270   -8.622410    2.190420
  C      9.921410  -10.895550    3.708770
  C      8.675620  -10.873120    4.268480
  C      8.695880  -11.097570    5.661990
  C      9.942340  -11.278440    6.187230
  S     11.130760  -11.184120    4.932730
  C     10.332900  -11.528540    7.597050
  Cl     7.256620  -11.135480    6.605250
  C     12.111120  -12.401720    2.167800
  C     13.043780  -12.852550    1.277180
  S     12.937820  -12.029550   -0.264480
  C     14.035260  -13.850290    1.481280
  C     14.987610  -14.278870    0.577330
  C     15.828450  -15.248350    1.125180
  C     15.507310  -15.557790    2.456430
  S     14.171270  -14.659540    3.032190
  C     16.424290  -16.528540    2.929780
  C     17.332550  -16.833370    1.892690
  C     16.979680  -16.044450    0.722670
  C     17.585060  -16.039900   -0.498100
  C     18.696630  -16.848620   -0.823400
  N     19.594250  -17.489080   -1.134870
  C     17.131940  -15.213870   -1.550020
  N     16.769230  -14.544580   -2.407360
  C     18.295660  -17.762930    2.268170
  C     18.136790  -18.177940    3.582550
  S     16.751310  -17.393580    4.354170
  C     18.878720  -19.077520    4.377310
  C     20.007300  -19.787940    4.107460
  C     20.583070  -20.653130    5.167840
  O     20.136880  -20.815550    6.282190
  C     21.799240  -21.259870    4.583830
  C     22.707510  -22.137070    5.147130
  C     23.779430  -22.557110    4.370170
  C     23.935840  -22.110460    3.064610
  C     23.025600  -21.229090    2.496200
  C     21.958000  -20.808780    3.267830
  C     20.860050  -19.879280    2.906960
  O     20.726200  -19.324270    1.836620
  H     -1.490990    3.875610   -0.007200
  H     -1.202020    4.584380   -2.334150
  H      0.354070    3.367540   -3.843060
  H     -0.229900    1.925790    0.886110
  H      3.587090   -0.774730   -3.314430
  H      2.956310   -1.765700    0.449970
  H      6.421280   -6.548150    2.399390
  H      9.227030   -7.921370   -1.264120
  H     11.733800  -11.702470   -2.644450
  H     12.791600   -8.175640   -5.845700
  H     13.309540   -7.013170   -4.613760
  H     11.639950   -7.006050   -5.176720
  H      7.765470  -10.741030    3.713940
  H      9.443100  -11.566810    8.220220
  H     10.986170  -10.736080    7.961200
  H     10.869710  -12.472510    7.686110
  H     12.019610  -12.809340    3.157830
  H     15.053440  -13.888290   -0.422190
  H     19.089610  -18.134800    1.643410
  H     18.493910  -19.223280    5.384510
  H     22.578340  -22.478860    6.162600
  H     24.503340  -23.241800    4.786830
  H     24.778940  -22.454280    2.483690
  H     23.137720  -20.875070    1.482870

 Total Charge           Charge          ....    0
 Multiplicity           Mult            ....    1
 Number of Electrons    NEL             ....  630
 Basis Dimension        Dim             .... 1308

ORBITAL ENERGIES
----------------

  NO   OCC          E(Eh)            E(eV)
   0   2.0000    -101.585454     -2764.2807
   1   2.0000    -101.585289     -2764.2762
   2   2.0000     -88.994061     -2421.6515
   3   2.0000     -88.993737     -2421.6427
   4   2.0000     -88.991646     -2421.5858
   5   2.0000     -88.991617     -2421.5850
   6   2.0000     -88.963825     -2420.8288
   7   2.0000     -88.963706     -2420.8255
   8   2.0000     -88.963326     -2420.8152
   9   2.0000     -88.962989     -2420.8060
  10   2.0000     -19.211050      -522.7592
  11   2.0000     -19.211014      -522.7583
  12   2.0000     -19.206095      -522.6244
  13   2.0000     -19.206064      -522.6236
  14   2.0000     -14.430201      -392.6657
  15   2.0000     -14.430136      -392.6640
  16   2.0000     -14.425618      -392.5410
  17   2.0000     -14.425608      -392.5407
  18   2.0000     -10.365685      -282.0646
  19   2.0000     -10.365651      -282.0637
  20   2.0000     -10.362135      -281.9680
  21   2.0000     -10.362085      -281.9667
  22   2.0000     -10.356415      -281.8124
  23   2.0000     -10.356394      -281.8118
  24   2.0000     -10.351876      -281.6889
  25   2.0000     -10.351786      -281.6864
  26   2.0000     -10.340800      -281.3875
  27   2.0000     -10.340615      -281.3824
  28   2.0000     -10.334868      -281.2261
  29   2.0000     -10.334628      -281.2195
  30   2.0000     -10.333079      -281.1774
  31   2.0000     -10.332995      -281.1751
  32   2.0000     -10.330210      -281.0993
  33   2.0000     -10.330158      -281.0979
  34   2.0000     -10.324471      -280.9431
  35   2.0000     -10.324466      -280.9430
  36   2.0000     -10.323643      -280.9206
  37   2.0000     -10.323619      -280.9200
  38   2.0000     -10.322333      -280.8850
  39   2.0000     -10.322239      -280.8824
  40   2.0000     -10.322091      -280.8784
  41   2.0000     -10.321985      -280.8755
  42   2.0000     -10.316259      -280.7197
  43   2.0000     -10.316241      -280.7192
  44   2.0000     -10.315858      -280.7088
  45   2.0000     -10.315618      -280.7022
  46   2.0000     -10.312828      -280.6263
  47   2.0000     -10.312732      -280.6237
  48   2.0000     -10.309422      -280.5336
  49   2.0000     -10.309419      -280.5336
  50   2.0000     -10.308650      -280.5126
  51   2.0000     -10.308545      -280.5098
  52   2.0000     -10.307665      -280.4858
  53   2.0000     -10.307254      -280.4746
  54   2.0000     -10.304820      -280.4084
  55   2.0000     -10.304726      -280.4058
  56   2.0000     -10.304292      -280.3940
  57   2.0000     -10.304205      -280.3917
  58   2.0000     -10.299648      -280.2677
  59   2.0000     -10.299434      -280.2618
  60   2.0000     -10.299237      -280.2565
  61   2.0000     -10.298945      -280.2485
  62   2.0000     -10.288701      -279.9698
  63   2.0000     -10.288416      -279.9620
  64   2.0000     -10.287870      -279.9472
  65   2.0000     -10.287836      -279.9462
  66   2.0000     -10.287478      -279.9365
  67   2.0000     -10.287478      -279.9365
  68   2.0000     -10.287185      -279.9285
  69   2.0000     -10.287172      -279.9282
  70   2.0000     -10.286458      -279.9088
  71   2.0000     -10.286433      -279.9081
  72   2.0000     -10.284272      -279.8493
  73   2.0000     -10.284220      -279.8478
  74   2.0000     -10.283650      -279.8323
  75   2.0000     -10.283597      -279.8309
  76   2.0000     -10.283269      -279.8220
  77   2.0000     -10.283246      -279.8213
  78   2.0000     -10.280081      -279.7352
  79   2.0000     -10.279981      -279.7325
  80   2.0000     -10.278078      -279.6807
  81   2.0000     -10.278052      -279.6800
  82   2.0000      -9.540203      -259.6021
  83   2.0000      -9.540075      -259.5986
  84   2.0000      -8.088625      -220.1027
  85   2.0000      -8.088333      -220.0947
  86   2.0000      -8.086585      -220.0472
  87   2.0000      -8.086554      -220.0463
  88   2.0000      -8.059362      -219.3064
  89   2.0000      -8.059279      -219.3041
  90   2.0000      -8.058431      -219.2811
  91   2.0000      -8.058156      -219.2736
  92   2.0000      -7.310483      -198.9284
  93   2.0000      -7.310355      -198.9249
  94   2.0000      -7.300254      -198.6500
  95   2.0000      -7.300168      -198.6477
  96   2.0000      -7.300121      -198.6464
  97   2.0000      -7.300034      -198.6440
  98   2.0000      -6.057917      -164.8443
  99   2.0000      -6.057613      -164.8360
 100   2.0000      -6.055653      -164.7827
 101   2.0000      -6.055607      -164.7815
 102   2.0000      -6.053756      -164.7311
 103   2.0000      -6.053462      -164.7231
 104   2.0000      -6.051572      -164.6717
 105   2.0000      -6.051536      -164.6707
 106   2.0000      -6.050861      -164.6523
 107   2.0000      -6.050580      -164.6447
 108   2.0000      -6.049135      -164.6053
 109   2.0000      -6.049128      -164.6051
 110   2.0000      -6.028682      -164.0488
 111   2.0000      -6.028611      -164.0469
 112   2.0000      -6.028163      -164.0347
 113   2.0000      -6.027883      -164.0270
 114   2.0000      -6.024516      -163.9354
 115   2.0000      -6.024419      -163.9328
 116   2.0000      -6.023962      -163.9203
 117   2.0000      -6.023682      -163.9127
 118   2.0000      -6.021453      -163.8521
 119   2.0000      -6.021358      -163.8495
 120   2.0000      -6.019650      -163.8030
 121   2.0000      -6.019370      -163.7954
 122   2.0000      -1.126589       -30.6561
 123   2.0000      -1.126531       -30.6545
 124   2.0000      -1.119267       -30.4568
 125   2.0000      -1.119261       -30.4567
 126   2.0000      -1.047293       -28.4983
 127   2.0000      -1.047214       -28.4961
 128   2.0000      -1.023262       -27.8444
 129   2.0000      -1.020908       -27.7803
 130   2.0000      -1.020223       -27.7617
 131   2.0000      -1.007031       -27.4027
 132   2.0000      -1.006458       -27.3871
 133   2.0000      -1.005171       -27.3521
 134   2.0000      -1.003902       -27.3176
 135   2.0000      -1.003453       -27.3053
 136   2.0000      -0.996929       -27.1278
 137   2.0000      -0.985849       -26.8263
 138   2.0000      -0.975786       -26.5525
 139   2.0000      -0.975687       -26.5498
 140   2.0000      -0.962264       -26.1845
 141   2.0000      -0.958421       -26.0800
 142   2.0000      -0.948564       -25.8117
 143   2.0000      -0.944303       -25.6958
 144   2.0000      -0.929232       -25.2857
 145   2.0000      -0.925125       -25.1739
 146   2.0000      -0.920829       -25.0570
 147   2.0000      -0.910498       -24.7759
 148   2.0000      -0.906618       -24.6703
 149   2.0000      -0.904213       -24.6049
 150   2.0000      -0.876970       -23.8636
 151   2.0000      -0.876756       -23.8578
 152   2.0000      -0.870905       -23.6985
 153   2.0000      -0.868808       -23.6415
 154   2.0000      -0.861145       -23.4330
 155   2.0000      -0.859652       -23.3923
 156   2.0000      -0.858950       -23.3732
 157   2.0000      -0.853835       -23.2340
 158   2.0000      -0.850760       -23.1504
 159   2.0000      -0.850723       -23.1493
 160   2.0000      -0.847135       -23.0517
 161   2.0000      -0.839322       -22.8391
 162   2.0000      -0.814813       -22.1722
 163   2.0000      -0.814149       -22.1541
 164   2.0000      -0.811932       -22.0938
 165   2.0000      -0.806104       -21.9352
 166   2.0000      -0.798984       -21.7415
 167   2.0000      -0.792116       -21.5546
 168   2.0000      -0.779918       -21.2226
 169   2.0000      -0.776355       -21.1257
 170   2.0000      -0.772219       -21.0131
 171   2.0000      -0.758958       -20.6523
 172   2.0000      -0.751097       -20.4384
 173   2.0000      -0.735819       -20.0227
 174   2.0000      -0.731554       -19.9066
 175   2.0000      -0.730965       -19.8906
 176   2.0000      -0.716606       -19.4998
 177   2.0000      -0.708543       -19.2804
 178   2.0000      -0.702893       -19.1267
 179   2.0000      -0.702693       -19.1212
 180   2.0000      -0.689615       -18.7654
 181   2.0000      -0.686907       -18.6917
 182   2.0000      -0.684342       -18.6219
 183   2.0000      -0.678891       -18.4736
 184   2.0000      -0.670855       -18.2549
 185   2.0000      -0.661961       -18.0129
 186   2.0000      -0.660130       -17.9631
 187   2.0000      -0.658120       -17.9084
 188   2.0000      -0.648764       -17.6538
 189   2.0000      -0.648324       -17.6418
 190   2.0000      -0.648131       -17.6365
 191   2.0000      -0.639675       -17.4064
 192   2.0000      -0.633077       -17.2269
 193   2.0000      -0.629182       -17.1209
 194   2.0000      -0.627751       -17.0820
 195   2.0000      -0.618391       -16.8273
 196   2.0000      -0.616571       -16.7778
 197   2.0000      -0.613972       -16.7070
 198   2.0000      -0.613109       -16.6835
 199   2.0000      -0.608528       -16.5589
 200   2.0000      -0.607210       -16.5230
 201   2.0000      -0.598302       -16.2806
 202   2.0000      -0.589060       -16.0291
 203   2.0000      -0.587081       -15.9753
 204   2.0000      -0.582599       -15.8533
 205   2.0000      -0.578917       -15.7531
 206   2.0000      -0.574918       -15.6443
 207   2.0000      -0.572474       -15.5778
 208   2.0000      -0.559165       -15.2157
 209   2.0000      -0.558583       -15.1998
 210   2.0000      -0.553404       -15.0589
 211   2.0000      -0.549902       -14.9636
 212   2.0000      -0.549669       -14.9573
 213   2.0000      -0.549513       -14.9530
 214   2.0000      -0.543811       -14.7978
 215   2.0000      -0.539354       -14.6766
 216   2.0000      -0.534022       -14.5315
 217   2.0000      -0.529249       -14.4016
 218   2.0000      -0.529101       -14.3976
 219   2.0000      -0.527942       -14.3660
 220   2.0000      -0.527670       -14.3586
 221   2.0000      -0.526569       -14.3287
 222   2.0000      -0.524982       -14.2855
 223   2.0000      -0.523798       -14.2533
 224   2.0000      -0.522697       -14.2233
 225   2.0000      -0.519905       -14.1473
 226   2.0000      -0.518006       -14.0957
 227   2.0000      -0.516956       -14.0671
 228   2.0000      -0.516030       -14.0419
 229   2.0000      -0.512163       -13.9367
 230   2.0000      -0.508235       -13.8298
 231   2.0000      -0.507239       -13.8027
 232   2.0000      -0.507168       -13.8007
 233   2.0000      -0.506633       -13.7862
 234   2.0000      -0.505705       -13.7609
 235   2.0000      -0.504057       -13.7161
 236   2.0000      -0.502838       -13.6829
 237   2.0000      -0.498559       -13.5665
 238   2.0000      -0.497812       -13.5461
 239   2.0000      -0.497072       -13.5260
 240   2.0000      -0.492310       -13.3964
 241   2.0000      -0.490769       -13.3545
 242   2.0000      -0.486317       -13.2334
 243   2.0000      -0.484463       -13.1829
 244   2.0000      -0.482824       -13.1383
 245   2.0000      -0.482251       -13.1227
 246   2.0000      -0.478986       -13.0339
 247   2.0000      -0.476070       -12.9545
 248   2.0000      -0.473079       -12.8731
 249   2.0000      -0.470028       -12.7901
 250   2.0000      -0.468759       -12.7556
 251   2.0000      -0.467744       -12.7280
 252   2.0000      -0.467345       -12.7171
 253   2.0000      -0.467017       -12.7082
 254   2.0000      -0.466471       -12.6933
 255   2.0000      -0.461140       -12.5483
 256   2.0000      -0.459633       -12.5073
 257   2.0000      -0.459548       -12.5049
 258   2.0000      -0.455822       -12.4035
 259   2.0000      -0.453925       -12.3519
 260   2.0000      -0.453386       -12.3373
 261   2.0000      -0.453334       -12.3358
 262   2.0000      -0.451988       -12.2992
 263   2.0000      -0.450854       -12.2684
 264   2.0000      -0.450312       -12.2536
 265   2.0000      -0.447939       -12.1890
 266   2.0000      -0.446783       -12.1576
 267   2.0000      -0.444888       -12.1060
 268   2.0000      -0.443349       -12.0641
 269   2.0000      -0.440143       -11.9769
 270   2.0000      -0.437291       -11.8993
 271   2.0000      -0.437237       -11.8978
 272   2.0000      -0.437194       -11.8967
 273   2.0000      -0.436672       -11.8824
 274   2.0000      -0.436235       -11.8706
 275   2.0000      -0.436188       -11.8693
 276   2.0000      -0.432717       -11.7748
 277   2.0000      -0.428543       -11.6612
 278   2.0000      -0.426604       -11.6085
 279   2.0000      -0.425138       -11.5686
 280   2.0000      -0.422963       -11.5094
 281   2.0000      -0.422182       -11.4882
 282   2.0000      -0.420674       -11.4471
 283   2.0000      -0.417662       -11.3652
 284   2.0000      -0.417353       -11.3568
 285   2.0000      -0.407478       -11.0881
 286   2.0000      -0.399514       -10.8713
 287   2.0000      -0.394976       -10.7479
 288   2.0000      -0.387049       -10.5321
 289   2.0000      -0.385784       -10.4977
 290   2.0000      -0.380621       -10.3572
 291   2.0000      -0.379647       -10.3307
 292   2.0000      -0.360082        -9.7983
 293   2.0000      -0.352262        -9.5855
 294   2.0000      -0.351385        -9.5617
 295   2.0000      -0.346315        -9.4237
 296   2.0000      -0.345910        -9.4127
 297   2.0000      -0.345874        -9.4117
 298   2.0000      -0.337340        -9.1795
 299   2.0000      -0.335928        -9.1411
 300   2.0000      -0.335250        -9.1226
 301   2.0000      -0.335210        -9.1215
 302   2.0000      -0.329196        -8.9579
 303   2.0000      -0.323843        -8.8122
 304   2.0000      -0.322861        -8.7855
 305   2.0000      -0.320130        -8.7112
 306   2.0000      -0.319342        -8.6897
 307   2.0000      -0.319074        -8.6824
 308   2.0000      -0.319073        -8.6824
 309   2.0000      -0.307660        -8.3719
 310   2.0000      -0.303280        -8.2527
 311   2.0000      -0.298180        -8.1139
 312   2.0000      -0.267871        -7.2891
 313   2.0000      -0.266199        -7.2436
 314   2.0000      -0.243655        -6.6302
 315   0.0000      -0.110321        -3.0020
 316   0.0000      -0.106775        -2.9055
 317   0.0000      -0.074435        -2.0255
 318   0.0000      -0.068832        -1.8730
 319   0.0000      -0.052823        -1.4374

MULLIKEN ATOMIC CHARGES
-----------------------
   0 C :    0.038701
   1 C :    0.038527
   2 C :   -0.021922
   3 C :    0.011742
   4 C :   -0.013417
   5 C :   -0.021731
   6 C :    0.188157
   7 O :   -0.150636
   8 C :   -0.172446
   9 C :    0.144962
  10 O :   -0.154036
  11 C :    0.057607
  12 C :   -0.105899
  13 C :   -0.013477
  14 C :   -0.002762
  15 C :   -0.086617
  16 S :    0.193967
  17 C :   -0.100651
  18 C :    0.022684
  19 C :    0.308692
  20 C :   -0.294734
  21 C :   -0.193800
  22 N :    0.173574
  23 C :   -0.194363
  24 N :    0.198439
  25 C :   -0.062962
  26 C :   -0.040463
  27 S :    0.189408
  28 C :   -0.010554
  29 C :   -0.094725
  30 C :    0.091635
  31 C :    0.140379
  32 C :   -0.210992
  33 C :    0.030788
  34 C :    0.087929
  35 C :   -0.265883
  36 S :    0.133356
  37 C :    0.124281
  38 Cl:   -0.081124
  39 C :   -0.137590
  40 C :    0.090919
  41 C :    0.142229
  42 C :   -0.138702
  43 S :    0.124159
  44 C :   -0.209806
  45 C :    0.030175
  46 C :    0.086711
  47 C :   -0.265219
  48 S :    0.131457
  49 C :    0.123970
  50 Cl:   -0.081296
  51 C :   -0.094743
  52 C :   -0.012269
  53 S :    0.121277
  54 C :   -0.039471
  55 C :   -0.063602
  56 C :    0.023096
  57 C :   -0.101929
  58 S :    0.191740
  59 C :   -0.087550
  60 C :   -0.002470
  61 C :    0.309885
  62 C :   -0.295423
  63 C :   -0.196217
  64 N :    0.200044
  65 C :   -0.193849
  66 N :    0.174035
  67 C :   -0.013006
  68 C :   -0.105660
  69 S :    0.194006
  70 C :    0.056315
  71 C :   -0.173620
  72 C :    0.145076
  73 O :   -0.153791
  74 C :    0.012370
  75 C :   -0.021679
  76 C :    0.037490
  77 C :    0.040134
  78 C :   -0.022696
  79 C :   -0.011525
  80 C :    0.187706
  81 O :   -0.150189
  82 H :   -0.000525
  83 H :   -0.002385
  84 H :   -0.006865
  85 H :   -0.001540
  86 H :    0.009512
  87 H :    0.033505
  88 H :    0.017359
  89 H :   -0.009654
  90 H :   -0.002718
  91 H :    0.026546
  92 H :    0.038367
  93 H :    0.031465
  94 H :   -0.002862
  95 H :    0.027521
  96 H :    0.038148
  97 H :    0.031700
  98 H :   -0.009024
  99 H :    0.018044
 100 H :    0.034045
 101 H :    0.009518
 102 H :   -0.006944
 103 H :   -0.002103
 104 H :   -0.001359
 105 H :   -0.001878
Sum of atomic charges:    0.0000000

LOEWDIN ATOMIC CHARGES
----------------------
   0 C :   -0.003772
   1 C :   -0.004420
   2 C :    0.009176
   3 C :   -0.046110
   4 C :   -0.042677
   5 C :    0.010604
   6 C :    0.082680
   7 O :   -0.138175
   8 C :   -0.129446
   9 C :    0.078269
  10 O :   -0.151174
  11 C :    0.046805
  12 C :   -0.179132
  13 C :    0.011989
  14 C :   -0.074971
  15 C :   -0.165898
  16 S :    0.485046
  17 C :   -0.187014
  18 C :   -0.056782
  19 C :    0.075861
  20 C :   -0.092673
  21 C :   -0.015584
  22 N :   -0.030638
  23 C :   -0.024658
  24 N :   -0.012172
  25 C :   -0.034206
  26 C :   -0.168611
  27 S :    0.482090
  28 C :   -0.169949
  29 C :   -0.068274
  30 C :   -0.039253
  31 C :   -0.053617
  32 C :   -0.174710
  33 C :   -0.073647
  34 C :   -0.176090
  35 C :   -0.196856
  36 S :    0.444493
  37 C :   -0.060660
  38 Cl:    0.134470
  39 C :   -0.140351
  40 C :   -0.039171
  41 C :   -0.053080
  42 C :   -0.140344
  43 S :    0.429671
  44 C :   -0.174383
  45 C :   -0.073667
  46 C :   -0.176232
  47 C :   -0.196930
  48 S :    0.444584
  49 C :   -0.060873
  50 Cl:    0.134296
  51 C :   -0.068303
  52 C :   -0.169207
  53 S :    0.430446
  54 C :   -0.169514
  55 C :   -0.034437
  56 C :   -0.056658
  57 C :   -0.186959
  58 S :    0.481654
  59 C :   -0.165623
  60 C :   -0.075052
  61 C :    0.075771
  62 C :   -0.092630
  63 C :   -0.024744
  64 N :   -0.012000
  65 C :   -0.015703
  66 N :   -0.030491
  67 C :    0.012049
  68 C :   -0.179376
  69 S :    0.484671
  70 C :    0.047127
  71 C :   -0.129658
  72 C :    0.078164
  73 O :   -0.151114
  74 C :   -0.046134
  75 C :    0.009260
  76 C :   -0.004561
  77 C :   -0.003627
  78 C :    0.010550
  79 C :   -0.042515
  80 C :    0.082695
  81 O :   -0.138056
  82 H :    0.033625
  83 H :    0.033096
  84 H :    0.037863
  85 H :    0.039549
  86 H :    0.040966
  87 H :    0.042785
  88 H :    0.038679
  89 H :    0.011856
  90 H :    0.028050
  91 H :    0.035113
  92 H :    0.040605
  93 H :    0.038029
  94 H :    0.027770
  95 H :    0.035269
  96 H :    0.040505
  97 H :    0.038202
  98 H :    0.012160
  99 H :    0.038201
 100 H :    0.042767
 101 H :    0.041014
 102 H :    0.037869
 103 H :    0.033150
 104 H :    0.033520
 105 H :    0.039496

  Mayer bond orders larger than 0.100000
B(  0-C ,  1-C ) :   1.3783 B(  0-C ,  5-C ) :   1.3562 B(  0-C , 82-H ) :   0.9891
B(  1-C ,  2-C ) :   1.3587 B(  1-C , 83-H ) :   0.9891 B(  2-C ,  3-C ) :   1.3870
B(  2-C , 84-H ) :   1.0044 B(  3-C ,  4-C ) :   1.3498 B(  3-C ,  9-C ) :   0.9159
B(  4-C ,  5-C ) :   1.3881 B(  4-C ,  6-C ) :   0.9424 B(  5-C , 85-H ) :   1.0044
B(  6-C ,  7-O ) :   2.1569 B(  6-C ,  8-C ) :   0.9485 B(  7-O , 87-H ) :   0.1065
B(  8-C ,  9-C ) :   0.9651 B(  8-C , 11-C ) :   1.6823 B(  9-C , 10-O ) :   2.2433
B( 11-C , 12-C ) :   1.1373 B( 11-C , 86-H ) :   0.9293 B( 12-C , 13-C ) :   1.4268
B( 12-C , 16-S ) :   1.0757 B( 13-C , 14-C ) :   1.2901 B( 13-C , 87-H ) :   0.9688
B( 14-C , 15-C ) :   1.4010 B( 14-C , 19-C ) :   0.9958 B( 15-C , 16-S ) :   1.1598
B( 15-C , 17-C ) :   1.1901 B( 17-C , 18-C ) :   1.4477 B( 17-C , 27-S ) :   1.1129
B( 18-C , 19-C ) :   0.9922 B( 18-C , 25-C ) :   1.2898 B( 19-C , 20-C ) :   1.7170
B( 20-C , 21-C ) :   1.1365 B( 20-C , 23-C ) :   1.1315 B( 21-C , 22-N ) :   2.9888
B( 23-C , 24-N ) :   3.0032 B( 25-C , 26-C ) :   1.4622 B( 25-C , 88-H ) :   0.9899
B( 26-C , 27-S ) :   1.1122 B( 26-C , 28-C ) :   1.1546 B( 28-C , 29-C ) :   1.5683
B( 28-C , 43-S ) :   1.0695 B( 29-C , 30-C ) :   1.1901 B( 29-C , 89-H ) :   0.9671
B( 30-C , 31-C ) :   1.2975 B( 30-C , 42-C ) :   1.2659 B( 31-C , 32-C ) :   0.9858
B( 31-C , 39-C ) :   1.4200 B( 32-C , 33-C ) :   1.5511 B( 32-C , 36-S ) :   1.1266
B( 33-C , 34-C ) :   1.2209 B( 33-C , 90-H ) :   0.9957 B( 34-C , 35-C ) :   1.6042
B( 34-C , 38-Cl) :   1.0123 B( 35-C , 36-S ) :   1.1281 B( 35-C , 37-C ) :   1.0822
B( 37-C , 91-H ) :   0.9437 B( 37-C , 92-H ) :   0.9490 B( 37-C , 93-H ) :   0.9481
B( 39-C , 40-C ) :   1.2658 B( 39-C , 53-S ) :   1.0574 B( 40-C , 41-C ) :   1.2961
B( 40-C , 51-C ) :   1.1885 B( 41-C , 42-C ) :   1.4183 B( 41-C , 44-C ) :   0.9882
B( 42-C , 43-S ) :   1.0569 B( 44-C , 45-C ) :   1.5503 B( 44-C , 48-S ) :   1.1257
B( 45-C , 46-C ) :   1.2211 B( 45-C , 94-H ) :   0.9949 B( 46-C , 47-C ) :   1.6053
B( 46-C , 50-Cl) :   1.0119 B( 47-C , 48-S ) :   1.1276 B( 47-C , 49-C ) :   1.0815
B( 49-C , 95-H ) :   0.9440 B( 49-C , 96-H ) :   0.9486 B( 49-C , 97-H ) :   0.9480
B( 51-C , 52-C ) :   1.5709 B( 51-C , 98-H ) :   0.9675 B( 52-C , 53-S ) :   1.0697
B( 52-C , 54-C ) :   1.1548 B( 54-C , 55-C ) :   1.4610 B( 54-C , 58-S ) :   1.1119
B( 55-C , 56-C ) :   1.2911 B( 55-C , 99-H ) :   0.9887 B( 56-C , 57-C ) :   1.4478
B( 56-C , 61-C ) :   0.9922 B( 57-C , 58-S ) :   1.1126 B( 57-C , 59-C ) :   1.1903
B( 59-C , 60-C ) :   1.4010 B( 59-C , 69-S ) :   1.1593 B( 60-C , 61-C ) :   0.9963
B( 60-C , 67-C ) :   1.2910 B( 61-C , 62-C ) :   1.7162 B( 62-C , 63-C ) :   1.1329
B( 62-C , 65-C ) :   1.1366 B( 63-C , 64-N ) :   3.0034 B( 65-C , 66-N ) :   2.9886
B( 67-C , 68-C ) :   1.4269 B( 67-C ,100-H ) :   0.9680 B( 68-C , 69-S ) :   1.0754
B( 68-C , 70-C ) :   1.1372 B( 70-C , 71-C ) :   1.6815 B( 70-C ,101-H ) :   0.9300
B( 71-C , 72-C ) :   0.9645 B( 71-C , 80-C ) :   0.9491 B( 72-C , 73-O ) :   2.2433
B( 72-C , 74-C ) :   0.9165 B( 74-C , 75-C ) :   1.3864 B( 74-C , 79-C ) :   1.3506
B( 75-C , 76-C ) :   1.3591 B( 75-C ,102-H ) :   1.0041 B( 76-C , 77-C ) :   1.3786
B( 76-C ,103-H ) :   0.9888 B( 77-C , 78-C ) :   1.3570 B( 77-C ,104-H ) :   0.9888
B( 78-C , 79-C ) :   1.3874 B( 78-C ,105-H ) :   1.0043 B( 79-C , 80-C ) :   0.9426
B( 80-C , 81-O ) :   2.1565 B( 81-O ,100-H ) :   0.1065

-----------------------------------------------------------------------------
         ABSORPTION SPECTRUM VIA TRANSITION ELECTRIC DIPOLE MOMENTS
-----------------------------------------------------------------------------
State   Energy  Wavelength   fosc         T2         TX        TY        TZ
        (cm-1)    (nm)                  (au**2)     (au)      (au)      (au)
-----------------------------------------------------------------------------
   0   13467.2    742.5   0.581058170  14.20422   2.53268  -2.72515   0.60272
   1   13946.1    717.0   0.001078457   0.02546   0.10438   0.11918   0.01893
   2   19375.9    516.1   0.155289981   2.63850  -1.21313   0.97449   0.46605
   3   20056.8    498.6   0.000332707   0.00546  -0.06965   0.02392   0.00618
   4   22433.3    445.8   2.956731430  43.39055   4.44355  -4.75789   1.00396
   5   24653.1    405.6   0.145111467   1.93779  -1.09672   0.62082   0.59125
   6   24671.2    405.3   0.042317641   0.56469  -0.38503   0.52273   0.37841
   7   24727.5    404.4   0.011698613   0.15575   0.33708   0.20522   0.00390
   8   26881.6    372.0   0.556157820   6.81111  -0.48534   1.38436  -2.15850
   9   27343.8    365.7   0.000034437   0.00041   0.01576  -0.01194   0.00488
  10   27377.9    365.3   0.000005566   0.00007  -0.00393   0.00601   0.00391
  11   27900.0    358.4   0.121373048   1.43217  -0.61736   0.84290  -0.58356
  12   28014.5    357.0   0.003119815   0.03666   0.01372   0.19086  -0.00687
  13   28699.2    348.4   0.152283958   1.74686  -0.30595  -0.21634   1.26746
  14   29685.8    336.9   0.001886354   0.02092   0.11608   0.08622   0.00335
  15   30147.4    331.7   0.063035876   0.68836   0.58763  -0.40387  -0.42420
  16   30263.6    330.4   0.000519491   0.00565   0.06992  -0.00472  -0.02722
  17   31030.0    322.3   0.298235515   3.16412  -1.13689   0.68843   1.18223
  18   31067.6    321.9   0.018133052   0.19215  -0.09603   0.32104  -0.28260
  19   31145.8    321.1   0.098012501   1.03600  -0.14962   0.51034  -0.86785
  20   31765.9    314.8   0.001042449   0.01080  -0.02418   0.07935  -0.06263
  21   32020.7    312.3   0.126916889   1.30486  -0.84810   0.60424   0.46956
  22   32049.0    312.0   0.279810225   2.87425   1.28497  -1.03303  -0.39492
  23   32094.2    311.6   0.005240274   0.05375   0.15766  -0.16872   0.02071
  24   32402.8    308.6   1.034518025  10.51069   0.17067   1.21640  -3.00032
  25   32454.1    308.1   0.002052522   0.02082   0.07452   0.12239   0.01698
  26   33145.2    301.7   0.080965899   0.80419   0.50779  -0.16924  -0.71951
  27   33218.9    301.0   0.000090982   0.00090   0.00946  -0.00097   0.02848
  28   33234.9    300.9   0.021717366   0.21512  -0.07535  -0.10891   0.44450
  29   33734.8    296.4   0.005462925   0.05331  -0.18228  -0.13766  -0.03366
  30   33846.1    295.5   0.002243406   0.02182  -0.13976  -0.04410   0.01851
  31   33967.6    294.4   0.523858604   5.07721   1.69092  -1.42136  -0.44469
  32   34632.1    288.7   0.000715896   0.00681  -0.04578  -0.06630  -0.01769
  33   34817.2    287.2   0.002103096   0.01989   0.10308   0.09186   0.02866
  34   35132.2    284.6   0.041166922   0.38576   0.35006  -0.44311   0.25860
  35   35214.4    284.0   0.001178484   0.01102   0.08615   0.05950  -0.00742
  36   35257.4    283.6   0.001099797   0.01027  -0.02430  -0.09826  -0.00494
  37   35509.9    281.6   0.093695637   0.86865   0.22879  -0.53100   0.73099
  38   36074.6    277.2   0.001941125   0.01771  -0.01006  -0.10523   0.08086
  39   36103.8    277.0   0.014156081   0.12908  -0.11314   0.17592  -0.29212
  40   36276.3    275.7   0.000837547   0.00760   0.03108   0.07638  -0.02832
  41   36284.5    275.6   0.000373789   0.00339   0.01103   0.03841  -0.04237
  42   36345.3    275.1   0.002540925   0.02302  -0.06575  -0.10679   0.08536
  43   36452.7    274.3   0.274490264   2.47898   0.00979  -0.64127   1.43794
  44   36501.0    274.0   0.008880943   0.08010  -0.20306   0.10000   0.16990
  45   37233.0    268.6   0.005801952   0.05130  -0.08903   0.01777   0.20751
  46   37262.3    268.4   0.012490435   0.11035   0.17338  -0.04902  -0.27909
  47   37336.1    267.8   0.061888561   0.54570   0.50071  -0.32357  -0.43623
  48   37498.3    266.7   0.000407553   0.00358   0.04628   0.03512   0.01425
  49   37782.8    264.7   0.000257207   0.00224   0.02980   0.03202  -0.01812
  50   38002.2    263.1   0.045859158   0.39728  -0.15364  -0.12581   0.59820
  51   38711.6    258.3   0.019581884   0.16653  -0.28133   0.13138   0.26480
  52   39151.4    255.4   0.093826353   0.78896  -0.34279  -0.05192   0.81777
  53   39381.1    253.9   0.004445801   0.03717   0.12714   0.13351   0.05637
  54   39782.4    251.4   0.007411643   0.06133   0.21877  -0.09811   0.06206
  55   39801.4    251.2   0.004899039   0.04052  -0.03168   0.19293   0.04790
  56   39855.9    250.9   0.000334318   0.00276  -0.01888  -0.04644  -0.01577
  57   40091.2    249.4   0.000070692   0.00058  -0.02285  -0.00329   0.00689
  58   40132.0    249.2   0.006738677   0.05528   0.04591   0.05938  -0.22281
  59   40192.9    248.8   0.000269470   0.00221   0.01877   0.00104  -0.04305
  60   40207.1    248.7   0.020895815   0.17109  -0.21588   0.05273   0.34887

FINAL SINGLE POINT ENERGY     -7074.041376181469

DIPOLE MOMENT
-------------
                                X             Y             Z
Electronic contribution:     -7.93797      -7.98991      -3.10200
Nuclear contribution   :      8.26662       8.28125       3.24953
                        -----------------------------------------
Total Dipole Moment    :      0.32866       0.29134       0.14753
                        -----------------------------------------
Magnitude (a.u.)       :      0.46332
Magnitude (Debye)      :      1.17766

Rotational constants in cm-1:     0.001542     0.000153     0.000140
Rotational constants in MHz :    46.218233     4.573855     4.189427

                             ****ORCA TERMINATED NORMALLY****
TOTAL RUN TIME: 0 days 0 hours 15 minutes 54 seconds 620 msec
