                         Program Version 4.2.0 -  RELEASE  -
|  1> # ORCA input file
|  2> # SCF done       -172.990972089998          0.000812256107
|  3> ! CAM-B3LYP def2-SVP def2/J RIJCOSX Grid4 TightSCF
|  4> %maxcore 5000
|  5> %tddft
|  6>     Mode sTDDFT
|  7>     Ethresh 5.0
|  8>     maxcore 5000
|  9> end
| 10>
| 11> %pal
| 12>   nprocs 6
| 13>   end
| 14> * xyz 0 1
| 15>    C        0.00639         3.72543         1.11331
| 16>    C        0.47696         4.45835         2.19464
| 17>    C        1.51189         3.98003         2.98794
| 18>    C        2.06202         2.75218         2.66997
| 19>    C        1.58739         2.01420         1.57965
| 20>    C        0.55666         2.49149         0.79192
| 21>    C        2.34255         0.74260         1.45231
| 22>    O        2.14875        -0.11075         0.61232
| 23>    C        3.33519         0.76097         2.54124
| 24>    C        3.16231         2.00807         3.32371
| 25>    O        3.80121         2.34164         4.29832
| 26>    C        4.31801        -0.11307         2.89933
| 27>    C        4.71867        -1.33854         2.33265
| 28>    C        4.23092        -2.05687         1.24968
| 29>    C        4.94690        -3.22579         1.02664
| 30>    C        6.00588        -3.41394         1.95266
| 31>    S        6.10012        -2.15268         3.09085
| 32>    C        6.67265        -4.61077         1.63891
| 33>    C        6.05610        -5.18749         0.50538
| 34>    C        4.93784        -4.33964         0.10045
| 35>    C        4.04416        -4.57724        -0.90310
| 36>    C        4.11101        -5.69891        -1.75147
| 37>    N        4.11975        -6.59436        -2.47058
| 38>    C        2.92145        -3.75295        -1.15124
| 39>    N        1.97395        -3.14230        -1.35496
| 40>    C        6.63472        -6.38051         0.11321
| 41>    C        7.69972        -6.75668         0.94036
| 42>    S        7.96683        -5.56787         2.22011
| 43>    C        8.52061        -7.89054         0.91309
| 44>    C        8.50791        -8.91200        -0.01381
| 45>    C        9.31789       -10.07327         0.00316
| 46>    C        9.10176       -10.93139        -1.03982
| 47>    C        8.11899       -10.48321        -1.94005
| 48>    S        7.46593        -8.95032        -1.41437
| 49>    C        7.61584       -11.02058        -3.11740
| 50>    C        7.84282       -12.23907        -3.78450
| 51>    C        7.11032       -12.37948        -4.93202
| 52>    C        6.27900       -11.27494        -5.23663
| 53>    S        6.46914       -10.05079        -3.99977
| 54>    C        5.36371       -11.14889        -6.26158
| 55>    C        4.60121        -9.99064        -6.48189
| 56>    C        4.86057        -8.70015        -6.01769
| 57>    C        3.82134        -7.82657        -6.26663
| 58>    C        2.74450        -8.41579        -6.96187
| 59>    S        3.05197       -10.06364        -7.33021
| 60>    C        1.72616        -7.45061        -7.09118
| 61>    C        2.15150        -6.25041        -6.46267
| 62>    C        3.48248        -6.45141        -5.92900
| 63>    C        4.26078        -5.59091        -5.21390
| 64>    C        3.86469        -4.29495        -4.81925
| 65>    N        3.60869        -3.24303        -4.44238
| 66>    C        5.56277        -5.92890        -4.78095
| 67>    N        6.63546        -6.15981        -4.44592
| 68>    C        1.20121        -5.24049        -6.51405
| 69>    C        0.04228        -5.63957        -7.16498
| 70>    S        0.15637        -7.31409        -7.73577
| 71>    C       -1.17276        -4.96509        -7.39774
| 72>    C       -1.56740        -3.70434        -7.06373
| 73>    C       -2.96046        -3.28422        -7.34978
| 74>    O       -3.80709        -3.93737        -7.92052
| 75>    C       -3.10017        -1.92273        -6.78584
| 76>    C       -4.20398        -1.09128        -6.74230
| 77>    C       -4.06496         0.14899        -6.13268
| 78>    C       -2.85353         0.54402        -5.58105
| 79>    C       -1.74214        -0.28752        -5.62552
| 80>    C       -1.87843        -1.52185        -6.23271
| 81>    C       -0.85998        -2.58519        -6.41390
| 82>    O        0.31163        -2.49928        -6.11201
| 83>    H       -0.79975         4.12258         0.51409
| 84>    H        0.03089         5.41565         2.42118
| 85>    H        1.88402         4.54387         3.82960
| 86>    H        0.19971         1.91222        -0.04575
| 87>    H        4.89422         0.20154         3.76690
| 88>    H        3.39215        -1.71375         0.66837
| 89>    H        6.30127        -6.95775        -0.72775
| 90>    H        9.24478        -7.97640         1.71312
| 91>    H       10.03594       -10.24263         0.78624
| 92>    H        9.62863       -11.85795        -1.18306
| 93>    H        8.51790       -12.98404        -3.40220
| 94>    H        7.14503       -13.24675        -5.56779
| 95>    H        5.16957       -12.01530        -6.87853
| 96>    H        5.78780        -8.40554        -5.56667
| 97>    H        1.31738        -4.25140        -6.10517
| 98>    H       -1.93704        -5.55185        -7.90246
| 99>    H       -5.14269        -1.40653        -7.17147
|100>    H       -4.91256         0.81694        -6.08521
|101>    H       -2.77606         1.51310        -5.11033
|102>    H       -0.79592         0.00649        -5.19806
|103> *
|104>
|105>                          ****END OF INPUT****

CARTESIAN COORDINATES (ANGSTROEM)
---------------------------------
  C      0.006390    3.725430    1.113310
  C      0.476960    4.458350    2.194640
  C      1.511890    3.980030    2.987940
  C      2.062020    2.752180    2.669970
  C      1.587390    2.014200    1.579650
  C      0.556660    2.491490    0.791920
  C      2.342550    0.742600    1.452310
  O      2.148750   -0.110750    0.612320
  C      3.335190    0.760970    2.541240
  C      3.162310    2.008070    3.323710
  O      3.801210    2.341640    4.298320
  C      4.318010   -0.113070    2.899330
  C      4.718670   -1.338540    2.332650
  C      4.230920   -2.056870    1.249680
  C      4.946900   -3.225790    1.026640
  C      6.005880   -3.413940    1.952660
  S      6.100120   -2.152680    3.090850
  C      6.672650   -4.610770    1.638910
  C      6.056100   -5.187490    0.505380
  C      4.937840   -4.339640    0.100450
  C      4.044160   -4.577240   -0.903100
  C      4.111010   -5.698910   -1.751470
  N      4.119750   -6.594360   -2.470580
  C      2.921450   -3.752950   -1.151240
  N      1.973950   -3.142300   -1.354960
  C      6.634720   -6.380510    0.113210
  C      7.699720   -6.756680    0.940360
  S      7.966830   -5.567870    2.220110
  C      8.520610   -7.890540    0.913090
  C      8.507910   -8.912000   -0.013810
  C      9.317890  -10.073270    0.003160
  C      9.101760  -10.931390   -1.039820
  C      8.118990  -10.483210   -1.940050
  S      7.465930   -8.950320   -1.414370
  C      7.615840  -11.020580   -3.117400
  C      7.842820  -12.239070   -3.784500
  C      7.110320  -12.379480   -4.932020
  C      6.279000  -11.274940   -5.236630
  S      6.469140  -10.050790   -3.999770
  C      5.363710  -11.148890   -6.261580
  C      4.601210   -9.990640   -6.481890
  C      4.860570   -8.700150   -6.017690
  C      3.821340   -7.826570   -6.266630
  C      2.744500   -8.415790   -6.961870
  S      3.051970  -10.063640   -7.330210
  C      1.726160   -7.450610   -7.091180
  C      2.151500   -6.250410   -6.462670
  C      3.482480   -6.451410   -5.929000
  C      4.260780   -5.590910   -5.213900
  C      3.864690   -4.294950   -4.819250
  N      3.608690   -3.243030   -4.442380
  C      5.562770   -5.928900   -4.780950
  N      6.635460   -6.159810   -4.445920
  C      1.201210   -5.240490   -6.514050
  C      0.042280   -5.639570   -7.164980
  S      0.156370   -7.314090   -7.735770
  C     -1.172760   -4.965090   -7.397740
  C     -1.567400   -3.704340   -7.063730
  C     -2.960460   -3.284220   -7.349780
  O     -3.807090   -3.937370   -7.920520
  C     -3.100170   -1.922730   -6.785840
  C     -4.203980   -1.091280   -6.742300
  C     -4.064960    0.148990   -6.132680
  C     -2.853530    0.544020   -5.581050
  C     -1.742140   -0.287520   -5.625520
  C     -1.878430   -1.521850   -6.232710
  C     -0.859980   -2.585190   -6.413900
  O      0.311630   -2.499280   -6.112010
  H     -0.799750    4.122580    0.514090
  H      0.030890    5.415650    2.421180
  H      1.884020    4.543870    3.829600
  H      0.199710    1.912220   -0.045750
  H      4.894220    0.201540    3.766900
  H      3.392150   -1.713750    0.668370
  H      6.301270   -6.957750   -0.727750
  H      9.244780   -7.976400    1.713120
  H     10.035940  -10.242630    0.786240
  H      9.628630  -11.857950   -1.183060
  H      8.517900  -12.984040   -3.402200
  H      7.145030  -13.246750   -5.567790
  H      5.169570  -12.015300   -6.878530
  H      5.787800   -8.405540   -5.566670
  H      1.317380   -4.251400   -6.105170
  H     -1.937040   -5.551850   -7.902460
  H     -5.142690   -1.406530   -7.171470
  H     -4.912560    0.816940   -6.085210
  H     -2.776060    1.513100   -5.110330
  H     -0.795920    0.006490   -5.198060

 Total Charge           Charge          ....    0
 Multiplicity           Mult            ....    1
 Number of Electrons    NEL             ....  500
 Basis Dimension        Dim             .... 1076

ORBITAL ENERGIES
----------------

  NO   OCC          E(Eh)            E(eV)
   0   2.0000     -88.981426     -2421.3077
   1   2.0000     -88.981337     -2421.3053
   2   2.0000     -88.980537     -2421.2835
   3   2.0000     -88.979479     -2421.2547
   4   2.0000     -88.952786     -2420.5284
   5   2.0000     -88.950246     -2420.4593
   6   2.0000     -19.201363      -522.4956
   7   2.0000     -19.199760      -522.4520
   8   2.0000     -19.197353      -522.3865
   9   2.0000     -19.195904      -522.3471
  10   2.0000     -14.427215      -392.5845
  11   2.0000     -14.415971      -392.2785
  12   2.0000     -14.415394      -392.2628
  13   2.0000     -14.412402      -392.1814
  14   2.0000     -10.356158      -281.8054
  15   2.0000     -10.352528      -281.7066
  16   2.0000     -10.352192      -281.6975
  17   2.0000     -10.351084      -281.6673
  18   2.0000     -10.347845      -281.5792
  19   2.0000     -10.346463      -281.5416
  20   2.0000     -10.342881      -281.4441
  21   2.0000     -10.336498      -281.2704
  22   2.0000     -10.332446      -281.1602
  23   2.0000     -10.330586      -281.1095
  24   2.0000     -10.328345      -281.0486
  25   2.0000     -10.323375      -280.9133
  26   2.0000     -10.322200      -280.8813
  27   2.0000     -10.321726      -280.8684
  28   2.0000     -10.320793      -280.8431
  29   2.0000     -10.318122      -280.7704
  30   2.0000     -10.318074      -280.7691
  31   2.0000     -10.317914      -280.7647
  32   2.0000     -10.317607      -280.7564
  33   2.0000     -10.316906      -280.7373
  34   2.0000     -10.314663      -280.6762
  35   2.0000     -10.311524      -280.5908
  36   2.0000     -10.311008      -280.5768
  37   2.0000     -10.310084      -280.5516
  38   2.0000     -10.307053      -280.4692
  39   2.0000     -10.305477      -280.4263
  40   2.0000     -10.301540      -280.3191
  41   2.0000     -10.297359      -280.2054
  42   2.0000     -10.297201      -280.2011
  43   2.0000     -10.296630      -280.1855
  44   2.0000     -10.296308      -280.1768
  45   2.0000     -10.295980      -280.1679
  46   2.0000     -10.295186      -280.1462
  47   2.0000     -10.293760      -280.1074
  48   2.0000     -10.293744      -280.1070
  49   2.0000     -10.293715      -280.1062
  50   2.0000     -10.291906      -280.0570
  51   2.0000     -10.289898      -280.0024
  52   2.0000     -10.288999      -279.9779
  53   2.0000     -10.287723      -279.9432
  54   2.0000     -10.281174      -279.7650
  55   2.0000     -10.280788      -279.7545
  56   2.0000     -10.280228      -279.7392
  57   2.0000     -10.279327      -279.7147
  58   2.0000     -10.279284      -279.7135
  59   2.0000     -10.278771      -279.6996
  60   2.0000     -10.278517      -279.6927
  61   2.0000     -10.277067      -279.6532
  62   2.0000     -10.275870      -279.6206
  63   2.0000     -10.275522      -279.6112
  64   2.0000     -10.274013      -279.5701
  65   2.0000     -10.273646      -279.5601
  66   2.0000     -10.267925      -279.4044
  67   2.0000     -10.266667      -279.3702
  68   2.0000      -8.076217      -219.7650
  69   2.0000      -8.076058      -219.7607
  70   2.0000      -8.075121      -219.7352
  71   2.0000      -8.074301      -219.7129
  72   2.0000      -8.048710      -219.0165
  73   2.0000      -8.046490      -218.9561
  74   2.0000      -6.045351      -164.5024
  75   2.0000      -6.045317      -164.5014
  76   2.0000      -6.044447      -164.4778
  77   2.0000      -6.043433      -164.4502
  78   2.0000      -6.041293      -164.3919
  79   2.0000      -6.041261      -164.3911
  80   2.0000      -6.040365      -164.3667
  81   2.0000      -6.039348      -164.3390
  82   2.0000      -6.038712      -164.3217
  83   2.0000      -6.038240      -164.3089
  84   2.0000      -6.037262      -164.2822
  85   2.0000      -6.036777      -164.2690
  86   2.0000      -6.018453      -163.7704
  87   2.0000      -6.016239      -163.7102
  88   2.0000      -6.014208      -163.6549
  89   2.0000      -6.011934      -163.5930
  90   2.0000      -6.009794      -163.5348
  91   2.0000      -6.007481      -163.4719
  92   2.0000      -1.117199       -30.4005
  93   2.0000      -1.115688       -30.3594
  94   2.0000      -1.110212       -30.2104
  95   2.0000      -1.108710       -30.1695
  96   2.0000      -1.036522       -28.2052
  97   2.0000      -1.034017       -28.1370
  98   2.0000      -1.016308       -27.6552
  99   2.0000      -1.007575       -27.4175
 100   2.0000      -1.006421       -27.3861
 101   2.0000      -0.994619       -27.0650
 102   2.0000      -0.992799       -27.0154
 103   2.0000      -0.990791       -26.9608
 104   2.0000      -0.987263       -26.8648
 105   2.0000      -0.979063       -26.6417
 106   2.0000      -0.968142       -26.3445
 107   2.0000      -0.966316       -26.2948
 108   2.0000      -0.950807       -25.8728
 109   2.0000      -0.947841       -25.7921
 110   2.0000      -0.917886       -24.9769
 111   2.0000      -0.915639       -24.9158
 112   2.0000      -0.908166       -24.7125
 113   2.0000      -0.903635       -24.5892
 114   2.0000      -0.890426       -24.2297
 115   2.0000      -0.876172       -23.8419
 116   2.0000      -0.867470       -23.6051
 117   2.0000      -0.865144       -23.5418
 118   2.0000      -0.861806       -23.4509
 119   2.0000      -0.848639       -23.0926
 120   2.0000      -0.847005       -23.0482
 121   2.0000      -0.844971       -22.9928
 122   2.0000      -0.843555       -22.9543
 123   2.0000      -0.843054       -22.9407
 124   2.0000      -0.841576       -22.9004
 125   2.0000      -0.826773       -22.4976
 126   2.0000      -0.816701       -22.2236
 127   2.0000      -0.796015       -21.6607
 128   2.0000      -0.788049       -21.4439
 129   2.0000      -0.777461       -21.1558
 130   2.0000      -0.767317       -20.8798
 131   2.0000      -0.762460       -20.7476
 132   2.0000      -0.745817       -20.2947
 133   2.0000      -0.731846       -19.9145
 134   2.0000      -0.723281       -19.6815
 135   2.0000      -0.721663       -19.6375
 136   2.0000      -0.708876       -19.2895
 137   2.0000      -0.698516       -19.0076
 138   2.0000      -0.693672       -18.8758
 139   2.0000      -0.685528       -18.6542
 140   2.0000      -0.682827       -18.5807
 141   2.0000      -0.674487       -18.3537
 142   2.0000      -0.671299       -18.2670
 143   2.0000      -0.667257       -18.1570
 144   2.0000      -0.661561       -18.0020
 145   2.0000      -0.652151       -17.7459
 146   2.0000      -0.645239       -17.5579
 147   2.0000      -0.641393       -17.4532
 148   2.0000      -0.639640       -17.4055
 149   2.0000      -0.633823       -17.2472
 150   2.0000      -0.629422       -17.1274
 151   2.0000      -0.624198       -16.9853
 152   2.0000      -0.620251       -16.8779
 153   2.0000      -0.612451       -16.6656
 154   2.0000      -0.611740       -16.6463
 155   2.0000      -0.606291       -16.4980
 156   2.0000      -0.604093       -16.4382
 157   2.0000      -0.592776       -16.1303
 158   2.0000      -0.589397       -16.0383
 159   2.0000      -0.579806       -15.7773
 160   2.0000      -0.576890       -15.6980
 161   2.0000      -0.564172       -15.3519
 162   2.0000      -0.562234       -15.2992
 163   2.0000      -0.558810       -15.2060
 164   2.0000      -0.548036       -14.9128
 165   2.0000      -0.546896       -14.8818
 166   2.0000      -0.546173       -14.8621
 167   2.0000      -0.540786       -14.7155
 168   2.0000      -0.537260       -14.6196
 169   2.0000      -0.535554       -14.5732
 170   2.0000      -0.533887       -14.5278
 171   2.0000      -0.526378       -14.3235
 172   2.0000      -0.519430       -14.1344
 173   2.0000      -0.518983       -14.1222
 174   2.0000      -0.517933       -14.0937
 175   2.0000      -0.517040       -14.0694
 176   2.0000      -0.515937       -14.0394
 177   2.0000      -0.513072       -13.9614
 178   2.0000      -0.510602       -13.8942
 179   2.0000      -0.507551       -13.8112
 180   2.0000      -0.506168       -13.7735
 181   2.0000      -0.505532       -13.7562
 182   2.0000      -0.502399       -13.6710
 183   2.0000      -0.500272       -13.6131
 184   2.0000      -0.499801       -13.6003
 185   2.0000      -0.496596       -13.5131
 186   2.0000      -0.495114       -13.4727
 187   2.0000      -0.491865       -13.3843
 188   2.0000      -0.490164       -13.3381
 189   2.0000      -0.488502       -13.2928
 190   2.0000      -0.485839       -13.2204
 191   2.0000      -0.484028       -13.1711
 192   2.0000      -0.481355       -13.0983
 193   2.0000      -0.476036       -12.9536
 194   2.0000      -0.471397       -12.8274
 195   2.0000      -0.469036       -12.7631
 196   2.0000      -0.465749       -12.6737
 197   2.0000      -0.463924       -12.6240
 198   2.0000      -0.458531       -12.4773
 199   2.0000      -0.457612       -12.4523
 200   2.0000      -0.456235       -12.4148
 201   2.0000      -0.454135       -12.3576
 202   2.0000      -0.452448       -12.3117
 203   2.0000      -0.448042       -12.1918
 204   2.0000      -0.446093       -12.1388
 205   2.0000      -0.445007       -12.1092
 206   2.0000      -0.444229       -12.0881
 207   2.0000      -0.444050       -12.0832
 208   2.0000      -0.442843       -12.0504
 209   2.0000      -0.441699       -12.0192
 210   2.0000      -0.438624       -11.9356
 211   2.0000      -0.436599       -11.8805
 212   2.0000      -0.435902       -11.8615
 213   2.0000      -0.434526       -11.8241
 214   2.0000      -0.432513       -11.7693
 215   2.0000      -0.431373       -11.7383
 216   2.0000      -0.430314       -11.7094
 217   2.0000      -0.429074       -11.6757
 218   2.0000      -0.428065       -11.6482
 219   2.0000      -0.427107       -11.6222
 220   2.0000      -0.423161       -11.5148
 221   2.0000      -0.421816       -11.4782
 222   2.0000      -0.416161       -11.3243
 223   2.0000      -0.412464       -11.2237
 224   2.0000      -0.411393       -11.1946
 225   2.0000      -0.410324       -11.1655
 226   2.0000      -0.397182       -10.8079
 227   2.0000      -0.392842       -10.6898
 228   2.0000      -0.386817       -10.5258
 229   2.0000      -0.379676       -10.3315
 230   2.0000      -0.361556        -9.8384
 231   2.0000      -0.347547        -9.4572
 232   2.0000      -0.341950        -9.3049
 233   2.0000      -0.339390        -9.2353
 234   2.0000      -0.336891        -9.1673
 235   2.0000      -0.335236        -9.1222
 236   2.0000      -0.334648        -9.1062
 237   2.0000      -0.329432        -8.9643
 238   2.0000      -0.328288        -8.9332
 239   2.0000      -0.327178        -8.9030
 240   2.0000      -0.326262        -8.8780
 241   2.0000      -0.325182        -8.8487
 242   2.0000      -0.314591        -8.5604
 243   2.0000      -0.311325        -8.4716
 244   2.0000      -0.310278        -8.4431
 245   2.0000      -0.308506        -8.3949
 246   2.0000      -0.304691        -8.2911
 247   2.0000      -0.276359        -7.5201
 248   2.0000      -0.253313        -6.8930
 249   2.0000      -0.211950        -5.7674
 250   0.0000      -0.109718        -2.9856
 251   0.0000      -0.098937        -2.6922
 252   0.0000      -0.077425        -2.1069
 253   0.0000      -0.060464        -1.6453
 254   0.0000      -0.053036        -1.4432

MULLIKEN ATOMIC CHARGES
-----------------------
   0 C :    0.037965
   1 C :    0.039390
   2 C :   -0.025083
   3 C :    0.013122
   4 C :   -0.011365
   5 C :   -0.022253
   6 C :    0.186622
   7 O :   -0.149226
   8 C :   -0.179209
   9 C :    0.143681
  10 O :   -0.158035
  11 C :    0.057361
  12 C :   -0.105883
  13 C :   -0.009003
  14 C :   -0.009528
  15 C :   -0.083996
  16 S :    0.185789
  17 C :   -0.105874
  18 C :    0.003907
  19 C :    0.326786
  20 C :   -0.310476
  21 C :   -0.144754
  22 N :    0.141150
  23 C :   -0.205141
  24 N :    0.208641
  25 C :   -0.040401
  26 C :   -0.093138
  27 S :    0.177868
  28 C :    0.036810
  29 C :   -0.026698
  30 C :    0.028846
  31 C :    0.034680
  32 C :   -0.023523
  33 S :    0.060300
  34 C :   -0.035996
  35 C :    0.036472
  36 C :    0.037092
  37 C :   -0.036626
  38 S :    0.072677
  39 C :    0.034828
  40 C :   -0.094913
  41 C :   -0.036482
  42 C :   -0.001299
  43 C :   -0.105240
  44 S :    0.182938
  45 C :   -0.089083
  46 C :   -0.006113
  47 C :    0.335961
  48 C :   -0.309062
  49 C :   -0.205691
  50 N :    0.207768
  51 C :   -0.195277
  52 N :    0.173716
  53 C :   -0.007306
  54 C :   -0.108879
  55 S :    0.184322
  56 C :    0.055771
  57 C :   -0.172981
  58 C :    0.141565
  59 O :   -0.158224
  60 C :    0.015734
  61 C :   -0.026093
  62 C :    0.036795
  63 C :    0.040766
  64 C :   -0.020132
  65 C :   -0.011630
  66 C :    0.185911
  67 O :   -0.151934
  68 H :   -0.005016
  69 H :   -0.005653
  70 H :   -0.008863
  71 H :   -0.003495
  72 H :    0.007516
  73 H :    0.035406
  74 H :    0.034273
  75 H :   -0.014356
  76 H :   -0.008760
  77 H :   -0.011073
  78 H :   -0.010249
  79 H :   -0.007810
  80 H :   -0.009678
  81 H :    0.038324
  82 H :    0.035170
  83 H :    0.007189
  84 H :   -0.010141
  85 H :   -0.004988
  86 H :   -0.005877
  87 H :   -0.000612
Sum of atomic charges:   -0.0000000

LOEWDIN ATOMIC CHARGES
----------------------
   0 C :   -0.006252
   1 C :   -0.006894
   2 C :    0.007613
   3 C :   -0.045770
   4 C :   -0.041453
   5 C :    0.009214
   6 C :    0.081193
   7 O :   -0.137277
   8 C :   -0.135091
   9 C :    0.077444
  10 O :   -0.155493
  11 C :    0.047170
  12 C :   -0.181524
  13 C :    0.015944
  14 C :   -0.078168
  15 C :   -0.159541
  16 S :    0.475089
  17 C :   -0.199092
  18 C :   -0.048236
  19 C :    0.077870
  20 C :   -0.092544
  21 C :   -0.001085
  22 N :   -0.039565
  23 C :   -0.025346
  24 N :   -0.006207
  25 C :   -0.042877
  26 C :   -0.151360
  27 S :    0.463708
  28 C :   -0.081745
  29 C :   -0.142202
  30 C :   -0.031071
  31 C :   -0.032714
  32 C :   -0.175325
  33 S :    0.413851
  34 C :   -0.175823
  35 C :   -0.031696
  36 C :   -0.029840
  37 C :   -0.139857
  38 S :    0.422106
  39 C :   -0.074878
  40 C :   -0.158905
  41 C :   -0.046259
  42 C :   -0.046168
  43 C :   -0.194136
  44 S :    0.458749
  45 C :   -0.160918
  46 C :   -0.074934
  47 C :    0.075832
  48 C :   -0.088476
  49 C :   -0.024875
  50 N :   -0.015513
  51 C :   -0.015350
  52 N :   -0.041643
  53 C :    0.014119
  54 C :   -0.180932
  55 S :    0.473886
  56 C :    0.046897
  57 C :   -0.133032
  58 C :    0.077548
  59 O :   -0.155422
  60 C :   -0.045834
  61 C :    0.007281
  62 C :   -0.007337
  63 C :   -0.005820
  64 C :    0.011309
  65 C :   -0.040968
  66 C :    0.082432
  67 O :   -0.137657
  68 H :    0.031866
  69 H :    0.031779
  70 H :    0.036970
  71 H :    0.038741
  72 H :    0.040221
  73 H :    0.043459
  74 H :    0.025245
  75 H :    0.034061
  76 H :    0.034165
  77 H :    0.034017
  78 H :    0.033714
  79 H :    0.034547
  80 H :    0.034724
  81 H :    0.026773
  82 H :    0.043196
  83 H :    0.040225
  84 H :    0.036537
  85 H :    0.031697
  86 H :    0.031781
  87 H :    0.040133

  Mayer bond orders larger than 0.100000
B(  0-C ,  1-C ) :   1.3817 B(  0-C ,  5-C ) :   1.3529 B(  0-C , 68-H ) :   0.9889
B(  1-C ,  2-C ) :   1.3586 B(  1-C , 69-H ) :   0.9879 B(  2-C ,  3-C ) :   1.3851
B(  2-C , 70-H ) :   1.0048 B(  3-C ,  4-C ) :   1.3552 B(  3-C ,  9-C ) :   0.9152
B(  4-C ,  5-C ) :   1.3908 B(  4-C ,  6-C ) :   0.9401 B(  5-C , 71-H ) :   1.0043
B(  6-C ,  7-O ) :   2.1560 B(  6-C ,  8-C ) :   0.9532 B(  7-O , 73-H ) :   0.1065
B(  8-C ,  9-C ) :   0.9703 B(  8-C , 11-C ) :   1.6622 B(  9-C , 10-O ) :   2.2395
B( 11-C , 12-C ) :   1.1533 B( 11-C , 72-H ) :   0.9309 B( 12-C , 13-C ) :   1.4164
B( 12-C , 16-S ) :   1.0618 B( 13-C , 14-C ) :   1.2983 B( 13-C , 73-H ) :   0.9672
B( 14-C , 15-C ) :   1.3720 B( 14-C , 19-C ) :   1.0077 B( 15-C , 16-S ) :   1.1571
B( 15-C , 17-C ) :   1.2300 B( 17-C , 18-C ) :   1.4112 B( 17-C , 27-S ) :   1.0973
B( 18-C , 19-C ) :   0.9893 B( 18-C , 25-C ) :   1.3655 B( 19-C , 20-C ) :   1.6964
B( 20-C , 21-C ) :   1.1645 B( 20-C , 23-C ) :   1.1401 B( 21-C , 22-N ) :   2.8768
B( 23-C , 24-N ) :   2.9914 B( 25-C , 26-C ) :   1.3771 B( 25-C , 74-H ) :   0.9656
B( 26-C , 27-S ) :   1.1005 B( 26-C , 28-C ) :   1.1997 B( 28-C , 29-C ) :   1.5577
B( 28-C , 75-H ) :   0.9520 B( 29-C , 30-C ) :   1.1656 B( 29-C , 33-S ) :   1.0585
B( 30-C , 31-C ) :   1.5663 B( 30-C , 76-H ) :   0.9986 B( 31-C , 32-C ) :   1.2095
B( 31-C , 77-H ) :   0.9954 B( 32-C , 33-S ) :   1.0552 B( 32-C , 34-C ) :   1.4630
B( 34-C , 35-C ) :   1.2029 B( 34-C , 38-S ) :   1.0582 B( 35-C , 36-C ) :   1.5712
B( 35-C , 78-H ) :   0.9959 B( 36-C , 37-C ) :   1.1646 B( 36-C , 79-H ) :   0.9965
B( 37-C , 38-S ) :   1.0511 B( 37-C , 39-C ) :   1.5620 B( 39-C , 40-C ) :   1.1784
B( 39-C , 80-H ) :   0.9613 B( 40-C , 41-C ) :   1.3919 B( 40-C , 44-S ) :   1.0940
B( 41-C , 42-C ) :   1.3632 B( 41-C , 81-H ) :   0.9515 B( 42-C , 43-C ) :   1.4128
B( 42-C , 47-C ) :   0.9985 B( 43-C , 44-S ) :   1.0979 B( 43-C , 45-C ) :   1.2295
B( 45-C , 46-C ) :   1.3741 B( 45-C , 55-S ) :   1.1534 B( 46-C , 47-C ) :   1.0050
B( 46-C , 53-C ) :   1.3014 B( 47-C , 48-C ) :   1.7128 B( 48-C , 49-C ) :   1.1524
B( 48-C , 51-C ) :   1.1294 B( 49-C , 50-N ) :   2.9797 B( 51-C , 52-N ) :   2.9825
B( 53-C , 54-C ) :   1.4210 B( 53-C , 82-H ) :   0.9657 B( 54-C , 55-S ) :   1.0673
B( 54-C , 56-C ) :   1.1519 B( 56-C , 57-C ) :   1.6650 B( 56-C , 83-H ) :   0.9310
B( 57-C , 58-C ) :   0.9694 B( 57-C , 66-C ) :   0.9532 B( 58-C , 59-O ) :   2.2405
B( 58-C , 60-C ) :   0.9153 B( 60-C , 61-C ) :   1.3869 B( 60-C , 65-C ) :   1.3527
B( 61-C , 62-C ) :   1.3602 B( 61-C , 84-H ) :   1.0040 B( 62-C , 63-C ) :   1.3803
B( 62-C , 85-H ) :   0.9880 B( 63-C , 64-C ) :   1.3555 B( 63-C , 86-H ) :   0.9878
B( 64-C , 65-C ) :   1.3915 B( 64-C , 87-H ) :   1.0038 B( 65-C , 66-C ) :   0.9390
B( 66-C , 67-O ) :   2.1534 B( 67-O , 82-H ) :   0.1049

-----------------------------------------------------------------------------
         ABSORPTION SPECTRUM VIA TRANSITION ELECTRIC DIPOLE MOMENTS
-----------------------------------------------------------------------------
State   Energy  Wavelength   fosc         T2         TX        TY        TZ
        (cm-1)    (nm)                  (au**2)     (au)      (au)      (au)
-----------------------------------------------------------------------------
   0    7915.0   1263.4   0.297846825  12.38846  -0.92661  -1.68651  -2.94712
   1    9047.4   1105.3   0.122732317   4.46594  -1.53304   1.25070  -0.74262
   2   14002.9    714.1   0.398020685   9.35756  -0.95880  -1.24294  -2.62552
   3   16627.1    601.4   0.223811393   4.43141  -1.21377   1.71712   0.09830
   4   17797.8    561.9   0.002644385   0.04891   0.02895  -0.15873  -0.15126
   5   20527.0    487.2   1.588211502  25.47169  -3.00881   4.04896   0.15714
   6   22015.1    454.2   0.254500513   3.80578  -0.95455   1.69843   0.09979
   7   22342.9    447.6   0.567159304   8.35682  -1.82896   2.23586   0.11251
   8   23101.9    432.9   0.027196718   0.38756  -0.23000   0.35539  -0.45647
   9   24828.1    402.8   0.119635411   1.58632  -0.74649   1.00761   0.11746
  10   26334.2    379.7   0.000133867   0.00167  -0.00472  -0.03881  -0.01204
  11   26500.9    377.3   0.000012101   0.00015  -0.00465   0.00705  -0.00888
  12   27254.3    366.9   0.150064471   1.81267  -0.70765   1.14536   0.00656
  13   27660.6    361.5   0.013019745   0.15496  -0.32623  -0.21089  -0.06372
  14   28600.5    349.6   0.117785183   1.35579  -0.96750   0.04020  -0.64662
  15   28851.5    346.6   0.246095153   2.80809  -1.05943  -0.80074  -1.02202
  16   29055.5    344.2   0.000528055   0.00598   0.05504   0.00268  -0.05429
  17   29214.7    342.3   0.093840225   1.05746  -0.69063  -0.31117  -0.69545
  18   29333.8    340.9   0.060452593   0.67846   0.43046  -0.55010   0.43652
  19   29747.6    336.2   0.043629185   0.48284  -0.15572  -0.46833  -0.48914
  20   30005.5    333.3   0.348201889   3.82038  -0.65090   1.66199   0.79656
  21   30366.4    329.3   0.297620326   3.22660  -1.33642  -0.65989  -1.00257
  22   30531.0    327.5   0.000785399   0.00847   0.06973   0.00344   0.05996
  23   30536.3    327.5   0.012240745   0.13197  -0.33891   0.00541  -0.13070
  24   30771.4    325.0   0.203734993   2.17968   0.93905   0.34987   1.08419
  25   31087.6    321.7   0.100138477   1.06045  -0.43253  -0.45311  -0.81735
  26   31198.7    320.5   0.000364489   0.00385  -0.02472  -0.02505  -0.05107
  27   31575.9    316.7   0.006275255   0.06543   0.15895  -0.20019  -0.00926
  28   32077.2    311.7   0.011221925   0.11517  -0.14043   0.10437  -0.29079
  29   32546.1    307.3   0.305406401   3.08926  -0.72065   1.54335   0.43357
  30   32722.5    305.6   0.329238382   3.31238   1.30230  -1.21206   0.38379
  31   32861.0    304.3   0.077613928   0.77756   0.51973   0.03886   0.71129
  32   33651.6    297.2   0.005621463   0.05499  -0.11989   0.19479  -0.05176
  33   33828.5    295.6   0.000441418   0.00430  -0.05335   0.03620  -0.01179
  34   34381.1    290.9   0.014062840   0.13466   0.24064  -0.17326  -0.21617
  35   34594.5    289.1   0.127445334   1.21281  -0.45988  -0.89763  -0.44225
  36   34752.3    287.8   0.000772141   0.00731   0.03608   0.07087  -0.03147
  37   34769.8    287.6   0.001916092   0.01814  -0.00164   0.07188   0.11390
  38   35019.4    285.6   0.162921240   1.53160   0.48620  -1.13249  -0.11262
  39   35267.6    283.5   0.003851131   0.03595  -0.00451  -0.15851  -0.10393
  40   35491.3    281.8   0.149128471   1.38329   0.88960   0.29621   0.71004
  41   35506.7    281.6   0.044530988   0.41288  -0.21934  -0.37682  -0.47200
  42   35535.7    281.4   0.039798468   0.36870   0.34877   0.32764   0.37378
  43   35649.7    280.5   0.052686528   0.48654  -0.49850  -0.04924  -0.48540
  44   35675.1    280.3   0.063687628   0.58771  -0.50813  -0.15811  -0.55183
  45   35799.4    279.3   0.000123789   0.00114   0.01948   0.00942   0.02589
  46   36000.9    277.8   0.010217118   0.09343   0.00304   0.22653   0.20520
  47   36208.5    276.2   0.025405323   0.23099  -0.29345  -0.11522  -0.36276
  48   36322.4    275.3   0.004951766   0.04488  -0.12979  -0.07906  -0.14760
  49   36564.8    273.5   0.003359231   0.03024  -0.10055  -0.03938  -0.13632
  50   36872.0    271.2   0.027673921   0.24709   0.34815  -0.03471   0.35309
  51   37632.1    265.7   0.039048587   0.34160  -0.52562   0.15061  -0.20649
  52   37679.5    265.4   0.008030992   0.07017  -0.24578   0.09879  -0.00032
  53   37842.2    264.3   0.003021760   0.02629   0.07838  -0.13072  -0.05528
  54   38369.3    260.6   0.004921745   0.04223  -0.13652  -0.06937  -0.13703
  55   38437.8    260.2   0.000380272   0.00326  -0.00484  -0.04914   0.02861
  56   38441.7    260.1   0.024813312   0.21250   0.29132   0.25252   0.25271
  57   38571.9    259.3   0.017502738   0.14939   0.22687  -0.30812  -0.05461
  58   38607.6    259.0   0.035276440   0.30081  -0.13980   0.47623   0.23339
  59   38764.1    258.0   0.017743889   0.15069  -0.25917   0.28900  -0.00229
  60   38860.0    257.3   0.009826781   0.08325   0.10684   0.21272   0.16304
  61   38909.8    257.0   0.000058041   0.00049  -0.01596  -0.01062   0.01111
  62   38984.0    256.5   0.003588971   0.03031  -0.12389   0.11632   0.03780
  63   39069.5    256.0   0.008619506   0.07263  -0.17682   0.19530  -0.05679
  64   39168.8    255.3   0.001831108   0.01539   0.08362   0.08321   0.03840
  65   39235.0    254.9   0.007955660   0.06675  -0.18905   0.17611   0.00060
  66   39288.7    254.5   0.016584416   0.13897   0.25557  -0.26395   0.06311
  67   39488.4    253.2   0.006830366   0.05694  -0.19311   0.13339  -0.04312
  68   39549.9    252.8   0.000177693   0.00148   0.02039  -0.03080  -0.01071
  69   39710.9    251.8   0.012725187   0.10549  -0.14994   0.28649   0.03057
  70   39953.5    250.3   0.003491116   0.02877   0.04717  -0.15966  -0.03239
  71   40256.7    248.4   0.010181817   0.08326   0.22601  -0.17329  -0.04643

FINAL SINGLE POINT ENERGY     -4974.693032063170

DIPOLE MOMENT
-------------
                                X             Y             Z
Electronic contribution:     13.55059     -18.88608      -3.07313
Nuclear contribution   :    -12.14670      16.43080       3.51250
                        -----------------------------------------
Total Dipole Moment    :      1.40389      -2.45528       0.43937
                        -----------------------------------------
Magnitude (a.u.)       :      2.86223
Magnitude (Debye)      :      7.27520

Rotational constants in cm-1:     0.000853     0.000669     0.000382
Rotational constants in MHz :    25.568879    20.052909    11.453437

                             ****ORCA TERMINATED NORMALLY****
TOTAL RUN TIME: 0 days 0 hours 9 minutes 24 seconds 65 msec
