                         Program Version 4.2.0 -  RELEASE  -
|  1> # ORCA input file
|  2> # SCF done       -203.647795757851          0.000986179532
|  3> ! CAM-B3LYP def2-SVP def2/J RIJCOSX Grid4 TightSCF
|  4> %maxcore 5000
|  5> %tddft
|  6>     Mode sTDDFT
|  7>     Ethresh 5.0
|  8>     maxcore 5000
|  9> end
| 10>
| 11> %pal
| 12>   nprocs 6
| 13>   end
| 14> * xyz 0 1
| 15>    C       -0.44176        -1.33902        -2.50926
| 16>    C       -1.71570        -0.93496        -2.79760
| 17>    F       -2.74528        -1.77347        -2.56612
| 18>    C       -2.00088         0.32887        -3.32884
| 19>    C       -0.96758         1.19221        -3.56947
| 20>    C        0.36446         0.82815        -3.28941
| 21>    C        0.63330        -0.46236        -2.74976
| 22>    C        1.96402        -0.85101        -2.46070
| 23>    C        2.98387         0.02845        -2.69403
| 24>    C        2.70837         1.32010        -3.22627
| 25>    C        1.43920         1.71720        -3.52601
| 26>    C        3.97816         2.06887        -3.34522
| 27>    O        4.14018         3.17821        -3.80977
| 28>    C        5.00771         1.19838        -2.73040
| 29>    C        4.42871        -0.08712        -2.49883
| 30>    C        5.11368        -1.27068        -2.31977
| 31>    C        6.51133        -1.35305        -2.40800
| 32>    N        7.65675        -1.43726        -2.46644
| 33>    C        4.50431        -2.51089        -2.06838
| 34>    N        4.07008        -3.54416        -1.81224
| 35>    C        6.24424         1.74324        -2.45124
| 36>    C        7.24885         1.41102        -1.53376
| 37>    C        7.12217         0.56765        -0.43177
| 38>    C        8.27192         0.47980         0.41864
| 39>    O        8.24492        -0.20508         1.59178
| 40>    C        6.94717        -0.51243         2.05435
| 41>    C        6.09822        -1.04045         0.90574
| 42>    O        5.97444        -0.05891        -0.10973
| 43>    C        9.40176         1.15902         0.00952
| 44>   Si        9.01283         2.03822        -1.60197
| 45>    C        9.92785         1.32960        -3.07242
| 46>    C        9.15158         3.90234        -1.45603
| 47>    C       10.57252         1.20758         0.79078
| 48>    C       11.73653         1.89707         0.47461
| 49>    C       12.67152         1.83521         1.49951
| 50>    C       12.23089         1.08539         2.62029
| 51>    S       10.65190         0.44157         2.37805
| 52>    C       13.23761         1.16603         3.57738
| 53>    C       14.27051         1.96113         3.01742
| 54>    N       13.92364         2.33962         1.74496
| 55>    C       14.68023         3.19951         0.87977
| 56>    C       15.33251         2.17801         3.88522
| 57>    C       15.13300         1.56098         5.11410
| 58>    S       13.61173         0.67166         5.18415
| 59>    C       15.97989         1.65475         6.23505
| 60>    C       15.69259         1.02740         7.43059
| 61>    C       16.56379         1.31264         8.53101
| 62>    O       16.33689         0.79083         9.75197
| 63>    C       15.05633         0.20625         9.92329
| 64>    C       14.68239        -0.62954         8.70660
| 65>    O       14.63206         0.18803         7.55697
| 66>    C       17.67226         2.10296         8.23803
| 67>   Si       17.57807         2.61642         6.43849
| 68>    C       18.96671         1.92904         5.38240
| 69>    C       17.35626         4.46718         6.27458
| 70>    C       18.66465         2.51624         9.13592
| 71>    C       18.71838         2.58775        10.51286
| 72>    C       20.04874         2.64355        11.16258
| 73>    O       21.12312         2.78454        10.61564
| 74>    C       19.79372         2.45518        12.60689
| 75>    C       20.68140         2.35203        13.63645
| 76>    C       20.19448         2.16138        14.95099
| 77>    C       18.78932         2.07678        15.16805
| 78>    C       18.31091         1.88284        16.47790
| 79>    C       19.20148         1.78524        17.51064
| 80>    C       20.58607         1.86911        17.31890
| 81>    C       21.06726         2.05436        16.05194
| 82>    F       18.74409         1.60146        18.76508
| 83>    C       17.89175         2.19703        14.07968
| 84>    C       18.38759         2.38797        12.82023
| 85>    C       17.71928         2.58918        11.53472
| 86>    C       16.39028         2.92916        11.38745
| 87>    C       15.86381         3.43718        10.19158
| 88>    N       15.40858         3.85413         9.22133
| 89>    C       15.43209         2.85785        12.41211
| 90>    N       14.58647         2.77563        13.18653
| 91>    H       -0.25945        -2.32179        -2.10302
| 92>    H       -3.02570         0.59356        -3.53574
| 93>    H       -1.16203         2.17254        -3.97825
| 94>    H        2.13915        -1.83312        -2.05016
| 95>    H        1.25206         2.69835        -3.93630
| 96>    H        6.43074         2.66224        -3.00129
| 97>    H        7.06707        -1.26340         2.83617
| 98>    H        6.48074         0.38863         2.47656
| 99>    H        5.08343        -1.27629         1.22943
|100>    H        6.56945        -1.93849         0.48468
|101>    H        9.71764         0.26679        -3.18431
|102>    H       11.00751         1.43824        -2.98829
|103>    H        9.63049         1.81246        -4.00145
|104>    H        8.69743         4.28008        -0.54169
|105>    H        8.65647         4.40218        -2.28621
|106>    H       10.18578         4.23962        -1.45993
|107>    H       11.85458         2.41635        -0.45783
|108>    H       15.74456         3.03226         1.04247
|109>    H       14.45587         4.25382         1.07061
|110>    H       14.43960         2.97090        -0.15766
|111>    H       16.20849         2.76332         3.67751
|112>    H       14.31112         1.00083        10.06119
|113>    H       15.11555        -0.40152        10.82737
|114>    H       13.69025        -1.06837         8.81836
|115>    H       15.42489        -1.42694         8.56192
|116>    H       19.04997         0.84661         5.46184
|117>    H       19.92895         2.34397         5.67547
|118>    H       18.83319         2.16082         4.32791
|119>    H       16.57906         4.82401         6.94907
|120>    H       17.07369         4.77000         5.26821
|121>    H       18.26825         5.00618         6.52447
|122>    H       19.60431         2.79665         8.66619
|123>    H       21.74385         2.41822        13.45534
|124>    H       17.25008         1.81724        16.66351
|125>    H       21.24107         1.78657        18.17169
|126>    H       22.13091         2.12226        15.87884
|127>    H       16.83270         2.13071        14.27338
|128> *
|129>
|130>                          ****END OF INPUT****

CARTESIAN COORDINATES (ANGSTROEM)
---------------------------------
  C     -0.441760   -1.339020   -2.509260
  C     -1.715700   -0.934960   -2.797600
  F     -2.745280   -1.773470   -2.566120
  C     -2.000880    0.328870   -3.328840
  C     -0.967580    1.192210   -3.569470
  C      0.364460    0.828150   -3.289410
  C      0.633300   -0.462360   -2.749760
  C      1.964020   -0.851010   -2.460700
  C      2.983870    0.028450   -2.694030
  C      2.708370    1.320100   -3.226270
  C      1.439200    1.717200   -3.526010
  C      3.978160    2.068870   -3.345220
  O      4.140180    3.178210   -3.809770
  C      5.007710    1.198380   -2.730400
  C      4.428710   -0.087120   -2.498830
  C      5.113680   -1.270680   -2.319770
  C      6.511330   -1.353050   -2.408000
  N      7.656750   -1.437260   -2.466440
  C      4.504310   -2.510890   -2.068380
  N      4.070080   -3.544160   -1.812240
  C      6.244240    1.743240   -2.451240
  C      7.248850    1.411020   -1.533760
  C      7.122170    0.567650   -0.431770
  C      8.271920    0.479800    0.418640
  O      8.244920   -0.205080    1.591780
  C      6.947170   -0.512430    2.054350
  C      6.098220   -1.040450    0.905740
  O      5.974440   -0.058910   -0.109730
  C      9.401760    1.159020    0.009520
  Si     9.012830    2.038220   -1.601970
  C      9.927850    1.329600   -3.072420
  C      9.151580    3.902340   -1.456030
  C     10.572520    1.207580    0.790780
  C     11.736530    1.897070    0.474610
  C     12.671520    1.835210    1.499510
  C     12.230890    1.085390    2.620290
  S     10.651900    0.441570    2.378050
  C     13.237610    1.166030    3.577380
  C     14.270510    1.961130    3.017420
  N     13.923640    2.339620    1.744960
  C     14.680230    3.199510    0.879770
  C     15.332510    2.178010    3.885220
  C     15.133000    1.560980    5.114100
  S     13.611730    0.671660    5.184150
  C     15.979890    1.654750    6.235050
  C     15.692590    1.027400    7.430590
  C     16.563790    1.312640    8.531010
  O     16.336890    0.790830    9.751970
  C     15.056330    0.206250    9.923290
  C     14.682390   -0.629540    8.706600
  O     14.632060    0.188030    7.556970
  C     17.672260    2.102960    8.238030
  Si    17.578070    2.616420    6.438490
  C     18.966710    1.929040    5.382400
  C     17.356260    4.467180    6.274580
  C     18.664650    2.516240    9.135920
  C     18.718380    2.587750   10.512860
  C     20.048740    2.643550   11.162580
  O     21.123120    2.784540   10.615640
  C     19.793720    2.455180   12.606890
  C     20.681400    2.352030   13.636450
  C     20.194480    2.161380   14.950990
  C     18.789320    2.076780   15.168050
  C     18.310910    1.882840   16.477900
  C     19.201480    1.785240   17.510640
  C     20.586070    1.869110   17.318900
  C     21.067260    2.054360   16.051940
  F     18.744090    1.601460   18.765080
  C     17.891750    2.197030   14.079680
  C     18.387590    2.387970   12.820230
  C     17.719280    2.589180   11.534720
  C     16.390280    2.929160   11.387450
  C     15.863810    3.437180   10.191580
  N     15.408580    3.854130    9.221330
  C     15.432090    2.857850   12.412110
  N     14.586470    2.775630   13.186530
  H     -0.259450   -2.321790   -2.103020
  H     -3.025700    0.593560   -3.535740
  H     -1.162030    2.172540   -3.978250
  H      2.139150   -1.833120   -2.050160
  H      1.252060    2.698350   -3.936300
  H      6.430740    2.662240   -3.001290
  H      7.067070   -1.263400    2.836170
  H      6.480740    0.388630    2.476560
  H      5.083430   -1.276290    1.229430
  H      6.569450   -1.938490    0.484680
  H      9.717640    0.266790   -3.184310
  H     11.007510    1.438240   -2.988290
  H      9.630490    1.812460   -4.001450
  H      8.697430    4.280080   -0.541690
  H      8.656470    4.402180   -2.286210
  H     10.185780    4.239620   -1.459930
  H     11.854580    2.416350   -0.457830
  H     15.744560    3.032260    1.042470
  H     14.455870    4.253820    1.070610
  H     14.439600    2.970900   -0.157660
  H     16.208490    2.763320    3.677510
  H     14.311120    1.000830   10.061190
  H     15.115550   -0.401520   10.827370
  H     13.690250   -1.068370    8.818360
  H     15.424890   -1.426940    8.561920
  H     19.049970    0.846610    5.461840
  H     19.928950    2.343970    5.675470
  H     18.833190    2.160820    4.327910
  H     16.579060    4.824010    6.949070
  H     17.073690    4.770000    5.268210
  H     18.268250    5.006180    6.524470
  H     19.604310    2.796650    8.666190
  H     21.743850    2.418220   13.455340
  H     17.250080    1.817240   16.663510
  H     21.241070    1.786570   18.171690
  H     22.130910    2.122260   15.878840
  H     16.832700    2.130710   14.273380

 Total Charge           Charge          ....    0
 Multiplicity           Mult            ....    1
 Number of Electrons    NEL             ....  552
 Basis Dimension        Dim             .... 1265

ORBITAL ENERGIES
----------------

  NO   OCC          E(Eh)            E(eV)
   0   2.0000     -88.950545     -2420.4674
   1   2.0000     -88.950448     -2420.4647
   2   2.0000     -66.198011     -1801.3395
   3   2.0000     -66.197457     -1801.3244
   4   2.0000     -24.776705      -674.2084
   5   2.0000     -24.776286      -674.1970
   6   2.0000     -19.287342      -524.8353
   7   2.0000     -19.287074      -524.8280
   8   2.0000     -19.271678      -524.4090
   9   2.0000     -19.271581      -524.4064
  10   2.0000     -19.196727      -522.3695
  11   2.0000     -19.196096      -522.3523
  12   2.0000     -14.466239      -393.6464
  13   2.0000     -14.406729      -392.0270
  14   2.0000     -14.404740      -391.9729
  15   2.0000     -14.403539      -391.9402
  16   2.0000     -14.402394      -391.9091
  17   2.0000     -10.370927      -282.2073
  18   2.0000     -10.370488      -282.1953
  19   2.0000     -10.359168      -281.8873
  20   2.0000     -10.358601      -281.8719
  21   2.0000     -10.351268      -281.6723
  22   2.0000     -10.351132      -281.6686
  23   2.0000     -10.351120      -281.6683
  24   2.0000     -10.350885      -281.6619
  25   2.0000     -10.347420      -281.5676
  26   2.0000     -10.347390      -281.5668
  27   2.0000     -10.347263      -281.5633
  28   2.0000     -10.346962      -281.5551
  29   2.0000     -10.325014      -280.9579
  30   2.0000     -10.321394      -280.8594
  31   2.0000     -10.320761      -280.8422
  32   2.0000     -10.320153      -280.8256
  33   2.0000     -10.319174      -280.7990
  34   2.0000     -10.309410      -280.5333
  35   2.0000     -10.309279      -280.5297
  36   2.0000     -10.309067      -280.5240
  37   2.0000     -10.307996      -280.4948
  38   2.0000     -10.307408      -280.4788
  39   2.0000     -10.306813      -280.4626
  40   2.0000     -10.306773      -280.4616
  41   2.0000     -10.306656      -280.4584
  42   2.0000     -10.300245      -280.2839
  43   2.0000     -10.299009      -280.2503
  44   2.0000     -10.294178      -280.1188
  45   2.0000     -10.293612      -280.1034
  46   2.0000     -10.291083      -280.0346
  47   2.0000     -10.290774      -280.0262
  48   2.0000     -10.290393      -280.0158
  49   2.0000     -10.290391      -280.0158
  50   2.0000     -10.288890      -279.9749
  51   2.0000     -10.288231      -279.9570
  52   2.0000     -10.287604      -279.9399
  53   2.0000     -10.287002      -279.9236
  54   2.0000     -10.286746      -279.9166
  55   2.0000     -10.286079      -279.8984
  56   2.0000     -10.284260      -279.8489
  57   2.0000     -10.284136      -279.8456
  58   2.0000     -10.284009      -279.8421
  59   2.0000     -10.283964      -279.8409
  60   2.0000     -10.283673      -279.8330
  61   2.0000     -10.283525      -279.8289
  62   2.0000     -10.278983      -279.7054
  63   2.0000     -10.278465      -279.6913
  64   2.0000     -10.275335      -279.6061
  65   2.0000     -10.275206      -279.6026
  66   2.0000     -10.275076      -279.5990
  67   2.0000     -10.274388      -279.5803
  68   2.0000     -10.273271      -279.5499
  69   2.0000     -10.272585      -279.5313
  70   2.0000     -10.260852      -279.2120
  71   2.0000     -10.260603      -279.2052
  72   2.0000     -10.255896      -279.0771
  73   2.0000     -10.255261      -279.0598
  74   2.0000     -10.246873      -278.8316
  75   2.0000     -10.246340      -278.8171
  76   2.0000      -8.044571      -218.9039
  77   2.0000      -8.044510      -218.9022
  78   2.0000      -6.014341      -163.6585
  79   2.0000      -6.014307      -163.6576
  80   2.0000      -6.009901      -163.5377
  81   2.0000      -6.009891      -163.5374
  82   2.0000      -6.006057      -163.4331
  83   2.0000      -6.006025      -163.4323
  84   2.0000      -5.364657      -145.9797
  85   2.0000      -5.364116      -145.9650
  86   2.0000      -3.728308      -101.4524
  87   2.0000      -3.727779      -101.4380
  88   2.0000      -3.726587      -101.4056
  89   2.0000      -3.726052      -101.3910
  90   2.0000      -3.725582      -101.3782
  91   2.0000      -3.725027      -101.3631
  92   2.0000      -1.290836       -35.1254
  93   2.0000      -1.290375       -35.1129
  94   2.0000      -1.207874       -32.8679
  95   2.0000      -1.207794       -32.8657
  96   2.0000      -1.167216       -31.7616
  97   2.0000      -1.167194       -31.7610
  98   2.0000      -1.110531       -30.2191
  99   2.0000      -1.109980       -30.2041
 100   2.0000      -1.092958       -29.7409
 101   2.0000      -1.006053       -27.3761
 102   2.0000      -1.004386       -27.3307
 103   2.0000      -0.988647       -26.9024
 104   2.0000      -0.987507       -26.8714
 105   2.0000      -0.984505       -26.7897
 106   2.0000      -0.982980       -26.7483
 107   2.0000      -0.974324       -26.5127
 108   2.0000      -0.973509       -26.4905
 109   2.0000      -0.962693       -26.1962
 110   2.0000      -0.961924       -26.1753
 111   2.0000      -0.943461       -25.6729
 112   2.0000      -0.941398       -25.6168
 113   2.0000      -0.913581       -24.8598
 114   2.0000      -0.912753       -24.8373
 115   2.0000      -0.895168       -24.3588
 116   2.0000      -0.887655       -24.1543
 117   2.0000      -0.884005       -24.0550
 118   2.0000      -0.875550       -23.8249
 119   2.0000      -0.874483       -23.7959
 120   2.0000      -0.866858       -23.5884
 121   2.0000      -0.864345       -23.5200
 122   2.0000      -0.859970       -23.4010
 123   2.0000      -0.853781       -23.2326
 124   2.0000      -0.841119       -22.8880
 125   2.0000      -0.835640       -22.7389
 126   2.0000      -0.828624       -22.5480
 127   2.0000      -0.828054       -22.5325
 128   2.0000      -0.821424       -22.3521
 129   2.0000      -0.820647       -22.3309
 130   2.0000      -0.802172       -21.8282
 131   2.0000      -0.798746       -21.7350
 132   2.0000      -0.792028       -21.5522
 133   2.0000      -0.790230       -21.5033
 134   2.0000      -0.786460       -21.4007
 135   2.0000      -0.774132       -21.0652
 136   2.0000      -0.769395       -20.9363
 137   2.0000      -0.768781       -20.9196
 138   2.0000      -0.751276       -20.4433
 139   2.0000      -0.748499       -20.3677
 140   2.0000      -0.747397       -20.3377
 141   2.0000      -0.732867       -19.9423
 142   2.0000      -0.731670       -19.9098
 143   2.0000      -0.720768       -19.6131
 144   2.0000      -0.707653       -19.2562
 145   2.0000      -0.706934       -19.2367
 146   2.0000      -0.697003       -18.9664
 147   2.0000      -0.696244       -18.9458
 148   2.0000      -0.677016       -18.4225
 149   2.0000      -0.675626       -18.3847
 150   2.0000      -0.671935       -18.2843
 151   2.0000      -0.669284       -18.2121
 152   2.0000      -0.665964       -18.1218
 153   2.0000      -0.663530       -18.0556
 154   2.0000      -0.653694       -17.7879
 155   2.0000      -0.644754       -17.5447
 156   2.0000      -0.641868       -17.4661
 157   2.0000      -0.640939       -17.4408
 158   2.0000      -0.639687       -17.4068
 159   2.0000      -0.633439       -17.2368
 160   2.0000      -0.624779       -17.0011
 161   2.0000      -0.621429       -16.9100
 162   2.0000      -0.619838       -16.8667
 163   2.0000      -0.617341       -16.7987
 164   2.0000      -0.615220       -16.7410
 165   2.0000      -0.612660       -16.6713
 166   2.0000      -0.595394       -16.2015
 167   2.0000      -0.589340       -16.0367
 168   2.0000      -0.587863       -15.9966
 169   2.0000      -0.584225       -15.8976
 170   2.0000      -0.581561       -15.8251
 171   2.0000      -0.575363       -15.6564
 172   2.0000      -0.569326       -15.4921
 173   2.0000      -0.567167       -15.4334
 174   2.0000      -0.561641       -15.2830
 175   2.0000      -0.561553       -15.2806
 176   2.0000      -0.555192       -15.1076
 177   2.0000      -0.554114       -15.0782
 178   2.0000      -0.553196       -15.0532
 179   2.0000      -0.551138       -14.9972
 180   2.0000      -0.548836       -14.9346
 181   2.0000      -0.548419       -14.9233
 182   2.0000      -0.546676       -14.8758
 183   2.0000      -0.545963       -14.8564
 184   2.0000      -0.545738       -14.8503
 185   2.0000      -0.542667       -14.7667
 186   2.0000      -0.538828       -14.6623
 187   2.0000      -0.535513       -14.5721
 188   2.0000      -0.533018       -14.5042
 189   2.0000      -0.526367       -14.3232
 190   2.0000      -0.524366       -14.2687
 191   2.0000      -0.516966       -14.0673
 192   2.0000      -0.516136       -14.0448
 193   2.0000      -0.514929       -14.0119
 194   2.0000      -0.512817       -13.9545
 195   2.0000      -0.512704       -13.9514
 196   2.0000      -0.512045       -13.9335
 197   2.0000      -0.509162       -13.8550
 198   2.0000      -0.506141       -13.7728
 199   2.0000      -0.502603       -13.6765
 200   2.0000      -0.502265       -13.6673
 201   2.0000      -0.499896       -13.6029
 202   2.0000      -0.497763       -13.5448
 203   2.0000      -0.496478       -13.5099
 204   2.0000      -0.494312       -13.4509
 205   2.0000      -0.491901       -13.3853
 206   2.0000      -0.490972       -13.3600
 207   2.0000      -0.488806       -13.3011
 208   2.0000      -0.488572       -13.2947
 209   2.0000      -0.484229       -13.1765
 210   2.0000      -0.483520       -13.1572
 211   2.0000      -0.482378       -13.1262
 212   2.0000      -0.478544       -13.0218
 213   2.0000      -0.476493       -12.9660
 214   2.0000      -0.475467       -12.9381
 215   2.0000      -0.474327       -12.9071
 216   2.0000      -0.473379       -12.8813
 217   2.0000      -0.473129       -12.8745
 218   2.0000      -0.470786       -12.8108
 219   2.0000      -0.470049       -12.7907
 220   2.0000      -0.468635       -12.7522
 221   2.0000      -0.467672       -12.7260
 222   2.0000      -0.466847       -12.7036
 223   2.0000      -0.462378       -12.5819
 224   2.0000      -0.458411       -12.4740
 225   2.0000      -0.452808       -12.3215
 226   2.0000      -0.452099       -12.3022
 227   2.0000      -0.446123       -12.1396
 228   2.0000      -0.444860       -12.1052
 229   2.0000      -0.442951       -12.0533
 230   2.0000      -0.441316       -12.0088
 231   2.0000      -0.439913       -11.9706
 232   2.0000      -0.438734       -11.9386
 233   2.0000      -0.434456       -11.8221
 234   2.0000      -0.433299       -11.7907
 235   2.0000      -0.429061       -11.6753
 236   2.0000      -0.428398       -11.6573
 237   2.0000      -0.425478       -11.5779
 238   2.0000      -0.424796       -11.5593
 239   2.0000      -0.418160       -11.3787
 240   2.0000      -0.416616       -11.3367
 241   2.0000      -0.416219       -11.3259
 242   2.0000      -0.414725       -11.2852
 243   2.0000      -0.413372       -11.2484
 244   2.0000      -0.411918       -11.2089
 245   2.0000      -0.407252       -11.0819
 246   2.0000      -0.406535       -11.0624
 247   2.0000      -0.404159       -10.9977
 248   2.0000      -0.400689       -10.9033
 249   2.0000      -0.399638       -10.8747
 250   2.0000      -0.395825       -10.7709
 251   2.0000      -0.394985       -10.7481
 252   2.0000      -0.392211       -10.6726
 253   2.0000      -0.389170       -10.5899
 254   2.0000      -0.386008       -10.5038
 255   2.0000      -0.383800       -10.4437
 256   2.0000      -0.377598       -10.2750
 257   2.0000      -0.377005       -10.2588
 258   2.0000      -0.370995       -10.0953
 259   2.0000      -0.368778       -10.0350
 260   2.0000      -0.368109       -10.0168
 261   2.0000      -0.350041        -9.5251
 262   2.0000      -0.345976        -9.4145
 263   2.0000      -0.341134        -9.2827
 264   2.0000      -0.326385        -8.8814
 265   2.0000      -0.322013        -8.7624
 266   2.0000      -0.318940        -8.6788
 267   2.0000      -0.315153        -8.5757
 268   2.0000      -0.299526        -8.1505
 269   2.0000      -0.298767        -8.1299
 270   2.0000      -0.290556        -7.9064
 271   2.0000      -0.286359        -7.7922
 272   2.0000      -0.284450        -7.7403
 273   2.0000      -0.272769        -7.4224
 274   2.0000      -0.256203        -6.9716
 275   2.0000      -0.217622        -5.9218
 276   0.0000      -0.092033        -2.5044
 277   0.0000      -0.073756        -2.0070
 278   0.0000      -0.051329        -1.3967
 279   0.0000      -0.046195        -1.2570
 280   0.0000      -0.030171        -0.8210

MULLIKEN ATOMIC CHARGES
-----------------------
   0 C :   -0.098885
   1 C :    0.302645
   2 F :   -0.195667
   3 C :   -0.036372
   4 C :   -0.009470
   5 C :    0.098451
   6 C :    0.102357
   7 C :   -0.099371
   8 C :    0.047344
   9 C :    0.012898
  10 C :   -0.085146
  11 C :    0.131990
  12 O :   -0.159309
  13 C :   -0.124706
  14 C :    0.307335
  15 C :   -0.358279
  16 C :   -0.208772
  17 N :    0.150528
  18 C :   -0.188785
  19 N :    0.135042
  20 C :    0.034563
  21 C :   -0.222089
  22 C :    0.153399
  23 C :    0.092241
  24 O :   -0.314110
  25 C :    0.191890
  26 C :    0.165160
  27 O :   -0.271375
  28 C :   -0.153856
  29 Si:    0.470321
  30 C :   -0.176432
  31 C :   -0.182776
  32 C :   -0.065920
  33 C :   -0.115812
  34 C :    0.188186
  35 C :   -0.113538
  36 S :    0.152522
  37 C :   -0.114501
  38 C :    0.189118
  39 N :   -0.170819
  40 C :    0.124287
  41 C :   -0.118607
  42 C :   -0.066361
  43 S :    0.155831
  44 C :   -0.151850
  45 C :    0.096304
  46 C :    0.140129
  47 O :   -0.269505
  48 C :    0.161514
  49 C :    0.195704
  50 O :   -0.311770
  51 C :   -0.221827
  52 Si:    0.465868
  53 C :   -0.177383
  54 C :   -0.174978
  55 C :    0.035274
  56 C :   -0.122081
  57 C :    0.132074
  58 O :   -0.159263
  59 C :    0.010694
  60 C :   -0.085986
  61 C :    0.099566
  62 C :    0.104012
  63 C :   -0.102240
  64 C :    0.302167
  65 C :   -0.035205
  66 C :   -0.013726
  67 F :   -0.195800
  68 C :   -0.102345
  69 C :    0.049840
  70 C :    0.310579
  71 C :   -0.369217
  72 C :   -0.206943
  73 N :    0.153463
  74 C :   -0.183243
  75 N :    0.132104
  76 H :   -0.008811
  77 H :   -0.001499
  78 H :   -0.013181
  79 H :   -0.013397
  80 H :   -0.018644
  81 H :    0.010171
  82 H :    0.044501
  83 H :    0.036226
  84 H :    0.048537
  85 H :    0.055667
  86 H :    0.076834
  87 H :    0.031935
  88 H :    0.043777
  89 H :    0.056211
  90 H :    0.051407
  91 H :    0.033415
  92 H :   -0.025947
  93 H :    0.039067
  94 H :    0.041603
  95 H :    0.039176
  96 H :   -0.025208
  97 H :    0.057164
  98 H :    0.048177
  99 H :    0.042527
 100 H :    0.035689
 101 H :    0.056274
 102 H :    0.049932
 103 H :    0.034735
 104 H :    0.074913
 105 H :    0.028208
 106 H :    0.044157
 107 H :    0.011958
 108 H :   -0.016696
 109 H :   -0.005063
 110 H :   -0.000167
 111 H :   -0.012069
 112 H :   -0.012660
Sum of atomic charges:   -0.0000000

LOEWDIN ATOMIC CHARGES
----------------------
   0 C :   -0.045019
   1 C :    0.090471
   2 F :   -0.070193
   3 C :   -0.043054
   4 C :    0.002771
   5 C :   -0.022261
   6 C :    0.001693
   7 C :    0.000199
   8 C :   -0.013055
   9 C :   -0.057434
  10 C :    0.028788
  11 C :    0.080507
  12 O :   -0.160438
  13 C :   -0.112983
  14 C :    0.067840
  15 C :   -0.163814
  16 C :   -0.009329
  17 N :   -0.077293
  18 C :   -0.024440
  19 N :   -0.076471
  20 C :    0.054146
  21 C :   -0.224925
  22 C :    0.076690
  23 C :    0.002379
  24 O :   -0.097243
  25 C :    0.076200
  26 C :    0.076151
  27 O :   -0.044616
  28 C :   -0.174273
  29 Si:    0.677396
  30 C :   -0.241243
  31 C :   -0.241681
  32 C :   -0.157711
  33 C :   -0.075330
  34 C :   -0.013180
  35 C :   -0.222440
  36 S :    0.431531
  37 C :   -0.221960
  38 C :   -0.013251
  39 N :    0.019819
  40 C :    0.038628
  41 C :   -0.075365
  42 C :   -0.157275
  43 S :    0.433436
  44 C :   -0.173115
  45 C :    0.002407
  46 C :    0.076054
  47 O :   -0.046810
  48 C :    0.075746
  49 C :    0.076131
  50 O :   -0.096934
  51 C :   -0.227441
  52 Si:    0.677079
  53 C :   -0.241264
  54 C :   -0.241381
  55 C :    0.056458
  56 C :   -0.114784
  57 C :    0.080264
  58 O :   -0.160609
  59 C :   -0.057487
  60 C :    0.028536
  61 C :   -0.022009
  62 C :    0.001792
  63 C :   -0.045255
  64 C :    0.090460
  65 C :   -0.042841
  66 C :    0.002487
  67 F :   -0.070070
  68 C :    0.000346
  69 C :   -0.013199
  70 C :    0.069696
  71 C :   -0.165586
  72 C :   -0.008778
  73 N :   -0.074863
  74 C :   -0.024209
  75 N :   -0.076535
  76 H :    0.040796
  77 H :    0.039691
  78 H :    0.034029
  79 H :    0.036221
  80 H :    0.037047
  81 H :    0.037878
  82 H :    0.038734
  83 H :    0.024845
  84 H :    0.039664
  85 H :    0.032080
  86 H :    0.049336
  87 H :    0.033026
  88 H :    0.038189
  89 H :    0.042709
  90 H :    0.040677
  91 H :    0.033389
  92 H :    0.025891
  93 H :    0.033591
  94 H :    0.028022
  95 H :    0.034041
  96 H :    0.025784
  97 H :    0.031669
  98 H :    0.039537
  99 H :    0.038594
 100 H :    0.024562
 101 H :    0.042375
 102 H :    0.040095
 103 H :    0.034078
 104 H :    0.048900
 105 H :    0.031835
 106 H :    0.038281
 107 H :    0.038330
 108 H :    0.037350
 109 H :    0.041439
 110 H :    0.039998
 111 H :    0.034206
 112 H :    0.036457

  Mayer bond orders larger than 0.100000
B(  0-C ,  1-C ) :   1.4357 B(  0-C ,  6-C ) :   1.2087 B(  0-C , 76-H ) :   1.0059
B(  1-C ,  2-F ) :   1.0831 B(  1-C ,  3-C ) :   1.2622 B(  3-C ,  4-C ) :   1.4538
B(  3-C , 77-H ) :   0.9934 B(  4-C ,  5-C ) :   1.2386 B(  4-C , 78-H ) :   0.9962
B(  5-C ,  6-C ) :   1.2633 B(  5-C , 10-C ) :   1.1806 B(  6-C ,  7-C ) :   1.1887
B(  7-C ,  8-C ) :   1.4764 B(  7-C , 79-H ) :   0.9932 B(  8-C ,  9-C ) :   1.2140
B(  8-C , 14-C ) :   0.9872 B(  9-C , 10-C ) :   1.4812 B(  9-C , 11-C ) :   0.9170
B( 10-C , 80-H ) :   1.0146 B( 11-C , 12-O ) :   2.2455 B( 11-C , 13-C ) :   0.9622
B( 13-C , 14-C ) :   1.1435 B( 13-C , 20-C ) :   1.4532 B( 14-C , 15-C ) :   1.5590
B( 15-C , 16-C ) :   1.2004 B( 15-C , 18-C ) :   1.1464 B( 16-C , 17-N ) :   2.9455
B( 18-C , 19-N ) :   2.9665 B( 20-C , 21-C ) :   1.2841 B( 20-C , 81-H ) :   0.9309
B( 21-C , 22-C ) :   1.4838 B( 21-C , 29-Si) :   0.8816 B( 22-C , 23-C ) :   1.0979
B( 22-C , 27-O ) :   1.2011 B( 23-C , 24-O ) :   1.1119 B( 23-C , 28-C ) :   1.5874
B( 24-O , 25-C ) :   0.9414 B( 25-C , 26-C ) :   1.0829 B( 25-C , 82-H ) :   0.9516
B( 25-C , 83-H ) :   0.9441 B( 26-C , 27-O ) :   0.9101 B( 26-C , 84-H ) :   0.9527
B( 26-C , 85-H ) :   0.9399 B( 28-C , 29-Si) :   0.8554 B( 28-C , 32-C ) :   1.2231
B( 29-Si, 30-C ) :   1.0854 B( 29-Si, 31-C ) :   1.0614 B( 30-C , 86-H ) :   0.9398
B( 30-C , 87-H ) :   0.9468 B( 30-C , 88-H ) :   0.9464 B( 31-C , 89-H ) :   0.9471
B( 31-C , 90-H ) :   0.9511 B( 31-C , 91-H ) :   0.9509 B( 32-C , 33-C ) :   1.4095
B( 32-C , 36-S ) :   1.0831 B( 33-C , 34-C ) :   1.2320 B( 33-C , 92-H ) :   1.0097
B( 34-C , 35-C ) :   1.3664 B( 34-C , 39-N ) :   1.1391 B( 35-C , 36-S ) :   1.0132
B( 35-C , 37-C ) :   1.4028 B( 37-C , 38-C ) :   1.3669 B( 37-C , 43-S ) :   1.0155
B( 38-C , 39-N ) :   1.1394 B( 38-C , 41-C ) :   1.2327 B( 39-N , 40-C ) :   0.9716
B( 40-C , 93-H ) :   0.9719 B( 40-C , 94-H ) :   0.9734 B( 40-C , 95-H ) :   0.9723
B( 41-C , 42-C ) :   1.4085 B( 41-C , 96-H ) :   1.0090 B( 42-C , 43-S ) :   1.0844
B( 42-C , 44-C ) :   1.2240 B( 44-C , 45-C ) :   1.5857 B( 44-C , 52-Si) :   0.8564
B( 45-C , 46-C ) :   1.0934 B( 45-C , 50-O ) :   1.1150 B( 46-C , 47-O ) :   1.2059
B( 46-C , 51-C ) :   1.4874 B( 47-O , 48-C ) :   0.9103 B( 48-C , 49-C ) :   1.0797
B( 48-C , 97-H ) :   0.9393 B( 48-C , 98-H ) :   0.9529 B( 49-C , 50-O ) :   0.9438
B( 49-C , 99-H ) :   0.9517 B( 49-C ,100-H ) :   0.9445 B( 51-C , 52-Si) :   0.8804
B( 51-C , 55-C ) :   1.2762 B( 52-Si, 53-C ) :   1.0655 B( 52-Si, 54-C ) :   1.0831
B( 53-C ,101-H ) :   0.9473 B( 53-C ,102-H ) :   0.9511 B( 53-C ,103-H ) :   0.9498
B( 54-C ,104-H ) :   0.9394 B( 54-C ,105-H ) :   0.9480 B( 54-C ,106-H ) :   0.9462
B( 55-C , 56-C ) :   1.4624 B( 55-C ,107-H ) :   0.9280 B( 56-C , 57-C ) :   0.9634
B( 56-C , 70-C ) :   1.1405 B( 57-C , 58-O ) :   2.2456 B( 57-C , 59-C ) :   0.9168
B( 59-C , 60-C ) :   1.4826 B( 59-C , 69-C ) :   1.2155 B( 60-C , 61-C ) :   1.1804
B( 60-C ,108-H ) :   1.0151 B( 61-C , 62-C ) :   1.2635 B( 61-C , 66-C ) :   1.2379
B( 62-C , 63-C ) :   1.2066 B( 62-C , 68-C ) :   1.1913 B( 63-C , 64-C ) :   1.4364
B( 63-C ,109-H ) :   1.0068 B( 64-C , 65-C ) :   1.2606 B( 64-C , 67-F ) :   1.0833
B( 65-C , 66-C ) :   1.4547 B( 65-C ,110-H ) :   0.9932 B( 66-C ,111-H ) :   0.9970
B( 68-C , 69-C ) :   1.4714 B( 68-C ,112-H ) :   0.9940 B( 69-C , 70-C ) :   0.9923
B( 70-C , 71-C ) :   1.5489 B( 71-C , 72-C ) :   1.2113 B( 71-C , 74-C ) :   1.1439
B( 72-C , 73-N ) :   2.9324 B( 74-C , 75-N ) :   2.9633

-----------------------------------------------------------------------------
         ABSORPTION SPECTRUM VIA TRANSITION ELECTRIC DIPOLE MOMENTS
-----------------------------------------------------------------------------
State   Energy  Wavelength   fosc         T2         TX        TY        TZ
        (cm-1)    (nm)                  (au**2)     (au)      (au)      (au)
-----------------------------------------------------------------------------
   0   12785.7    782.1   2.282717615  58.77652  -5.24532  -0.98712  -5.50352
   1   17559.8    569.5   0.200187352   3.75311   1.59757   0.18749  -1.07969
   2   22733.8    439.9   0.014229860   0.20607   0.34570  -0.11191  -0.27209
   3   22908.3    436.5   0.181269391   2.60500   1.32905  -0.58354   0.70575
   4   23971.8    417.2   0.018099853   0.24857   0.00193  -0.49619  -0.04865
   5   24683.3    405.1   0.089827116   1.19806   0.70768   0.39138  -0.73762
   6   26682.9    374.8   0.078621707   0.97003   0.30845   0.55538   0.75263
   7   27686.1    361.2   0.086855037   1.03278  -0.80668   0.58945  -0.18600
   8   27850.1    359.1   0.019670424   0.23252  -0.31540   0.01498  -0.36444
   9   28515.8    350.7   0.013591844   0.15692  -0.13889   0.30206   0.21537
  10   28787.7    347.4   0.011439630   0.13082  -0.23860   0.27129  -0.01718
  11   29182.0    342.7   0.021393601   0.24135  -0.36133  -0.24463   0.22572
  12   29331.3    340.9   0.012049000   0.13524  -0.21185   0.30059  -0.00157
  13   29998.8    333.3   0.002544880   0.02793  -0.10561  -0.12950  -0.00188
  14   30503.3    327.8   0.004677278   0.05048   0.20433  -0.00218   0.09340
  15   30573.6    327.1   0.022952787   0.24715  -0.40116   0.12885  -0.26386
  16   30688.7    325.9   0.008635946   0.09264   0.07527  -0.23886  -0.17298
  17   32011.0    312.4   0.014117927   0.14519   0.17436   0.22823   0.25041
  18   33096.5    302.1   0.235317514   2.34071   1.20754  -0.37124   0.86298
  19   33252.9    300.7   0.301017434   2.98015  -1.55367   0.59014  -0.46688
  20   33369.4    299.7   0.033602338   0.33151  -0.30551  -0.03987   0.48640
  21   33974.5    294.3   0.032365213   0.31362   0.26278  -0.48669   0.08775
  22   34325.5    291.3   0.194157533   1.86214   0.98731  -0.00887   0.94196
  23   34567.2    289.3   0.099355624   0.94625  -0.56935  -0.15670   0.77300
  24   35731.7    279.9   0.188434544   1.73613   0.99475  -0.41119   0.75995
  25   35943.3    278.2   0.066320166   0.60744   0.38381  -0.01888  -0.67806
  26   36082.8    277.1   0.107905163   0.98450   0.86569  -0.13325   0.46619
  27   36297.5    275.5   0.264724075   2.40100  -1.46365   0.21177  -0.46248
  28   36332.6    275.2   0.270210574   2.44839   1.15143  -0.50629   0.93074
  29   37224.0    268.6   0.006874039   0.06079  -0.16102   0.04791   0.18048
  30   37520.5    266.5   0.072804471   0.63880   0.45669  -0.12549  -0.64381
  31   37693.3    265.3   0.000689137   0.00602  -0.05441  -0.03862  -0.03958
  32   38115.3    262.4   0.161199915   1.39233  -1.03612   0.48282  -0.29267
  33   38169.6    262.0   0.071081727   0.61308  -0.54729   0.13050  -0.54454
  34   38450.1    260.1   0.006547783   0.05606  -0.23168  -0.01285  -0.04713
  35   38541.6    259.5   0.031031854   0.26507   0.22700   0.42455   0.18247
  36   38892.9    257.1   0.309651798   2.62107   1.36821  -0.60639   0.61755
  37   39704.3    251.9   0.054460996   0.45157   0.05965  -0.49996  -0.44502
  38   40016.8    249.9   0.169000858   1.39034  -0.72781  -0.73816   0.56192

FINAL SINGLE POINT ENERGY     -4566.276361464154

DIPOLE MOMENT
-------------
                                X             Y             Z
Electronic contribution:    -26.85359     -18.02192      26.23244
Nuclear contribution   :     28.19931      18.38770     -26.41880
                        -----------------------------------------
Total Dipole Moment    :      1.34572       0.36578      -0.18636
                        -----------------------------------------
Magnitude (a.u.)       :      1.40694
Magnitude (Debye)      :      3.57616

Rotational constants in cm-1:     0.002166     0.000190     0.000180
Rotational constants in MHz :    64.930925     5.688044     5.396031

                             ****ORCA TERMINATED NORMALLY****
TOTAL RUN TIME: 0 days 0 hours 12 minutes 28 seconds 347 msec
