                         Program Version 4.2.0 -  RELEASE  -
|  1> # ORCA input file
|  2> # SCF done       -177.853050009538          0.000510764423
|  3> ! CAM-B3LYP def2-SVP def2/J RIJCOSX Grid4 TightSCF
|  4> %maxcore 5000
|  5> %tddft
|  6>     Mode sTDDFT
|  7>     Ethresh 5.0
|  8>     maxcore 5000
|  9> end
| 10>
| 11> %pal
| 12>   nprocs 6
| 13>   end
| 14> * xyz 0 1
| 15>    C        3.54473         1.55747         7.32530
| 16>    C        2.31310         1.85797         7.83728
| 17>    F        1.94391         1.33826         9.02096
| 18>    C        1.40610         2.69478         7.17215
| 19>    C        1.76241         3.23019         5.96590
| 20>    C        3.01910         2.95135         5.38989
| 21>    C        3.92958         2.10141         6.08435
| 22>    C        5.19925         1.81438         5.53154
| 23>    C        5.54171         2.35416         4.32113
| 24>    C        4.61922         3.18628         3.62190
| 25>    C        3.39152         3.48868         4.13781
| 26>    C        5.20644         3.58873         2.33184
| 27>    O        4.74986         4.33636         1.50044
| 28>    C        6.48264         2.81339         2.22807
| 29>    C        6.76513         2.25214         3.53388
| 30>    C        7.99529         1.89770         4.01501
| 31>    C        9.18847         2.02913         3.27630
| 32>    N       10.18445         2.13257         2.71541
| 33>    C        8.21655         1.39859         5.31484
| 34>    N        8.44674         0.96069         6.35034
| 35>    C        7.05818         2.66836         1.01176
| 36>    C        8.04531         1.72910         0.56089
| 37>    C        8.82575         2.02207        -0.54647
| 38>    C        9.79293         1.14097        -1.02864
| 39>    F       10.51275         1.55238        -2.08874
| 40>    C       10.05572        -0.10071        -0.47516
| 41>    C        9.25028        -0.44256         0.63667
| 42>    C        8.24282         0.44992         1.14541
| 43>    N        7.56532        -0.09750         2.15352
| 44>    S        8.15193        -1.56684         2.44433
| 45>    N        9.27658        -1.59584         1.30428
| 46>    C       11.04979        -1.02927        -0.98375
| 47>    C       11.85300        -1.80237        -0.13381
| 48>    N       12.69869        -2.69565        -0.58688
| 49>    C       12.80261        -2.84918        -1.90341
| 50>    N       12.11036        -2.14230        -2.79844
| 51>    C       11.25148        -1.25677        -2.35141
| 52>    C       13.70047        -3.87594        -2.41546
| 53>    C       13.59875        -4.30273        -3.72441
| 54>    C       14.40660        -5.32073        -4.22933
| 55>    F       14.17222        -5.70080        -5.50116
| 56>    C       15.36861        -5.99504        -3.48903
| 57>    C       15.48414        -5.56757        -2.14012
| 58>    C       14.67205        -4.50641        -1.60199
| 59>    N       14.97414        -4.25360        -0.33138
| 60>    S       16.14231        -5.24186         0.13491
| 61>    N       16.33684        -6.05064        -1.23969
| 62>    C       16.15199        -7.11157        -3.93725
| 63>    C       16.57555        -7.45628        -5.17526
| 64>    C       17.01202        -8.86919        -5.41376
| 65>    O       17.27060        -9.69379        -4.57052
| 66>    C       16.98897        -9.03565        -6.87751
| 67>    C       17.15977       -10.17276        -7.61435
| 68>    C       17.05401       -10.10416        -9.02099
| 69>    C       16.76761        -8.85188        -9.64012
| 70>    C       16.65167        -8.79429       -11.04276
| 71>    C       16.81770        -9.93514       -11.77750
| 72>    C       17.10159       -11.17491       -11.18780
| 73>    C       17.21713       -11.24932        -9.82784
| 74>    F       16.70664        -9.88233       -13.11670
| 75>    C       16.60420        -7.68852        -8.85286
| 76>    C       16.71894        -7.77853        -7.49181
| 77>    C       16.61515        -6.76304        -6.44923
| 78>    C       16.75412        -5.41514        -6.63439
| 79>    C       16.84961        -4.49340        -5.57262
| 80>    N       16.94756        -3.72434        -4.72649
| 81>    C       16.88647        -4.80632        -7.90020
| 82>    N       16.99478        -4.26542        -8.90612
| 83>    H        4.21867         0.91254         7.86718
| 84>    H        0.44873         2.89679         7.62562
| 85>    H        1.08065         3.87689         5.43446
| 86>    H        5.86650         1.16281         6.07325
| 87>    H        2.71069         4.12760         3.59555
| 88>    H        6.66789         3.33157         0.24486
| 89>    H        8.71915         2.97380        -1.04449
| 90>    H       11.80632        -1.68329         0.93973
| 91>    H       10.68337        -0.72769        -3.10521
| 92>    H       12.86856        -3.84622        -4.37380
| 93>    H       16.40084        -7.81927        -3.15147
| 94>    H       17.36862       -11.11441        -7.12912
| 95>    H       16.43676        -7.85662       -11.53093
| 96>    H       17.22167       -12.04110       -11.81895
| 97>    H       17.43475       -12.19285        -9.35042
| 98>    H       16.37674        -6.75597        -9.34453
| 99> *
|100>
|101>                          ****END OF INPUT****

CARTESIAN COORDINATES (ANGSTROEM)
---------------------------------
  C      3.544730    1.557470    7.325300
  C      2.313100    1.857970    7.837280
  F      1.943910    1.338260    9.020960
  C      1.406100    2.694780    7.172150
  C      1.762410    3.230190    5.965900
  C      3.019100    2.951350    5.389890
  C      3.929580    2.101410    6.084350
  C      5.199250    1.814380    5.531540
  C      5.541710    2.354160    4.321130
  C      4.619220    3.186280    3.621900
  C      3.391520    3.488680    4.137810
  C      5.206440    3.588730    2.331840
  O      4.749860    4.336360    1.500440
  C      6.482640    2.813390    2.228070
  C      6.765130    2.252140    3.533880
  C      7.995290    1.897700    4.015010
  C      9.188470    2.029130    3.276300
  N     10.184450    2.132570    2.715410
  C      8.216550    1.398590    5.314840
  N      8.446740    0.960690    6.350340
  C      7.058180    2.668360    1.011760
  C      8.045310    1.729100    0.560890
  C      8.825750    2.022070   -0.546470
  C      9.792930    1.140970   -1.028640
  F     10.512750    1.552380   -2.088740
  C     10.055720   -0.100710   -0.475160
  C      9.250280   -0.442560    0.636670
  C      8.242820    0.449920    1.145410
  N      7.565320   -0.097500    2.153520
  S      8.151930   -1.566840    2.444330
  N      9.276580   -1.595840    1.304280
  C     11.049790   -1.029270   -0.983750
  C     11.853000   -1.802370   -0.133810
  N     12.698690   -2.695650   -0.586880
  C     12.802610   -2.849180   -1.903410
  N     12.110360   -2.142300   -2.798440
  C     11.251480   -1.256770   -2.351410
  C     13.700470   -3.875940   -2.415460
  C     13.598750   -4.302730   -3.724410
  C     14.406600   -5.320730   -4.229330
  F     14.172220   -5.700800   -5.501160
  C     15.368610   -5.995040   -3.489030
  C     15.484140   -5.567570   -2.140120
  C     14.672050   -4.506410   -1.601990
  N     14.974140   -4.253600   -0.331380
  S     16.142310   -5.241860    0.134910
  N     16.336840   -6.050640   -1.239690
  C     16.151990   -7.111570   -3.937250
  C     16.575550   -7.456280   -5.175260
  C     17.012020   -8.869190   -5.413760
  O     17.270600   -9.693790   -4.570520
  C     16.988970   -9.035650   -6.877510
  C     17.159770  -10.172760   -7.614350
  C     17.054010  -10.104160   -9.020990
  C     16.767610   -8.851880   -9.640120
  C     16.651670   -8.794290  -11.042760
  C     16.817700   -9.935140  -11.777500
  C     17.101590  -11.174910  -11.187800
  C     17.217130  -11.249320   -9.827840
  F     16.706640   -9.882330  -13.116700
  C     16.604200   -7.688520   -8.852860
  C     16.718940   -7.778530   -7.491810
  C     16.615150   -6.763040   -6.449230
  C     16.754120   -5.415140   -6.634390
  C     16.849610   -4.493400   -5.572620
  N     16.947560   -3.724340   -4.726490
  C     16.886470   -4.806320   -7.900200
  N     16.994780   -4.265420   -8.906120
  H      4.218670    0.912540    7.867180
  H      0.448730    2.896790    7.625620
  H      1.080650    3.876890    5.434460
  H      5.866500    1.162810    6.073250
  H      2.710690    4.127600    3.595550
  H      6.667890    3.331570    0.244860
  H      8.719150    2.973800   -1.044490
  H     11.806320   -1.683290    0.939730
  H     10.683370   -0.727690   -3.105210
  H     12.868560   -3.846220   -4.373800
  H     16.400840   -7.819270   -3.151470
  H     17.368620  -11.114410   -7.129120
  H     16.436760   -7.856620  -11.530930
  H     17.221670  -12.041100  -11.818950
  H     17.434750  -12.192850   -9.350420
  H     16.376740   -6.755970   -9.344530

 Total Charge           Charge          ....    0
 Multiplicity           Mult            ....    1
 Number of Electrons    NEL             ....  470
 Basis Dimension        Dim             .... 1040

ORBITAL ENERGIES
----------------

  NO   OCC          E(Eh)            E(eV)
   0   2.0000     -89.043139     -2422.9870
   1   2.0000     -89.020590     -2422.3734
   2   2.0000     -24.806058      -675.0072
   3   2.0000     -24.803709      -674.9432
   4   2.0000     -24.791076      -674.5995
   5   2.0000     -24.785076      -674.4362
   6   2.0000     -19.224121      -523.1149
   7   2.0000     -19.213595      -522.8285
   8   2.0000     -14.455851      -393.3637
   9   2.0000     -14.455046      -393.3418
  10   2.0000     -14.434282      -392.7768
  11   2.0000     -14.433590      -392.7579
  12   2.0000     -14.423655      -392.4876
  13   2.0000     -14.423374      -392.4800
  14   2.0000     -14.419811      -392.3830
  15   2.0000     -14.415260      -392.2592
  16   2.0000     -14.414952      -392.2508
  17   2.0000     -14.413251      -392.2045
  18   2.0000     -10.389747      -282.7194
  19   2.0000     -10.382425      -282.5201
  20   2.0000     -10.375217      -282.3240
  21   2.0000     -10.374787      -282.3123
  22   2.0000     -10.368591      -282.1437
  23   2.0000     -10.364392      -282.0294
  24   2.0000     -10.354569      -281.7621
  25   2.0000     -10.349945      -281.6363
  26   2.0000     -10.346453      -281.5413
  27   2.0000     -10.345453      -281.5141
  28   2.0000     -10.343163      -281.4518
  29   2.0000     -10.343092      -281.4498
  30   2.0000     -10.338325      -281.3201
  31   2.0000     -10.331595      -281.1370
  32   2.0000     -10.327499      -281.0255
  33   2.0000     -10.327430      -281.0237
  34   2.0000     -10.326205      -280.9903
  35   2.0000     -10.325594      -280.9737
  36   2.0000     -10.325448      -280.9697
  37   2.0000     -10.325146      -280.9615
  38   2.0000     -10.324176      -280.9351
  39   2.0000     -10.323655      -280.9209
  40   2.0000     -10.319195      -280.7996
  41   2.0000     -10.317124      -280.7432
  42   2.0000     -10.315796      -280.7071
  43   2.0000     -10.314197      -280.6636
  44   2.0000     -10.312437      -280.6157
  45   2.0000     -10.312407      -280.6149
  46   2.0000     -10.310161      -280.5538
  47   2.0000     -10.307879      -280.4917
  48   2.0000     -10.307816      -280.4899
  49   2.0000     -10.307347      -280.4772
  50   2.0000     -10.307342      -280.4770
  51   2.0000     -10.306989      -280.4674
  52   2.0000     -10.305108      -280.4162
  53   2.0000     -10.304499      -280.3997
  54   2.0000     -10.304291      -280.3940
  55   2.0000     -10.303370      -280.3690
  56   2.0000     -10.300046      -280.2785
  57   2.0000     -10.299875      -280.2738
  58   2.0000     -10.299045      -280.2513
  59   2.0000     -10.298477      -280.2358
  60   2.0000     -10.296992      -280.1954
  61   2.0000     -10.296740      -280.1885
  62   2.0000     -10.296735      -280.1884
  63   2.0000     -10.296639      -280.1858
  64   2.0000     -10.294499      -280.1275
  65   2.0000     -10.293438      -280.0987
  66   2.0000     -10.288630      -279.9678
  67   2.0000     -10.287825      -279.9459
  68   2.0000      -8.134432      -221.3492
  69   2.0000      -8.112671      -220.7570
  70   2.0000      -6.105594      -166.1417
  71   2.0000      -6.097881      -165.9318
  72   2.0000      -6.096980      -165.9073
  73   2.0000      -6.083836      -165.5496
  74   2.0000      -6.075975      -165.3357
  75   2.0000      -6.075182      -165.3141
  76   2.0000      -1.320954       -35.9450
  77   2.0000      -1.316842       -35.8331
  78   2.0000      -1.306238       -35.5445
  79   2.0000      -1.300083       -35.3771
  80   2.0000      -1.143451       -31.1149
  81   2.0000      -1.139681       -31.0123
  82   2.0000      -1.129373       -30.7318
  83   2.0000      -1.123670       -30.5766
  84   2.0000      -1.093619       -29.7589
  85   2.0000      -1.027280       -27.9537
  86   2.0000      -1.017573       -27.6896
  87   2.0000      -1.007721       -27.4215
  88   2.0000      -1.003953       -27.3189
  89   2.0000      -0.999390       -27.1948
  90   2.0000      -0.998559       -27.1722
  91   2.0000      -0.993995       -27.0480
  92   2.0000      -0.992181       -26.9986
  93   2.0000      -0.987095       -26.8602
  94   2.0000      -0.981121       -26.6977
  95   2.0000      -0.979581       -26.6557
  96   2.0000      -0.974789       -26.5254
  97   2.0000      -0.971791       -26.4438
  98   2.0000      -0.935561       -25.4579
  99   2.0000      -0.928861       -25.2756
 100   2.0000      -0.925671       -25.1888
 101   2.0000      -0.910136       -24.7661
 102   2.0000      -0.902748       -24.5650
 103   2.0000      -0.893630       -24.3169
 104   2.0000      -0.889596       -24.2071
 105   2.0000      -0.884650       -24.0726
 106   2.0000      -0.879029       -23.9196
 107   2.0000      -0.877729       -23.8842
 108   2.0000      -0.860752       -23.4223
 109   2.0000      -0.855538       -23.2804
 110   2.0000      -0.841557       -22.8999
 111   2.0000      -0.837420       -22.7874
 112   2.0000      -0.832263       -22.6470
 113   2.0000      -0.809800       -22.0358
 114   2.0000      -0.794680       -21.6243
 115   2.0000      -0.775541       -21.1035
 116   2.0000      -0.766924       -20.8691
 117   2.0000      -0.762392       -20.7457
 118   2.0000      -0.759432       -20.6652
 119   2.0000      -0.755558       -20.5598
 120   2.0000      -0.739496       -20.1227
 121   2.0000      -0.733886       -19.9700
 122   2.0000      -0.728625       -19.8269
 123   2.0000      -0.726100       -19.7582
 124   2.0000      -0.715359       -19.4659
 125   2.0000      -0.713103       -19.4045
 126   2.0000      -0.712419       -19.3859
 127   2.0000      -0.707603       -19.2548
 128   2.0000      -0.700087       -19.0503
 129   2.0000      -0.687941       -18.7198
 130   2.0000      -0.679793       -18.4981
 131   2.0000      -0.679279       -18.4841
 132   2.0000      -0.672147       -18.2901
 133   2.0000      -0.654022       -17.7969
 134   2.0000      -0.648968       -17.6593
 135   2.0000      -0.642487       -17.4830
 136   2.0000      -0.641376       -17.4527
 137   2.0000      -0.635391       -17.2899
 138   2.0000      -0.635085       -17.2815
 139   2.0000      -0.633619       -17.2416
 140   2.0000      -0.628799       -17.1105
 141   2.0000      -0.624527       -16.9943
 142   2.0000      -0.621636       -16.9156
 143   2.0000      -0.614981       -16.7345
 144   2.0000      -0.607639       -16.5347
 145   2.0000      -0.601430       -16.3657
 146   2.0000      -0.598075       -16.2745
 147   2.0000      -0.591928       -16.1072
 148   2.0000      -0.587317       -15.9817
 149   2.0000      -0.582793       -15.8586
 150   2.0000      -0.579987       -15.7822
 151   2.0000      -0.578728       -15.7480
 152   2.0000      -0.571827       -15.5602
 153   2.0000      -0.565925       -15.3996
 154   2.0000      -0.564590       -15.3633
 155   2.0000      -0.563634       -15.3373
 156   2.0000      -0.562444       -15.3049
 157   2.0000      -0.558351       -15.1935
 158   2.0000      -0.557470       -15.1695
 159   2.0000      -0.553908       -15.0726
 160   2.0000      -0.552852       -15.0439
 161   2.0000      -0.549270       -14.9464
 162   2.0000      -0.546679       -14.8759
 163   2.0000      -0.544704       -14.8222
 164   2.0000      -0.541589       -14.7374
 165   2.0000      -0.534035       -14.5318
 166   2.0000      -0.533304       -14.5119
 167   2.0000      -0.530052       -14.4234
 168   2.0000      -0.529487       -14.4081
 169   2.0000      -0.524106       -14.2616
 170   2.0000      -0.523237       -14.2380
 171   2.0000      -0.522368       -14.2143
 172   2.0000      -0.519224       -14.1288
 173   2.0000      -0.515739       -14.0340
 174   2.0000      -0.512673       -13.9505
 175   2.0000      -0.509189       -13.8557
 176   2.0000      -0.507594       -13.8123
 177   2.0000      -0.504625       -13.7315
 178   2.0000      -0.503308       -13.6957
 179   2.0000      -0.499131       -13.5821
 180   2.0000      -0.494274       -13.4499
 181   2.0000      -0.491619       -13.3776
 182   2.0000      -0.490077       -13.3357
 183   2.0000      -0.487198       -13.2573
 184   2.0000      -0.485156       -13.2018
 185   2.0000      -0.481255       -13.0956
 186   2.0000      -0.476873       -12.9764
 187   2.0000      -0.474425       -12.9098
 188   2.0000      -0.473087       -12.8733
 189   2.0000      -0.469209       -12.7678
 190   2.0000      -0.462689       -12.5904
 191   2.0000      -0.462413       -12.5829
 192   2.0000      -0.458382       -12.4732
 193   2.0000      -0.457558       -12.4508
 194   2.0000      -0.456831       -12.4310
 195   2.0000      -0.452160       -12.3039
 196   2.0000      -0.449866       -12.2415
 197   2.0000      -0.448911       -12.2155
 198   2.0000      -0.444954       -12.1078
 199   2.0000      -0.444113       -12.0849
 200   2.0000      -0.439625       -11.9628
 201   2.0000      -0.436481       -11.8773
 202   2.0000      -0.435554       -11.8520
 203   2.0000      -0.434905       -11.8344
 204   2.0000      -0.427417       -11.6306
 205   2.0000      -0.427006       -11.6194
 206   2.0000      -0.425407       -11.5759
 207   2.0000      -0.423901       -11.5349
 208   2.0000      -0.422764       -11.5040
 209   2.0000      -0.417121       -11.3504
 210   2.0000      -0.415587       -11.3087
 211   2.0000      -0.409838       -11.1523
 212   2.0000      -0.406824       -11.0702
 213   2.0000      -0.405075       -11.0227
 214   2.0000      -0.397986       -10.8298
 215   2.0000      -0.388725       -10.5778
 216   2.0000      -0.387826       -10.5533
 217   2.0000      -0.385805       -10.4983
 218   2.0000      -0.381433       -10.3793
 219   2.0000      -0.378845       -10.3089
 220   2.0000      -0.372321       -10.1314
 221   2.0000      -0.362607        -9.8671
 222   2.0000      -0.356891        -9.7115
 223   2.0000      -0.349661        -9.5147
 224   2.0000      -0.347712        -9.4617
 225   2.0000      -0.341273        -9.2865
 226   2.0000      -0.333777        -9.0825
 227   2.0000      -0.330217        -8.9856
 228   2.0000      -0.321936        -8.7603
 229   2.0000      -0.316856        -8.6221
 230   2.0000      -0.311114        -8.4658
 231   2.0000      -0.305722        -8.3191
 232   2.0000      -0.302195        -8.2231
 233   2.0000      -0.296827        -8.0771
 234   2.0000      -0.282731        -7.6935
 235   0.0000      -0.111842        -3.0434
 236   0.0000      -0.094530        -2.5723
 237   0.0000      -0.069647        -1.8952
 238   0.0000      -0.063098        -1.7170
 239   0.0000      -0.056939        -1.5494

MULLIKEN ATOMIC CHARGES
-----------------------
   0 C :   -0.099807
   1 C :    0.305036
   2 F :   -0.187834
   3 C :   -0.028970
   4 C :   -0.010572
   5 C :    0.101391
   6 C :    0.105673
   7 C :   -0.090714
   8 C :    0.042512
   9 C :    0.012906
  10 C :   -0.080268
  11 C :    0.135346
  12 O :   -0.137871
  13 C :   -0.108584
  14 C :    0.320834
  15 C :   -0.323685
  16 C :   -0.204430
  17 N :    0.170545
  18 C :   -0.195917
  19 N :    0.164851
  20 C :   -0.007093
  21 C :    0.105022
  22 C :   -0.082371
  23 C :    0.233060
  24 F :   -0.178270
  25 C :    0.044317
  26 C :    0.015473
  27 C :    0.006528
  28 N :   -0.283496
  29 S :    0.534510
  30 N :   -0.268306
  31 C :   -0.056711
  32 C :    0.075163
  33 N :   -0.012189
  34 C :   -0.148641
  35 N :   -0.047537
  36 C :    0.060036
  37 C :    0.122974
  38 C :   -0.072445
  39 C :    0.244101
  40 F :   -0.177820
  41 C :    0.009194
  42 C :   -0.000269
  43 C :    0.033731
  44 N :   -0.227060
  45 S :    0.515703
  46 N :   -0.275373
  47 C :    0.009962
  48 C :   -0.109268
  49 C :    0.134826
  50 O :   -0.135869
  51 C :    0.010703
  52 C :   -0.078370
  53 C :    0.097712
  54 C :    0.102087
  55 C :   -0.095702
  56 C :    0.302703
  57 C :   -0.029911
  58 C :   -0.007473
  59 F :   -0.190169
  60 C :   -0.083145
  61 C :    0.040448
  62 C :    0.284759
  63 C :   -0.316288
  64 C :   -0.202560
  65 N :    0.169301
  66 C :   -0.178683
  67 N :    0.154135
  68 H :   -0.000896
  69 H :    0.005283
  70 H :   -0.006330
  71 H :   -0.004192
  72 H :   -0.008745
  73 H :    0.024255
  74 H :    0.006325
  75 H :    0.019162
  76 H :    0.009715
  77 H :    0.008630
  78 H :    0.038731
  79 H :   -0.011525
  80 H :   -0.003237
  81 H :    0.003543
  82 H :   -0.009075
  83 H :   -0.003517
Sum of atomic charges:   -0.0000000

LOEWDIN ATOMIC CHARGES
----------------------
   0 C :   -0.042340
   1 C :    0.094656
   2 F :   -0.062699
   3 C :   -0.035299
   4 C :    0.005648
   5 C :   -0.018471
   6 C :    0.004884
   7 C :    0.011240
   8 C :   -0.013791
   9 C :   -0.061109
  10 C :    0.037363
  11 C :    0.086355
  12 O :   -0.136402
  13 C :   -0.066489
  14 C :    0.076944
  15 C :   -0.128595
  16 C :   -0.019259
  17 N :   -0.050866
  18 C :   -0.020545
  19 N :   -0.048255
  20 C :    0.064216
  21 C :   -0.029438
  22 C :    0.004112
  23 C :    0.095157
  24 F :   -0.053338
  25 C :   -0.036767
  26 C :   -0.034086
  27 C :   -0.046912
  28 N :   -0.279567
  29 S :    0.663591
  30 N :   -0.275880
  31 C :   -0.064143
  32 C :    0.075063
  33 N :   -0.054031
  34 C :    0.036867
  35 N :   -0.074177
  36 C :    0.060913
  37 C :   -0.012642
  38 C :   -0.006726
  39 C :    0.109892
  40 F :   -0.046080
  41 C :   -0.068485
  42 C :   -0.034384
  43 C :   -0.046504
  44 N :   -0.255660
  45 S :    0.653697
  46 N :   -0.290937
  47 C :    0.077872
  48 C :   -0.076351
  49 C :    0.085298
  50 O :   -0.135451
  51 C :   -0.060574
  52 C :    0.035930
  53 C :   -0.018875
  54 C :    0.004167
  55 C :   -0.042013
  56 C :    0.093319
  57 C :   -0.037065
  58 C :    0.004994
  59 F :   -0.064374
  60 C :    0.011448
  61 C :   -0.015576
  62 C :    0.067665
  63 C :   -0.128684
  64 C :   -0.017972
  65 N :   -0.043539
  66 C :   -0.017429
  67 N :   -0.048635
  68 H :    0.043455
  69 H :    0.042735
  70 H :    0.036557
  71 H :    0.039186
  72 H :    0.040636
  73 H :    0.049096
  74 H :    0.049171
  75 H :    0.030318
  76 H :    0.026582
  77 H :    0.047704
  78 H :    0.053855
  79 H :    0.039821
  80 H :    0.043041
  81 H :    0.041848
  82 H :    0.035757
  83 H :    0.039366

  Mayer bond orders larger than 0.100000
B(  0-C ,  1-C ) :   1.4411 B(  0-C ,  6-C ) :   1.2032 B(  0-C , 68-H ) :   1.0063
B(  1-C ,  2-F ) :   1.0912 B(  1-C ,  3-C ) :   1.2534 B(  3-C ,  4-C ) :   1.4625
B(  3-C , 69-H ) :   0.9932 B(  4-C ,  5-C ) :   1.2325 B(  4-C , 70-H ) :   0.9973
B(  5-C ,  6-C ) :   1.2507 B(  5-C , 10-C ) :   1.1977 B(  6-C ,  7-C ) :   1.2037
B(  7-C ,  8-C ) :   1.4601 B(  7-C , 71-H ) :   0.9951 B(  8-C ,  9-C ) :   1.2117
B(  8-C , 14-C ) :   1.0071 B(  9-C , 10-C ) :   1.4660 B(  9-C , 11-C ) :   0.9234
B( 10-C , 72-H ) :   1.0148 B( 11-C , 12-O ) :   2.2716 B( 11-C , 13-C ) :   0.9251
B( 13-C , 14-C ) :   1.0160 B( 13-C , 20-C ) :   1.7245 B( 14-C , 15-C ) :   1.6614
B( 15-C , 16-C ) :   1.1641 B( 15-C , 18-C ) :   1.1453 B( 16-C , 17-N ) :   3.0051
B( 18-C , 19-N ) :   2.9891 B( 20-C , 21-C ) :   1.0597 B( 20-C , 73-H ) :   0.9421
B( 21-C , 22-C ) :   1.3971 B( 21-C , 25-C ) :   0.1084 B( 21-C , 27-C ) :   1.1719
B( 22-C , 23-C ) :   1.1988 B( 22-C , 74-H ) :   1.0060 B( 23-C , 24-F ) :   1.1148
B( 23-C , 25-C ) :   1.4325 B( 25-C , 26-C ) :   1.2126 B( 25-C , 31-C ) :   0.9650
B( 26-C , 27-C ) :   1.1595 B( 26-C , 30-N ) :   1.5400 B( 27-C , 28-N ) :   1.5312
B( 28-N , 29-S ) :   1.2593 B( 28-N , 30-N ) :   0.1405 B( 29-S , 30-N ) :   1.2760
B( 31-C , 32-C ) :   1.3381 B( 31-C , 36-C ) :   1.3399 B( 32-C , 33-N ) :   1.5636
B( 32-C , 75-H ) :   0.9856 B( 33-N , 34-C ) :   1.5976 B( 34-C , 35-N ) :   1.5893
B( 34-C , 37-C ) :   0.9472 B( 35-N , 36-C ) :   1.5677 B( 35-N , 37-C ) :  -0.1134
B( 36-C , 76-H ) :   0.9876 B( 37-C , 38-C ) :   1.4848 B( 37-C , 41-C ) :   0.1131
B( 37-C , 43-C ) :   1.1738 B( 38-C , 39-C ) :   1.1785 B( 38-C , 77-H ) :   1.0043
B( 39-C , 40-F ) :   1.0910 B( 39-C , 41-C ) :   1.3752 B( 41-C , 42-C ) :   1.1651
B( 41-C , 47-C ) :   1.0749 B( 42-C , 43-C ) :   1.1589 B( 42-C , 46-N ) :   1.5821
B( 43-C , 44-N ) :   1.5598 B( 44-N , 45-S ) :   1.2869 B( 44-N , 46-N ) :   0.1464
B( 45-S , 46-N ) :   1.2507 B( 47-C , 48-C ) :   1.6932 B( 47-C , 78-H ) :   0.9369
B( 48-C , 49-C ) :   0.9267 B( 48-C , 62-C ) :   1.0225 B( 49-C , 50-O ) :   2.2744
B( 49-C , 51-C ) :   0.9214 B( 51-C , 52-C ) :   1.4672 B( 51-C , 61-C ) :   1.2158
B( 52-C , 53-C ) :   1.1962 B( 52-C , 79-H ) :   1.0157 B( 53-C , 54-C ) :   1.2541
B( 53-C , 58-C ) :   1.2329 B( 54-C , 55-C ) :   1.2029 B( 54-C , 60-C ) :   1.2048
B( 55-C , 56-C ) :   1.4414 B( 55-C , 80-H ) :   1.0068 B( 56-C , 57-C ) :   1.2534
B( 56-C , 59-F ) :   1.0889 B( 57-C , 58-C ) :   1.4629 B( 57-C , 81-H ) :   0.9931
B( 58-C , 82-H ) :   0.9971 B( 60-C , 61-C ) :   1.4631 B( 60-C , 83-H ) :   0.9943
B( 61-C , 62-C ) :   0.9988 B( 62-C , 63-C ) :   1.6698 B( 63-C , 64-C ) :   1.1657
B( 63-C , 66-C ) :   1.1308 B( 64-C , 65-N ) :   3.0010 B( 66-C , 67-N ) :   2.9883

-----------------------------------------------------------------------------
         ABSORPTION SPECTRUM VIA TRANSITION ELECTRIC DIPOLE MOMENTS
-----------------------------------------------------------------------------
State   Energy  Wavelength   fosc         T2         TX        TY        TZ
        (cm-1)    (nm)                  (au**2)     (au)      (au)      (au)
-----------------------------------------------------------------------------
   0   21770.8    459.3   1.437532945  21.73796  -2.72465   2.46328   2.87167
   1   24329.4    411.0   0.190938365   2.58368   0.96658  -0.63506  -1.11629
   2   24920.4    401.3   0.040784895   0.53879   0.71978  -0.12797   0.06582
   3   25967.4    385.1   0.007702123   0.09765   0.15045  -0.06838  -0.26521
   4   26914.4    371.5   0.025669780   0.31399  -0.51874   0.19837  -0.07444
   5   27089.0    369.2   0.023300207   0.28317   0.05695   0.45147   0.27585
   6   28102.9    355.8   0.004553633   0.05334  -0.10356  -0.20285   0.03835
   7   28638.7    349.2   0.062523558   0.71873  -0.13773  -0.28464   0.78660
   8   28814.5    347.0   0.003140356   0.03588  -0.18123   0.02748  -0.04774
   9   29740.0    336.2   0.015628202   0.17300  -0.31156   0.19085   0.19875
  10   30294.4    330.1   0.010087440   0.10962   0.09820  -0.23465  -0.21194
  11   31117.9    321.4   0.498060236   5.26923  -1.28756   1.80525   0.59373
  12   31675.9    315.7   0.043343255   0.45047   0.32980   0.44287   0.38153
  13   32116.6    311.4   0.031601195   0.32393  -0.35271   0.30637   0.32505
  14   32311.9    309.5   0.127367956   1.29770   0.74168  -0.35930   0.78646
  15   32842.9    304.5   0.109982179   1.10245  -0.47079  -0.63099   0.69473
  16   33506.4    298.5   0.261342824   2.56779   0.24131  -1.15301  -1.08633
  17   33785.5    296.0   0.353926138   3.44872  -1.53397  -0.17919   1.03128
  18   33846.1    295.5   0.272033615   2.64600  -0.45317  -1.10594  -1.10342
  19   34088.6    293.4   0.120147332   1.16033  -0.99971  -0.13668  -0.37714
  20   34317.9    291.4   0.048593009   0.46615   0.31410   0.59251   0.12816
  21   34474.1    290.1   0.463735632   4.42846  -1.30647   0.33665   1.61502
  22   34926.8    286.3   0.016078734   0.15155  -0.17109   0.34968  -0.00317
  23   35073.9    285.1   0.045883528   0.43067   0.15087   0.14006   0.62313
  24   36043.6    277.4   0.037322473   0.34089  -0.36084  -0.21058  -0.40785
  25   36072.9    277.2   0.154844678   1.41316   0.01324  -0.70971  -0.95357
  26   36380.4    274.9   0.096140436   0.86999  -0.00599  -0.87422  -0.32509
  27   36927.5    270.8   0.142809223   1.27316   0.33245  -0.44292  -0.98308
  28   37056.3    269.9   0.059411148   0.52782   0.42209   0.48316   0.34090
  29   37607.7    265.9   0.315780705   2.76430   1.55034  -0.56489   0.20407
  30   37961.0    263.4   0.071060895   0.61627  -0.61566   0.45294  -0.17907
  31   37995.6    263.2   0.014440952   0.12512   0.03832  -0.34668  -0.05891
  32   38392.9    260.5   0.011872450   0.10180   0.06543   0.30859   0.04789
  33   38627.2    258.9   0.033898497   0.28891  -0.04514  -0.52806   0.08959
  34   39034.0    256.2   0.146685932   1.23715   0.19615  -1.06117  -0.26944
  35   39211.6    255.0   0.015205499   0.12766  -0.05841  -0.01034   0.35234
  36   39355.0    254.1   0.163820010   1.37039   0.31359   0.88352  -0.70103
  37   39427.1    253.6   0.036830360   0.30753   0.38697  -0.39696  -0.01448
  38   40183.6    248.9   0.097944021   0.80243   0.10895  -0.71306   0.53113

FINAL SINGLE POINT ENERGY     -3804.641092488939

DIPOLE MOMENT
-------------
                                X             Y             Z
Electronic contribution:      9.74054      -0.33864       1.85716
Nuclear contribution   :    -13.19900      -0.33775      -1.47624
                        -----------------------------------------
Total Dipole Moment    :     -3.45845      -0.67639       0.38093
                        -----------------------------------------
Magnitude (a.u.)       :      3.54450
Magnitude (Debye)      :      9.00941

Rotational constants in cm-1:     0.003056     0.000254     0.000248
Rotational constants in MHz :    91.623335     7.608941     7.446850

                             ****ORCA TERMINATED NORMALLY****
TOTAL RUN TIME: 0 days 0 hours 11 minutes 43 seconds 525 msec
