                         Program Version 4.2.0 -  RELEASE  -
|  1> # ORCA input file
|  2> # SCF done       -179.395637024836          0.000955091330
|  3> ! CAM-B3LYP def2-SVP def2/J RIJCOSX Grid4 TightSCF
|  4> %maxcore 5000
|  5> %tddft
|  6>     Mode sTDDFT
|  7>     Ethresh 5.0
|  8>     maxcore 5000
|  9> end
| 10>
| 11> %pal
| 12>   nprocs 6
| 13>   end
| 14> * xyz 0 1
| 15>    C       11.40182        -5.53962        -7.55763
| 16>    C       12.15113        -5.78587        -8.67510
| 17>    F       11.58423        -6.38825        -9.73186
| 18>    C       13.50503        -5.43102        -8.76572
| 19>    C       14.10135        -4.81537        -7.70104
| 20>    C       13.37559        -4.53616        -6.52409
| 21>    C       12.00005        -4.90842        -6.45016
| 22>    C       11.25364        -4.64815        -5.27763
| 23>    C       11.86431        -4.03414        -4.21742
| 24>    C       13.23274        -3.64205        -4.30531
| 25>    C       13.97862        -3.88957        -5.42361
| 26>    C       13.62490        -2.95613        -3.06710
| 27>    O       14.70924        -2.54112        -2.73963
| 28>    C       12.34888        -2.80417        -2.28374
| 29>    C       11.35539        -3.66979        -2.89938
| 30>    C       10.27904        -4.24687        -2.28401
| 31>    C        9.92018        -4.00126        -0.94305
| 32>    N        9.61031        -3.82418         0.14738
| 33>    C        9.45518        -5.21558        -2.90000
| 34>    N        8.77011        -6.01343        -3.35653
| 35>    C       12.31614        -1.89134        -1.28923
| 36>    C       11.18356        -1.29772        -0.63030
| 37>    C        9.94459        -1.17912        -1.17681
| 38>    C        8.89008        -0.52718        -0.46751
| 39>    C        7.61266        -0.44868        -0.98896
| 40>    C        6.56589         0.19254        -0.30599
| 41>    N        5.72171         0.73258         0.25392
| 42>    C        7.31386        -1.02352        -2.23594
| 43>    N        7.11108        -1.50743        -3.25794
| 44>    C        9.25081         0.01927         0.80716
| 45>    C       10.51752        -0.11239         1.27022
| 46>    O       11.48663        -0.75906         0.57668
| 47>    C       10.98321         0.41007         2.54741
| 48>    C       12.07405        -0.16428         3.21241
| 49>    N       12.52544         0.30127         4.35556
| 50>    C       11.90170         1.35710         4.87643
| 51>    N       10.86128         1.98071         4.32791
| 52>    C       10.40977         1.51916         3.18497
| 53>    C       12.38618         1.85061         6.16159
| 54>    C       11.81776         2.88316         6.82755
| 55>    C       12.31982         3.26270         8.11587
| 56>    C       11.82591         4.35147         8.80962
| 57>    C       12.32382         4.71417        10.07354
| 58>    N       12.73903         5.01063        11.10207
| 59>    C       10.81590         5.17645         8.28348
| 60>    N        9.99823         5.85942         7.85614
| 61>    C       13.35649         2.42960         8.64381
| 62>    C       13.85029         1.39377         7.91080
| 63>    O       13.43511         1.15006         6.64460
| 64>    C       14.86869         0.50449         8.40115
| 65>    C       15.24441        -0.68575         7.88018
| 66>    C       16.56482        -1.27599         8.28338
| 67>    O       17.22036        -0.96882         9.24791
| 68>    C       16.89072        -2.23632         7.21646
| 69>    C       18.03726        -2.95706         7.03354
| 70>    C       18.14244        -3.81319         5.91568
| 71>    C       17.05580        -3.89853         4.99549
| 72>    C       17.17135        -4.74852         3.87849
| 73>    C       18.31604        -5.47576         3.70373
| 74>    C       19.39322        -5.40879         4.59893
| 75>    C       19.29986        -4.58628         5.68667
| 76>    F       18.42645        -6.28845         2.63982
| 77>    C       15.87845        -3.14631         5.21241
| 78>    C       15.79220        -2.33552         6.31197
| 79>    C       14.69909        -1.51057         6.81422
| 80>    C       13.37765        -1.67229         6.50600
| 81>    C       12.32988        -1.07726         7.24089
| 82>    N       11.45576        -0.64909         7.84863
| 83>    C       12.91014        -2.50209         5.46684
| 84>    N       12.48535        -3.13369         4.60814
| 85>    H       10.36335        -5.82923        -7.52167
| 86>    H       14.04483        -5.65078        -9.67308
| 87>    H       15.14198        -4.53224        -7.74805
| 88>    H       10.21207        -4.92670        -5.25199
| 89>    H       15.01551        -3.59193        -5.46787
| 90>    H       13.28077        -1.50303        -0.97641
| 91>    H        9.74970        -1.56448        -2.16471
| 92>    H        8.49867         0.51516         1.39819
| 93>    H       12.57797        -1.03528         2.81584
| 94>    H        9.57867         2.06124         2.75414
| 95>    H       10.98303         3.40180         6.38532
| 96>    H       13.72722         2.60983         9.64053
| 97>    H       15.44175         0.86050         9.24880
| 98>    H       18.85330        -2.87565         7.73571
| 99>    H       16.36070        -4.82909         3.17132
|100>    H       20.27026        -6.00706         4.40976
|101>    H       20.11619        -4.51814         6.38961
|102>    H       15.07324        -3.22447         4.49945
|103> *
|104>
|105>                          ****END OF INPUT****

CARTESIAN COORDINATES (ANGSTROEM)
---------------------------------
  C     11.401820   -5.539620   -7.557630
  C     12.151130   -5.785870   -8.675100
  F     11.584230   -6.388250   -9.731860
  C     13.505030   -5.431020   -8.765720
  C     14.101350   -4.815370   -7.701040
  C     13.375590   -4.536160   -6.524090
  C     12.000050   -4.908420   -6.450160
  C     11.253640   -4.648150   -5.277630
  C     11.864310   -4.034140   -4.217420
  C     13.232740   -3.642050   -4.305310
  C     13.978620   -3.889570   -5.423610
  C     13.624900   -2.956130   -3.067100
  O     14.709240   -2.541120   -2.739630
  C     12.348880   -2.804170   -2.283740
  C     11.355390   -3.669790   -2.899380
  C     10.279040   -4.246870   -2.284010
  C      9.920180   -4.001260   -0.943050
  N      9.610310   -3.824180    0.147380
  C      9.455180   -5.215580   -2.900000
  N      8.770110   -6.013430   -3.356530
  C     12.316140   -1.891340   -1.289230
  C     11.183560   -1.297720   -0.630300
  C      9.944590   -1.179120   -1.176810
  C      8.890080   -0.527180   -0.467510
  C      7.612660   -0.448680   -0.988960
  C      6.565890    0.192540   -0.305990
  N      5.721710    0.732580    0.253920
  C      7.313860   -1.023520   -2.235940
  N      7.111080   -1.507430   -3.257940
  C      9.250810    0.019270    0.807160
  C     10.517520   -0.112390    1.270220
  O     11.486630   -0.759060    0.576680
  C     10.983210    0.410070    2.547410
  C     12.074050   -0.164280    3.212410
  N     12.525440    0.301270    4.355560
  C     11.901700    1.357100    4.876430
  N     10.861280    1.980710    4.327910
  C     10.409770    1.519160    3.184970
  C     12.386180    1.850610    6.161590
  C     11.817760    2.883160    6.827550
  C     12.319820    3.262700    8.115870
  C     11.825910    4.351470    8.809620
  C     12.323820    4.714170   10.073540
  N     12.739030    5.010630   11.102070
  C     10.815900    5.176450    8.283480
  N      9.998230    5.859420    7.856140
  C     13.356490    2.429600    8.643810
  C     13.850290    1.393770    7.910800
  O     13.435110    1.150060    6.644600
  C     14.868690    0.504490    8.401150
  C     15.244410   -0.685750    7.880180
  C     16.564820   -1.275990    8.283380
  O     17.220360   -0.968820    9.247910
  C     16.890720   -2.236320    7.216460
  C     18.037260   -2.957060    7.033540
  C     18.142440   -3.813190    5.915680
  C     17.055800   -3.898530    4.995490
  C     17.171350   -4.748520    3.878490
  C     18.316040   -5.475760    3.703730
  C     19.393220   -5.408790    4.598930
  C     19.299860   -4.586280    5.686670
  F     18.426450   -6.288450    2.639820
  C     15.878450   -3.146310    5.212410
  C     15.792200   -2.335520    6.311970
  C     14.699090   -1.510570    6.814220
  C     13.377650   -1.672290    6.506000
  C     12.329880   -1.077260    7.240890
  N     11.455760   -0.649090    7.848630
  C     12.910140   -2.502090    5.466840
  N     12.485350   -3.133690    4.608140
  H     10.363350   -5.829230   -7.521670
  H     14.044830   -5.650780   -9.673080
  H     15.141980   -4.532240   -7.748050
  H     10.212070   -4.926700   -5.251990
  H     15.015510   -3.591930   -5.467870
  H     13.280770   -1.503030   -0.976410
  H      9.749700   -1.564480   -2.164710
  H      8.498670    0.515160    1.398190
  H     12.577970   -1.035280    2.815840
  H      9.578670    2.061240    2.754140
  H     10.983030    3.401800    6.385320
  H     13.727220    2.609830    9.640530
  H     15.441750    0.860500    9.248800
  H     18.853300   -2.875650    7.735710
  H     16.360700   -4.829090    3.171320
  H     20.270260   -6.007060    4.409760
  H     20.116190   -4.518140    6.389610
  H     15.073240   -3.224470    4.499450

 Total Charge           Charge          ....    0
 Multiplicity           Mult            ....    1
 Number of Electrons    NEL             ....  462
 Basis Dimension        Dim             .... 1070

ORBITAL ENERGIES
----------------

  NO   OCC          E(Eh)            E(eV)
   0   2.0000     -24.799374      -674.8253
   1   2.0000     -24.799072      -674.8171
   2   2.0000     -19.341844      -526.3183
   3   2.0000     -19.330308      -526.0044
   4   2.0000     -19.242095      -523.6040
   5   2.0000     -19.236089      -523.4406
   6   2.0000     -14.455002      -393.3406
   7   2.0000     -14.454082      -393.3156
   8   2.0000     -14.441355      -392.9693
   9   2.0000     -14.437195      -392.8561
  10   2.0000     -14.435378      -392.8066
  11   2.0000     -14.432207      -392.7203
  12   2.0000     -14.413164      -392.2021
  13   2.0000     -14.410902      -392.1406
  14   2.0000     -14.410420      -392.1275
  15   2.0000     -14.408899      -392.0861
  16   2.0000     -10.405654      -283.1522
  17   2.0000     -10.402899      -283.0773
  18   2.0000     -10.397518      -282.9308
  19   2.0000     -10.393033      -282.8088
  20   2.0000     -10.390961      -282.7524
  21   2.0000     -10.390157      -282.7305
  22   2.0000     -10.387047      -282.6459
  23   2.0000     -10.384974      -282.5895
  24   2.0000     -10.383865      -282.5593
  25   2.0000     -10.372605      -282.2529
  26   2.0000     -10.367282      -282.1081
  27   2.0000     -10.366756      -282.0938
  28   2.0000     -10.364939      -282.0443
  29   2.0000     -10.362330      -281.9733
  30   2.0000     -10.358133      -281.8591
  31   2.0000     -10.353587      -281.7354
  32   2.0000     -10.349492      -281.6240
  33   2.0000     -10.346377      -281.5392
  34   2.0000     -10.340991      -281.3927
  35   2.0000     -10.340056      -281.3672
  36   2.0000     -10.339519      -281.3526
  37   2.0000     -10.339460      -281.3510
  38   2.0000     -10.337810      -281.3061
  39   2.0000     -10.337468      -281.2968
  40   2.0000     -10.336939      -281.2824
  41   2.0000     -10.335994      -281.2567
  42   2.0000     -10.334541      -281.2171
  43   2.0000     -10.330186      -281.0987
  44   2.0000     -10.329453      -281.0787
  45   2.0000     -10.326923      -281.0099
  46   2.0000     -10.326904      -281.0094
  47   2.0000     -10.325668      -280.9757
  48   2.0000     -10.323724      -280.9228
  49   2.0000     -10.323552      -280.9181
  50   2.0000     -10.321801      -280.8705
  51   2.0000     -10.320438      -280.8334
  52   2.0000     -10.318857      -280.7904
  53   2.0000     -10.318773      -280.7881
  54   2.0000     -10.317176      -280.7446
  55   2.0000     -10.316998      -280.7398
  56   2.0000     -10.316259      -280.7197
  57   2.0000     -10.316204      -280.7182
  58   2.0000     -10.314050      -280.6596
  59   2.0000     -10.313424      -280.6425
  60   2.0000     -10.313175      -280.6357
  61   2.0000     -10.312519      -280.6179
  62   2.0000     -10.311556      -280.5917
  63   2.0000     -10.311424      -280.5881
  64   2.0000     -10.310905      -280.5740
  65   2.0000     -10.309620      -280.5390
  66   2.0000     -10.307822      -280.4901
  67   2.0000     -10.307602      -280.4841
  68   2.0000     -10.303661      -280.3769
  69   2.0000     -10.302935      -280.3571
  70   2.0000      -1.315380       -35.7933
  71   2.0000      -1.314600       -35.7721
  72   2.0000      -1.253241       -34.1024
  73   2.0000      -1.246661       -33.9234
  74   2.0000      -1.158189       -31.5159
  75   2.0000      -1.152162       -31.3519
  76   2.0000      -1.128342       -30.7037
  77   2.0000      -1.042810       -28.3763
  78   2.0000      -1.037843       -28.2411
  79   2.0000      -1.023336       -27.8464
  80   2.0000      -1.022428       -27.8217
  81   2.0000      -1.018206       -27.7068
  82   2.0000      -1.015579       -27.6353
  83   2.0000      -1.013606       -27.5816
  84   2.0000      -1.013138       -27.5689
  85   2.0000      -1.010052       -27.4849
  86   2.0000      -0.998074       -27.1590
  87   2.0000      -0.994308       -27.0565
  88   2.0000      -0.990994       -26.9663
  89   2.0000      -0.987915       -26.8825
  90   2.0000      -0.982811       -26.7436
  91   2.0000      -0.976641       -26.5758
  92   2.0000      -0.972052       -26.4509
  93   2.0000      -0.963276       -26.2121
  94   2.0000      -0.947832       -25.7918
  95   2.0000      -0.941595       -25.6221
  96   2.0000      -0.932453       -25.3733
  97   2.0000      -0.917771       -24.9738
  98   2.0000      -0.909539       -24.7498
  99   2.0000      -0.904103       -24.6019
 100   2.0000      -0.901784       -24.5388
 101   2.0000      -0.895744       -24.3744
 102   2.0000      -0.885947       -24.1078
 103   2.0000      -0.878199       -23.8970
 104   2.0000      -0.870920       -23.6989
 105   2.0000      -0.852693       -23.2029
 106   2.0000      -0.850153       -23.1338
 107   2.0000      -0.830353       -22.5951
 108   2.0000      -0.827902       -22.5284
 109   2.0000      -0.818002       -22.2590
 110   2.0000      -0.807973       -21.9861
 111   2.0000      -0.791044       -21.5254
 112   2.0000      -0.783354       -21.3162
 113   2.0000      -0.779755       -21.2182
 114   2.0000      -0.774694       -21.0805
 115   2.0000      -0.763943       -20.7880
 116   2.0000      -0.753003       -20.4902
 117   2.0000      -0.743237       -20.2245
 118   2.0000      -0.738299       -20.0901
 119   2.0000      -0.727122       -19.7860
 120   2.0000      -0.724760       -19.7217
 121   2.0000      -0.717339       -19.5198
 122   2.0000      -0.714307       -19.4373
 123   2.0000      -0.704243       -19.1634
 124   2.0000      -0.700251       -19.0548
 125   2.0000      -0.698100       -18.9963
 126   2.0000      -0.691576       -18.8188
 127   2.0000      -0.684448       -18.6248
 128   2.0000      -0.678787       -18.4707
 129   2.0000      -0.661779       -18.0079
 130   2.0000      -0.657517       -17.8919
 131   2.0000      -0.651157       -17.7189
 132   2.0000      -0.647097       -17.6084
 133   2.0000      -0.646283       -17.5862
 134   2.0000      -0.643879       -17.5208
 135   2.0000      -0.640126       -17.4187
 136   2.0000      -0.633084       -17.2271
 137   2.0000      -0.623406       -16.9637
 138   2.0000      -0.621140       -16.9021
 139   2.0000      -0.618301       -16.8248
 140   2.0000      -0.611278       -16.6337
 141   2.0000      -0.608810       -16.5666
 142   2.0000      -0.607576       -16.5330
 143   2.0000      -0.605385       -16.4734
 144   2.0000      -0.598224       -16.2785
 145   2.0000      -0.593544       -16.1511
 146   2.0000      -0.588988       -16.0272
 147   2.0000      -0.586069       -15.9478
 148   2.0000      -0.583950       -15.8901
 149   2.0000      -0.582074       -15.8390
 150   2.0000      -0.574417       -15.6307
 151   2.0000      -0.572280       -15.5725
 152   2.0000      -0.571923       -15.5628
 153   2.0000      -0.569899       -15.5077
 154   2.0000      -0.565471       -15.3872
 155   2.0000      -0.563782       -15.3413
 156   2.0000      -0.559096       -15.2138
 157   2.0000      -0.557031       -15.1576
 158   2.0000      -0.554573       -15.0907
 159   2.0000      -0.551502       -15.0071
 160   2.0000      -0.550428       -14.9779
 161   2.0000      -0.545074       -14.8322
 162   2.0000      -0.541405       -14.7324
 163   2.0000      -0.539701       -14.6860
 164   2.0000      -0.538338       -14.6489
 165   2.0000      -0.536767       -14.6062
 166   2.0000      -0.532659       -14.4944
 167   2.0000      -0.526044       -14.3144
 168   2.0000      -0.522305       -14.2126
 169   2.0000      -0.520992       -14.1769
 170   2.0000      -0.514538       -14.0013
 171   2.0000      -0.509628       -13.8677
 172   2.0000      -0.507933       -13.8216
 173   2.0000      -0.505671       -13.7600
 174   2.0000      -0.504092       -13.7170
 175   2.0000      -0.502255       -13.6670
 176   2.0000      -0.500368       -13.6157
 177   2.0000      -0.498271       -13.5586
 178   2.0000      -0.495173       -13.4743
 179   2.0000      -0.493272       -13.4226
 180   2.0000      -0.485054       -13.1990
 181   2.0000      -0.484311       -13.1788
 182   2.0000      -0.480668       -13.0796
 183   2.0000      -0.476540       -12.9673
 184   2.0000      -0.473030       -12.8718
 185   2.0000      -0.471178       -12.8214
 186   2.0000      -0.470192       -12.7946
 187   2.0000      -0.468773       -12.7560
 188   2.0000      -0.462017       -12.5721
 189   2.0000      -0.461243       -12.5511
 190   2.0000      -0.457242       -12.4422
 191   2.0000      -0.454494       -12.3674
 192   2.0000      -0.453399       -12.3376
 193   2.0000      -0.448555       -12.2058
 194   2.0000      -0.447683       -12.1821
 195   2.0000      -0.445845       -12.1321
 196   2.0000      -0.445669       -12.1273
 197   2.0000      -0.442851       -12.0506
 198   2.0000      -0.442253       -12.0343
 199   2.0000      -0.441367       -12.0102
 200   2.0000      -0.438725       -11.9383
 201   2.0000      -0.438263       -11.9257
 202   2.0000      -0.436356       -11.8738
 203   2.0000      -0.433589       -11.7985
 204   2.0000      -0.431833       -11.7508
 205   2.0000      -0.428963       -11.6727
 206   2.0000      -0.427376       -11.6295
 207   2.0000      -0.426117       -11.5952
 208   2.0000      -0.425314       -11.5734
 209   2.0000      -0.424602       -11.5540
 210   2.0000      -0.423886       -11.5345
 211   2.0000      -0.423407       -11.5215
 212   2.0000      -0.421401       -11.4669
 213   2.0000      -0.413246       -11.2450
 214   2.0000      -0.412354       -11.2207
 215   2.0000      -0.409652       -11.1472
 216   2.0000      -0.400915       -10.9095
 217   2.0000      -0.397561       -10.8182
 218   2.0000      -0.393786       -10.7155
 219   2.0000      -0.381490       -10.3809
 220   2.0000      -0.365895        -9.9565
 221   2.0000      -0.362694        -9.8694
 222   2.0000      -0.358805        -9.7636
 223   2.0000      -0.350787        -9.5454
 224   2.0000      -0.339251        -9.2315
 225   2.0000      -0.332638        -9.0515
 226   2.0000      -0.326505        -8.8847
 227   2.0000      -0.315644        -8.5891
 228   2.0000      -0.312005        -8.4901
 229   2.0000      -0.296825        -8.0770
 230   2.0000      -0.291585        -7.9344
 231   0.0000      -0.123307        -3.3554
 232   0.0000      -0.121031        -3.2934
 233   0.0000      -0.094378        -2.5682
 234   0.0000      -0.079561        -2.1650
 235   0.0000      -0.073464        -1.9991

MULLIKEN ATOMIC CHARGES
-----------------------
   0 C :   -0.092070
   1 C :    0.303947
   2 F :   -0.182961
   3 C :   -0.025249
   4 C :   -0.006715
   5 C :    0.099362
   6 C :    0.098701
   7 C :   -0.073341
   8 C :    0.033752
   9 C :    0.015363
  10 C :   -0.071616
  11 C :    0.133697
  12 O :   -0.128088
  13 C :   -0.096005
  14 C :    0.248842
  15 C :   -0.303212
  16 C :   -0.183715
  17 N :    0.176269
  18 C :   -0.168734
  19 N :    0.176804
  20 C :    0.035015
  21 C :    0.203660
  22 C :   -0.118419
  23 C :    0.259839
  24 C :   -0.317314
  25 C :   -0.176065
  26 N :    0.144771
  27 C :   -0.173899
  28 N :    0.129750
  29 C :   -0.114243
  30 C :    0.239590
  31 O :   -0.218883
  32 C :   -0.029057
  33 C :    0.091913
  34 N :   -0.055449
  35 C :   -0.091106
  36 N :   -0.028825
  37 C :    0.063575
  38 C :    0.256507
  39 C :   -0.115127
  40 C :    0.286980
  41 C :   -0.325272
  42 C :   -0.176557
  43 N :    0.147296
  44 C :   -0.169919
  45 N :    0.147131
  46 C :   -0.090903
  47 C :    0.201652
  48 O :   -0.217832
  49 C :    0.009778
  50 C :   -0.081318
  51 C :    0.139965
  52 O :   -0.125555
  53 C :   -0.000882
  54 C :   -0.073563
  55 C :    0.099375
  56 C :    0.108758
  57 C :   -0.099504
  58 C :    0.304950
  59 C :   -0.026687
  60 C :   -0.007979
  61 F :   -0.185945
  62 C :   -0.089714
  63 C :    0.052326
  64 C :    0.264869
  65 C :   -0.273713
  66 C :   -0.216941
  67 N :    0.173229
  68 C :   -0.153690
  69 N :    0.141274
  70 H :    0.004783
  71 H :    0.009881
  72 H :   -0.004636
  73 H :    0.007550
  74 H :   -0.006186
  75 H :    0.038171
  76 H :    0.043903
  77 H :    0.034599
  78 H :    0.026219
  79 H :    0.031602
  80 H :    0.046158
  81 H :    0.036473
  82 H :    0.035952
  83 H :   -0.004611
  84 H :   -0.001593
  85 H :    0.008176
  86 H :   -0.003184
  87 H :   -0.006132
Sum of atomic charges:   -0.0000000

LOEWDIN ATOMIC CHARGES
----------------------
   0 C :   -0.038395
   1 C :    0.097718
   2 F :   -0.057416
   3 C :   -0.030569
   4 C :    0.007033
   5 C :   -0.016807
   6 C :    0.006855
   7 C :    0.019892
   8 C :   -0.019137
   9 C :   -0.065092
  10 C :    0.042447
  11 C :    0.086668
  12 O :   -0.128142
  13 C :   -0.047098
  14 C :    0.057381
  15 C :   -0.113016
  16 C :   -0.016347
  17 N :   -0.028940
  18 C :   -0.018394
  19 N :   -0.024577
  20 C :    0.039977
  21 C :    0.072451
  22 C :   -0.011109
  23 C :    0.055692
  24 C :   -0.160125
  25 C :   -0.030910
  26 N :   -0.053343
  27 C :   -0.027230
  28 N :   -0.063520
  29 C :   -0.034220
  30 C :    0.094040
  31 O :    0.006476
  32 C :   -0.076615
  33 C :    0.081430
  34 N :   -0.065125
  35 C :    0.029117
  36 N :   -0.056958
  37 C :    0.078369
  38 C :    0.066031
  39 C :   -0.004097
  40 C :    0.050065
  41 C :   -0.148923
  42 C :   -0.029481
  43 N :   -0.052336
  44 C :   -0.029102
  45 N :   -0.049165
  46 C :   -0.007275
  47 C :    0.072754
  48 O :    0.020361
  49 C :    0.041510
  50 C :   -0.047295
  51 C :    0.085475
  52 O :   -0.126538
  53 C :   -0.063512
  54 C :    0.041413
  55 C :   -0.017917
  56 C :    0.006398
  57 C :   -0.042785
  58 C :    0.096527
  59 C :   -0.033283
  60 C :    0.007639
  61 F :   -0.060508
  62 C :    0.009544
  63 C :   -0.014642
  64 C :    0.065576
  65 C :   -0.108295
  66 C :   -0.024769
  67 N :   -0.048276
  68 C :   -0.007887
  69 N :   -0.051542
  70 H :    0.046224
  71 H :    0.044609
  72 H :    0.037575
  73 H :    0.043343
  74 H :    0.042200
  75 H :    0.054465
  76 H :    0.049414
  77 H :    0.051255
  78 H :    0.031919
  79 H :    0.037381
  80 H :    0.056130
  81 H :    0.054637
  82 H :    0.057131
  83 H :    0.042374
  84 H :    0.043207
  85 H :    0.043996
  86 H :    0.037797
  87 H :    0.038219

  Mayer bond orders larger than 0.100000
B(  0-C ,  1-C ) :   1.4388 B(  0-C ,  6-C ) :   1.2059 B(  0-C , 70-H ) :   1.0062
B(  1-C ,  2-F ) :   1.0961 B(  1-C ,  3-C ) :   1.2520 B(  3-C ,  4-C ) :   1.4669
B(  3-C , 71-H ) :   0.9920 B(  4-C ,  5-C ) :   1.2291 B(  4-C , 72-H ) :   0.9972
B(  5-C ,  6-C ) :   1.2488 B(  5-C , 10-C ) :   1.2040 B(  6-C ,  7-C ) :   1.2096
B(  7-C ,  8-C ) :   1.4608 B(  7-C , 73-H ) :   0.9948 B(  8-C ,  9-C ) :   1.2136
B(  8-C , 14-C ) :   0.9986 B(  9-C , 10-C ) :   1.4570 B(  9-C , 11-C ) :   0.9293
B( 10-C , 74-H ) :   1.0151 B( 11-C , 12-O ) :   2.2808 B( 11-C , 13-C ) :   0.9133
B( 13-C , 14-C ) :   1.0036 B( 13-C , 20-C ) :   1.7550 B( 14-C , 15-C ) :   1.6902
B( 15-C , 16-C ) :   1.1647 B( 15-C , 18-C ) :   1.1233 B( 16-C , 17-N ) :   2.9799
B( 18-C , 19-N ) :   2.9969 B( 20-C , 21-C ) :   1.0269 B( 20-C , 75-H ) :   0.9320
B( 21-C , 22-C ) :   1.5751 B( 21-C , 31-O ) :   1.0947 B( 22-C , 23-C ) :   1.1416
B( 22-C , 76-H ) :   0.9544 B( 23-C , 24-C ) :   1.5764 B( 23-C , 29-C ) :   1.1267
B( 24-C , 25-C ) :   1.1241 B( 24-C , 27-C ) :   1.1342 B( 25-C , 26-N ) :   3.0105
B( 27-C , 28-N ) :   2.9944 B( 29-C , 30-C ) :   1.6049 B( 29-C , 77-H ) :   0.9616
B( 30-C , 31-O ) :   1.1356 B( 30-C , 32-C ) :   0.9900 B( 32-C , 33-C ) :   1.3307
B( 32-C , 37-C ) :   1.3360 B( 33-C , 34-N ) :   1.5230 B( 33-C , 78-H ) :   0.9791
B( 34-N , 35-C ) :   1.5617 B( 35-C , 36-N ) :   1.6074 B( 35-C , 38-C ) :   0.9391
B( 36-N , 37-C ) :   1.5700 B( 37-C , 79-H ) :   0.9854 B( 38-C , 39-C ) :   1.6333
B( 38-C , 48-O ) :   1.1287 B( 39-C , 40-C ) :   1.0719 B( 39-C , 80-H ) :   0.9651
B( 40-C , 41-C ) :   1.5715 B( 40-C , 46-C ) :   1.0973 B( 41-C , 42-C ) :   1.1320
B( 41-C , 44-C ) :   1.1313 B( 42-C , 43-N ) :   3.0107 B( 44-C , 45-N ) :   3.0134
B( 46-C , 47-C ) :   1.5606 B( 46-C , 81-H ) :   0.9764 B( 47-C , 48-O ) :   1.1048
B( 47-C , 49-C ) :   1.0514 B( 49-C , 50-C ) :   1.7073 B( 49-C , 82-H ) :   0.9508
B( 50-C , 51-C ) :   0.9135 B( 50-C , 64-C ) :   1.0006 B( 51-C , 52-O ) :   2.2850
B( 51-C , 53-C ) :   0.9280 B( 53-C , 54-C ) :   1.4645 B( 53-C , 63-C ) :   1.2117
B( 54-C , 55-C ) :   1.2019 B( 54-C , 83-H ) :   1.0149 B( 55-C , 56-C ) :   1.2494
B( 55-C , 60-C ) :   1.2321 B( 56-C , 57-C ) :   1.2027 B( 56-C , 62-C ) :   1.2077
B( 57-C , 58-C ) :   1.4430 B( 57-C , 84-H ) :   1.0056 B( 58-C , 59-C ) :   1.2514
B( 58-C , 61-F ) :   1.0937 B( 59-C , 60-C ) :   1.4655 B( 59-C , 85-H ) :   0.9924
B( 60-C , 86-H ) :   0.9968 B( 62-C , 63-C ) :   1.4588 B( 62-C , 87-H ) :   0.9939
B( 63-C , 64-C ) :   1.0065 B( 64-C , 65-C ) :   1.7039 B( 65-C , 66-C ) :   1.1567
B( 65-C , 68-C ) :   1.1351 B( 66-C , 67-N ) :   2.9999 B( 68-C , 69-N ) :   2.9313

-----------------------------------------------------------------------------
         ABSORPTION SPECTRUM VIA TRANSITION ELECTRIC DIPOLE MOMENTS
-----------------------------------------------------------------------------
State   Energy  Wavelength   fosc         T2         TX        TY        TZ
        (cm-1)    (nm)                  (au**2)     (au)      (au)      (au)
-----------------------------------------------------------------------------
   0   19889.7    502.8   0.115000768   1.90348  -1.09269   0.81213   0.22353
   1   21626.7    462.4   0.468707145   7.13488  -0.83188   2.20381   1.25940
   2   24566.4    407.1   0.021694720   0.29073  -0.22829  -0.48199   0.07937
   3   24736.5    404.3   0.008630757   0.11486   0.00146  -0.30449   0.14882
   4   25785.2    387.8   0.287225588   3.66715   1.00172   0.43891   1.57196
   5   26080.9    383.4   0.189392074   2.39065  -0.15597   1.21403   0.94470
   6   26451.7    378.0   0.163711030   2.03751  -0.95925   0.86397   0.60903
   7   27043.2    369.8   0.055797256   0.67925   0.45039   0.23349  -0.64953
   8   27947.9    357.8   0.007176036   0.08453  -0.03156  -0.28713  -0.03300
   9   28310.5    353.2   0.030220239   0.35142   0.38713  -0.28649  -0.34565
  10   28620.9    349.4   0.033507013   0.38541  -0.03133   0.07264   0.61576
  11   28960.5    345.3   0.150519202   1.71105  -1.28917   0.17329  -0.13806
  12   29573.9    338.1   0.183583815   2.04362  -0.95362   0.01410  -1.06491
  13   30153.5    331.6   0.061394106   0.67029  -0.14756  -0.79165  -0.14770
  14   30318.9    329.8   0.085085152   0.92388  -0.91238   0.00905  -0.30227
  15   30727.5    325.4   0.068765041   0.73674   0.43543   0.02490  -0.73927
  16   31530.2    317.2   0.502611076   5.24784   0.19949  -1.50282  -1.71743
  17   32227.7    310.3   0.252964078   2.58407  -1.03130   1.12820   0.49765
  18   32837.9    304.5   0.360782526   3.61697   0.39207   0.00179   1.86098
  19   33075.1    302.3   0.096518718   0.96069  -0.30853   0.49657  -0.78671
  20   33205.1    301.2   1.109906598  11.00418  -2.24353   1.57969   1.86423
  21   33796.2    295.9   0.066833001   0.65103  -0.28791   0.56556   0.49827
  22   34130.8    293.0   0.034573092   0.33348   0.36350  -0.42232  -0.15162
  23   34938.1    286.2   0.039882324   0.37580  -0.11369  -0.29886  -0.52302
  24   35089.1    285.0   0.024537267   0.23021  -0.37874   0.00795   0.29446
  25   35367.4    282.7   0.032351330   0.30114  -0.51822  -0.14180  -0.11168
  26   36021.6    277.6   0.197012631   1.80056  -0.56385   0.31253   1.17684
  27   36259.5    275.8   0.283369910   2.57281   1.48576  -0.27123   0.54015
  28   36524.7    273.8   0.205450475   1.85181   0.33022  -1.09881  -0.73170
  29   36828.9    271.5   0.027825040   0.24873  -0.25220   0.30222   0.30624
  30   37208.3    268.8   0.016468188   0.14571   0.15714  -0.27083   0.21833
  31   37262.6    268.4   0.136933060   1.20979  -1.08942  -0.12555  -0.08484
  32   37469.2    266.9   0.049233107   0.43257  -0.33587  -0.46227  -0.32568
  33   37665.4    265.5   0.051939397   0.45397   0.01507  -0.32175  -0.59179
  34   37723.9    265.1   0.073194944   0.63876  -0.60362  -0.25018   0.46023
  35   38010.3    263.1   0.236509078   2.04843  -0.77133  -0.29771  -1.16827
  36   38132.2    262.2   0.080192997   0.69234  -0.11999   0.68696   0.45391
  37   38527.2    259.6   0.112286393   0.95948   0.17607  -0.40501  -0.87432
  38   38711.2    258.3   0.010704958   0.09104   0.06130   0.29529   0.00920
  39   38897.3    257.1   0.049499864   0.41895  -0.22900   0.47265   0.37830
  40   39111.8    255.7   0.028287572   0.23810  -0.46565   0.12270   0.07886
  41   39232.4    254.9   0.067224414   0.56410   0.64379  -0.06461  -0.38139
  42   39505.7    253.1   0.038239136   0.31866  -0.44991   0.27394   0.20297
  43   40023.4    249.9   0.096400419   0.79294  -0.87430   0.07984  -0.14887

FINAL SINGLE POINT ENERGY     -3112.628245024860

DIPOLE MOMENT
-------------
                                X             Y             Z
Electronic contribution:     -9.46995      -0.56161       0.88429
Nuclear contribution   :     15.33161      -1.78938      -4.18666
                        -----------------------------------------
Total Dipole Moment    :      5.86166      -2.35100      -3.30237
                        -----------------------------------------
Magnitude (a.u.)       :      7.12685
Magnitude (Debye)      :     18.11500

Rotational constants in cm-1:     0.001372     0.000505     0.000392
Rotational constants in MHz :    41.138100    15.134483    11.752975

                             ****ORCA TERMINATED NORMALLY****
TOTAL RUN TIME: 0 days 0 hours 11 minutes 36 seconds 45 msec
