                         Program Version 4.2.0 -  RELEASE  -
|  1> # ORCA input file
|  2> # SCF done       -186.987553771196          0.000776787596
|  3> ! CAM-B3LYP def2-SVP def2/J RIJCOSX Grid4 TightSCF
|  4> %maxcore 5000
|  5> %tddft
|  6>     Mode sTDDFT
|  7>     Ethresh 5.0
|  8>     maxcore 5000
|  9> end
| 10>
| 11> %pal
| 12>   nprocs 6
| 13>   end
| 14> * xyz 0 1
| 15>    C        0.39040         3.25793        -2.98111
| 16>    C       -0.92076         3.63571        -2.89016
| 17>    F       -1.63806         3.80996        -4.01191
| 18>    C       -1.55729         3.85278        -1.65937
| 19>    C       -0.84464         3.68119        -0.50581
| 20>    C        0.51127         3.29365        -0.54108
| 21>    C        1.14165         3.08016        -1.80300
| 22>    C        2.50340         2.70571        -1.86552
| 23>    C        3.21336         2.55484        -0.70372
| 24>    C        2.57160         2.74855         0.55467
| 25>    C        1.25685         3.11104         0.64347
| 26>    C        3.52997         2.49087         1.63812
| 27>    O        3.37139         2.59871         2.82873
| 28>    C        4.77422         1.99419         0.95423
| 29>    C        4.61703         2.23229        -0.47338
| 30>    C        5.61472         2.35290        -1.39950
| 31>    C        6.98886         2.23233        -1.11201
| 32>    N        8.11810         2.15170        -0.92261
| 33>    C        5.39339         2.68501        -2.75537
| 34>    N        5.27350         2.94969        -3.86466
| 35>    C        5.71397         1.38818         1.70507
| 36>    C        6.85733         0.59629         1.30221
| 37>    C        8.04740         0.67280         2.03496
| 38>    F        8.10792         1.50128         3.08103
| 39>    C        9.17008        -0.05532         1.67874
| 40>    F       10.29385         0.10417         2.38634
| 41>    C        9.15710        -0.93132         0.58918
| 42>    C        7.95487        -1.04737        -0.11312
| 43>    C        6.83903        -0.30201         0.23051
| 44>    F        5.70972        -0.46106        -0.47464
| 45>    F        7.86374        -1.90735        -1.13445
| 46>    C       10.35469        -1.67107         0.19420
| 47>    C       11.19894        -2.29101         1.12319
| 48>    N       12.30287        -2.90556         0.76472
| 49>    C       12.59107        -2.95617        -0.53097
| 50>    N       11.84169        -2.43392        -1.49461
| 51>    C       10.75237        -1.79027        -1.14381
| 52>    C       13.84155        -3.62363        -0.91849
| 53>    C       14.38481        -4.65406        -0.14717
| 54>    F       13.75346        -5.09528         0.93859
| 55>    C       15.57719        -5.26623        -0.50351
| 56>    F       16.06740        -6.22842         0.29231
| 57>    C       16.29662        -4.88066        -1.63910
| 58>    C       15.75537        -3.83090        -2.39142
| 59>    C       14.55231        -3.22854        -2.05626
| 60>    F       14.11483        -2.22476        -2.81098
| 61>    F       16.41668        -3.41034        -3.47379
| 62>    C       17.58163        -5.43317        -2.00977
| 63>    C       18.08875        -6.67124        -1.84894
| 64>    C       19.57548        -6.84862        -2.00178
| 65>    O       20.33831        -6.05444        -2.49275
| 66>    C       19.87260        -8.14467        -1.37567
| 67>    C       21.08889        -8.71434        -1.12329
| 68>    C       21.14084        -9.96831        -0.47708
| 69>    C       19.92455       -10.60926        -0.09594
| 70>    C       19.98497       -11.85666         0.55571
| 71>    C       21.20330       -12.42518         0.80569
| 72>    C       22.40948       -11.81122         0.43818
| 73>    C       22.36999       -10.60011        -0.19424
| 74>    F       21.26317       -13.61523         1.42586
| 75>    C       18.67969        -9.99869        -0.37312
| 76>    C       18.65312        -8.78708        -1.01128
| 77>    C       17.53556        -7.95281        -1.43848
| 78>    C       16.24960        -8.37829        -1.61734
| 79>    C       15.24108        -7.58860        -2.20584
| 80>    N       14.40444        -6.96944        -2.68863
| 81>    C       15.80000        -9.67796        -1.29514
| 82>    N       15.38651       -10.71931        -1.05081
| 83>    H        0.84867         3.10334        -3.94542
| 84>    H       -2.59392         4.15024        -1.65053
| 85>    H       -1.31312         3.84237         0.45331
| 86>    H        2.94993         2.53833        -2.83261
| 87>    H        0.79383         3.25906         1.60753
| 88>    H        5.58236         1.49115         2.77911
| 89>    H       10.97932        -2.30006         2.18216
| 90>    H       10.18846        -1.34119        -1.94983
| 91>    H       18.26795        -4.71645        -2.45435
| 92>    H       21.99967        -8.21156        -1.41214
| 93>    H       19.07711       -12.35931         0.85051
| 94>    H       23.34029       -12.30750         0.66275
| 95>    H       23.28516       -10.10777        -0.48662
| 96>    H       17.77620       -10.49837        -0.06170
| 97> *
| 98>
| 99>                          ****END OF INPUT****

CARTESIAN COORDINATES (ANGSTROEM)
---------------------------------
  C      0.390400    3.257930   -2.981110
  C     -0.920760    3.635710   -2.890160
  F     -1.638060    3.809960   -4.011910
  C     -1.557290    3.852780   -1.659370
  C     -0.844640    3.681190   -0.505810
  C      0.511270    3.293650   -0.541080
  C      1.141650    3.080160   -1.803000
  C      2.503400    2.705710   -1.865520
  C      3.213360    2.554840   -0.703720
  C      2.571600    2.748550    0.554670
  C      1.256850    3.111040    0.643470
  C      3.529970    2.490870    1.638120
  O      3.371390    2.598710    2.828730
  C      4.774220    1.994190    0.954230
  C      4.617030    2.232290   -0.473380
  C      5.614720    2.352900   -1.399500
  C      6.988860    2.232330   -1.112010
  N      8.118100    2.151700   -0.922610
  C      5.393390    2.685010   -2.755370
  N      5.273500    2.949690   -3.864660
  C      5.713970    1.388180    1.705070
  C      6.857330    0.596290    1.302210
  C      8.047400    0.672800    2.034960
  F      8.107920    1.501280    3.081030
  C      9.170080   -0.055320    1.678740
  F     10.293850    0.104170    2.386340
  C      9.157100   -0.931320    0.589180
  C      7.954870   -1.047370   -0.113120
  C      6.839030   -0.302010    0.230510
  F      5.709720   -0.461060   -0.474640
  F      7.863740   -1.907350   -1.134450
  C     10.354690   -1.671070    0.194200
  C     11.198940   -2.291010    1.123190
  N     12.302870   -2.905560    0.764720
  C     12.591070   -2.956170   -0.530970
  N     11.841690   -2.433920   -1.494610
  C     10.752370   -1.790270   -1.143810
  C     13.841550   -3.623630   -0.918490
  C     14.384810   -4.654060   -0.147170
  F     13.753460   -5.095280    0.938590
  C     15.577190   -5.266230   -0.503510
  F     16.067400   -6.228420    0.292310
  C     16.296620   -4.880660   -1.639100
  C     15.755370   -3.830900   -2.391420
  C     14.552310   -3.228540   -2.056260
  F     14.114830   -2.224760   -2.810980
  F     16.416680   -3.410340   -3.473790
  C     17.581630   -5.433170   -2.009770
  C     18.088750   -6.671240   -1.848940
  C     19.575480   -6.848620   -2.001780
  O     20.338310   -6.054440   -2.492750
  C     19.872600   -8.144670   -1.375670
  C     21.088890   -8.714340   -1.123290
  C     21.140840   -9.968310   -0.477080
  C     19.924550  -10.609260   -0.095940
  C     19.984970  -11.856660    0.555710
  C     21.203300  -12.425180    0.805690
  C     22.409480  -11.811220    0.438180
  C     22.369990  -10.600110   -0.194240
  F     21.263170  -13.615230    1.425860
  C     18.679690   -9.998690   -0.373120
  C     18.653120   -8.787080   -1.011280
  C     17.535560   -7.952810   -1.438480
  C     16.249600   -8.378290   -1.617340
  C     15.241080   -7.588600   -2.205840
  N     14.404440   -6.969440   -2.688630
  C     15.800000   -9.677960   -1.295140
  N     15.386510  -10.719310   -1.050810
  H      0.848670    3.103340   -3.945420
  H     -2.593920    4.150240   -1.650530
  H     -1.313120    3.842370    0.453310
  H      2.949930    2.538330   -2.832610
  H      0.793830    3.259060    1.607530
  H      5.582360    1.491150    2.779110
  H     10.979320   -2.300060    2.182160
  H     10.188460   -1.341190   -1.949830
  H     18.267950   -4.716450   -2.454350
  H     21.999670   -8.211560   -1.412140
  H     19.077110  -12.359310    0.850510
  H     23.340290  -12.307500    0.662750
  H     23.285160  -10.107770   -0.486620
  H     17.776200  -10.498370   -0.061700

 Total Charge           Charge          ....    0
 Multiplicity           Mult            ....    1
 Number of Electrons    NEL             ....  462
 Basis Dimension        Dim             .... 1022

ORBITAL ENERGIES
----------------

  NO   OCC          E(Eh)            E(eV)
   0   2.0000     -24.820235      -675.3929
   1   2.0000     -24.814298      -675.2314
   2   2.0000     -24.813080      -675.1982
   3   2.0000     -24.812924      -675.1940
   4   2.0000     -24.810541      -675.1291
   5   2.0000     -24.803050      -674.9253
   6   2.0000     -24.794126      -674.6825
   7   2.0000     -24.793548      -674.6667
   8   2.0000     -24.793401      -674.6627
   9   2.0000     -24.789788      -674.5644
  10   2.0000     -19.228689      -523.2392
  11   2.0000     -19.222667      -523.0754
  12   2.0000     -14.431471      -392.7003
  13   2.0000     -14.428137      -392.6096
  14   2.0000     -14.422841      -392.4654
  15   2.0000     -14.422262      -392.4497
  16   2.0000     -14.421899      -392.4398
  17   2.0000     -14.421462      -392.4279
  18   2.0000     -10.396459      -282.9020
  19   2.0000     -10.394399      -282.8460
  20   2.0000     -10.393001      -282.8079
  21   2.0000     -10.392905      -282.8053
  22   2.0000     -10.384395      -282.5737
  23   2.0000     -10.382556      -282.5237
  24   2.0000     -10.382323      -282.5174
  25   2.0000     -10.381654      -282.4992
  26   2.0000     -10.378986      -282.4266
  27   2.0000     -10.378153      -282.4039
  28   2.0000     -10.373839      -282.2865
  29   2.0000     -10.372993      -282.2635
  30   2.0000     -10.364574      -282.0344
  31   2.0000     -10.359791      -281.9042
  32   2.0000     -10.354988      -281.7735
  33   2.0000     -10.352336      -281.7014
  34   2.0000     -10.347187      -281.5613
  35   2.0000     -10.336162      -281.2613
  36   2.0000     -10.335353      -281.2392
  37   2.0000     -10.334294      -281.2104
  38   2.0000     -10.332604      -281.1644
  39   2.0000     -10.332307      -281.1564
  40   2.0000     -10.331812      -281.1429
  41   2.0000     -10.329693      -281.0852
  42   2.0000     -10.326424      -280.9963
  43   2.0000     -10.323566      -280.9185
  44   2.0000     -10.323284      -280.9108
  45   2.0000     -10.323026      -280.9038
  46   2.0000     -10.317858      -280.7632
  47   2.0000     -10.317285      -280.7476
  48   2.0000     -10.316085      -280.7149
  49   2.0000     -10.315819      -280.7077
  50   2.0000     -10.315324      -280.6942
  51   2.0000     -10.311646      -280.5941
  52   2.0000     -10.311050      -280.5779
  53   2.0000     -10.311003      -280.5767
  54   2.0000     -10.310701      -280.5684
  55   2.0000     -10.310397      -280.5602
  56   2.0000     -10.308601      -280.5113
  57   2.0000     -10.306163      -280.4450
  58   2.0000     -10.306041      -280.4416
  59   2.0000     -10.305674      -280.4316
  60   2.0000     -10.303209      -280.3646
  61   2.0000     -10.302834      -280.3544
  62   2.0000     -10.301901      -280.3290
  63   2.0000     -10.301125      -280.3079
  64   2.0000     -10.298525      -280.2371
  65   2.0000     -10.297154      -280.1998
  66   2.0000     -10.295666      -280.1593
  67   2.0000     -10.292854      -280.0828
  68   2.0000      -1.340283       -36.4710
  69   2.0000      -1.337826       -36.4041
  70   2.0000      -1.329191       -36.1691
  71   2.0000      -1.324980       -36.0545
  72   2.0000      -1.323370       -36.0107
  73   2.0000      -1.321965       -35.9725
  74   2.0000      -1.309266       -35.6269
  75   2.0000      -1.308901       -35.6170
  76   2.0000      -1.307327       -35.5742
  77   2.0000      -1.305346       -35.5203
  78   2.0000      -1.145005       -31.1572
  79   2.0000      -1.139171       -30.9984
  80   2.0000      -1.100580       -29.9483
  81   2.0000      -1.032794       -28.1038
  82   2.0000      -1.025256       -27.8986
  83   2.0000      -1.013007       -27.5653
  84   2.0000      -1.009810       -27.4783
  85   2.0000      -1.006239       -27.3812
  86   2.0000      -1.003919       -27.3180
  87   2.0000      -1.001650       -27.2563
  88   2.0000      -0.992615       -27.0104
  89   2.0000      -0.992223       -26.9998
  90   2.0000      -0.986764       -26.8512
  91   2.0000      -0.980803       -26.6890
  92   2.0000      -0.947495       -25.7827
  93   2.0000      -0.937321       -25.5058
  94   2.0000      -0.933565       -25.4036
  95   2.0000      -0.922355       -25.0986
  96   2.0000      -0.911660       -24.8075
  97   2.0000      -0.900049       -24.4916
  98   2.0000      -0.896025       -24.3821
  99   2.0000      -0.891498       -24.2589
 100   2.0000      -0.886574       -24.1249
 101   2.0000      -0.867465       -23.6049
 102   2.0000      -0.865564       -23.5532
 103   2.0000      -0.854650       -23.2562
 104   2.0000      -0.849291       -23.1104
 105   2.0000      -0.843689       -22.9579
 106   2.0000      -0.839021       -22.8309
 107   2.0000      -0.818276       -22.2664
 108   2.0000      -0.803267       -21.8580
 109   2.0000      -0.783822       -21.3289
 110   2.0000      -0.773336       -21.0435
 111   2.0000      -0.768496       -20.9118
 112   2.0000      -0.766375       -20.8541
 113   2.0000      -0.756029       -20.5726
 114   2.0000      -0.745733       -20.2924
 115   2.0000      -0.736219       -20.0336
 116   2.0000      -0.732125       -19.9221
 117   2.0000      -0.728410       -19.8211
 118   2.0000      -0.725112       -19.7313
 119   2.0000      -0.719042       -19.5661
 120   2.0000      -0.713917       -19.4267
 121   2.0000      -0.703431       -19.1413
 122   2.0000      -0.695192       -18.9171
 123   2.0000      -0.694312       -18.8932
 124   2.0000      -0.687734       -18.7142
 125   2.0000      -0.684329       -18.6215
 126   2.0000      -0.676174       -18.3996
 127   2.0000      -0.670944       -18.2573
 128   2.0000      -0.669390       -18.2150
 129   2.0000      -0.663834       -18.0639
 130   2.0000      -0.654585       -17.8122
 131   2.0000      -0.649553       -17.6752
 132   2.0000      -0.642268       -17.4770
 133   2.0000      -0.639011       -17.3884
 134   2.0000      -0.634997       -17.2791
 135   2.0000      -0.634208       -17.2577
 136   2.0000      -0.632437       -17.2095
 137   2.0000      -0.628898       -17.1132
 138   2.0000      -0.624847       -17.0029
 139   2.0000      -0.620070       -16.8730
 140   2.0000      -0.617374       -16.7996
 141   2.0000      -0.615591       -16.7511
 142   2.0000      -0.607329       -16.5263
 143   2.0000      -0.603943       -16.4341
 144   2.0000      -0.601532       -16.3685
 145   2.0000      -0.594138       -16.1673
 146   2.0000      -0.591830       -16.1045
 147   2.0000      -0.588620       -16.0172
 148   2.0000      -0.585858       -15.9420
 149   2.0000      -0.581061       -15.8115
 150   2.0000      -0.580245       -15.7893
 151   2.0000      -0.579002       -15.7554
 152   2.0000      -0.576255       -15.6807
 153   2.0000      -0.570394       -15.5212
 154   2.0000      -0.568709       -15.4754
 155   2.0000      -0.566399       -15.4125
 156   2.0000      -0.562524       -15.3071
 157   2.0000      -0.562269       -15.3001
 158   2.0000      -0.559566       -15.2266
 159   2.0000      -0.557374       -15.1669
 160   2.0000      -0.556898       -15.1540
 161   2.0000      -0.553553       -15.0629
 162   2.0000      -0.552096       -15.0233
 163   2.0000      -0.546395       -14.8682
 164   2.0000      -0.545708       -14.8495
 165   2.0000      -0.541461       -14.7339
 166   2.0000      -0.539615       -14.6837
 167   2.0000      -0.535549       -14.5730
 168   2.0000      -0.534429       -14.5426
 169   2.0000      -0.532487       -14.4897
 170   2.0000      -0.528683       -14.3862
 171   2.0000      -0.527913       -14.3652
 172   2.0000      -0.526962       -14.3394
 173   2.0000      -0.524165       -14.2632
 174   2.0000      -0.520441       -14.1619
 175   2.0000      -0.518164       -14.1000
 176   2.0000      -0.515436       -14.0257
 177   2.0000      -0.512555       -13.9473
 178   2.0000      -0.507250       -13.8030
 179   2.0000      -0.506414       -13.7802
 180   2.0000      -0.503447       -13.6995
 181   2.0000      -0.499455       -13.5909
 182   2.0000      -0.498222       -13.5573
 183   2.0000      -0.494690       -13.4612
 184   2.0000      -0.493023       -13.4158
 185   2.0000      -0.490775       -13.3547
 186   2.0000      -0.487689       -13.2707
 187   2.0000      -0.484833       -13.1930
 188   2.0000      -0.480583       -13.0773
 189   2.0000      -0.477902       -13.0044
 190   2.0000      -0.473615       -12.8877
 191   2.0000      -0.471122       -12.8199
 192   2.0000      -0.467372       -12.7178
 193   2.0000      -0.466638       -12.6979
 194   2.0000      -0.464129       -12.6296
 195   2.0000      -0.463214       -12.6047
 196   2.0000      -0.462820       -12.5940
 197   2.0000      -0.458786       -12.4842
 198   2.0000      -0.455434       -12.3930
 199   2.0000      -0.453273       -12.3342
 200   2.0000      -0.447891       -12.1877
 201   2.0000      -0.446271       -12.1437
 202   2.0000      -0.441774       -12.0213
 203   2.0000      -0.441235       -12.0066
 204   2.0000      -0.438275       -11.9261
 205   2.0000      -0.434448       -11.8219
 206   2.0000      -0.433272       -11.7899
 207   2.0000      -0.432025       -11.7560
 208   2.0000      -0.427003       -11.6193
 209   2.0000      -0.424033       -11.5385
 210   2.0000      -0.417870       -11.3708
 211   2.0000      -0.413171       -11.2430
 212   2.0000      -0.405428       -11.0323
 213   2.0000      -0.403564       -10.9815
 214   2.0000      -0.392005       -10.6670
 215   2.0000      -0.387793       -10.5524
 216   2.0000      -0.386355       -10.5133
 217   2.0000      -0.384135       -10.4528
 218   2.0000      -0.372335       -10.1317
 219   2.0000      -0.358500        -9.7553
 220   2.0000      -0.348766        -9.4904
 221   2.0000      -0.342885        -9.3304
 222   2.0000      -0.333438        -9.0733
 223   2.0000      -0.332308        -9.0426
 224   2.0000      -0.326066        -8.8727
 225   2.0000      -0.321828        -8.7574
 226   2.0000      -0.321179        -8.7397
 227   2.0000      -0.313934        -8.5426
 228   2.0000      -0.308798        -8.4028
 229   2.0000      -0.304966        -8.2986
 230   2.0000      -0.300023        -8.1641
 231   0.0000      -0.104607        -2.8465
 232   0.0000      -0.096740        -2.6324
 233   0.0000      -0.067758        -1.8438
 234   0.0000      -0.061545        -1.6747
 235   0.0000      -0.047538        -1.2936

MULLIKEN ATOMIC CHARGES
-----------------------
   0 C :   -0.097579
   1 C :    0.304888
   2 F :   -0.185476
   3 C :   -0.025793
   4 C :   -0.008730
   5 C :    0.101269
   6 C :    0.102126
   7 C :   -0.080608
   8 C :    0.038290
   9 C :    0.010179
  10 C :   -0.073884
  11 C :    0.132442
  12 O :   -0.130086
  13 C :   -0.092488
  14 C :    0.289990
  15 C :   -0.320340
  16 C :   -0.192444
  17 N :    0.165287
  18 C :   -0.179839
  19 N :    0.166842
  20 C :    0.017906
  21 C :   -0.107334
  22 C :    0.211118
  23 F :   -0.155549
  24 C :    0.202165
  25 F :   -0.160815
  26 C :   -0.048839
  27 C :    0.202472
  28 C :    0.195469
  29 F :   -0.163713
  30 F :   -0.162180
  31 C :   -0.035123
  32 C :    0.059847
  33 N :   -0.038639
  34 C :   -0.100851
  35 N :   -0.031970
  36 C :    0.067984
  37 C :   -0.043013
  38 C :    0.229120
  39 F :   -0.145302
  40 C :    0.177699
  41 F :   -0.166684
  42 C :   -0.077777
  43 C :    0.187327
  44 C :    0.222536
  45 F :   -0.143558
  46 F :   -0.158002
  47 C :    0.021553
  48 C :   -0.099221
  49 C :    0.134065
  50 O :   -0.130926
  51 C :    0.007195
  52 C :   -0.073277
  53 C :    0.099584
  54 C :    0.102292
  55 C :   -0.096434
  56 C :    0.304298
  57 C :   -0.028446
  58 C :   -0.006907
  59 F :   -0.186497
  60 C :   -0.083317
  61 C :    0.043467
  62 C :    0.283130
  63 C :   -0.313625
  64 C :   -0.199783
  65 N :    0.171125
  66 C :   -0.177371
  67 N :    0.163241
  68 H :    0.001090
  69 H :    0.007611
  70 H :   -0.006462
  71 H :   -0.000371
  72 H :   -0.007758
  73 H :    0.045144
  74 H :    0.017260
  75 H :    0.023228
  76 H :    0.041813
  77 H :   -0.009276
  78 H :   -0.001365
  79 H :    0.005331
  80 H :   -0.007290
  81 H :   -0.001440
Sum of atomic charges:   -0.0000000

LOEWDIN ATOMIC CHARGES
----------------------
   0 C :   -0.040564
   1 C :    0.095394
   2 F :   -0.060149
   3 C :   -0.032908
   4 C :    0.006409
   5 C :   -0.017122
   6 C :    0.005348
   7 C :    0.015663
   8 C :   -0.017491
   9 C :   -0.062646
  10 C :    0.039989
  11 C :    0.086146
  12 O :   -0.129393
  13 C :   -0.064637
  14 C :    0.069277
  15 C :   -0.122744
  16 C :   -0.015004
  17 N :   -0.044583
  18 C :   -0.017952
  19 N :   -0.038228
  20 C :    0.068075
  21 C :   -0.079574
  22 C :    0.075733
  23 F :   -0.036481
  24 C :    0.066710
  25 F :   -0.037681
  26 C :   -0.050709
  27 C :    0.066205
  28 C :    0.068283
  29 F :   -0.037993
  30 F :   -0.038990
  31 C :   -0.065120
  32 C :    0.063552
  33 N :   -0.066403
  34 C :    0.036103
  35 N :   -0.062928
  36 C :    0.069622
  37 C :   -0.067226
  38 C :    0.076391
  39 F :   -0.027498
  40 C :    0.064534
  41 F :   -0.038384
  42 C :   -0.074964
  43 C :    0.070881
  44 C :    0.075531
  45 F :   -0.025606
  46 F :   -0.038626
  47 C :    0.068134
  48 C :   -0.066231
  49 C :    0.086267
  50 O :   -0.130224
  51 C :   -0.062454
  52 C :    0.039027
  53 C :   -0.017954
  54 C :    0.005157
  55 C :   -0.041163
  56 C :    0.094346
  57 C :   -0.034744
  58 C :    0.006171
  59 F :   -0.061424
  60 C :    0.014160
  61 C :   -0.016109
  62 C :    0.067510
  63 C :   -0.121935
  64 C :   -0.017847
  65 N :   -0.039490
  66 C :   -0.017298
  67 N :   -0.041806
  68 H :    0.044518
  69 H :    0.043624
  70 H :    0.037000
  71 H :    0.040545
  72 H :    0.041483
  73 H :    0.053724
  74 H :    0.029306
  75 H :    0.032350
  76 H :    0.052902
  77 H :    0.040900
  78 H :    0.043814
  79 H :    0.042757
  80 H :    0.036557
  81 H :    0.040186

  Mayer bond orders larger than 0.100000
B(  0-C ,  1-C ) :   1.4403 B(  0-C ,  6-C ) :   1.2013 B(  0-C , 68-H ) :   1.0075
B(  1-C ,  2-F ) :   1.0938 B(  1-C ,  3-C ) :   1.2518 B(  3-C ,  4-C ) :   1.4652
B(  3-C , 69-H ) :   0.9920 B(  4-C ,  5-C ) :   1.2284 B(  4-C , 70-H ) :   0.9981
B(  5-C ,  6-C ) :   1.2517 B(  5-C , 10-C ) :   1.1994 B(  6-C ,  7-C ) :   1.2095
B(  7-C ,  8-C ) :   1.4528 B(  7-C , 71-H ) :   0.9938 B(  8-C ,  9-C ) :   1.2146
B(  8-C , 14-C ) :   1.0055 B(  9-C , 10-C ) :   1.4596 B(  9-C , 11-C ) :   0.9287
B( 10-C , 72-H ) :   1.0164 B( 11-C , 12-O ) :   2.2791 B( 11-C , 13-C ) :   0.9185
B( 13-C , 14-C ) :   0.9993 B( 13-C , 20-C ) :   1.7828 B( 14-C , 15-C ) :   1.6793
B( 15-C , 16-C ) :   1.1686 B( 15-C , 18-C ) :   1.1261 B( 16-C , 17-N ) :   2.9979
B( 18-C , 19-N ) :   2.9902 B( 20-C , 21-C ) :   1.0132 B( 20-C , 73-H ) :   0.9311
B( 21-C , 22-C ) :   1.3094 B( 21-C , 26-C ) :   0.1311 B( 21-C , 28-C ) :   1.2957
B( 22-C , 23-F ) :   1.1954 B( 22-C , 24-C ) :   1.2977 B( 24-C , 25-F ) :   1.1662
B( 24-C , 26-C ) :   1.3231 B( 26-C , 27-C ) :   1.3426 B( 26-C , 31-C ) :   0.9589
B( 27-C , 28-C ) :   1.2941 B( 27-C , 30-F ) :   1.1704 B( 28-C , 29-F ) :   1.1493
B( 31-C , 32-C ) :   1.3467 B( 31-C , 36-C ) :   1.3508 B( 32-C , 33-N ) :   1.5673
B( 32-C , 74-H ) :   0.9906 B( 33-N , 34-C ) :   1.5786 B( 34-C , 35-N ) :   1.5803
B( 34-C , 37-C ) :   0.9314 B( 35-N , 36-C ) :   1.5658 B( 36-C , 75-H ) :   0.9889
B( 37-C , 38-C ) :   1.3334 B( 37-C , 42-C ) :   0.1275 B( 37-C , 44-C ) :   1.3117
B( 38-C , 39-F ) :   1.2036 B( 38-C , 40-C ) :   1.3023 B( 40-C , 41-F ) :   1.1378
B( 40-C , 42-C ) :   1.2940 B( 42-C , 43-C ) :   1.3060 B( 42-C , 47-C ) :   1.0320
B( 43-C , 44-C ) :   1.2980 B( 43-C , 46-F ) :   1.1881 B( 44-C , 45-F ) :   1.2018
B( 47-C , 48-C ) :   1.7702 B( 47-C , 76-H ) :   0.9284 B( 48-C , 49-C ) :   0.9184
B( 48-C , 62-C ) :   1.0030 B( 49-C , 50-O ) :   2.2754 B( 49-C , 51-C ) :   0.9271
B( 51-C , 52-C ) :   1.4620 B( 51-C , 61-C ) :   1.2156 B( 52-C , 53-C ) :   1.1968
B( 52-C , 77-H ) :   1.0160 B( 53-C , 54-C ) :   1.2537 B( 53-C , 58-C ) :   1.2309
B( 54-C , 55-C ) :   1.2005 B( 54-C , 60-C ) :   1.2085 B( 55-C , 56-C ) :   1.4416
B( 55-C , 78-H ) :   1.0071 B( 56-C , 57-C ) :   1.2517 B( 56-C , 59-F ) :   1.0933
B( 57-C , 58-C ) :   1.4635 B( 57-C , 79-H ) :   0.9930 B( 58-C , 80-H ) :   0.9976
B( 60-C , 61-C ) :   1.4545 B( 60-C , 81-H ) :   0.9946 B( 61-C , 62-C ) :   1.0027
B( 62-C , 63-C ) :   1.6849 B( 63-C , 64-C ) :   1.1640 B( 63-C , 66-C ) :   1.1286
B( 64-C , 65-N ) :   3.0037 B( 66-C , 67-N ) :   2.9908

-----------------------------------------------------------------------------
         ABSORPTION SPECTRUM VIA TRANSITION ELECTRIC DIPOLE MOMENTS
-----------------------------------------------------------------------------
State   Energy  Wavelength   fosc         T2         TX        TY        TZ
        (cm-1)    (nm)                  (au**2)     (au)      (au)      (au)
-----------------------------------------------------------------------------
   0   26753.9    373.8   0.162596439   2.00078   0.85220  -1.11365   0.18523
   1   27031.7    369.9   0.142379732   1.73401  -0.68605   1.12397   0.00642
   2   27528.8    363.3   0.864188672  10.33467  -2.57030   1.87698  -0.45295
   3   27798.4    359.7   0.026881324   0.31835  -0.23724  -0.28708   0.42386
   4   28401.6    352.1   0.123256442   1.42871   0.94934  -0.49581  -0.53068
   5   28699.2    348.4   0.186931337   2.14431   0.55900  -1.29622  -0.38942
   6   29187.1    342.6   0.027360133   0.30860  -0.24599  -0.24701  -0.43252
   7   29492.9    339.1   0.013343301   0.14894   0.24259  -0.29857  -0.03073
   8   30321.0    329.8   0.033157150   0.36001  -0.57349  -0.17094  -0.04354
   9   30386.0    329.1   0.060676031   0.65738  -0.64602   0.15703  -0.46409
  10   31108.3    321.5   0.012106691   0.12812   0.13389   0.29241  -0.15713
  11   33864.4    295.3   0.831762049   8.08596   2.77219  -0.63264   0.02569
  12   33991.3    294.2   0.529218871   5.12558   1.94901  -0.97086   0.61997
  13   34450.0    290.3   1.038072061   9.92006   2.90520  -1.20121   0.19228
  14   34836.4    287.1   0.076742653   0.72524  -0.32665  -0.77456   0.13637
  15   35217.9    283.9   0.404125805   3.77771  -1.59766   0.84467  -0.71533
  16   35920.5    278.4   0.060057491   0.55043  -0.14937  -0.13256   0.71452
  17   36005.4    277.7   0.033258175   0.30409  -0.06705  -0.04227  -0.54572
  18   36571.9    273.4   0.170369960   1.53363  -1.06419   0.61483   0.15203
  19   37251.3    268.4   0.007242340   0.06400   0.24626   0.05042   0.02858
  20   37385.3    267.5   0.003342730   0.02944   0.05108  -0.04123   0.15851
  21   37749.6    264.9   0.056756042   0.49497   0.69782  -0.04910  -0.07481
  22   37924.4    263.7   0.058411474   0.50706   0.19187  -0.49861   0.47077
  23   38314.3    261.0   0.119517924   1.02695   0.70247  -0.72668  -0.07353
  24   39020.6    256.3   0.119363031   1.00705   0.97176   0.15780  -0.19452
  25   39370.4    254.0   0.125255808   1.04738  -0.15933   0.22013   0.98668
  26   39569.7    252.7   0.076511730   0.63656   0.37357   0.51124  -0.48543
  27   39976.5    250.1   0.018043363   0.14859  -0.18652  -0.33305   0.05363

FINAL SINGLE POINT ENERGY     -3386.995973217411

DIPOLE MOMENT
-------------
                                X             Y             Z
Electronic contribution:      4.03004       4.65775       1.54293
Nuclear contribution   :     -4.94912      -4.33050       0.02879
                        -----------------------------------------
Total Dipole Moment    :     -0.91908       0.32725       1.57172
                        -----------------------------------------
Magnitude (a.u.)       :      1.84989
Magnitude (Debye)      :      4.70204

Rotational constants in cm-1:     0.003709     0.000251     0.000249
Rotational constants in MHz :   111.202657     7.520760     7.451589

                             ****ORCA TERMINATED NORMALLY****
TOTAL RUN TIME: 0 days 0 hours 6 minutes 57 seconds 476 msec
