                         Program Version 4.2.0 -  RELEASE  -
|  1> # ORCA input file
|  2> # SCF done       -217.793992148890          0.000988544276
|  3> ! CAM-B3LYP def2-SVP def2/J RIJCOSX Grid4 TightSCF
|  4> %maxcore 5000
|  5> %tddft
|  6>     Mode sTDDFT
|  7>     Ethresh 5.0
|  8>     maxcore 5000
|  9> end
| 10>
| 11> %pal
| 12>   nprocs 6
| 13>   end
| 14> * xyz 0 1
| 15>    C        0.49904        -0.78945        -5.85722
| 16>    C       -0.65237        -0.11999        -6.16484
| 17>    F       -1.81413        -0.79524        -6.22910
| 18>    C       -0.67574         1.25831        -6.41917
| 19>    C        0.49456         1.96203        -6.35806
| 20>    C        1.71169         1.32234        -6.04505
| 21>    C        1.71465        -0.08069        -5.79182
| 22>    C        2.92404        -0.74652        -5.48595
| 23>    C        4.08973        -0.03056        -5.43322
| 24>    C        4.07812         1.37491        -5.67055
| 25>    C        2.92569         2.04104        -5.97415
| 26>    C        5.44508         1.90914        -5.51584
| 27>    O        5.82655         3.04312        -5.69299
| 28>    C        6.25950         0.75961        -5.03038
| 29>    C        5.46675        -0.44668        -5.18667
| 30>    C        5.95249        -1.71803        -5.33145
| 31>    C        7.32806        -2.03071        -5.36771
| 32>    N        8.42924        -2.33276        -5.48364
| 33>    C        5.13705        -2.84482        -5.56126
| 34>    N        4.50715        -3.79052        -5.72376
| 35>    C        7.47308         0.97247        -4.46960
| 36>    C        8.23651         0.07398        -3.64151
| 37>    C        9.62989         0.11411        -3.70389
| 38>    C       10.34472        -0.78354        -2.93359
| 39>    C        9.69204        -1.68055        -2.04818
| 40>    C        8.30378        -1.66909        -1.95115
| 41>    C        7.59177        -0.81010        -2.75323
| 42>    C       10.72258        -2.44352        -1.42172
| 43>    C       11.95190        -1.97754        -1.95900
| 44>    N       11.70087        -0.97454        -2.86044
| 45>    C       12.65974        -0.25991        -3.65468
| 46>    C       13.15550        -2.53059        -1.55978
| 47>    C       13.14547        -3.56135        -0.62108
| 48>    C       11.92250        -4.01365        -0.08641
| 49>    C       10.72447        -3.46596        -0.47756
| 50>    C       14.38818        -4.16705        -0.20473
| 51>    C       14.58057        -5.32568         0.51373
| 52>    C       15.93626        -5.61244         0.71425
| 53>    C       16.78411        -4.65560         0.14544
| 54>    S       15.91882        -3.41296        -0.63700
| 55>    C       18.13216        -5.04176         0.38877
| 56>    C       18.12964        -6.24268         1.10723
| 57>    C       16.75048        -6.64202         1.34208
| 58>    C       16.31265        -7.74743         2.01118
| 59>    C       17.20272        -8.68345         2.57724
| 60>    N       17.92398        -9.44776         3.03657
| 61>    C       14.94086        -8.02422         2.18579
| 62>    N       13.82642        -8.25155         2.33302
| 63>    C       19.41926        -6.71089         1.38800
| 64>    C       20.39903        -5.87789         0.89730
| 65>    S       19.71130        -4.48451         0.07128
| 66>    C       21.83322        -6.02662         0.97595
| 67>    C       22.66037        -4.94220         0.68755
| 68>    C       24.03119        -5.11349         0.75742
| 69>    C       24.59514        -6.36539         1.11661
| 70>    C       23.75968        -7.44086         1.40363
| 71>    C       22.39799        -7.26708         1.33363
| 72>    C       26.01163        -6.19044         1.09148
| 73>    C       26.24012        -4.83547         0.73209
| 74>    N       25.03715        -4.21077         0.52433
| 75>    C       24.86897        -2.84615         0.11251
| 76>    C       27.52164        -4.32394         0.64916
| 77>    C       28.59476        -5.19456         0.84010
| 78>    C       28.36450        -6.54057         1.18663
| 79>    C       27.09067        -7.03487         1.33384
| 80>    C       29.93878        -4.68847         0.71673
| 81>    C       31.02959        -5.33809         0.24786
| 82>    C       32.39683        -4.82846         0.55026
| 83>    O       32.68208        -3.73987         0.99333
| 84>    C       33.30297        -5.95345         0.24831
| 85>    C       34.64755        -6.05366         0.46306
| 86>    C       35.31540        -7.24747         0.11074
| 87>    C       34.57077        -8.32350        -0.45518
| 88>    C       35.24270        -9.51244        -0.80055
| 89>    C       36.58990        -9.60740        -0.58949
| 90>    C       37.33970        -8.56079        -0.03504
| 91>    C       36.70339        -7.40045         0.30743
| 92>    F       37.23387       -10.74111        -0.92055
| 93>    C       33.17952        -8.19111        -0.67026
| 94>    C       32.55587        -7.02080        -0.32997
| 95>    C       31.16839        -6.59123        -0.47227
| 96>    C       30.25025        -7.13522        -1.32924
| 97>    C       29.01948        -6.52503        -1.65154
| 98>    N       28.04656        -6.03460        -2.01236
| 99>    C       30.47283        -8.31526        -2.06789
|100>    N       30.60349        -9.28504        -2.66790
|101>    H        0.48028        -1.85193        -5.67118
|102>    H       -1.61479         1.73228        -6.65704
|103>    H        0.50192         3.02444        -6.54997
|104>    H        2.89784        -1.80716        -5.29144
|105>    H        2.93991         3.10482        -6.15845
|106>    H        7.88960         1.96306        -4.62485
|107>    H       10.11968         0.79458        -4.38312
|108>    H        7.79760        -2.33010        -1.26458
|109>    H        6.51433        -0.77824        -2.68060
|110>    H       13.66340        -0.59435        -3.40567
|111>    H       12.58992         0.81357        -3.46209
|112>    H       12.48206        -0.43892        -4.71813
|113>    H       14.09591        -2.19036        -1.96817
|114>    H       11.92894        -4.79956         0.65102
|115>    H        9.79592        -3.82300        -0.05987
|116>    H       13.77831        -5.94858         0.86273
|117>    H       19.62545        -7.60960         1.93890
|118>    H       22.22488        -3.98907         0.42596
|119>    H       24.17688        -8.39847         1.67404
|120>    H       21.74649        -8.10021         1.54174
|121>    H       25.68798        -2.56066        -0.54668
|122>    H       24.85298        -2.17010         0.97294
|123>    H       23.93341        -2.74194        -0.43441
|124>    H       27.70811        -3.29270         0.39164
|125>    H       29.21406        -7.17905         1.38117
|126>    H       26.92734        -8.06154         1.62336
|127>    H       30.11843        -3.68589         1.09276
|128>    H       35.19616        -5.23062         0.89605
|129>    H       34.69781       -10.33705        -1.23292
|130>    H       38.40024        -8.69379         0.10863
|131>    H       37.25958        -6.58029         0.73588
|132>    H       32.63812        -9.02319        -1.09211
|133> *
|134>
|135>                          ****END OF INPUT****

CARTESIAN COORDINATES (ANGSTROEM)
---------------------------------
  C      0.499040   -0.789450   -5.857220
  C     -0.652370   -0.119990   -6.164840
  F     -1.814130   -0.795240   -6.229100
  C     -0.675740    1.258310   -6.419170
  C      0.494560    1.962030   -6.358060
  C      1.711690    1.322340   -6.045050
  C      1.714650   -0.080690   -5.791820
  C      2.924040   -0.746520   -5.485950
  C      4.089730   -0.030560   -5.433220
  C      4.078120    1.374910   -5.670550
  C      2.925690    2.041040   -5.974150
  C      5.445080    1.909140   -5.515840
  O      5.826550    3.043120   -5.692990
  C      6.259500    0.759610   -5.030380
  C      5.466750   -0.446680   -5.186670
  C      5.952490   -1.718030   -5.331450
  C      7.328060   -2.030710   -5.367710
  N      8.429240   -2.332760   -5.483640
  C      5.137050   -2.844820   -5.561260
  N      4.507150   -3.790520   -5.723760
  C      7.473080    0.972470   -4.469600
  C      8.236510    0.073980   -3.641510
  C      9.629890    0.114110   -3.703890
  C     10.344720   -0.783540   -2.933590
  C      9.692040   -1.680550   -2.048180
  C      8.303780   -1.669090   -1.951150
  C      7.591770   -0.810100   -2.753230
  C     10.722580   -2.443520   -1.421720
  C     11.951900   -1.977540   -1.959000
  N     11.700870   -0.974540   -2.860440
  C     12.659740   -0.259910   -3.654680
  C     13.155500   -2.530590   -1.559780
  C     13.145470   -3.561350   -0.621080
  C     11.922500   -4.013650   -0.086410
  C     10.724470   -3.465960   -0.477560
  C     14.388180   -4.167050   -0.204730
  C     14.580570   -5.325680    0.513730
  C     15.936260   -5.612440    0.714250
  C     16.784110   -4.655600    0.145440
  S     15.918820   -3.412960   -0.637000
  C     18.132160   -5.041760    0.388770
  C     18.129640   -6.242680    1.107230
  C     16.750480   -6.642020    1.342080
  C     16.312650   -7.747430    2.011180
  C     17.202720   -8.683450    2.577240
  N     17.923980   -9.447760    3.036570
  C     14.940860   -8.024220    2.185790
  N     13.826420   -8.251550    2.333020
  C     19.419260   -6.710890    1.388000
  C     20.399030   -5.877890    0.897300
  S     19.711300   -4.484510    0.071280
  C     21.833220   -6.026620    0.975950
  C     22.660370   -4.942200    0.687550
  C     24.031190   -5.113490    0.757420
  C     24.595140   -6.365390    1.116610
  C     23.759680   -7.440860    1.403630
  C     22.397990   -7.267080    1.333630
  C     26.011630   -6.190440    1.091480
  C     26.240120   -4.835470    0.732090
  N     25.037150   -4.210770    0.524330
  C     24.868970   -2.846150    0.112510
  C     27.521640   -4.323940    0.649160
  C     28.594760   -5.194560    0.840100
  C     28.364500   -6.540570    1.186630
  C     27.090670   -7.034870    1.333840
  C     29.938780   -4.688470    0.716730
  C     31.029590   -5.338090    0.247860
  C     32.396830   -4.828460    0.550260
  O     32.682080   -3.739870    0.993330
  C     33.302970   -5.953450    0.248310
  C     34.647550   -6.053660    0.463060
  C     35.315400   -7.247470    0.110740
  C     34.570770   -8.323500   -0.455180
  C     35.242700   -9.512440   -0.800550
  C     36.589900   -9.607400   -0.589490
  C     37.339700   -8.560790   -0.035040
  C     36.703390   -7.400450    0.307430
  F     37.233870  -10.741110   -0.920550
  C     33.179520   -8.191110   -0.670260
  C     32.555870   -7.020800   -0.329970
  C     31.168390   -6.591230   -0.472270
  C     30.250250   -7.135220   -1.329240
  C     29.019480   -6.525030   -1.651540
  N     28.046560   -6.034600   -2.012360
  C     30.472830   -8.315260   -2.067890
  N     30.603490   -9.285040   -2.667900
  H      0.480280   -1.851930   -5.671180
  H     -1.614790    1.732280   -6.657040
  H      0.501920    3.024440   -6.549970
  H      2.897840   -1.807160   -5.291440
  H      2.939910    3.104820   -6.158450
  H      7.889600    1.963060   -4.624850
  H     10.119680    0.794580   -4.383120
  H      7.797600   -2.330100   -1.264580
  H      6.514330   -0.778240   -2.680600
  H     13.663400   -0.594350   -3.405670
  H     12.589920    0.813570   -3.462090
  H     12.482060   -0.438920   -4.718130
  H     14.095910   -2.190360   -1.968170
  H     11.928940   -4.799560    0.651020
  H      9.795920   -3.823000   -0.059870
  H     13.778310   -5.948580    0.862730
  H     19.625450   -7.609600    1.938900
  H     22.224880   -3.989070    0.425960
  H     24.176880   -8.398470    1.674040
  H     21.746490   -8.100210    1.541740
  H     25.687980   -2.560660   -0.546680
  H     24.852980   -2.170100    0.972940
  H     23.933410   -2.741940   -0.434410
  H     27.708110   -3.292700    0.391640
  H     29.214060   -7.179050    1.381170
  H     26.927340   -8.061540    1.623360
  H     30.118430   -3.685890    1.092760
  H     35.196160   -5.230620    0.896050
  H     34.697810  -10.337050   -1.232920
  H     38.400240   -8.693790    0.108630
  H     37.259580   -6.580290    0.735880
  H     32.638120   -9.023190   -1.092110

 Total Charge           Charge          ....    0
 Multiplicity           Mult            ....    1
 Number of Electrons    NEL             ....  586
 Basis Dimension        Dim             .... 1372

ORBITAL ENERGIES
----------------

  NO   OCC          E(Eh)            E(eV)
   0   2.0000     -88.981993     -2421.3231
   1   2.0000     -88.981906     -2421.3208
   2   2.0000     -24.786284      -674.4691
   3   2.0000     -24.786079      -674.4635
   4   2.0000     -19.213924      -522.8375
   5   2.0000     -19.213605      -522.8288
   6   2.0000     -14.461574      -393.5194
   7   2.0000     -14.461541      -393.5185
   8   2.0000     -14.424906      -392.5217
   9   2.0000     -14.424794      -392.5186
  10   2.0000     -14.415628      -392.2692
  11   2.0000     -14.415270      -392.2594
  12   2.0000     -14.410822      -392.1384
  13   2.0000     -14.410383      -392.1264
  14   2.0000     -10.370219      -282.1880
  15   2.0000     -10.369911      -282.1796
  16   2.0000     -10.365344      -282.0554
  17   2.0000     -10.364994      -282.0458
  18   2.0000     -10.357838      -281.8511
  19   2.0000     -10.345689      -281.5205
  20   2.0000     -10.342842      -281.4430
  21   2.0000     -10.342543      -281.4349
  22   2.0000     -10.340437      -281.3776
  23   2.0000     -10.340111      -281.3687
  24   2.0000     -10.325580      -280.9733
  25   2.0000     -10.325429      -280.9692
  26   2.0000     -10.323927      -280.9283
  27   2.0000     -10.323742      -280.9233
  28   2.0000     -10.321436      -280.8605
  29   2.0000     -10.321173      -280.8534
  30   2.0000     -10.317960      -280.7660
  31   2.0000     -10.317592      -280.7559
  32   2.0000     -10.316027      -280.7134
  33   2.0000     -10.314944      -280.6839
  34   2.0000     -10.314666      -280.6763
  35   2.0000     -10.314572      -280.6738
  36   2.0000     -10.314066      -280.6600
  37   2.0000     -10.313890      -280.6552
  38   2.0000     -10.313666      -280.6491
  39   2.0000     -10.312993      -280.6308
  40   2.0000     -10.312715      -280.6232
  41   2.0000     -10.312480      -280.6168
  42   2.0000     -10.306847      -280.4636
  43   2.0000     -10.306571      -280.4561
  44   2.0000     -10.306556      -280.4556
  45   2.0000     -10.306220      -280.4465
  46   2.0000     -10.301906      -280.3291
  47   2.0000     -10.301611      -280.3211
  48   2.0000     -10.300559      -280.2925
  49   2.0000     -10.300309      -280.2857
  50   2.0000     -10.298729      -280.2427
  51   2.0000     -10.298435      -280.2347
  52   2.0000     -10.298394      -280.2336
  53   2.0000     -10.298131      -280.2264
  54   2.0000     -10.295323      -280.1500
  55   2.0000     -10.295169      -280.1458
  56   2.0000     -10.294947      -280.1397
  57   2.0000     -10.294890      -280.1382
  58   2.0000     -10.294733      -280.1339
  59   2.0000     -10.294699      -280.1330
  60   2.0000     -10.294206      -280.1196
  61   2.0000     -10.294144      -280.1179
  62   2.0000     -10.291232      -280.0387
  63   2.0000     -10.291154      -280.0365
  64   2.0000     -10.290417      -280.0165
  65   2.0000     -10.290232      -280.0114
  66   2.0000     -10.290221      -280.0111
  67   2.0000     -10.290089      -280.0075
  68   2.0000     -10.289570      -279.9934
  69   2.0000     -10.289320      -279.9866
  70   2.0000     -10.284187      -279.8470
  71   2.0000     -10.284059      -279.8435
  72   2.0000     -10.280191      -279.7382
  73   2.0000     -10.280149      -279.7371
  74   2.0000     -10.279477      -279.7188
  75   2.0000     -10.279424      -279.7174
  76   2.0000     -10.279071      -279.7078
  77   2.0000     -10.278686      -279.6973
  78   2.0000     -10.278248      -279.6853
  79   2.0000     -10.278176      -279.6834
  80   2.0000     -10.275304      -279.6052
  81   2.0000     -10.275098      -279.5996
  82   2.0000     -10.273903      -279.5671
  83   2.0000     -10.273600      -279.5589
  84   2.0000     -10.270960      -279.4870
  85   2.0000     -10.270550      -279.4759
  86   2.0000      -8.076415      -219.7704
  87   2.0000      -8.076338      -219.7683
  88   2.0000      -6.045580      -164.5086
  89   2.0000      -6.045561      -164.5081
  90   2.0000      -6.041470      -164.3968
  91   2.0000      -6.041420      -164.3954
  92   2.0000      -6.038911      -164.3271
  93   2.0000      -6.038862      -164.3258
  94   2.0000      -1.301258       -35.4090
  95   2.0000      -1.301028       -35.4028
  96   2.0000      -1.129004       -30.7218
  97   2.0000      -1.128658       -30.7123
  98   2.0000      -1.092761       -29.7355
  99   2.0000      -1.092729       -29.7347
 100   2.0000      -1.037068       -28.2200
 101   2.0000      -1.017835       -27.6967
 102   2.0000      -1.017460       -27.6865
 103   2.0000      -1.016215       -27.6526
 104   2.0000      -1.002553       -27.2808
 105   2.0000      -0.999962       -27.2103
 106   2.0000      -0.999601       -27.2005
 107   2.0000      -0.992537       -27.0083
 108   2.0000      -0.991918       -26.9915
 109   2.0000      -0.991471       -26.9793
 110   2.0000      -0.976638       -26.5757
 111   2.0000      -0.976304       -26.5666
 112   2.0000      -0.963776       -26.2257
 113   2.0000      -0.958244       -26.0751
 114   2.0000      -0.958097       -26.0712
 115   2.0000      -0.950728       -25.8706
 116   2.0000      -0.944510       -25.7014
 117   2.0000      -0.927318       -25.2336
 118   2.0000      -0.926948       -25.2235
 119   2.0000      -0.913391       -24.8546
 120   2.0000      -0.908041       -24.7091
 121   2.0000      -0.901052       -24.5189
 122   2.0000      -0.893959       -24.3259
 123   2.0000      -0.890075       -24.2202
 124   2.0000      -0.885729       -24.1019
 125   2.0000      -0.884467       -24.0676
 126   2.0000      -0.868750       -23.6399
 127   2.0000      -0.867906       -23.6169
 128   2.0000      -0.858014       -23.3477
 129   2.0000      -0.854101       -23.2413
 130   2.0000      -0.850348       -23.1391
 131   2.0000      -0.849646       -23.1200
 132   2.0000      -0.845160       -22.9980
 133   2.0000      -0.841653       -22.9025
 134   2.0000      -0.836914       -22.7736
 135   2.0000      -0.835048       -22.7228
 136   2.0000      -0.831431       -22.6244
 137   2.0000      -0.822658       -22.3857
 138   2.0000      -0.801535       -21.8109
 139   2.0000      -0.792999       -21.5786
 140   2.0000      -0.785904       -21.3855
 141   2.0000      -0.785403       -21.3719
 142   2.0000      -0.770675       -20.9711
 143   2.0000      -0.768983       -20.9251
 144   2.0000      -0.761345       -20.7172
 145   2.0000      -0.758804       -20.6481
 146   2.0000      -0.743324       -20.2269
 147   2.0000      -0.729614       -19.8538
 148   2.0000      -0.723647       -19.6914
 149   2.0000      -0.719520       -19.5791
 150   2.0000      -0.711037       -19.3483
 151   2.0000      -0.710925       -19.3453
 152   2.0000      -0.708156       -19.2699
 153   2.0000      -0.707806       -19.2604
 154   2.0000      -0.698713       -19.0130
 155   2.0000      -0.697765       -18.9871
 156   2.0000      -0.694111       -18.8877
 157   2.0000      -0.692636       -18.8476
 158   2.0000      -0.679171       -18.4812
 159   2.0000      -0.678518       -18.4634
 160   2.0000      -0.675410       -18.3788
 161   2.0000      -0.674348       -18.3499
 162   2.0000      -0.670402       -18.2426
 163   2.0000      -0.663274       -18.0486
 164   2.0000      -0.657730       -17.8977
 165   2.0000      -0.646217       -17.5844
 166   2.0000      -0.636489       -17.3197
 167   2.0000      -0.634678       -17.2705
 168   2.0000      -0.630099       -17.1459
 169   2.0000      -0.629418       -17.1273
 170   2.0000      -0.623971       -16.9791
 171   2.0000      -0.623055       -16.9542
 172   2.0000      -0.620392       -16.8817
 173   2.0000      -0.616918       -16.7872
 174   2.0000      -0.606542       -16.5049
 175   2.0000      -0.606386       -16.5006
 176   2.0000      -0.602226       -16.3874
 177   2.0000      -0.600280       -16.3345
 178   2.0000      -0.595432       -16.2025
 179   2.0000      -0.592276       -16.1167
 180   2.0000      -0.587644       -15.9906
 181   2.0000      -0.580465       -15.7953
 182   2.0000      -0.568359       -15.4658
 183   2.0000      -0.567984       -15.4556
 184   2.0000      -0.565879       -15.3984
 185   2.0000      -0.565686       -15.3931
 186   2.0000      -0.565539       -15.3891
 187   2.0000      -0.563509       -15.3339
 188   2.0000      -0.559006       -15.2113
 189   2.0000      -0.558652       -15.2017
 190   2.0000      -0.558260       -15.1910
 191   2.0000      -0.556912       -15.1543
 192   2.0000      -0.556539       -15.1442
 193   2.0000      -0.548924       -14.9370
 194   2.0000      -0.548358       -14.9216
 195   2.0000      -0.544748       -14.8234
 196   2.0000      -0.540142       -14.6980
 197   2.0000      -0.538943       -14.6654
 198   2.0000      -0.537599       -14.6288
 199   2.0000      -0.535810       -14.5801
 200   2.0000      -0.534661       -14.5489
 201   2.0000      -0.532366       -14.4864
 202   2.0000      -0.531249       -14.4560
 203   2.0000      -0.529347       -14.4043
 204   2.0000      -0.526876       -14.3370
 205   2.0000      -0.526709       -14.3325
 206   2.0000      -0.524465       -14.2714
 207   2.0000      -0.524091       -14.2612
 208   2.0000      -0.523837       -14.2543
 209   2.0000      -0.519074       -14.1247
 210   2.0000      -0.518795       -14.1171
 211   2.0000      -0.512295       -13.9402
 212   2.0000      -0.511969       -13.9314
 213   2.0000      -0.505899       -13.7662
 214   2.0000      -0.504044       -13.7157
 215   2.0000      -0.500141       -13.6095
 216   2.0000      -0.498965       -13.5775
 217   2.0000      -0.497569       -13.5395
 218   2.0000      -0.495876       -13.4935
 219   2.0000      -0.494445       -13.4545
 220   2.0000      -0.492006       -13.3882
 221   2.0000      -0.490564       -13.3489
 222   2.0000      -0.490140       -13.3374
 223   2.0000      -0.488147       -13.2832
 224   2.0000      -0.486238       -13.2312
 225   2.0000      -0.485779       -13.2187
 226   2.0000      -0.484155       -13.1745
 227   2.0000      -0.483047       -13.1444
 228   2.0000      -0.482587       -13.1319
 229   2.0000      -0.478549       -13.0220
 230   2.0000      -0.471484       -12.8297
 231   2.0000      -0.471163       -12.8210
 232   2.0000      -0.466838       -12.7033
 233   2.0000      -0.463861       -12.6223
 234   2.0000      -0.460481       -12.5303
 235   2.0000      -0.459052       -12.4914
 236   2.0000      -0.457527       -12.4499
 237   2.0000      -0.456890       -12.4326
 238   2.0000      -0.456551       -12.4234
 239   2.0000      -0.454084       -12.3563
 240   2.0000      -0.453467       -12.3395
 241   2.0000      -0.452245       -12.3062
 242   2.0000      -0.450070       -12.2470
 243   2.0000      -0.448318       -12.1994
 244   2.0000      -0.447382       -12.1739
 245   2.0000      -0.446094       -12.1388
 246   2.0000      -0.440974       -11.9995
 247   2.0000      -0.440465       -11.9857
 248   2.0000      -0.439428       -11.9574
 249   2.0000      -0.438138       -11.9224
 250   2.0000      -0.437332       -11.9004
 251   2.0000      -0.435384       -11.8474
 252   2.0000      -0.432875       -11.7791
 253   2.0000      -0.432760       -11.7760
 254   2.0000      -0.428050       -11.6478
 255   2.0000      -0.427469       -11.6320
 256   2.0000      -0.425543       -11.5796
 257   2.0000      -0.425137       -11.5686
 258   2.0000      -0.423987       -11.5373
 259   2.0000      -0.423689       -11.5292
 260   2.0000      -0.423277       -11.5180
 261   2.0000      -0.421081       -11.4582
 262   2.0000      -0.416925       -11.3451
 263   2.0000      -0.415966       -11.3190
 264   2.0000      -0.414736       -11.2855
 265   2.0000      -0.413557       -11.2535
 266   2.0000      -0.404011       -10.9937
 267   2.0000      -0.401790       -10.9333
 268   2.0000      -0.399857       -10.8807
 269   2.0000      -0.392822       -10.6892
 270   2.0000      -0.392674       -10.6852
 271   2.0000      -0.382066       -10.3965
 272   2.0000      -0.381287       -10.3753
 273   2.0000      -0.378875       -10.3097
 274   2.0000      -0.369880       -10.0650
 275   2.0000      -0.358217        -9.7476
 276   2.0000      -0.344931        -9.3861
 277   2.0000      -0.341729        -9.2989
 278   2.0000      -0.336011        -9.1433
 279   2.0000      -0.335598        -9.1321
 280   2.0000      -0.334983        -9.1153
 281   2.0000      -0.332691        -9.0530
 282   2.0000      -0.325406        -8.8547
 283   2.0000      -0.315506        -8.5854
 284   2.0000      -0.313821        -8.5395
 285   2.0000      -0.311813        -8.4849
 286   2.0000      -0.301162        -8.1950
 287   2.0000      -0.298331        -8.1180
 288   2.0000      -0.291069        -7.9204
 289   2.0000      -0.274174        -7.4607
 290   2.0000      -0.274051        -7.4573
 291   2.0000      -0.270515        -7.3611
 292   2.0000      -0.241805        -6.5798
 293   0.0000      -0.098257        -2.6737
 294   0.0000      -0.088669        -2.4128
 295   0.0000      -0.088412        -2.4058
 296   0.0000      -0.054723        -1.4891
 297   0.0000      -0.053879        -1.4661

MULLIKEN ATOMIC CHARGES
-----------------------
   0 C :   -0.098784
   1 C :    0.304159
   2 F :   -0.190042
   3 C :   -0.029527
   4 C :   -0.009829
   5 C :    0.099949
   6 C :    0.101462
   7 C :   -0.086501
   8 C :    0.041574
   9 C :    0.012297
  10 C :   -0.082344
  11 C :    0.138199
  12 O :   -0.142973
  13 C :   -0.115420
  14 C :    0.253156
  15 C :   -0.325272
  16 C :   -0.188254
  17 N :    0.174659
  18 C :   -0.182883
  19 N :    0.154929
  20 C :    0.030000
  21 C :    0.044073
  22 C :   -0.115032
  23 C :    0.178524
  24 C :    0.080732
  25 C :   -0.041797
  26 C :    0.018600
  27 C :    0.051875
  28 C :    0.172925
  29 N :   -0.185043
  30 C :    0.124282
  31 C :   -0.180301
  32 C :    0.159206
  33 C :   -0.044445
  34 C :   -0.027556
  35 C :   -0.077040
  36 C :   -0.036077
  37 C :    0.005118
  38 C :   -0.093316
  39 S :    0.150936
  40 C :   -0.095144
  41 C :    0.005438
  42 C :    0.303361
  43 C :   -0.301872
  44 C :   -0.187390
  45 N :    0.168559
  46 C :   -0.184086
  47 N :    0.166096
  48 C :   -0.036211
  49 C :   -0.075963
  50 S :    0.155952
  51 C :    0.150704
  52 C :   -0.172706
  53 C :    0.176761
  54 C :    0.050991
  55 C :   -0.028265
  56 C :   -0.035528
  57 C :    0.072861
  58 C :    0.186154
  59 N :   -0.192076
  60 C :    0.122947
  61 C :   -0.111795
  62 C :    0.038125
  63 C :    0.020566
  64 C :   -0.041727
  65 C :    0.035265
  66 C :   -0.118451
  67 C :    0.137168
  68 O :   -0.141724
  69 C :    0.011142
  70 C :   -0.083265
  71 C :    0.101413
  72 C :    0.103037
  73 C :   -0.097194
  74 C :    0.302861
  75 C :   -0.030940
  76 C :   -0.009213
  77 F :   -0.190045
  78 C :   -0.087469
  79 C :    0.040901
  80 C :    0.258325
  81 C :   -0.325318
  82 C :   -0.187918
  83 N :    0.175240
  84 C :   -0.184051
  85 N :    0.151651
  86 H :   -0.001053
  87 H :    0.003761
  88 H :   -0.007872
  89 H :   -0.004348
  90 H :   -0.010879
  91 H :    0.023487
  92 H :   -0.039537
  93 H :   -0.026555
  94 H :   -0.012546
  95 H :    0.036424
  96 H :    0.038884
  97 H :    0.048176
  98 H :   -0.033514
  99 H :   -0.020115
 100 H :   -0.026932
 101 H :    0.005055
 102 H :    0.004870
 103 H :   -0.037166
 104 H :   -0.027204
 105 H :   -0.021340
 106 H :    0.046405
 107 H :    0.039362
 108 H :    0.039767
 109 H :   -0.040625
 110 H :   -0.014071
 111 H :   -0.026986
 112 H :    0.024278
 113 H :   -0.011250
 114 H :   -0.001141
 115 H :    0.005015
 116 H :   -0.008818
 117 H :   -0.004915
Sum of atomic charges:   -0.0000000

LOEWDIN ATOMIC CHARGES
----------------------
   0 C :   -0.042142
   1 C :    0.093462
   2 F :   -0.064527
   3 C :   -0.036619
   4 C :    0.004618
   5 C :   -0.018615
   6 C :    0.003506
   7 C :    0.010817
   8 C :   -0.017758
   9 C :   -0.059995
  10 C :    0.034523
  11 C :    0.083442
  12 O :   -0.144240
  13 C :   -0.091890
  14 C :    0.066325
  15 C :   -0.129707
  16 C :   -0.016902
  17 N :   -0.044074
  18 C :   -0.018531
  19 N :   -0.051173
  20 C :    0.085086
  21 C :   -0.039762
  22 C :   -0.026921
  23 C :    0.036203
  24 C :   -0.022333
  25 C :   -0.004770
  26 C :   -0.025115
  27 C :   -0.045332
  28 C :    0.041014
  29 N :    0.017831
  30 C :    0.037949
  31 C :   -0.068820
  32 C :   -0.028476
  33 C :   -0.034857
  34 C :    0.001625
  35 C :   -0.151533
  36 C :   -0.031254
  37 C :   -0.072810
  38 C :   -0.182316
  39 S :    0.469079
  40 C :   -0.182565
  41 C :   -0.072812
  42 C :    0.085327
  43 C :   -0.105844
  44 C :   -0.015840
  45 N :   -0.036777
  46 C :   -0.015669
  47 N :   -0.036785
  48 C :   -0.031724
  49 C :   -0.151583
  50 S :    0.470136
  51 C :   -0.029017
  52 C :   -0.068686
  53 C :    0.040027
  54 C :   -0.044160
  55 C :    0.001248
  56 C :   -0.033865
  57 C :   -0.023941
  58 C :    0.038121
  59 N :    0.018082
  60 C :    0.038328
  61 C :   -0.027448
  62 C :   -0.039939
  63 C :   -0.026538
  64 C :   -0.004565
  65 C :    0.085963
  66 C :   -0.091916
  67 C :    0.083157
  68 O :   -0.143741
  69 C :   -0.060167
  70 C :    0.034625
  71 C :   -0.018507
  72 C :    0.003520
  73 C :   -0.042089
  74 C :    0.093408
  75 C :   -0.036631
  76 C :    0.004759
  77 F :   -0.064458
  78 C :    0.011058
  79 C :   -0.017953
  80 C :    0.066839
  81 C :   -0.129656
  82 C :   -0.016523
  83 N :   -0.044866
  84 C :   -0.018346
  85 N :   -0.051578
  86 H :    0.043465
  87 H :    0.041995
  88 H :    0.035947
  89 H :    0.039184
  90 H :    0.039806
  91 H :    0.045868
  92 H :    0.029006
  93 H :    0.031777
  94 H :    0.027918
  95 H :    0.034651
  96 H :    0.029999
  97 H :    0.033864
  98 H :    0.013539
  99 H :    0.029537
 100 H :    0.032134
 101 H :    0.038850
 102 H :    0.038864
 103 H :    0.014395
 104 H :    0.032024
 105 H :    0.029508
 106 H :    0.036051
 107 H :    0.027997
 108 H :    0.034087
 109 H :    0.028113
 110 H :    0.027663
 111 H :    0.031724
 112 H :    0.046103
 113 H :    0.039772
 114 H :    0.043487
 115 H :    0.042245
 116 H :    0.035844
 117 H :    0.039165

  Mayer bond orders larger than 0.100000
B(  0-C ,  1-C ) :   1.4432 B(  0-C ,  6-C ) :   1.2026 B(  0-C , 86-H ) :   1.0060
B(  1-C ,  2-F ) :   1.0891 B(  1-C ,  3-C ) :   1.2523 B(  3-C ,  4-C ) :   1.4626
B(  3-C , 87-H ) :   0.9932 B(  4-C ,  5-C ) :   1.2337 B(  4-C , 88-H ) :   0.9968
B(  5-C ,  6-C ) :   1.2524 B(  5-C , 10-C ) :   1.1957 B(  6-C ,  7-C ) :   1.2056
B(  7-C ,  8-C ) :   1.4603 B(  7-C , 89-H ) :   0.9947 B(  8-C ,  9-C ) :   1.2172
B(  8-C , 14-C ) :   1.0000 B(  9-C , 10-C ) :   1.4683 B(  9-C , 11-C ) :   0.9181
B( 10-C , 90-H ) :   1.0149 B( 11-C , 12-O ) :   2.2759 B( 11-C , 13-C ) :   0.9328
B( 13-C , 14-C ) :   1.0183 B( 13-C , 20-C ) :   1.7060 B( 14-C , 15-C ) :   1.6784
B( 15-C , 16-C ) :   1.1534 B( 15-C , 18-C ) :   1.1345 B( 16-C , 17-N ) :   3.0089
B( 18-C , 19-N ) :   2.9867 B( 20-C , 21-C ) :   1.0371 B( 20-C , 91-H ) :   0.9468
B( 21-C , 22-C ) :   1.3182 B( 21-C , 26-C ) :   1.3078 B( 22-C , 23-C ) :   1.2925
B( 22-C , 92-H ) :   1.0124 B( 23-C , 24-C ) :   1.2763 B( 23-C , 29-N ) :   1.1273
B( 24-C , 25-C ) :   1.3150 B( 24-C , 27-C ) :   1.1084 B( 25-C , 26-C ) :   1.4275
B( 25-C , 93-H ) :   0.9975 B( 26-C , 94-H ) :   0.9836 B( 27-C , 28-C ) :   1.2870
B( 27-C , 34-C ) :   1.3091 B( 28-C , 29-N ) :   1.1298 B( 28-C , 31-C ) :   1.3167
B( 29-N , 30-C ) :   0.9777 B( 30-C , 95-H ) :   0.9709 B( 30-C , 96-H ) :   0.9685
B( 30-C , 97-H ) :   0.9697 B( 31-C , 32-C ) :   1.3383 B( 31-C , 98-H ) :   0.9842
B( 32-C , 33-C ) :   1.3095 B( 32-C , 35-C ) :   1.0573 B( 33-C , 34-C ) :   1.4318
B( 33-C , 99-H ) :   0.9900 B( 34-C ,100-H ) :   0.9969 B( 35-C , 36-C ) :   1.5073
B( 35-C , 39-S ) :   1.1034 B( 36-C , 37-C ) :   1.2630 B( 36-C ,101-H ) :   0.9907
B( 37-C , 38-C ) :   1.4645 B( 37-C , 42-C ) :   0.9985 B( 38-C , 39-S ) :   1.1205
B( 38-C , 40-C ) :   1.1630 B( 40-C , 41-C ) :   1.4627 B( 40-C , 50-S ) :   1.1209
B( 41-C , 42-C ) :   0.9988 B( 41-C , 48-C ) :   1.2627 B( 42-C , 43-C ) :   1.7066
B( 43-C , 44-C ) :   1.1341 B( 43-C , 46-C ) :   1.1326 B( 44-C , 45-N ) :   2.9899
B( 46-C , 47-N ) :   2.9890 B( 48-C , 49-C ) :   1.5083 B( 48-C ,102-H ) :   0.9912
B( 49-C , 50-S ) :   1.1043 B( 49-C , 51-C ) :   1.0523 B( 51-C , 52-C ) :   1.3320
B( 51-C , 56-C ) :   1.3149 B( 52-C , 53-C ) :   1.3150 B( 52-C ,103-H ) :   0.9863
B( 53-C , 54-C ) :   1.2872 B( 53-C , 59-N ) :   1.1303 B( 54-C , 55-C ) :   1.3120
B( 54-C , 57-C ) :   1.1082 B( 55-C , 56-C ) :   1.4302 B( 55-C ,104-H ) :   0.9958
B( 56-C ,105-H ) :   0.9884 B( 57-C , 58-C ) :   1.2735 B( 57-C , 64-C ) :   1.3180
B( 58-C , 59-N ) :   1.1257 B( 58-C , 61-C ) :   1.2917 B( 59-N , 60-C ) :   0.9779
B( 60-C ,106-H ) :   0.9668 B( 60-C ,107-H ) :   0.9742 B( 60-C ,108-H ) :   0.9675
B( 61-C , 62-C ) :   1.3250 B( 61-C ,109-H ) :   1.0095 B( 62-C , 63-C ) :   1.3074
B( 62-C , 65-C ) :   1.0330 B( 63-C , 64-C ) :   1.4253 B( 63-C ,110-H ) :   0.9848
B( 64-C ,111-H ) :   0.9974 B( 65-C , 66-C ) :   1.7121 B( 65-C ,112-H ) :   0.9456
B( 66-C , 67-C ) :   0.9312 B( 66-C , 80-C ) :   1.0190 B( 67-C , 68-O ) :   2.2787
B( 67-C , 69-C ) :   0.9177 B( 69-C , 70-C ) :   1.4683 B( 69-C , 79-C ) :   1.2190
B( 70-C , 71-C ) :   1.1931 B( 70-C ,113-H ) :   1.0150 B( 71-C , 72-C ) :   1.2552
B( 71-C , 76-C ) :   1.2345 B( 72-C , 73-C ) :   1.1999 B( 72-C , 78-C ) :   1.2066
B( 73-C , 74-C ) :   1.4427 B( 73-C ,114-H ) :   1.0060 B( 74-C , 75-C ) :   1.2538
B( 74-C , 77-F ) :   1.0891 B( 75-C , 76-C ) :   1.4621 B( 75-C ,115-H ) :   0.9931
B( 76-C ,116-H ) :   0.9965 B( 78-C , 79-C ) :   1.4575 B( 78-C ,117-H ) :   0.9947
B( 79-C , 80-C ) :   0.9998 B( 80-C , 81-C ) :   1.6751 B( 81-C , 82-C ) :   1.1528
B( 81-C , 84-C ) :   1.1366 B( 82-C , 83-N ) :   3.0079 B( 84-C , 85-N ) :   2.9844

-----------------------------------------------------------------------------
         ABSORPTION SPECTRUM VIA TRANSITION ELECTRIC DIPOLE MOMENTS
-----------------------------------------------------------------------------
State   Energy  Wavelength   fosc         T2         TX        TY        TZ
        (cm-1)    (nm)                  (au**2)     (au)      (au)      (au)
-----------------------------------------------------------------------------
   0   12682.4    788.5   0.162783047   4.22555  -1.95184   0.51894  -0.38284
   1   20556.6    486.5   1.309819581  20.97661  -4.39534   0.95458  -0.86392
   2   20984.4    476.5   0.187881948   2.94758   0.60121   0.21330  -1.59393
   3   23426.2    426.9   0.117030388   1.64464  -1.16124   0.53933  -0.07272
   4   23469.1    426.1   0.023370538   0.32783   0.52757   0.21995  -0.03346
   5   23926.7    417.9   0.002873587   0.03954   0.07163   0.12268  -0.13913
   6   25267.5    395.8   0.000829611   0.01081  -0.07859  -0.05194  -0.04399
   7   25337.6    394.7   0.000396096   0.00515   0.03160  -0.06376  -0.00908
   8   27399.2    365.0   0.889692061  10.69001   3.02476  -0.96389   0.78216
   9   27978.1    357.4   0.058160994   0.68437  -0.01737  -0.59676  -0.57267
  10   28206.9    354.5   0.409469436   4.77905   2.09499  -0.47304   0.40778
  11   28562.3    350.1   0.052560363   0.60582  -0.29178  -0.70552  -0.15141
  12   28659.9    348.9   0.277891097   3.19210   1.73123  -0.40445   0.17712
  13   29210.1    342.3   0.066502363   0.74951  -0.31665  -0.31024   0.74364
  14   29410.3    340.0   0.004171239   0.04669  -0.03737  -0.15988   0.14048
  15   30029.0    333.0   0.869609457   9.53364   2.90765  -0.83219   0.62181
  16   30411.3    328.8   0.239749869   2.59537   0.51930   1.41404  -0.57113
  17   31103.5    321.5   0.146728450   1.55303  -1.18613   0.35554  -0.14037
  18   31467.6    317.8   0.157845698   1.65137  -0.42149  -1.04811   0.61253
  19   31892.9    313.5   0.164033606   1.69322  -1.18114  -0.45035   0.30871
  20   31928.7    313.2   0.502981625   5.18616   0.36103   1.91159  -1.18391
  21   32447.2    308.2   0.101401200   1.02883  -0.58099  -0.71294   0.42778
  22   32554.5    307.2   0.057234203   0.57879   0.37195  -0.40832   0.52318
  23   33822.2    295.7   0.533854433   5.19632  -2.11734   0.68696  -0.49120
  24   34051.1    293.7   0.037224218   0.35989  -0.21456  -0.54391   0.13423
  25   34232.8    292.1   0.087313449   0.83968   0.77302  -0.31631   0.37691
  26   34390.9    290.8   0.084562971   0.80949   0.00546  -0.69154  -0.57553
  27   34728.0    288.0   0.003106290   0.02945  -0.13157   0.10710  -0.02578
  28   34783.7    287.5   0.004743253   0.04489   0.17196   0.11773  -0.03827
  29   34999.9    285.7   0.008089777   0.07609   0.03237   0.25584   0.09795
  30   35060.8    285.2   0.018845546   0.17695   0.40685   0.10466  -0.02176
  31   35584.6    281.0   0.006343093   0.05868   0.08765   0.19804  -0.10854
  32   35901.5    278.5   1.719536374  15.76792  -3.73473   1.21127  -0.59377
  33   35992.3    277.8   0.111346870   1.01846   1.00339  -0.03120   0.10346
  34   36040.5    277.5   0.093029166   0.84977  -0.89923  -0.11948   0.16397
  35   36207.1    276.2   0.106485610   0.96822  -0.69804   0.50676  -0.47344
  36   36749.3    272.1   0.022680192   0.20318   0.03390  -0.20875   0.39806
  37   36941.6    270.7   0.005246972   0.04676  -0.20179   0.07772  -0.00135
  38   37038.8    270.0   0.062009515   0.55116  -0.69301   0.26564  -0.01796
  39   37431.4    267.2   0.002688923   0.02365  -0.11024  -0.02429   0.10444
  40   37496.3    266.7   0.003122033   0.02741   0.09873  -0.09655   0.09133
  41   37903.8    263.8   0.004780390   0.04152   0.01489   0.13714   0.14997
  42   38662.5    258.6   0.034633738   0.29491  -0.47064   0.27030  -0.01854
  43   38759.9    258.0   0.001340052   0.01138   0.03767  -0.06730   0.07371
  44   39229.3    254.9   0.021599135   0.18126   0.37481  -0.18125   0.08903
  45   39355.6    254.1   0.012233671   0.10234  -0.29962  -0.09617   0.05758
  46   39476.8    253.3   0.007316786   0.06102   0.11953  -0.21608   0.00636
  47   39524.2    253.0   0.099018727   0.82476  -0.83578   0.27900  -0.22000
  48   39743.4    251.6   0.049300037   0.40837  -0.23498  -0.59085  -0.06367
  49   39919.4    250.5   0.006357782   0.05243   0.14518  -0.07894  -0.15851
  50   40193.2    248.8   0.122062229   0.99978   0.25122   0.89212   0.37522

FINAL SINGLE POINT ENERGY     -4342.696951885509

DIPOLE MOMENT
-------------
                                X             Y             Z
Electronic contribution:     -5.19082     -18.85729      -4.39000
Nuclear contribution   :      6.30409      22.68856       5.14640
                        -----------------------------------------
Total Dipole Moment    :      1.11327       3.83128       0.75640
                        -----------------------------------------
Magnitude (a.u.)       :      4.06081
Magnitude (Debye)      :     10.32176

Rotational constants in cm-1:     0.002068     0.000105     0.000103
Rotational constants in MHz :    61.999951     3.161564     3.088164

                             ****ORCA TERMINATED NORMALLY****
TOTAL RUN TIME: 0 days 0 hours 12 minutes 33 seconds 241 msec
