                         Program Version 4.2.0 -  RELEASE  -
|  1> # ORCA input file
|  2> # SCF done       -196.079354480515          0.000542674697
|  3> ! CAM-B3LYP def2-SVP def2/J RIJCOSX Grid4 TightSCF
|  4> %maxcore 5000
|  5> %tddft
|  6>     Mode sTDDFT
|  7>     Ethresh 5.0
|  8>     maxcore 5000
|  9> end
| 10>
| 11> %pal
| 12>   nprocs 6
| 13>   end
| 14> * xyz 0 1
| 15>    C       11.24689         5.79157        -7.29098
| 16>    C       10.76874         6.77885        -8.10635
| 17>    F       11.07656         6.76261        -9.41673
| 18>    C        9.96072         7.82074        -7.63138
| 19>    C        9.63710         7.85343        -6.30353
| 20>    C       10.10267         6.86072        -5.41730
| 21>    C       10.92506         5.81056        -5.91973
| 22>    C       11.41390         4.81001        -5.04799
| 23>    C       11.08654         4.85808        -3.71960
| 24>    C       10.25160         5.90221        -3.22579
| 25>    C        9.77212         6.88374        -4.04369
| 26>    C       10.02850         5.70903        -1.77743
| 27>    O        9.40443         6.42110        -1.02426
| 28>    C       10.68543         4.41595        -1.45181
| 29>    C       11.47868         4.01247        -2.59622
| 30>    C       12.56200         3.17238        -2.57320
| 31>    C       13.11998         2.64183        -1.39010
| 32>    N       13.68310         2.26366        -0.46413
| 33>    C       13.29652         2.80395        -3.71597
| 34>    N       13.89591         2.42985        -4.62170
| 35>    C       10.41823         3.77458        -0.28549
| 36>    C       10.66712         2.39462         0.01818
| 37>    C       10.98728         2.01742         1.33874
| 38>    O       11.02009         3.01171         2.25617
| 39>    C       11.45830         2.71779         3.56209
| 40>    C       11.31396         0.69157         1.59462
| 41>    C       11.29513        -0.26841         0.59467
| 42>    C       10.86750         0.08417        -0.70203
| 43>    C       10.58222         1.40730        -0.97193
| 44>    O       10.73283        -0.93105        -1.59219
| 45>    C       10.51174        -0.61359        -2.94332
| 46>    C       11.76564        -1.62702         0.89090
| 47>    C       12.78497        -2.20293         0.11504
| 48>    O       13.27012        -1.45669        -0.91047
| 49>    C       14.37195        -1.94191        -1.63622
| 50>    C       13.26734        -3.45372         0.47139
| 51>    C       12.77911        -4.14508         1.57466
| 52>    C       11.74173        -3.57549         2.33596
| 53>    C       11.26585        -2.32010         1.98551
| 54>    O       11.27880        -4.28963         3.40245
| 55>    C       10.44205        -3.64945         4.33391
| 56>    C       13.38264        -5.42142         1.97740
| 57>    C       14.78733        -5.57107         2.03540
| 58>    O       15.54176        -4.50196         1.65936
| 59>    C       16.93174        -4.54598         1.87682
| 60>    C       15.31454        -6.76403         2.48300
| 61>    C       14.50862        -7.81625         2.94492
| 62>    C       13.10651        -7.67055         2.85449
| 63>    C       12.58101        -6.48755         2.35510
| 64>    O       12.34827        -8.72955         3.23554
| 65>    C       10.94605        -8.64047         3.12807
| 66>    C       15.17188        -8.99350         3.41704
| 67>    C       14.80337        -9.96591         4.29394
| 68>    C       15.56905       -11.24379         4.29618
| 69>    O       16.61857       -11.46071         3.73259
| 70>    C       14.75792       -12.18751         5.08974
| 71>    C       14.96510       -13.51599         5.32255
| 72>    C       14.03405       -14.23202         6.10857
| 73>    C       12.89782       -13.55191         6.63522
| 74>    C       11.97106       -14.27204         7.41398
| 75>    C       12.18258       -15.60152         7.65058
| 76>    C       13.29443       -16.28756         7.14410
| 77>    C       14.20269       -15.60421         6.38413
| 78>    F       11.29805       -16.29065         8.39623
| 79>    C       12.71320       -12.17231         6.38343
| 80>    C       13.63293       -11.49820         5.62662
| 81>    C       13.72667       -10.09154         5.24679
| 82>    C       13.04744        -9.06357         5.84741
| 83>    C       13.37384        -7.70402         5.67867
| 84>    N       13.62354        -6.58534         5.61549
| 85>    C       11.99190        -9.24064         6.76241
| 86>    N       11.10042        -9.32120         7.48231
| 87>    H       11.86991         5.00678        -7.69079
| 88>    H        9.61304         8.57239        -8.32212
| 89>    H        9.01641         8.64612        -5.91366
| 90>    H       12.03167         4.02462        -5.45454
| 91>    H        9.14944         7.67159        -3.64702
| 92>    H        9.93038         4.36164         0.48450
| 93>    H       11.42447         3.66356         4.10039
| 94>    H       12.48352         2.33713         3.56009
| 95>    H       10.79881         1.99706         4.05577
| 96>    H       11.63754         0.38689         2.57693
| 97>    H       10.25457         1.70877        -1.95480
| 98>    H       10.53907        -1.56235        -3.47687
| 99>    H       11.29625         0.04234        -3.33480
|100>    H        9.53309        -0.14515        -3.09636
|101>    H       14.62853        -1.15204        -2.34101
|102>    H       14.12113        -2.85331        -2.18944
|103>    H       15.22809        -2.13610        -0.98280
|104>    H       14.04811        -3.91884        -0.10518
|105>    H       10.47487        -1.85709         2.55434
|106>    H        9.45842        -3.42330         3.90735
|107>    H       10.89422        -2.72953         4.71617
|108>    H       10.32415        -4.35699         5.15347
|109>    H       17.30089        -3.55883         1.60224
|110>    H       17.41641        -5.29906         1.24650
|111>    H       17.16787        -4.74125         2.92700
|112>    H       16.38245        -6.89996         2.54627
|113>    H       11.51538        -6.36185         2.27561
|114>    H       10.56370        -9.58829         3.50550
|115>    H       10.63128        -8.51060         2.08862
|116>    H       10.55070        -7.82162         3.73628
|117>    H       16.14306        -9.17556         2.96167
|118>    H       15.83006       -14.01650         4.91352
|119>    H       11.10536       -13.77521         7.82348
|120>    H       13.40925       -17.33697         7.36452
|121>    H       15.06752       -16.11096         5.98290
|122>    H       11.84298       -11.68403         6.79266
|123> *
|124>
|125>                          ****END OF INPUT****

CARTESIAN COORDINATES (ANGSTROEM)
---------------------------------
  C     11.246890    5.791570   -7.290980
  C     10.768740    6.778850   -8.106350
  F     11.076560    6.762610   -9.416730
  C      9.960720    7.820740   -7.631380
  C      9.637100    7.853430   -6.303530
  C     10.102670    6.860720   -5.417300
  C     10.925060    5.810560   -5.919730
  C     11.413900    4.810010   -5.047990
  C     11.086540    4.858080   -3.719600
  C     10.251600    5.902210   -3.225790
  C      9.772120    6.883740   -4.043690
  C     10.028500    5.709030   -1.777430
  O      9.404430    6.421100   -1.024260
  C     10.685430    4.415950   -1.451810
  C     11.478680    4.012470   -2.596220
  C     12.562000    3.172380   -2.573200
  C     13.119980    2.641830   -1.390100
  N     13.683100    2.263660   -0.464130
  C     13.296520    2.803950   -3.715970
  N     13.895910    2.429850   -4.621700
  C     10.418230    3.774580   -0.285490
  C     10.667120    2.394620    0.018180
  C     10.987280    2.017420    1.338740
  O     11.020090    3.011710    2.256170
  C     11.458300    2.717790    3.562090
  C     11.313960    0.691570    1.594620
  C     11.295130   -0.268410    0.594670
  C     10.867500    0.084170   -0.702030
  C     10.582220    1.407300   -0.971930
  O     10.732830   -0.931050   -1.592190
  C     10.511740   -0.613590   -2.943320
  C     11.765640   -1.627020    0.890900
  C     12.784970   -2.202930    0.115040
  O     13.270120   -1.456690   -0.910470
  C     14.371950   -1.941910   -1.636220
  C     13.267340   -3.453720    0.471390
  C     12.779110   -4.145080    1.574660
  C     11.741730   -3.575490    2.335960
  C     11.265850   -2.320100    1.985510
  O     11.278800   -4.289630    3.402450
  C     10.442050   -3.649450    4.333910
  C     13.382640   -5.421420    1.977400
  C     14.787330   -5.571070    2.035400
  O     15.541760   -4.501960    1.659360
  C     16.931740   -4.545980    1.876820
  C     15.314540   -6.764030    2.483000
  C     14.508620   -7.816250    2.944920
  C     13.106510   -7.670550    2.854490
  C     12.581010   -6.487550    2.355100
  O     12.348270   -8.729550    3.235540
  C     10.946050   -8.640470    3.128070
  C     15.171880   -8.993500    3.417040
  C     14.803370   -9.965910    4.293940
  C     15.569050  -11.243790    4.296180
  O     16.618570  -11.460710    3.732590
  C     14.757920  -12.187510    5.089740
  C     14.965100  -13.515990    5.322550
  C     14.034050  -14.232020    6.108570
  C     12.897820  -13.551910    6.635220
  C     11.971060  -14.272040    7.413980
  C     12.182580  -15.601520    7.650580
  C     13.294430  -16.287560    7.144100
  C     14.202690  -15.604210    6.384130
  F     11.298050  -16.290650    8.396230
  C     12.713200  -12.172310    6.383430
  C     13.632930  -11.498200    5.626620
  C     13.726670  -10.091540    5.246790
  C     13.047440   -9.063570    5.847410
  C     13.373840   -7.704020    5.678670
  N     13.623540   -6.585340    5.615490
  C     11.991900   -9.240640    6.762410
  N     11.100420   -9.321200    7.482310
  H     11.869910    5.006780   -7.690790
  H      9.613040    8.572390   -8.322120
  H      9.016410    8.646120   -5.913660
  H     12.031670    4.024620   -5.454540
  H      9.149440    7.671590   -3.647020
  H      9.930380    4.361640    0.484500
  H     11.424470    3.663560    4.100390
  H     12.483520    2.337130    3.560090
  H     10.798810    1.997060    4.055770
  H     11.637540    0.386890    2.576930
  H     10.254570    1.708770   -1.954800
  H     10.539070   -1.562350   -3.476870
  H     11.296250    0.042340   -3.334800
  H      9.533090   -0.145150   -3.096360
  H     14.628530   -1.152040   -2.341010
  H     14.121130   -2.853310   -2.189440
  H     15.228090   -2.136100   -0.982800
  H     14.048110   -3.918840   -0.105180
  H     10.474870   -1.857090    2.554340
  H      9.458420   -3.423300    3.907350
  H     10.894220   -2.729530    4.716170
  H     10.324150   -4.356990    5.153470
  H     17.300890   -3.558830    1.602240
  H     17.416410   -5.299060    1.246500
  H     17.167870   -4.741250    2.927000
  H     16.382450   -6.899960    2.546270
  H     11.515380   -6.361850    2.275610
  H     10.563700   -9.588290    3.505500
  H     10.631280   -8.510600    2.088620
  H     10.550700   -7.821620    3.736280
  H     16.143060   -9.175560    2.961670
  H     15.830060  -14.016500    4.913520
  H     11.105360  -13.775210    7.823480
  H     13.409250  -17.336970    7.364520
  H     15.067520  -16.110960    5.982900
  H     11.842980  -11.684030    6.792660

 Total Charge           Charge          ....    0
 Multiplicity           Mult            ....    1
 Number of Electrons    NEL             ....  494
 Basis Dimension        Dim             .... 1188

ORBITAL ENERGIES
----------------

  NO   OCC          E(Eh)            E(eV)
   0   2.0000     -24.783570      -674.3952
   1   2.0000     -24.780723      -674.3177
   2   2.0000     -19.254885      -523.9521
   3   2.0000     -19.250182      -523.8241
   4   2.0000     -19.242310      -523.6099
   5   2.0000     -19.237214      -523.4712
   6   2.0000     -19.236069      -523.4400
   7   2.0000     -19.230152      -523.2790
   8   2.0000     -19.206253      -522.6287
   9   2.0000     -19.204863      -522.5909
  10   2.0000     -14.413201      -392.2031
  11   2.0000     -14.409510      -392.1027
  12   2.0000     -14.404513      -391.9667
  13   2.0000     -14.403981      -391.9523
  14   2.0000     -10.367023      -282.1010
  15   2.0000     -10.363801      -282.0134
  16   2.0000     -10.357901      -281.8528
  17   2.0000     -10.355206      -281.7795
  18   2.0000     -10.336166      -281.2614
  19   2.0000     -10.335907      -281.2543
  20   2.0000     -10.335543      -281.2444
  21   2.0000     -10.334573      -281.2180
  22   2.0000     -10.331011      -281.1211
  23   2.0000     -10.327878      -281.0358
  24   2.0000     -10.326453      -280.9971
  25   2.0000     -10.326177      -280.9896
  26   2.0000     -10.325053      -280.9590
  27   2.0000     -10.323869      -280.9268
  28   2.0000     -10.321532      -280.8632
  29   2.0000     -10.321066      -280.8505
  30   2.0000     -10.317755      -280.7604
  31   2.0000     -10.317448      -280.7520
  32   2.0000     -10.317349      -280.7493
  33   2.0000     -10.316172      -280.7173
  34   2.0000     -10.312595      -280.6200
  35   2.0000     -10.310778      -280.5705
  36   2.0000     -10.306686      -280.4592
  37   2.0000     -10.306260      -280.4476
  38   2.0000     -10.305503      -280.4270
  39   2.0000     -10.303713      -280.3783
  40   2.0000     -10.303135      -280.3625
  41   2.0000     -10.302046      -280.3329
  42   2.0000     -10.299455      -280.2624
  43   2.0000     -10.298011      -280.2231
  44   2.0000     -10.297311      -280.2041
  45   2.0000     -10.295750      -280.1616
  46   2.0000     -10.295136      -280.1449
  47   2.0000     -10.294712      -280.1334
  48   2.0000     -10.294236      -280.1204
  49   2.0000     -10.292684      -280.0782
  50   2.0000     -10.292102      -280.0623
  51   2.0000     -10.291993      -280.0594
  52   2.0000     -10.289658      -279.9958
  53   2.0000     -10.288697      -279.9697
  54   2.0000     -10.286608      -279.9128
  55   2.0000     -10.286150      -279.9004
  56   2.0000     -10.285283      -279.8768
  57   2.0000     -10.283688      -279.8334
  58   2.0000     -10.283542      -279.8294
  59   2.0000     -10.283318      -279.8233
  60   2.0000     -10.283245      -279.8213
  61   2.0000     -10.283017      -279.8151
  62   2.0000     -10.281396      -279.7710
  63   2.0000     -10.280181      -279.7380
  64   2.0000     -10.273632      -279.5597
  65   2.0000     -10.272764      -279.5361
  66   2.0000     -10.272236      -279.5218
  67   2.0000     -10.272167      -279.5199
  68   2.0000     -10.271415      -279.4994
  69   2.0000     -10.267242      -279.3859
  70   2.0000     -10.264733      -279.3176
  71   2.0000     -10.260190      -279.1940
  72   2.0000      -1.298265       -35.3276
  73   2.0000      -1.295259       -35.2458
  74   2.0000      -1.158998       -31.5379
  75   2.0000      -1.155334       -31.4382
  76   2.0000      -1.147363       -31.2213
  77   2.0000      -1.145170       -31.1617
  78   2.0000      -1.141503       -31.0619
  79   2.0000      -1.134213       -30.8635
  80   2.0000      -1.121196       -30.5093
  81   2.0000      -1.119537       -30.4641
  82   2.0000      -1.013104       -27.5680
  83   2.0000      -1.009084       -27.4586
  84   2.0000      -0.996100       -27.1053
  85   2.0000      -0.992623       -27.0107
  86   2.0000      -0.986926       -26.8556
  87   2.0000      -0.985619       -26.8200
  88   2.0000      -0.971785       -26.4436
  89   2.0000      -0.967849       -26.3365
  90   2.0000      -0.960884       -26.1470
  91   2.0000      -0.955580       -26.0026
  92   2.0000      -0.939190       -25.5566
  93   2.0000      -0.922601       -25.1053
  94   2.0000      -0.918605       -24.9965
  95   2.0000      -0.903521       -24.5861
  96   2.0000      -0.894659       -24.3449
  97   2.0000      -0.887194       -24.1418
  98   2.0000      -0.882686       -24.0191
  99   2.0000      -0.879065       -23.9206
 100   2.0000      -0.874354       -23.7924
 101   2.0000      -0.855441       -23.2777
 102   2.0000      -0.846533       -23.0353
 103   2.0000      -0.845090       -22.9961
 104   2.0000      -0.836272       -22.7561
 105   2.0000      -0.833860       -22.6905
 106   2.0000      -0.830444       -22.5975
 107   2.0000      -0.826907       -22.5013
 108   2.0000      -0.816727       -22.2243
 109   2.0000      -0.808337       -21.9960
 110   2.0000      -0.804983       -21.9047
 111   2.0000      -0.794874       -21.6296
 112   2.0000      -0.790135       -21.5007
 113   2.0000      -0.784774       -21.3548
 114   2.0000      -0.760883       -20.7047
 115   2.0000      -0.759177       -20.6583
 116   2.0000      -0.756382       -20.5822
 117   2.0000      -0.753595       -20.5064
 118   2.0000      -0.743613       -20.2347
 119   2.0000      -0.735165       -20.0049
 120   2.0000      -0.718975       -19.5643
 121   2.0000      -0.713029       -19.4025
 122   2.0000      -0.705881       -19.2080
 123   2.0000      -0.702654       -19.1202
 124   2.0000      -0.701296       -19.0832
 125   2.0000      -0.689400       -18.7595
 126   2.0000      -0.683745       -18.6056
 127   2.0000      -0.680325       -18.5126
 128   2.0000      -0.672485       -18.2993
 129   2.0000      -0.670493       -18.2450
 130   2.0000      -0.668051       -18.1786
 131   2.0000      -0.662331       -18.0230
 132   2.0000      -0.652720       -17.7614
 133   2.0000      -0.637332       -17.3427
 134   2.0000      -0.636401       -17.3174
 135   2.0000      -0.629622       -17.1329
 136   2.0000      -0.627317       -17.0702
 137   2.0000      -0.625521       -17.0213
 138   2.0000      -0.622544       -16.9403
 139   2.0000      -0.617597       -16.8057
 140   2.0000      -0.613433       -16.6924
 141   2.0000      -0.606149       -16.4941
 142   2.0000      -0.603919       -16.4335
 143   2.0000      -0.596678       -16.2364
 144   2.0000      -0.594232       -16.1699
 145   2.0000      -0.588535       -16.0149
 146   2.0000      -0.587161       -15.9775
 147   2.0000      -0.582985       -15.8638
 148   2.0000      -0.582043       -15.8382
 149   2.0000      -0.574996       -15.6464
 150   2.0000      -0.564831       -15.3698
 151   2.0000      -0.564314       -15.3558
 152   2.0000      -0.558902       -15.2085
 153   2.0000      -0.557669       -15.1749
 154   2.0000      -0.557313       -15.1653
 155   2.0000      -0.555939       -15.1279
 156   2.0000      -0.553418       -15.0593
 157   2.0000      -0.552965       -15.0469
 158   2.0000      -0.552145       -15.0246
 159   2.0000      -0.549893       -14.9633
 160   2.0000      -0.548458       -14.9243
 161   2.0000      -0.547894       -14.9090
 162   2.0000      -0.543383       -14.7862
 163   2.0000      -0.541906       -14.7460
 164   2.0000      -0.540842       -14.7171
 165   2.0000      -0.538840       -14.6626
 166   2.0000      -0.535146       -14.5621
 167   2.0000      -0.531746       -14.4695
 168   2.0000      -0.527165       -14.3449
 169   2.0000      -0.525844       -14.3089
 170   2.0000      -0.521433       -14.1889
 171   2.0000      -0.520665       -14.1680
 172   2.0000      -0.520342       -14.1592
 173   2.0000      -0.517384       -14.0787
 174   2.0000      -0.513880       -13.9834
 175   2.0000      -0.513006       -13.9596
 176   2.0000      -0.511121       -13.9083
 177   2.0000      -0.508838       -13.8462
 178   2.0000      -0.505894       -13.7661
 179   2.0000      -0.503443       -13.6994
 180   2.0000      -0.495432       -13.4814
 181   2.0000      -0.494733       -13.4624
 182   2.0000      -0.492039       -13.3891
 183   2.0000      -0.490009       -13.3338
 184   2.0000      -0.487896       -13.2763
 185   2.0000      -0.487132       -13.2555
 186   2.0000      -0.485620       -13.2144
 187   2.0000      -0.483463       -13.1557
 188   2.0000      -0.481290       -13.0966
 189   2.0000      -0.480047       -13.0627
 190   2.0000      -0.477783       -13.0011
 191   2.0000      -0.477091       -12.9823
 192   2.0000      -0.474494       -12.9116
 193   2.0000      -0.469090       -12.7646
 194   2.0000      -0.467235       -12.7141
 195   2.0000      -0.462368       -12.5817
 196   2.0000      -0.460253       -12.5241
 197   2.0000      -0.458936       -12.4883
 198   2.0000      -0.453480       -12.3398
 199   2.0000      -0.450700       -12.2642
 200   2.0000      -0.448857       -12.2140
 201   2.0000      -0.446616       -12.1530
 202   2.0000      -0.444628       -12.0989
 203   2.0000      -0.443106       -12.0575
 204   2.0000      -0.439291       -11.9537
 205   2.0000      -0.436147       -11.8682
 206   2.0000      -0.434098       -11.8124
 207   2.0000      -0.433995       -11.8096
 208   2.0000      -0.431805       -11.7500
 209   2.0000      -0.431226       -11.7342
 210   2.0000      -0.428171       -11.6511
 211   2.0000      -0.424350       -11.5472
 212   2.0000      -0.423756       -11.5310
 213   2.0000      -0.419805       -11.4235
 214   2.0000      -0.418609       -11.3909
 215   2.0000      -0.417646       -11.3647
 216   2.0000      -0.415963       -11.3189
 217   2.0000      -0.414364       -11.2754
 218   2.0000      -0.411904       -11.2085
 219   2.0000      -0.409547       -11.1443
 220   2.0000      -0.407869       -11.0987
 221   2.0000      -0.406193       -11.0531
 222   2.0000      -0.403249       -10.9730
 223   2.0000      -0.400291       -10.8925
 224   2.0000      -0.397407       -10.8140
 225   2.0000      -0.390978       -10.6391
 226   2.0000      -0.390320       -10.6211
 227   2.0000      -0.381566       -10.3829
 228   2.0000      -0.377475       -10.2716
 229   2.0000      -0.375235       -10.2107
 230   2.0000      -0.365330        -9.9411
 231   2.0000      -0.362545        -9.8654
 232   2.0000      -0.358523        -9.7559
 233   2.0000      -0.355415        -9.6713
 234   2.0000      -0.347471        -9.4552
 235   2.0000      -0.328865        -8.9489
 236   2.0000      -0.327547        -8.9130
 237   2.0000      -0.319447        -8.6926
 238   2.0000      -0.312322        -8.4987
 239   2.0000      -0.307503        -8.3676
 240   2.0000      -0.301632        -8.2078
 241   2.0000      -0.296670        -8.0728
 242   2.0000      -0.290535        -7.9059
 243   2.0000      -0.284664        -7.7461
 244   2.0000      -0.269275        -7.3273
 245   2.0000      -0.264274        -7.1912
 246   2.0000      -0.247767        -6.7421
 247   0.0000      -0.084800        -2.3075
 248   0.0000      -0.078094        -2.1250
 249   0.0000      -0.048222        -1.3122
 250   0.0000      -0.045687        -1.2432
 251   0.0000      -0.021504        -0.5852

MULLIKEN ATOMIC CHARGES
-----------------------
   0 C :   -0.101186
   1 C :    0.304182
   2 F :   -0.192202
   3 C :   -0.029438
   4 C :   -0.010291
   5 C :    0.102931
   6 C :    0.104232
   7 C :   -0.092637
   8 C :    0.045418
   9 C :    0.006211
  10 C :   -0.085787
  11 C :    0.137096
  12 O :   -0.141385
  13 C :   -0.122763
  14 C :    0.262445
  15 C :   -0.352259
  16 C :   -0.173773
  17 N :    0.171497
  18 C :   -0.181791
  19 N :    0.142614
  20 C :    0.062624
  21 C :   -0.035914
  22 C :    0.264768
  23 O :   -0.299914
  24 C :    0.176986
  25 C :   -0.145734
  26 C :    0.051724
  27 C :    0.243030
  28 C :   -0.139497
  29 O :   -0.296342
  30 C :    0.180870
  31 C :    0.035590
  32 C :    0.242594
  33 O :   -0.306109
  34 C :    0.182096
  35 C :   -0.120360
  36 C :    0.023451
  37 C :    0.227611
  38 C :   -0.161665
  39 O :   -0.317130
  40 C :    0.184108
  41 C :    0.048745
  42 C :    0.239334
  43 O :   -0.313301
  44 C :    0.178541
  45 C :   -0.159722
  46 C :    0.076128
  47 C :    0.212471
  48 C :   -0.100452
  49 O :   -0.313724
  50 C :    0.177519
  51 C :   -0.000283
  52 C :   -0.109239
  53 C :    0.133167
  54 O :   -0.149527
  55 C :    0.009502
  56 C :   -0.083529
  57 C :    0.100086
  58 C :    0.105449
  59 C :   -0.100285
  60 C :    0.303480
  61 C :   -0.034144
  62 C :   -0.009685
  63 F :   -0.193293
  64 C :   -0.099165
  65 C :    0.047452
  66 C :    0.319820
  67 C :   -0.336967
  68 C :   -0.220605
  69 N :    0.178407
  70 C :   -0.191551
  71 N :    0.142361
  72 H :   -0.004177
  73 H :    0.002471
  74 H :   -0.009681
  75 H :   -0.008933
  76 H :   -0.012619
  77 H :    0.029712
  78 H :    0.041589
  79 H :    0.037197
  80 H :    0.021793
  81 H :   -0.034981
  82 H :   -0.026168
  83 H :    0.034826
  84 H :    0.023096
  85 H :    0.018552
  86 H :    0.040345
  87 H :    0.015642
  88 H :    0.021538
  89 H :   -0.038093
  90 H :   -0.042976
  91 H :    0.019023
  92 H :    0.017513
  93 H :    0.042091
  94 H :    0.037354
  95 H :    0.021699
  96 H :    0.029098
  97 H :   -0.035195
  98 H :   -0.031707
  99 H :    0.039430
 100 H :    0.029945
 101 H :    0.038295
 102 H :    0.018929
 103 H :   -0.014476
 104 H :   -0.004791
 105 H :    0.001607
 106 H :   -0.010973
 107 H :   -0.009870
Sum of atomic charges:   -0.0000000

LOEWDIN ATOMIC CHARGES
----------------------
   0 C :   -0.043440
   1 C :    0.092372
   2 F :   -0.066573
   3 C :   -0.038203
   4 C :    0.004387
   5 C :   -0.019013
   6 C :    0.002554
   7 C :    0.007197
   8 C :   -0.017566
   9 C :   -0.058631
  10 C :    0.032684
  11 C :    0.081584
  12 O :   -0.145139
  13 C :   -0.100415
  14 C :    0.066810
  15 C :   -0.139329
  16 C :   -0.017644
  17 N :   -0.046264
  18 C :   -0.019287
  19 N :   -0.062716
  20 C :    0.100216
  21 C :   -0.068906
  22 C :    0.070424
  23 O :   -0.092417
  24 C :    0.079444
  25 C :   -0.051591
  26 C :    0.005093
  27 C :    0.049717
  28 C :   -0.045593
  29 O :   -0.092710
  30 C :    0.075710
  31 C :   -0.028032
  32 C :    0.051620
  33 O :   -0.095162
  34 C :    0.076357
  35 C :   -0.041277
  36 C :   -0.035971
  37 C :    0.048136
  38 C :   -0.059955
  39 O :   -0.101724
  40 C :    0.076749
  41 C :    0.000964
  42 C :    0.049092
  43 O :   -0.099107
  44 C :    0.076700
  45 C :   -0.043152
  46 C :   -0.057277
  47 C :    0.061211
  48 C :   -0.039477
  49 O :   -0.081431
  50 C :    0.078532
  51 C :    0.079133
  52 C :   -0.093953
  53 C :    0.084050
  54 O :   -0.149343
  55 C :   -0.059406
  56 C :    0.032698
  57 C :   -0.020793
  58 C :    0.003163
  59 C :   -0.044173
  60 C :    0.092032
  61 C :   -0.040418
  62 C :    0.003993
  63 F :   -0.067545
  64 C :    0.003637
  65 C :   -0.013506
  66 C :    0.070215
  67 C :   -0.136606
  68 C :   -0.020023
  69 N :   -0.047917
  70 C :   -0.018893
  71 N :   -0.064456
  72 H :    0.042371
  73 H :    0.041493
  74 H :    0.035552
  75 H :    0.037842
  76 H :    0.039274
  77 H :    0.047104
  78 H :    0.031151
  79 H :    0.022118
  80 H :    0.014559
  81 H :    0.030814
  82 H :    0.028589
  83 H :    0.028851
  84 H :    0.015748
  85 H :    0.012440
  86 H :    0.029924
  87 H :    0.011906
  88 H :    0.015465
  89 H :    0.027626
  90 H :    0.027496
  91 H :    0.011943
  92 H :    0.014520
  93 H :    0.030636
  94 H :    0.029005
  95 H :    0.013506
  96 H :    0.018456
  97 H :    0.030611
  98 H :    0.031054
  99 H :    0.029924
 100 H :    0.018997
 101 H :    0.021271
 102 H :    0.044719
 103 H :    0.038525
 104 H :    0.042013
 105 H :    0.040900
 106 H :    0.034958
 107 H :    0.037199

  Mayer bond orders larger than 0.100000
B(  0-C ,  1-C ) :   1.4426 B(  0-C ,  6-C ) :   1.1987 B(  0-C , 72-H ) :   1.0071
B(  1-C ,  2-F ) :   1.0869 B(  1-C ,  3-C ) :   1.2546 B(  3-C ,  4-C ) :   1.4602
B(  3-C , 73-H ) :   0.9926 B(  4-C ,  5-C ) :   1.2348 B(  4-C , 74-H ) :   0.9971
B(  5-C ,  6-C ) :   1.2582 B(  5-C , 10-C ) :   1.1886 B(  6-C ,  7-C ) :   1.2023
B(  7-C ,  8-C ) :   1.4567 B(  7-C , 75-H ) :   0.9952 B(  8-C ,  9-C ) :   1.2210
B(  8-C , 14-C ) :   1.0025 B(  9-C , 10-C ) :   1.4703 B(  9-C , 11-C ) :   0.9143
B( 10-C , 76-H ) :   1.0160 B( 11-C , 12-O ) :   2.2826 B( 11-C , 13-C ) :   0.9405
B( 13-C , 14-C ) :   1.0327 B( 13-C , 20-C ) :   1.6633 B( 14-C , 15-C ) :   1.6556
B( 15-C , 16-C ) :   1.1510 B( 15-C , 18-C ) :   1.1427 B( 16-C , 17-N ) :   2.9986
B( 18-C , 19-N ) :   2.9689 B( 20-C , 21-C ) :   1.0649 B( 20-C , 77-H ) :   0.9441
B( 21-C , 22-C ) :   1.3526 B( 21-C , 28-C ) :   1.2838 B( 22-C , 23-O ) :   1.2113
B( 22-C , 25-C ) :   1.2543 B( 23-O , 24-C ) :   0.9552 B( 24-C , 78-H ) :   0.9785
B( 24-C , 79-H ) :   0.9702 B( 24-C , 80-H ) :   0.9687 B( 25-C , 26-C ) :   1.4047
B( 25-C , 81-H ) :   0.9959 B( 26-C , 27-C ) :   1.3513 B( 26-C , 31-C ) :   0.9290
B( 27-C , 28-C ) :   1.3208 B( 27-C , 29-O ) :   1.1821 B( 28-C , 82-H ) :   0.9961
B( 29-O , 30-C ) :   0.9685 B( 30-C , 83-H ) :   0.9774 B( 30-C , 84-H ) :   0.9673
B( 30-C , 85-H ) :   0.9664 B( 31-C , 32-C ) :   1.3932 B( 31-C , 38-C ) :   1.3596
B( 32-C , 33-O ) :   1.1610 B( 32-C , 35-C ) :   1.2900 B( 33-O , 34-C ) :   0.9684
B( 34-C , 86-H ) :   0.9775 B( 34-C , 87-H ) :   0.9676 B( 34-C , 88-H ) :   0.9680
B( 35-C , 36-C ) :   1.3463 B( 35-C , 89-H ) :   0.9953 B( 36-C , 37-C ) :   1.4036
B( 36-C , 41-C ) :   0.9451 B( 37-C , 38-C ) :   1.2771 B( 37-C , 39-O ) :   1.1374
B( 38-C , 90-H ) :   1.0041 B( 39-O , 40-C ) :   0.9675 B( 40-C , 91-H ) :   0.9681
B( 40-C , 92-H ) :   0.9677 B( 40-C , 93-H ) :   0.9777 B( 41-C , 42-C ) :   1.3485
B( 41-C , 48-C ) :   1.3897 B( 42-C , 43-O ) :   1.1492 B( 42-C , 45-C ) :   1.3190
B( 43-O , 44-C ) :   0.9656 B( 44-C , 94-H ) :   0.9778 B( 44-C , 95-H ) :   0.9677
B( 44-C , 96-H ) :   0.9683 B( 45-C , 46-C ) :   1.2604 B( 45-C , 97-H ) :   1.0038
B( 46-C , 47-C ) :   1.3188 B( 46-C , 51-C ) :   1.0941 B( 47-C , 48-C ) :   1.2763
B( 47-C , 49-O ) :   1.1588 B( 48-C , 98-H ) :   0.9907 B( 49-O , 50-C ) :   0.9450
B( 50-C , 99-H ) :   0.9765 B( 50-C ,100-H ) :   0.9704 B( 50-C ,101-H ) :   0.9690
B( 51-C , 52-C ) :   1.6477 B( 51-C ,102-H ) :   0.9362 B( 52-C , 53-C ) :   0.9420
B( 52-C , 66-C ) :   1.0485 B( 53-C , 54-O ) :   2.2573 B( 53-C , 55-C ) :   0.9211
B( 55-C , 56-C ) :   1.4731 B( 55-C , 65-C ) :   1.2137 B( 56-C , 57-C ) :   1.1888
B( 56-C ,103-H ) :   1.0152 B( 57-C , 58-C ) :   1.2573 B( 57-C , 62-C ) :   1.2346
B( 58-C , 59-C ) :   1.2018 B( 58-C , 64-C ) :   1.2005 B( 59-C , 60-C ) :   1.4409
B( 59-C ,104-H ) :   1.0066 B( 60-C , 61-C ) :   1.2565 B( 60-C , 63-F ) :   1.0853
B( 61-C , 62-C ) :   1.4602 B( 61-C ,105-H ) :   0.9927 B( 62-C ,106-H ) :   0.9966
B( 64-C , 65-C ) :   1.4615 B( 64-C ,107-H ) :   0.9931 B( 65-C , 66-C ) :   1.0022
B( 66-C , 67-C ) :   1.6312 B( 67-C , 68-C ) :   1.1689 B( 67-C , 70-C ) :   1.1443
B( 68-C , 69-N ) :   3.0101 B( 70-C , 71-N ) :   2.9729

-----------------------------------------------------------------------------
         ABSORPTION SPECTRUM VIA TRANSITION ELECTRIC DIPOLE MOMENTS
-----------------------------------------------------------------------------
State   Energy  Wavelength   fosc         T2         TX        TY        TZ
        (cm-1)    (nm)                  (au**2)     (au)      (au)      (au)
-----------------------------------------------------------------------------
   0   18838.9    530.8   0.555136193   9.70109   0.00653  -2.34404   2.05098
   1   21003.9    476.1   0.360691057   5.65343   0.54339  -2.01099   1.14634
   2   22636.4    441.8   0.027759479   0.40372   0.09674  -0.01424  -0.62782
   3   24700.4    404.9   0.002639847   0.03518   0.00953   0.18629   0.01973
   4   26952.2    371.0   0.054786686   0.66920   0.74491   0.23006  -0.24776
   5   28114.4    355.7   0.167470264   1.96103  -0.51135   1.09482  -0.70776
   6   28149.7    355.2   0.077484314   0.90618  -0.42007   0.08857   0.84964
   7   28607.4    349.6   0.050172668   0.57738   0.09174   0.44935  -0.60585
   8   29038.4    344.4   0.136839454   1.55137  -0.98635   0.73416   0.19871
   9   29356.2    340.6   0.098651865   1.10632   0.02053  -0.84578   0.62494
  10   29639.7    337.4   0.002759750   0.03065  -0.16457   0.05922  -0.00786
  11   29772.6    335.9   0.104136548   1.15150  -0.20408   0.80450  -0.68017
  12   30240.7    330.7   0.020141002   0.21926  -0.08446  -0.45169   0.09003
  13   30721.0    325.5   0.035821104   0.38387  -0.37443  -0.36539   0.33190
  14   31113.5    321.4   0.149271127   1.57944   0.28935  -0.77718   0.94431
  15   31410.8    318.4   0.009862712   0.10337   0.15289   0.27913  -0.04563
  16   32697.5    305.8   0.309946167   3.12067   0.58538  -1.63511   0.32312
  17   33507.8    298.4   0.423261728   4.15851  -0.65946   1.78913  -0.72295
  18   33629.5    297.4   0.175678711   1.71979  -0.16244  -1.30045  -0.04730
  19   34098.5    293.3   0.035675776   0.34444  -0.02849   0.58369   0.05413
  20   34482.7    290.0   0.163968114   1.56543  -0.07545   1.24689  -0.07069
  21   35366.7    282.8   1.303824761  12.13671  -0.82610   2.75502  -1.96574
  22   35416.8    282.4   0.145176989   1.34947   0.79330  -0.21986   0.81964
  23   35600.6    280.9   0.330937886   3.06031  -0.06835  -1.74790  -0.02216
  24   36522.7    273.8   0.029180243   0.26303  -0.35850   0.09146   0.35516
  25   36834.6    271.5   0.122526650   1.09509   0.22739   0.77481  -0.66562
  26   37440.0    267.1   0.013348656   0.11738  -0.11014  -0.04550  -0.32121
  27   37909.3    263.8   0.171804594   1.49198  -0.33274   1.17326  -0.06871
  28   38155.0    262.1   0.008040967   0.06938   0.02878  -0.08527  -0.24755
  29   38409.4    260.4   0.033550288   0.28756  -0.52417   0.11308  -0.00447
  30   38823.9    257.6   0.000536582   0.00455   0.01851   0.06027  -0.02397
  31   39050.2    256.1   0.007533581   0.06351   0.15323  -0.17303   0.10047
  32   39620.2    252.4   0.029479969   0.24496  -0.32817   0.37018   0.01489
  33   39771.8    251.4   0.005773546   0.04779  -0.19382  -0.06579  -0.07679
  34   39967.2    250.2   0.207957490   1.71296  -0.89229   0.12006   0.94993
  35   40216.6    248.7   0.003221902   0.02637  -0.01177  -0.02014  -0.16072
  36   40303.6    248.1   0.029507149   0.24102  -0.08010  -0.46781  -0.12553

FINAL SINGLE POINT ENERGY     -3248.197882656902

DIPOLE MOMENT
-------------
                                X             Y             Z
Electronic contribution:     -1.46385      -5.53233      -3.38842
Nuclear contribution   :      0.53802       5.24737       2.34053
                        -----------------------------------------
Total Dipole Moment    :     -0.92583      -0.28496      -1.04788
                        -----------------------------------------
Magnitude (a.u.)       :      1.42704
Magnitude (Debye)      :      3.62724

Rotational constants in cm-1:     0.003347     0.000256     0.000249
Rotational constants in MHz :   100.349142     7.685245     7.476662

                             ****ORCA TERMINATED NORMALLY****
TOTAL RUN TIME: 0 days 0 hours 10 minutes 41 seconds 902 msec
