                         Program Version 4.2.0 -  RELEASE  -
|  1> # ORCA input file
|  2> # SCF done       -179.088222893095          0.000930488345
|  3> ! CAM-B3LYP def2-SVP def2/J RIJCOSX Grid4 TightSCF
|  4> %maxcore 5000
|  5> %tddft
|  6>     Mode sTDDFT
|  7>     Ethresh 5.0
|  8>     maxcore 5000
|  9> end
| 10>
| 11> %pal
| 12>   nprocs 6
| 13>   end
| 14> * xyz 0 1
| 15>    C        8.18856        -7.84613        -4.24393
| 16>    C        7.80525        -9.15711        -4.27360
| 17>    F        8.58884       -10.06228        -4.90128
| 18>    C        6.62442        -9.61244        -3.67533
| 19>    C        5.82247        -8.71097        -3.03134
| 20>    C        6.16860        -7.34627        -2.96564
| 21>    C        7.37178        -6.90399        -3.58815
| 22>    C        7.73037        -5.53602        -3.54991
| 23>    C        6.91451        -4.65004        -2.90263
| 24>    C        5.72775        -5.09982        -2.25611
| 25>    C        5.35116        -6.41028        -2.28965
| 26>    C        5.07539        -3.95280        -1.58153
| 27>    O        4.03133        -3.95623        -0.96652
| 28>    C        6.01022        -2.81933        -1.76028
| 29>    C        7.00151        -3.20223        -2.73638
| 30>    C        7.69737        -2.36138        -3.57253
| 31>    C        7.50475        -0.96562        -3.59365
| 32>    N        7.33830         0.16850        -3.67094
| 33>    C        8.62874        -2.79736        -4.53153
| 34>    N        9.42470        -3.09473        -5.30492
| 35>    C        5.91802        -1.69728        -0.97202
| 36>    C        6.95655        -0.80759        -0.67629
| 37>    C        6.85830         0.48763        -0.12363
| 38>    O        5.64320         0.96691         0.18474
| 39>    C        5.55969         2.30513         0.62377
| 40>    C        8.08592         1.13223        -0.01791
| 41>    C        9.16389         0.36376        -0.46392
| 42>    S        8.62634        -1.21850        -0.93874
| 43>    C       10.48714         0.77511        -0.64140
| 44>    C       11.46981         0.06080        -1.29810
| 45>    C       12.75145         0.53188        -1.66942
| 46>    C       13.47004        -0.33843        -2.43982
| 47>    C       12.80401        -1.55357        -2.68742
| 48>    S       11.24275        -1.56251        -1.90259
| 49>    C       13.19914        -2.64734        -3.44504
| 50>    C       14.36258        -2.80833        -4.22384
| 51>    C       14.42370        -4.00142        -4.88658
| 52>    C       13.31674        -4.84563        -4.65112
| 53>    S       12.19279        -4.06365        -3.55848
| 54>    C       13.01847        -6.10630        -5.12644
| 55>    C       13.72563        -6.89179        -6.03069
| 56>    C       13.30634        -8.18128        -6.44312
| 57>    O       12.17147        -8.68279        -5.92796
| 58>    C       11.75395        -9.95370        -6.38549
| 59>    C       14.17038        -8.77418        -7.35233
| 60>    C       15.24376        -7.96644        -7.71530
| 61>    S       15.20376        -6.46005        -6.83571
| 62>    C       16.28575        -8.32450        -8.58759
| 63>    C       17.20816        -7.51987        -9.20012
| 64>    C       18.50306        -8.08688        -9.65299
| 65>    O       18.79141        -9.25983        -9.74560
| 66>    C       19.36962        -6.91655        -9.90238
| 67>    C       20.69199        -6.88010       -10.23678
| 68>    C       21.32690        -5.62822       -10.40493
| 69>    C       20.57498        -4.43248       -10.21548
| 70>    C       21.21610        -3.18922       -10.37726
| 71>    C       22.54001        -3.15563       -10.71659
| 72>    C       23.29564        -4.31927       -10.91107
| 73>    C       22.68917        -5.53492       -10.75502
| 74>    F       23.15403        -1.96744       -10.87220
| 75>    C       19.20238        -4.50031        -9.87861
| 76>    C       18.60881        -5.72349        -9.73184
| 77>    C       17.22682        -6.09938        -9.44612
| 78>    C       16.12792        -5.30479        -9.66747
| 79>    C       14.81615        -5.81730        -9.71422
| 80>    N       13.75000        -6.23172        -9.81809
| 81>    C       16.20142        -3.93210        -9.96650
| 82>    N       16.21483        -2.80401       -10.18240
| 83>    H        9.10286        -7.53158        -4.72299
| 84>    H        6.37329       -10.65956        -3.73474
| 85>    H        4.90694        -9.03703        -2.56112
| 86>    H        8.64733        -5.22244        -4.02376
| 87>    H        4.44185        -6.73398        -1.80574
| 88>    H        4.97166        -1.52567        -0.47148
| 89>    H        6.11187         2.45207         1.55705
| 90>    H        4.50169         2.49501         0.79396
| 91>    H        5.93721         2.99355        -0.13759
| 92>    H        8.22113         2.14078         0.32773
| 93>    H       10.73707         1.77632        -0.31665
| 94>    H       13.09250         1.51089        -1.38256
| 95>    H       14.44802        -0.13011        -2.83493
| 96>    H       15.11401        -2.04228        -4.28976
| 97>    H       15.23462        -4.28604        -5.53188
| 98>    H       12.10365        -6.56060        -4.76832
| 99>    H       10.81717       -10.16161        -5.87368
|100>    H       12.48814       -10.72395        -6.13256
|101>    H       11.58731        -9.94615        -7.46591
|102>    H       14.03020        -9.74544        -7.79043
|103>    H       16.43228        -9.39029        -8.73503
|104>    H       21.24913        -7.79477       -10.37383
|105>    H       20.66367        -2.27274       -10.24023
|106>    H       24.33644        -4.23116       -11.17947
|107>    H       23.25065        -6.44566       -10.89997
|108>    H       18.65530        -3.58139        -9.73799
|109> *
|110>
|111>                          ****END OF INPUT****

CARTESIAN COORDINATES (ANGSTROEM)
---------------------------------
  C      8.188560   -7.846130   -4.243930
  C      7.805250   -9.157110   -4.273600
  F      8.588840  -10.062280   -4.901280
  C      6.624420   -9.612440   -3.675330
  C      5.822470   -8.710970   -3.031340
  C      6.168600   -7.346270   -2.965640
  C      7.371780   -6.903990   -3.588150
  C      7.730370   -5.536020   -3.549910
  C      6.914510   -4.650040   -2.902630
  C      5.727750   -5.099820   -2.256110
  C      5.351160   -6.410280   -2.289650
  C      5.075390   -3.952800   -1.581530
  O      4.031330   -3.956230   -0.966520
  C      6.010220   -2.819330   -1.760280
  C      7.001510   -3.202230   -2.736380
  C      7.697370   -2.361380   -3.572530
  C      7.504750   -0.965620   -3.593650
  N      7.338300    0.168500   -3.670940
  C      8.628740   -2.797360   -4.531530
  N      9.424700   -3.094730   -5.304920
  C      5.918020   -1.697280   -0.972020
  C      6.956550   -0.807590   -0.676290
  C      6.858300    0.487630   -0.123630
  O      5.643200    0.966910    0.184740
  C      5.559690    2.305130    0.623770
  C      8.085920    1.132230   -0.017910
  C      9.163890    0.363760   -0.463920
  S      8.626340   -1.218500   -0.938740
  C     10.487140    0.775110   -0.641400
  C     11.469810    0.060800   -1.298100
  C     12.751450    0.531880   -1.669420
  C     13.470040   -0.338430   -2.439820
  C     12.804010   -1.553570   -2.687420
  S     11.242750   -1.562510   -1.902590
  C     13.199140   -2.647340   -3.445040
  C     14.362580   -2.808330   -4.223840
  C     14.423700   -4.001420   -4.886580
  C     13.316740   -4.845630   -4.651120
  S     12.192790   -4.063650   -3.558480
  C     13.018470   -6.106300   -5.126440
  C     13.725630   -6.891790   -6.030690
  C     13.306340   -8.181280   -6.443120
  O     12.171470   -8.682790   -5.927960
  C     11.753950   -9.953700   -6.385490
  C     14.170380   -8.774180   -7.352330
  C     15.243760   -7.966440   -7.715300
  S     15.203760   -6.460050   -6.835710
  C     16.285750   -8.324500   -8.587590
  C     17.208160   -7.519870   -9.200120
  C     18.503060   -8.086880   -9.652990
  O     18.791410   -9.259830   -9.745600
  C     19.369620   -6.916550   -9.902380
  C     20.691990   -6.880100  -10.236780
  C     21.326900   -5.628220  -10.404930
  C     20.574980   -4.432480  -10.215480
  C     21.216100   -3.189220  -10.377260
  C     22.540010   -3.155630  -10.716590
  C     23.295640   -4.319270  -10.911070
  C     22.689170   -5.534920  -10.755020
  F     23.154030   -1.967440  -10.872200
  C     19.202380   -4.500310   -9.878610
  C     18.608810   -5.723490   -9.731840
  C     17.226820   -6.099380   -9.446120
  C     16.127920   -5.304790   -9.667470
  C     14.816150   -5.817300   -9.714220
  N     13.750000   -6.231720   -9.818090
  C     16.201420   -3.932100   -9.966500
  N     16.214830   -2.804010  -10.182400
  H      9.102860   -7.531580   -4.722990
  H      6.373290  -10.659560   -3.734740
  H      4.906940   -9.037030   -2.561120
  H      8.647330   -5.222440   -4.023760
  H      4.441850   -6.733980   -1.805740
  H      4.971660   -1.525670   -0.471480
  H      6.111870    2.452070    1.557050
  H      4.501690    2.495010    0.793960
  H      5.937210    2.993550   -0.137590
  H      8.221130    2.140780    0.327730
  H     10.737070    1.776320   -0.316650
  H     13.092500    1.510890   -1.382560
  H     14.448020   -0.130110   -2.834930
  H     15.114010   -2.042280   -4.289760
  H     15.234620   -4.286040   -5.531880
  H     12.103650   -6.560600   -4.768320
  H     10.817170  -10.161610   -5.873680
  H     12.488140  -10.723950   -6.132560
  H     11.587310   -9.946150   -7.465910
  H     14.030200   -9.745440   -7.790430
  H     16.432280   -9.390290   -8.735030
  H     21.249130   -7.794770  -10.373830
  H     20.663670   -2.272740  -10.240230
  H     24.336440   -4.231160  -11.179470
  H     23.250650   -6.445660  -10.899970
  H     18.655300   -3.581390   -9.737990

 Total Charge           Charge          ....    0
 Multiplicity           Mult            ....    1
 Number of Electrons    NEL             ....  492
 Basis Dimension        Dim             .... 1098

ORBITAL ENERGIES
----------------

  NO   OCC          E(Eh)            E(eV)
   0   2.0000     -88.972341     -2421.0605
   1   2.0000     -88.959861     -2420.7209
   2   2.0000     -88.957239     -2420.6495
   3   2.0000     -88.956401     -2420.6267
   4   2.0000     -24.786611      -674.4780
   5   2.0000     -24.783452      -674.3920
   6   2.0000     -19.265380      -524.2377
   7   2.0000     -19.263341      -524.1822
   8   2.0000     -19.208524      -522.6905
   9   2.0000     -19.191767      -522.2345
  10   2.0000     -14.410972      -392.1425
  11   2.0000     -14.407269      -392.0417
  12   2.0000     -14.395487      -391.7211
  13   2.0000     -14.392042      -391.6274
  14   2.0000     -10.366826      -282.0957
  15   2.0000     -10.362517      -281.9784
  16   2.0000     -10.360718      -281.9295
  17   2.0000     -10.353316      -281.7280
  18   2.0000     -10.352674      -281.7106
  19   2.0000     -10.345087      -281.5041
  20   2.0000     -10.336887      -281.2810
  21   2.0000     -10.335794      -281.2513
  22   2.0000     -10.331623      -281.1378
  23   2.0000     -10.330325      -281.1024
  24   2.0000     -10.328424      -281.0507
  25   2.0000     -10.323679      -280.9216
  26   2.0000     -10.322303      -280.8842
  27   2.0000     -10.321582      -280.8645
  28   2.0000     -10.321219      -280.8546
  29   2.0000     -10.320410      -280.8326
  30   2.0000     -10.319278      -280.8018
  31   2.0000     -10.319157      -280.7985
  32   2.0000     -10.318366      -280.7770
  33   2.0000     -10.317930      -280.7651
  34   2.0000     -10.313710      -280.6503
  35   2.0000     -10.309508      -280.5360
  36   2.0000     -10.302941      -280.3573
  37   2.0000     -10.302236      -280.3381
  38   2.0000     -10.301875      -280.3283
  39   2.0000     -10.301090      -280.3069
  40   2.0000     -10.300779      -280.2984
  41   2.0000     -10.299615      -280.2668
  42   2.0000     -10.299303      -280.2583
  43   2.0000     -10.298780      -280.2440
  44   2.0000     -10.298173      -280.2275
  45   2.0000     -10.297832      -280.2183
  46   2.0000     -10.296230      -280.1747
  47   2.0000     -10.295787      -280.1626
  48   2.0000     -10.295468      -280.1539
  49   2.0000     -10.295006      -280.1413
  50   2.0000     -10.294795      -280.1356
  51   2.0000     -10.294185      -280.1190
  52   2.0000     -10.293496      -280.1003
  53   2.0000     -10.293478      -280.0998
  54   2.0000     -10.292547      -280.0745
  55   2.0000     -10.291741      -280.0525
  56   2.0000     -10.290274      -280.0126
  57   2.0000     -10.289470      -279.9907
  58   2.0000     -10.288756      -279.9713
  59   2.0000     -10.286345      -279.9057
  60   2.0000     -10.286306      -279.9046
  61   2.0000     -10.286237      -279.9027
  62   2.0000     -10.285326      -279.8780
  63   2.0000     -10.283248      -279.8214
  64   2.0000     -10.281796      -279.7819
  65   2.0000     -10.279123      -279.7092
  66   2.0000     -10.274784      -279.5911
  67   2.0000     -10.271196      -279.4935
  68   2.0000      -8.066970      -219.5134
  69   2.0000      -8.055771      -219.2087
  70   2.0000      -8.052771      -219.1270
  71   2.0000      -8.052042      -219.1072
  72   2.0000      -6.036326      -164.2568
  73   2.0000      -6.032378      -164.1494
  74   2.0000      -6.028816      -164.0524
  75   2.0000      -6.025427      -163.9602
  76   2.0000      -6.022474      -163.8799
  77   2.0000      -6.021435      -163.8516
  78   2.0000      -6.021179      -163.8446
  79   2.0000      -6.018344      -163.7675
  80   2.0000      -6.017357      -163.7406
  81   2.0000      -6.016972      -163.7301
  82   2.0000      -6.013799      -163.6438
  83   2.0000      -6.013749      -163.6424
  84   2.0000      -1.298743       -35.3406
  85   2.0000      -1.297959       -35.3193
  86   2.0000      -1.170861       -31.8608
  87   2.0000      -1.168890       -31.8071
  88   2.0000      -1.123194       -30.5637
  89   2.0000      -1.106718       -30.1153
  90   2.0000      -1.015285       -27.6273
  91   2.0000      -1.010754       -27.5040
  92   2.0000      -1.001877       -27.2625
  93   2.0000      -0.999203       -27.1897
  94   2.0000      -0.995813       -27.0974
  95   2.0000      -0.991975       -26.9930
  96   2.0000      -0.986409       -26.8415
  97   2.0000      -0.984442       -26.7880
  98   2.0000      -0.980725       -26.6869
  99   2.0000      -0.972080       -26.4516
 100   2.0000      -0.971687       -26.4409
 101   2.0000      -0.961180       -26.1550
 102   2.0000      -0.926224       -25.2038
 103   2.0000      -0.916852       -24.9488
 104   2.0000      -0.912519       -24.8309
 105   2.0000      -0.902146       -24.5486
 106   2.0000      -0.892705       -24.2917
 107   2.0000      -0.884314       -24.0634
 108   2.0000      -0.881532       -23.9877
 109   2.0000      -0.876136       -23.8409
 110   2.0000      -0.871232       -23.7074
 111   2.0000      -0.863438       -23.4954
 112   2.0000      -0.860533       -23.4163
 113   2.0000      -0.850729       -23.1495
 114   2.0000      -0.845248       -23.0004
 115   2.0000      -0.838406       -22.8142
 116   2.0000      -0.834559       -22.7095
 117   2.0000      -0.830876       -22.6093
 118   2.0000      -0.823529       -22.4094
 119   2.0000      -0.818843       -22.2818
 120   2.0000      -0.805021       -21.9057
 121   2.0000      -0.801263       -21.8035
 122   2.0000      -0.788918       -21.4675
 123   2.0000      -0.776076       -21.1181
 124   2.0000      -0.760654       -20.6984
 125   2.0000      -0.750931       -20.4339
 126   2.0000      -0.745583       -20.2883
 127   2.0000      -0.737231       -20.0611
 128   2.0000      -0.722000       -19.6466
 129   2.0000      -0.713864       -19.4252
 130   2.0000      -0.705834       -19.2067
 131   2.0000      -0.702551       -19.1174
 132   2.0000      -0.696954       -18.9651
 133   2.0000      -0.694868       -18.9083
 134   2.0000      -0.686573       -18.6826
 135   2.0000      -0.676827       -18.4174
 136   2.0000      -0.671029       -18.2596
 137   2.0000      -0.665538       -18.1102
 138   2.0000      -0.660314       -17.9681
 139   2.0000      -0.655374       -17.8336
 140   2.0000      -0.646332       -17.5876
 141   2.0000      -0.643736       -17.5170
 142   2.0000      -0.639633       -17.4053
 143   2.0000      -0.636513       -17.3204
 144   2.0000      -0.630919       -17.1682
 145   2.0000      -0.626107       -17.0372
 146   2.0000      -0.623382       -16.9631
 147   2.0000      -0.621869       -16.9219
 148   2.0000      -0.619597       -16.8601
 149   2.0000      -0.613623       -16.6975
 150   2.0000      -0.610868       -16.6226
 151   2.0000      -0.599915       -16.3245
 152   2.0000      -0.588092       -16.0028
 153   2.0000      -0.584636       -15.9088
 154   2.0000      -0.581697       -15.8288
 155   2.0000      -0.573129       -15.5956
 156   2.0000      -0.568771       -15.4770
 157   2.0000      -0.568386       -15.4666
 158   2.0000      -0.566283       -15.4094
 159   2.0000      -0.563153       -15.3242
 160   2.0000      -0.561642       -15.2831
 161   2.0000      -0.555981       -15.1290
 162   2.0000      -0.555813       -15.1244
 163   2.0000      -0.555173       -15.1070
 164   2.0000      -0.552210       -15.0264
 165   2.0000      -0.549145       -14.9430
 166   2.0000      -0.545189       -14.8353
 167   2.0000      -0.543921       -14.8008
 168   2.0000      -0.538884       -14.6638
 169   2.0000      -0.535351       -14.5676
 170   2.0000      -0.530272       -14.4294
 171   2.0000      -0.529119       -14.3981
 172   2.0000      -0.525478       -14.2990
 173   2.0000      -0.520541       -14.1647
 174   2.0000      -0.518987       -14.1223
 175   2.0000      -0.518318       -14.1042
 176   2.0000      -0.515194       -14.0191
 177   2.0000      -0.512967       -13.9585
 178   2.0000      -0.512601       -13.9486
 179   2.0000      -0.508428       -13.8350
 180   2.0000      -0.507380       -13.8065
 181   2.0000      -0.505730       -13.7616
 182   2.0000      -0.503448       -13.6995
 183   2.0000      -0.500442       -13.6177
 184   2.0000      -0.499166       -13.5830
 185   2.0000      -0.497574       -13.5397
 186   2.0000      -0.496867       -13.5204
 187   2.0000      -0.488522       -13.2933
 188   2.0000      -0.485990       -13.2245
 189   2.0000      -0.485076       -13.1996
 190   2.0000      -0.482365       -13.1258
 191   2.0000      -0.480825       -13.0839
 192   2.0000      -0.478289       -13.0149
 193   2.0000      -0.476660       -12.9706
 194   2.0000      -0.473304       -12.8793
 195   2.0000      -0.470149       -12.7934
 196   2.0000      -0.466611       -12.6971
 197   2.0000      -0.464498       -12.6396
 198   2.0000      -0.460295       -12.5253
 199   2.0000      -0.453753       -12.3472
 200   2.0000      -0.452450       -12.3118
 201   2.0000      -0.447359       -12.1733
 202   2.0000      -0.446669       -12.1545
 203   2.0000      -0.445344       -12.1184
 204   2.0000      -0.438806       -11.9405
 205   2.0000      -0.437843       -11.9143
 206   2.0000      -0.436917       -11.8891
 207   2.0000      -0.432756       -11.7759
 208   2.0000      -0.432218       -11.7613
 209   2.0000      -0.431555       -11.7432
 210   2.0000      -0.428636       -11.6638
 211   2.0000      -0.427881       -11.6432
 212   2.0000      -0.426331       -11.6011
 213   2.0000      -0.424279       -11.5452
 214   2.0000      -0.423625       -11.5274
 215   2.0000      -0.423295       -11.5185
 216   2.0000      -0.421341       -11.4653
 217   2.0000      -0.420546       -11.4436
 218   2.0000      -0.414839       -11.2883
 219   2.0000      -0.412986       -11.2379
 220   2.0000      -0.411181       -11.1888
 221   2.0000      -0.405305       -11.0289
 222   2.0000      -0.403611       -10.9828
 223   2.0000      -0.399968       -10.8837
 224   2.0000      -0.397234       -10.8093
 225   2.0000      -0.389059       -10.5868
 226   2.0000      -0.384650       -10.4669
 227   2.0000      -0.382326       -10.4036
 228   2.0000      -0.376387       -10.2420
 229   2.0000      -0.370311       -10.0767
 230   2.0000      -0.364210        -9.9107
 231   2.0000      -0.351876        -9.5750
 232   2.0000      -0.347275        -9.4498
 233   2.0000      -0.338773        -9.2185
 234   2.0000      -0.333216        -9.0673
 235   2.0000      -0.325383        -8.8541
 236   2.0000      -0.320412        -8.7188
 237   2.0000      -0.316055        -8.6003
 238   2.0000      -0.311143        -8.4666
 239   2.0000      -0.307923        -8.3790
 240   2.0000      -0.297044        -8.0830
 241   2.0000      -0.296338        -8.0638
 242   2.0000      -0.288853        -7.8601
 243   2.0000      -0.283133        -7.7044
 244   2.0000      -0.257862        -7.0168
 245   2.0000      -0.214437        -5.8351
 246   0.0000      -0.118365        -3.2209
 247   0.0000      -0.082689        -2.2501
 248   0.0000      -0.061339        -1.6691
 249   0.0000      -0.048827        -1.3286
 250   0.0000      -0.037531        -1.0213

MULLIKEN ATOMIC CHARGES
-----------------------
   0 C :   -0.098800
   1 C :    0.302608
   2 F :   -0.197657
   3 C :   -0.031656
   4 C :   -0.010652
   5 C :    0.098615
   6 C :    0.108459
   7 C :   -0.087484
   8 C :    0.046083
   9 C :    0.006964
  10 C :   -0.088502
  11 C :    0.141695
  12 O :   -0.155127
  13 C :   -0.154641
  14 C :    0.236917
  15 C :   -0.341966
  16 C :   -0.193296
  17 N :    0.151654
  18 C :   -0.169614
  19 N :    0.136572
  20 C :    0.075629
  21 C :   -0.173652
  22 C :    0.302226
  23 O :   -0.284123
  24 C :    0.171845
  25 C :   -0.099201
  26 C :   -0.009172
  27 S :    0.093909
  28 C :    0.022868
  29 C :   -0.027557
  30 C :    0.032505
  31 C :    0.041036
  32 C :   -0.031586
  33 S :    0.080127
  34 C :   -0.031360
  35 C :    0.018348
  36 C :    0.036087
  37 C :   -0.066354
  38 S :    0.137644
  39 C :    0.059358
  40 C :   -0.125642
  41 C :    0.261484
  42 O :   -0.300928
  43 C :    0.165079
  44 C :   -0.046703
  45 C :   -0.063046
  46 S :    0.124658
  47 C :    0.048250
  48 C :   -0.135865
  49 C :    0.140046
  50 O :   -0.149400
  51 C :    0.010992
  52 C :   -0.082615
  53 C :    0.100748
  54 C :    0.101964
  55 C :   -0.099376
  56 C :    0.302876
  57 C :   -0.030175
  58 C :   -0.011397
  59 F :   -0.192410
  60 C :   -0.086537
  61 C :    0.042885
  62 C :    0.246579
  63 C :   -0.327766
  64 C :   -0.206435
  65 N :    0.167612
  66 C :   -0.168041
  67 N :    0.146754
  68 H :   -0.012437
  69 H :   -0.001677
  70 H :   -0.011470
  71 H :   -0.016973
  72 H :   -0.016478
  73 H :    0.022581
  74 H :    0.027935
  75 H :    0.047350
  76 H :    0.037390
  77 H :   -0.025760
  78 H :   -0.012881
  79 H :   -0.008093
  80 H :   -0.008091
  81 H :   -0.003952
  82 H :    0.004552
  83 H :    0.007079
  84 H :    0.042826
  85 H :    0.025252
  86 H :    0.036007
  87 H :   -0.007487
  88 H :    0.024001
  89 H :   -0.013169
  90 H :   -0.003675
  91 H :    0.002855
  92 H :   -0.010273
  93 H :   -0.007757
Sum of atomic charges:   -0.0000000

LOEWDIN ATOMIC CHARGES
----------------------
   0 C :   -0.045045
   1 C :    0.089324
   2 F :   -0.072223
   3 C :   -0.044384
   4 C :    0.004581
   5 C :   -0.020205
   6 C :    0.002277
   7 C :    0.001449
   8 C :   -0.010164
   9 C :   -0.053450
  10 C :    0.026724
  11 C :    0.078159
  12 O :   -0.159117
  13 C :   -0.122879
  14 C :    0.052227
  15 C :   -0.162021
  16 C :   -0.034573
  17 N :   -0.066923
  18 C :   -0.023198
  19 N :   -0.073246
  20 C :    0.057682
  21 C :   -0.222801
  22 C :    0.063957
  23 O :   -0.077405
  24 C :    0.083102
  25 C :   -0.111598
  26 C :   -0.122099
  27 S :    0.470836
  28 C :   -0.081248
  29 C :   -0.133041
  30 C :   -0.036831
  31 C :   -0.023619
  32 C :   -0.183919
  33 S :    0.401798
  34 C :   -0.156115
  35 C :   -0.020136
  36 C :   -0.030456
  37 C :   -0.144382
  38 S :    0.422015
  39 C :   -0.046836
  40 C :   -0.170958
  41 C :    0.030362
  42 O :   -0.088616
  43 C :    0.081104
  44 C :   -0.053801
  45 C :   -0.166953
  46 S :    0.473844
  47 C :    0.044295
  48 C :   -0.101746
  49 C :    0.080741
  50 O :   -0.151190
  51 C :   -0.058228
  52 C :    0.032323
  53 C :   -0.019624
  54 C :    0.003074
  55 C :   -0.043312
  56 C :    0.092627
  57 C :   -0.038733
  58 C :    0.004167
  59 F :   -0.066781
  60 C :    0.007002
  61 C :   -0.015393
  62 C :    0.056839
  63 C :   -0.147071
  64 C :   -0.035463
  65 N :   -0.050114
  66 C :   -0.020006
  67 N :   -0.056394
  68 H :    0.040009
  69 H :    0.039601
  70 H :    0.034770
  71 H :    0.034949
  72 H :    0.037507
  73 H :    0.049844
  74 H :    0.017864
  75 H :    0.033171
  76 H :    0.022599
  77 H :    0.029142
  78 H :    0.040029
  79 H :    0.035199
  80 H :    0.034692
  81 H :    0.036416
  82 H :    0.023728
  83 H :    0.041798
  84 H :    0.027368
  85 H :    0.016793
  86 H :    0.021529
  87 H :    0.037589
  88 H :    0.050752
  89 H :    0.039070
  90 H :    0.042497
  91 H :    0.041463
  92 H :    0.035284
  93 H :    0.038122

  Mayer bond orders larger than 0.100000
B(  0-C ,  1-C ) :   1.4442 B(  0-C ,  6-C ) :   1.2011 B(  0-C , 68-H ) :   1.0063
B(  1-C ,  2-F ) :   1.0368 B(  1-C ,  3-C ) :   1.2651 B(  3-C ,  4-C ) :   1.4581
B(  3-C , 69-H ) :   0.9929 B(  4-C ,  5-C ) :   1.2416 B(  4-C , 70-H ) :   0.9969
B(  5-C ,  6-C ) :   1.2594 B(  5-C , 10-C ) :   1.1833 B(  6-C ,  7-C ) :   1.1955
B(  7-C ,  8-C ) :   1.4765 B(  7-C , 71-H ) :   0.9931 B(  8-C ,  9-C ) :   1.2205
B(  8-C , 14-C ) :   0.9984 B(  9-C , 10-C ) :   1.4851 B(  9-C , 11-C ) :   0.9089
B( 10-C , 72-H ) :   1.0146 B( 11-C , 12-O ) :   2.2687 B( 11-C , 13-C ) :   0.9692
B( 13-C , 14-C ) :   1.0875 B( 13-C , 20-C ) :   1.4889 B( 14-C , 15-C ) :   1.6060
B( 15-C , 16-C ) :   1.1555 B( 15-C , 18-C ) :   1.1521 B( 16-C , 17-N ) :   3.0189
B( 18-C , 19-N ) :   2.9569 B( 20-C , 21-C ) :   1.2588 B( 20-C , 73-H ) :   0.9574
B( 21-C , 22-C ) :   1.3046 B( 21-C , 27-S ) :   1.0721 B( 22-C , 23-O ) :   1.2354
B( 22-C , 25-C ) :   1.2938 B( 23-O , 24-C ) :   0.9454 B( 24-C , 74-H ) :   0.9706
B( 24-C , 75-H ) :   0.9803 B( 24-C , 76-H ) :   0.9709 B( 25-C , 26-C ) :   1.3273
B( 25-C , 77-H ) :   1.0054 B( 26-C , 27-S ) :   1.1252 B( 26-C , 28-C ) :   1.2554
B( 28-C , 29-C ) :   1.4801 B( 28-C , 78-H ) :   0.9707 B( 29-C , 30-C ) :   1.1759
B( 29-C , 33-S ) :   1.0744 B( 30-C , 31-C ) :   1.5570 B( 30-C , 79-H ) :   0.9987
B( 31-C , 32-C ) :   1.2198 B( 31-C , 80-H ) :   0.9920 B( 32-C , 33-S ) :   1.0443
B( 32-C , 34-C ) :   1.4453 B( 34-C , 35-C ) :   1.2165 B( 34-C , 38-S ) :   1.0962
B( 35-C , 36-C ) :   1.5797 B( 35-C , 81-H ) :   0.9931 B( 36-C , 37-C ) :   1.1825
B( 36-C , 82-H ) :   0.9780 B( 37-C , 38-S ) :   1.0626 B( 37-C , 39-C ) :   1.4765
B( 39-C , 40-C ) :   1.3009 B( 39-C , 83-H ) :   0.9461 B( 40-C , 41-C ) :   1.3340
B( 40-C , 46-S ) :   1.1075 B( 41-C , 42-O ) :   1.2022 B( 41-C , 44-C ) :   1.2782
B( 42-O , 43-C ) :   0.9387 B( 43-C , 84-H ) :   0.9704 B( 43-C , 85-H ) :   0.9692
B( 43-C , 86-H ) :   0.9698 B( 44-C , 45-C ) :   1.3417 B( 44-C , 87-H ) :   1.0079
B( 45-C , 46-S ) :   1.1077 B( 45-C , 47-C ) :   1.1944 B( 47-C , 48-C ) :   1.5721
B( 47-C , 88-H ) :   0.9477 B( 48-C , 49-C ) :   0.9493 B( 48-C , 62-C ) :   1.0614
B( 49-C , 50-O ) :   2.2673 B( 49-C , 51-C ) :   0.9191 B( 51-C , 52-C ) :   1.4736
B( 51-C , 61-C ) :   1.2187 B( 52-C , 53-C ) :   1.1886 B( 52-C , 89-H ) :   1.0159
B( 53-C , 54-C ) :   1.2597 B( 53-C , 58-C ) :   1.2341 B( 54-C , 55-C ) :   1.2033
B( 54-C , 60-C ) :   1.1967 B( 55-C , 56-C ) :   1.4385 B( 55-C , 90-H ) :   1.0075
B( 56-C , 57-C ) :   1.2575 B( 56-C , 59-F ) :   1.0866 B( 57-C , 58-C ) :   1.4591
B( 57-C , 91-H ) :   0.9923 B( 58-C , 92-H ) :   0.9975 B( 60-C , 61-C ) :   1.4671
B( 60-C , 93-H ) :   0.9956 B( 61-C , 62-C ) :   0.9984 B( 62-C , 63-C ) :   1.6341
B( 63-C , 64-C ) :   1.1536 B( 63-C , 66-C ) :   1.1399 B( 64-C , 65-N ) :   3.0210
B( 66-C , 67-N ) :   2.9796

-----------------------------------------------------------------------------
         ABSORPTION SPECTRUM VIA TRANSITION ELECTRIC DIPOLE MOMENTS
-----------------------------------------------------------------------------
State   Energy  Wavelength   fosc         T2         TX        TY        TZ
        (cm-1)    (nm)                  (au**2)     (au)      (au)      (au)
-----------------------------------------------------------------------------
   0    7507.9   1331.9   0.685640777  30.06438   3.97083  -2.13607  -3.11995
   1   14203.5    704.1   0.160908843   3.72958   0.12561   0.73065   1.78324
   2   16353.2    611.5   0.180521916   3.63415   0.16067   1.07224   1.56801
   3   19473.0    513.5   0.332954888   5.62897  -0.12887   2.00905   1.25542
   4   21647.4    462.0   0.120116486   1.82673  -0.41477   1.15338   0.56957
   5   22821.5    438.2   0.077756672   1.12168   0.58689  -0.82310  -0.31582
   6   23028.8    434.2   0.157287684   2.24853   0.13678  -1.40659  -0.50132
   7   24018.3    416.3   0.207925428   2.84997   0.37968   1.50805   0.65695
   8   24514.8    407.9   0.014408109   0.19349   0.20845   0.27162  -0.27615
   9   25132.6    397.9   0.174890965   2.29090  -0.78966  -1.27841  -0.18166
  10   25377.3    394.1   0.015989135   0.20742  -0.02036  -0.44999  -0.06721
  11   26030.9    384.2   0.010717221   0.13554  -0.25870   0.24170  -0.10097
  12   26485.4    377.6   0.034610451   0.43021  -0.49110   0.37320   0.22303
  13   27407.3    364.9   0.028265312   0.33952   0.53585  -0.21391  -0.08143
  14   27948.8    357.8   0.044633384   0.52574  -0.56581  -0.44242   0.09933
  15   28029.5    356.8   0.031253307   0.36708   0.56687  -0.02481  -0.21242
  16   28270.2    353.7   0.088395171   1.02938   0.51342   0.87380  -0.04755
  17   28966.9    345.2   0.170633968   1.93927   0.99319   0.78499  -0.58021
  18   29285.1    341.5   0.057773966   0.64947  -0.50429   0.45231   0.43655
  19   29783.4    335.8   0.218928946   2.41994  -0.39027  -1.50255   0.09982
  20   30428.4    328.6   0.047426422   0.51312  -0.53351  -0.45734   0.13901
  21   30937.9    323.2   0.006419829   0.06831  -0.24962  -0.05844   0.05089
  22   31127.9    321.3   0.044348235   0.46903   0.04632   0.63377   0.25539
  23   31398.5    318.5   0.046898497   0.49173  -0.31797   0.52471   0.33956
  24   32134.8    311.2   0.078234092   0.80149   0.19325   0.86588   0.11994
  25   32260.0    310.0   0.155430413   1.58616  -0.27641   1.15188   0.42770
  26   32580.8    306.9   0.227252423   2.29627   1.28494   0.79667  -0.10256
  27   32738.0    305.5   0.476534840   4.79201  -1.66709  -1.35218   0.42945
  28   32950.0    303.5   0.229194163   2.28994   1.42053   0.52104   0.02372
  29   33621.7    297.4   0.056200309   0.55029  -0.53377  -0.50630   0.09505
  30   33717.5    296.6   0.044411604   0.43363  -0.37261  -0.54222  -0.02806
  31   33847.2    295.4   0.018207844   0.17710  -0.19722  -0.04211   0.36936
  32   34203.1    292.4   0.072263867   0.69555   0.76890   0.18488  -0.26488
  33   34417.5    290.5   0.202076579   1.93291  -1.15561   0.54629   0.54685
  34   34982.9    285.9   0.181278587   1.70595  -0.80030  -0.91657   0.47473
  35   35434.3    282.2   0.057546644   0.53465   0.67449   0.27498  -0.06411
  36   35737.6    279.8   0.212146788   1.95428  -0.41965   1.31425   0.22562
  37   35837.8    279.0   0.005850622   0.05374   0.01678   0.21197   0.09236
  38   36509.1    273.9   0.159404697   1.43739  -0.60353   1.03559   0.02635
  39   36703.7    272.5   0.049707518   0.44585   0.57198   0.32741  -0.10717
  40   37037.5    270.0   0.133067985   1.18279   1.02510  -0.24927  -0.26423
  41   37356.4    267.7   0.294076093   2.59161  -1.59919  -0.12581   0.13552
  42   37732.8    265.0   0.140377672   1.22477  -0.49323  -0.88816   0.43894
  43   38527.2    259.6   0.062171853   0.53125   0.33141   0.63910  -0.11388
  44   38743.9    258.1   0.011934412   0.10141   0.24783  -0.04710  -0.19435
  45   39166.3    255.3   0.049063100   0.41240   0.39562   0.49593  -0.09970
  46   39527.0    253.0   0.075397558   0.62797   0.78476   0.10390   0.03650
  47   39680.6    252.0   0.109682209   0.90998  -0.14392  -0.93463   0.12542
  48   39938.3    250.4   0.021161783   0.17444  -0.28488  -0.29532  -0.07788
  49   40134.5    249.2   0.194929215   1.59895  -0.88355   0.71066   0.55970

FINAL SINGLE POINT ENERGY     -4381.642203829164

DIPOLE MOMENT
-------------
                                X             Y             Z
Electronic contribution:     11.87492      -2.37418     -13.36731
Nuclear contribution   :     -9.74598       1.93152      15.92880
                        -----------------------------------------
Total Dipole Moment    :      2.12894      -0.44266       2.56148
                        -----------------------------------------
Magnitude (a.u.)       :      3.35999
Magnitude (Debye)      :      8.54042

Rotational constants in cm-1:     0.001597     0.000431     0.000354
Rotational constants in MHz :    47.870844    12.908750    10.623189

                             ****ORCA TERMINATED NORMALLY****
TOTAL RUN TIME: 0 days 0 hours 10 minutes 27 seconds 748 msec
