                         Program Version 4.2.0 -  RELEASE  -
|  1> # ORCA input file
|  2> # SCF done       -169.125795452241          0.000931911768
|  3> ! CAM-B3LYP def2-SVP def2/J RIJCOSX Grid4 TightSCF
|  4> %maxcore 5000
|  5> %tddft
|  6>     Mode sTDDFT
|  7>     Ethresh 5.0
|  8>     maxcore 5000
|  9> end
| 10>
| 11> %pal
| 12>   nprocs 6
| 13>   end
| 14> * xyz 0 1
| 15>    C        4.74531         5.37145         6.06338
| 16>    C        4.17433         6.53527         6.49781
| 17>    F        4.06617         6.76692         7.81839
| 18>    C        3.69166         7.51086         5.61480
| 19>    C        3.79456         7.29409         4.26884
| 20>    C        4.37669         6.11259         3.76550
| 21>    C        4.85896         5.13150         4.68034
| 22>    C        5.44127         3.93515         4.20008
| 23>    C        5.54243         3.73395         2.85054
| 24>    C        5.07542         4.72579         1.94058
| 25>    C        4.49950         5.88402         2.37643
| 26>    C        5.34917         4.28581         0.55906
| 27>    O        5.04878         4.83900        -0.47354
| 28>    C        6.14251         3.03190         0.69924
| 29>    C        6.06707         2.60934         2.07945
| 30>    C        6.20764         1.32952         2.55150
| 31>    C        6.47338         0.21849         1.72699
| 32>    N        6.66035        -0.71732         1.08933
| 33>    C        6.02587         0.96688         3.90131
| 34>    N        5.91135         0.62409         4.99082
| 35>    C        6.83654         2.56912        -0.37887
| 36>    C        7.93877         1.68845        -0.42023
| 37>    C        8.81889         1.33265         0.58926
| 38>    C        9.82014         0.48818         0.12948
| 39>    C        9.72615         0.17259        -1.23497
| 40>    S        8.38777         0.96991        -1.96239
| 41>    C       10.72388        -0.69321        -1.68461
| 42>    C       11.58997        -1.04408        -0.67128
| 43>    S       11.17257        -0.29817         0.86205
| 44>    C       12.72181        -1.89624        -0.75617
| 45>    C       13.58361        -2.24611         0.26064
| 46>    C       14.59178        -3.09971        -0.18876
| 47>    C       14.51230        -3.41066        -1.55123
| 48>    S       13.16034        -2.63135        -2.29009
| 49>    C       15.52309        -4.26085        -2.00146
| 50>    C       16.38603        -4.60889        -0.98502
| 51>    S       15.94494        -3.87708         0.54974
| 52>    C       17.52507        -5.45128        -1.07108
| 53>    C       18.38769        -5.80367        -0.05544
| 54>    C       19.40053        -6.65010        -0.50806
| 55>    C       19.31758        -6.95526        -1.87556
| 56>    S       17.96540        -6.17074        -2.61073
| 57>    C       20.30685        -7.81822        -2.32742
| 58>    C       21.17553        -8.18517        -1.31219
| 59>    S       20.75561        -7.42155         0.21618
| 60>    C       22.33280        -8.99144        -1.37138
| 61>    C       22.70788        -9.89189        -2.32335
| 62>    C       24.14505       -10.27251        -2.42717
| 63>    O       25.01183       -10.04937        -1.61384
| 64>    C       24.28065       -10.91300        -3.74936
| 65>    C       25.41085       -11.32910        -4.39174
| 66>    C       25.30270       -11.88628        -5.68578
| 67>    C       24.01803       -11.99741        -6.29348
| 68>    C       23.91878       -12.54204        -7.58841
| 69>    C       25.05251       -12.95449        -8.23159
| 70>    C       26.32407       -12.85681        -7.65021
| 71>    C       26.43852       -12.32932        -6.39411
| 72>    F       24.95985       -13.47418        -9.46876
| 73>    C       22.86256       -11.56773        -5.59986
| 74>    C       22.99229       -11.03964        -4.34430
| 75>    C       21.99506       -10.54628        -3.39732
| 76>    C       20.66491       -10.87951        -3.41180
| 77>    C       19.77837       -10.60265        -2.35241
| 78>    N       19.02872       -10.42769        -1.50114
| 79>    C       20.04976       -11.60713        -4.45049
| 80>    N       19.49733       -12.17597        -5.28041
| 81>    H        5.10262         4.64042         6.77178
| 82>    H        3.25086         8.40975         6.01578
| 83>    H        3.43016         8.03117         3.56922
| 84>    H        5.80456         3.21265         4.91385
| 85>    H        4.14391         6.61940         1.67039
| 86>    H        6.54166         3.00309        -1.32969
| 87>    H        8.75954         1.70791         1.59437
| 88>    H       10.81947        -1.05284        -2.69266
| 89>    H       13.47671        -1.89596         1.27087
| 90>    H       15.62983        -4.61140        -3.01160
| 91>    H       18.27761        -5.46093         0.95704
| 92>    H       20.41824        -8.12758        -3.35048
| 93>    H       23.06753        -8.82335        -0.58954
| 94>    H       26.37705       -11.23276        -3.91967
| 95>    H       22.95543       -12.63613        -8.06484
| 96>    H       27.18281       -13.19895        -8.20568
| 97>    H       27.40744       -12.24353        -5.92574
| 98>    H       21.90358       -11.65670        -6.08550
| 99> *
|100>
|101>                          ****END OF INPUT****

CARTESIAN COORDINATES (ANGSTROEM)
---------------------------------
  C      4.745310    5.371450    6.063380
  C      4.174330    6.535270    6.497810
  F      4.066170    6.766920    7.818390
  C      3.691660    7.510860    5.614800
  C      3.794560    7.294090    4.268840
  C      4.376690    6.112590    3.765500
  C      4.858960    5.131500    4.680340
  C      5.441270    3.935150    4.200080
  C      5.542430    3.733950    2.850540
  C      5.075420    4.725790    1.940580
  C      4.499500    5.884020    2.376430
  C      5.349170    4.285810    0.559060
  O      5.048780    4.839000   -0.473540
  C      6.142510    3.031900    0.699240
  C      6.067070    2.609340    2.079450
  C      6.207640    1.329520    2.551500
  C      6.473380    0.218490    1.726990
  N      6.660350   -0.717320    1.089330
  C      6.025870    0.966880    3.901310
  N      5.911350    0.624090    4.990820
  C      6.836540    2.569120   -0.378870
  C      7.938770    1.688450   -0.420230
  C      8.818890    1.332650    0.589260
  C      9.820140    0.488180    0.129480
  C      9.726150    0.172590   -1.234970
  S      8.387770    0.969910   -1.962390
  C     10.723880   -0.693210   -1.684610
  C     11.589970   -1.044080   -0.671280
  S     11.172570   -0.298170    0.862050
  C     12.721810   -1.896240   -0.756170
  C     13.583610   -2.246110    0.260640
  C     14.591780   -3.099710   -0.188760
  C     14.512300   -3.410660   -1.551230
  S     13.160340   -2.631350   -2.290090
  C     15.523090   -4.260850   -2.001460
  C     16.386030   -4.608890   -0.985020
  S     15.944940   -3.877080    0.549740
  C     17.525070   -5.451280   -1.071080
  C     18.387690   -5.803670   -0.055440
  C     19.400530   -6.650100   -0.508060
  C     19.317580   -6.955260   -1.875560
  S     17.965400   -6.170740   -2.610730
  C     20.306850   -7.818220   -2.327420
  C     21.175530   -8.185170   -1.312190
  S     20.755610   -7.421550    0.216180
  C     22.332800   -8.991440   -1.371380
  C     22.707880   -9.891890   -2.323350
  C     24.145050  -10.272510   -2.427170
  O     25.011830  -10.049370   -1.613840
  C     24.280650  -10.913000   -3.749360
  C     25.410850  -11.329100   -4.391740
  C     25.302700  -11.886280   -5.685780
  C     24.018030  -11.997410   -6.293480
  C     23.918780  -12.542040   -7.588410
  C     25.052510  -12.954490   -8.231590
  C     26.324070  -12.856810   -7.650210
  C     26.438520  -12.329320   -6.394110
  F     24.959850  -13.474180   -9.468760
  C     22.862560  -11.567730   -5.599860
  C     22.992290  -11.039640   -4.344300
  C     21.995060  -10.546280   -3.397320
  C     20.664910  -10.879510   -3.411800
  C     19.778370  -10.602650   -2.352410
  N     19.028720  -10.427690   -1.501140
  C     20.049760  -11.607130   -4.450490
  N     19.497330  -12.175970   -5.280410
  H      5.102620    4.640420    6.771780
  H      3.250860    8.409750    6.015780
  H      3.430160    8.031170    3.569220
  H      5.804560    3.212650    4.913850
  H      4.143910    6.619400    1.670390
  H      6.541660    3.003090   -1.329690
  H      8.759540    1.707910    1.594370
  H     10.819470   -1.052840   -2.692660
  H     13.476710   -1.895960    1.270870
  H     15.629830   -4.611400   -3.011600
  H     18.277610   -5.460930    0.957040
  H     20.418240   -8.127580   -3.350480
  H     23.067530   -8.823350   -0.589540
  H     26.377050  -11.232760   -3.919670
  H     22.955430  -12.636130   -8.064840
  H     27.182810  -13.198950   -8.205680
  H     27.407440  -12.243530   -5.925740
  H     21.903580  -11.656700   -6.085500

 Total Charge           Charge          ....    0
 Multiplicity           Mult            ....    1
 Number of Electrons    NEL             ....  488
 Basis Dimension        Dim             .... 1038

ORBITAL ENERGIES
----------------

  NO   OCC          E(Eh)            E(eV)
   0   2.0000     -88.972187     -2421.0563
   1   2.0000     -88.972127     -2421.0546
   2   2.0000     -88.971843     -2421.0469
   3   2.0000     -88.971813     -2421.0461
   4   2.0000     -88.971368     -2421.0340
   5   2.0000     -88.971304     -2421.0323
   6   2.0000     -24.785986      -674.4610
   7   2.0000     -24.785767      -674.4550
   8   2.0000     -19.212421      -522.7965
   9   2.0000     -19.212320      -522.7938
  10   2.0000     -14.415424      -392.2636
  11   2.0000     -14.415395      -392.2628
  12   2.0000     -14.414361      -392.2347
  13   2.0000     -14.414302      -392.2331
  14   2.0000     -10.369560      -282.1701
  15   2.0000     -10.369479      -282.1679
  16   2.0000     -10.364292      -282.0267
  17   2.0000     -10.364189      -282.0239
  18   2.0000     -10.342560      -281.4354
  19   2.0000     -10.342512      -281.4341
  20   2.0000     -10.341599      -281.4092
  21   2.0000     -10.341532      -281.4074
  22   2.0000     -10.330731      -281.1135
  23   2.0000     -10.330650      -281.1113
  24   2.0000     -10.325852      -280.9807
  25   2.0000     -10.325842      -280.9804
  26   2.0000     -10.321959      -280.8748
  27   2.0000     -10.321817      -280.8709
  28   2.0000     -10.320000      -280.8215
  29   2.0000     -10.319921      -280.8193
  30   2.0000     -10.319166      -280.7988
  31   2.0000     -10.319050      -280.7956
  32   2.0000     -10.318218      -280.7730
  33   2.0000     -10.318166      -280.7716
  34   2.0000     -10.315269      -280.6927
  35   2.0000     -10.315250      -280.6922
  36   2.0000     -10.314487      -280.6715
  37   2.0000     -10.314103      -280.6610
  38   2.0000     -10.313412      -280.6422
  39   2.0000     -10.313392      -280.6417
  40   2.0000     -10.306071      -280.4424
  41   2.0000     -10.306049      -280.4419
  42   2.0000     -10.306040      -280.4416
  43   2.0000     -10.306007      -280.4407
  44   2.0000     -10.305869      -280.4370
  45   2.0000     -10.305787      -280.4347
  46   2.0000     -10.301006      -280.3046
  47   2.0000     -10.300960      -280.3034
  48   2.0000     -10.299613      -280.2667
  49   2.0000     -10.299563      -280.2653
  50   2.0000     -10.299540      -280.2647
  51   2.0000     -10.299477      -280.2630
  52   2.0000     -10.298133      -280.2264
  53   2.0000     -10.298024      -280.2235
  54   2.0000     -10.297675      -280.2140
  55   2.0000     -10.297665      -280.2137
  56   2.0000     -10.297615      -280.2124
  57   2.0000     -10.297557      -280.2108
  58   2.0000     -10.296501      -280.1820
  59   2.0000     -10.296262      -280.1755
  60   2.0000     -10.294443      -280.1260
  61   2.0000     -10.294436      -280.1258
  62   2.0000     -10.289502      -279.9916
  63   2.0000     -10.289450      -279.9902
  64   2.0000     -10.289014      -279.9783
  65   2.0000     -10.288902      -279.9753
  66   2.0000      -8.067428      -219.5259
  67   2.0000      -8.067372      -219.5244
  68   2.0000      -8.067216      -219.5201
  69   2.0000      -8.067210      -219.5199
  70   2.0000      -8.066794      -219.5086
  71   2.0000      -8.066764      -219.5078
  72   2.0000      -6.036995      -164.2750
  73   2.0000      -6.036957      -164.2740
  74   2.0000      -6.036818      -164.2702
  75   2.0000      -6.036812      -164.2700
  76   2.0000      -6.036235      -164.2543
  77   2.0000      -6.036206      -164.2535
  78   2.0000      -6.032998      -164.1662
  79   2.0000      -6.032960      -164.1652
  80   2.0000      -6.032828      -164.1616
  81   2.0000      -6.032821      -164.1614
  82   2.0000      -6.032279      -164.1467
  83   2.0000      -6.032244      -164.1457
  84   2.0000      -6.028831      -164.0528
  85   2.0000      -6.028794      -164.0518
  86   2.0000      -6.028524      -164.0445
  87   2.0000      -6.028511      -164.0441
  88   2.0000      -6.028406      -164.0413
  89   2.0000      -6.028368      -164.0402
  90   2.0000      -1.300957       -35.4008
  91   2.0000      -1.300792       -35.3963
  92   2.0000      -1.128078       -30.6966
  93   2.0000      -1.127977       -30.6938
  94   2.0000      -1.028937       -27.9988
  95   2.0000      -1.025075       -27.8937
  96   2.0000      -1.019909       -27.7531
  97   2.0000      -1.017400       -27.6849
  98   2.0000      -1.015063       -27.6213
  99   2.0000      -1.000145       -27.2153
 100   2.0000      -1.000061       -27.2130
 101   2.0000      -0.993540       -27.0356
 102   2.0000      -0.993353       -27.0305
 103   2.0000      -0.979413       -26.6512
 104   2.0000      -0.976711       -26.5776
 105   2.0000      -0.974066       -26.5057
 106   2.0000      -0.962171       -26.1820
 107   2.0000      -0.944577       -25.7032
 108   2.0000      -0.926792       -25.2193
 109   2.0000      -0.925994       -25.1976
 110   2.0000      -0.902902       -24.5692
 111   2.0000      -0.901477       -24.5304
 112   2.0000      -0.887395       -24.1473
 113   2.0000      -0.887048       -24.1378
 114   2.0000      -0.880216       -23.9519
 115   2.0000      -0.878758       -23.9122
 116   2.0000      -0.877170       -23.8690
 117   2.0000      -0.872875       -23.7521
 118   2.0000      -0.870556       -23.6890
 119   2.0000      -0.848557       -23.0904
 120   2.0000      -0.835230       -22.7278
 121   2.0000      -0.834280       -22.7019
 122   2.0000      -0.825187       -22.4545
 123   2.0000      -0.824571       -22.4377
 124   2.0000      -0.814177       -22.1549
 125   2.0000      -0.810095       -22.0438
 126   2.0000      -0.803679       -21.8692
 127   2.0000      -0.793042       -21.5798
 128   2.0000      -0.768872       -20.9221
 129   2.0000      -0.762279       -20.7427
 130   2.0000      -0.755865       -20.5681
 131   2.0000      -0.740674       -20.1548
 132   2.0000      -0.726960       -19.7816
 133   2.0000      -0.719282       -19.5727
 134   2.0000      -0.709089       -19.2953
 135   2.0000      -0.709022       -19.2935
 136   2.0000      -0.705070       -19.1859
 137   2.0000      -0.691517       -18.8171
 138   2.0000      -0.682913       -18.5830
 139   2.0000      -0.680240       -18.5103
 140   2.0000      -0.677330       -18.4311
 141   2.0000      -0.666582       -18.1386
 142   2.0000      -0.665430       -18.1073
 143   2.0000      -0.660403       -17.9705
 144   2.0000      -0.652986       -17.7686
 145   2.0000      -0.645036       -17.5523
 146   2.0000      -0.640847       -17.4383
 147   2.0000      -0.635453       -17.2916
 148   2.0000      -0.632297       -17.2057
 149   2.0000      -0.629194       -17.1212
 150   2.0000      -0.628118       -17.0919
 151   2.0000      -0.617814       -16.8116
 152   2.0000      -0.612182       -16.6583
 153   2.0000      -0.600679       -16.3453
 154   2.0000      -0.598153       -16.2766
 155   2.0000      -0.596130       -16.2215
 156   2.0000      -0.593663       -16.1544
 157   2.0000      -0.589331       -16.0365
 158   2.0000      -0.582340       -15.8463
 159   2.0000      -0.578266       -15.7354
 160   2.0000      -0.566932       -15.4270
 161   2.0000      -0.566512       -15.4156
 162   2.0000      -0.560145       -15.2423
 163   2.0000      -0.558543       -15.1987
 164   2.0000      -0.558269       -15.1913
 165   2.0000      -0.557145       -15.1607
 166   2.0000      -0.552859       -15.0441
 167   2.0000      -0.548336       -14.9210
 168   2.0000      -0.545952       -14.8561
 169   2.0000      -0.536099       -14.5880
 170   2.0000      -0.534255       -14.5378
 171   2.0000      -0.533507       -14.5175
 172   2.0000      -0.531431       -14.4610
 173   2.0000      -0.528631       -14.3848
 174   2.0000      -0.523793       -14.2531
 175   2.0000      -0.523511       -14.2455
 176   2.0000      -0.523421       -14.2430
 177   2.0000      -0.522023       -14.2050
 178   2.0000      -0.517662       -14.0863
 179   2.0000      -0.515688       -14.0326
 180   2.0000      -0.512899       -13.9567
 181   2.0000      -0.507620       -13.8131
 182   2.0000      -0.505262       -13.7489
 183   2.0000      -0.498900       -13.5758
 184   2.0000      -0.498275       -13.5587
 185   2.0000      -0.496058       -13.4984
 186   2.0000      -0.492033       -13.3889
 187   2.0000      -0.491665       -13.3789
 188   2.0000      -0.487267       -13.2592
 189   2.0000      -0.486904       -13.2493
 190   2.0000      -0.483570       -13.1586
 191   2.0000      -0.483237       -13.1495
 192   2.0000      -0.482066       -13.1177
 193   2.0000      -0.480564       -13.0768
 194   2.0000      -0.477025       -12.9805
 195   2.0000      -0.471145       -12.8205
 196   2.0000      -0.470837       -12.8121
 197   2.0000      -0.466748       -12.7009
 198   2.0000      -0.462616       -12.5884
 199   2.0000      -0.457940       -12.4612
 200   2.0000      -0.457611       -12.4522
 201   2.0000      -0.455334       -12.3903
 202   2.0000      -0.453887       -12.3509
 203   2.0000      -0.449184       -12.2229
 204   2.0000      -0.448834       -12.2134
 205   2.0000      -0.447240       -12.1700
 206   2.0000      -0.442006       -12.0276
 207   2.0000      -0.441341       -12.0095
 208   2.0000      -0.440421       -11.9845
 209   2.0000      -0.438390       -11.9292
 210   2.0000      -0.437308       -11.8998
 211   2.0000      -0.430052       -11.7023
 212   2.0000      -0.428492       -11.6599
 213   2.0000      -0.427388       -11.6298
 214   2.0000      -0.426509       -11.6059
 215   2.0000      -0.426300       -11.6002
 216   2.0000      -0.423698       -11.5294
 217   2.0000      -0.422176       -11.4880
 218   2.0000      -0.419775       -11.4227
 219   2.0000      -0.418991       -11.4013
 220   2.0000      -0.417434       -11.3590
 221   2.0000      -0.409788       -11.1509
 222   2.0000      -0.406373       -11.0580
 223   2.0000      -0.396949       -10.8015
 224   2.0000      -0.392676       -10.6853
 225   2.0000      -0.380872       -10.3641
 226   2.0000      -0.380816       -10.3625
 227   2.0000      -0.375472       -10.2171
 228   2.0000      -0.374667       -10.1952
 229   2.0000      -0.369518       -10.0551
 230   2.0000      -0.363262        -9.8849
 231   2.0000      -0.347088        -9.4447
 232   2.0000      -0.335500        -9.1294
 233   2.0000      -0.333735        -9.0814
 234   2.0000      -0.317667        -8.6441
 235   2.0000      -0.314375        -8.5546
 236   2.0000      -0.312544        -8.5048
 237   2.0000      -0.309784        -8.4297
 238   2.0000      -0.307064        -8.3556
 239   2.0000      -0.302457        -8.2303
 240   2.0000      -0.299011        -8.1365
 241   2.0000      -0.297415        -8.0931
 242   2.0000      -0.275714        -7.5026
 243   2.0000      -0.244462        -6.6521
 244   0.0000      -0.101674        -2.7667
 245   0.0000      -0.093247        -2.5374
 246   0.0000      -0.062726        -1.7069
 247   0.0000      -0.055519        -1.5107
 248   0.0000      -0.045993        -1.2515

MULLIKEN ATOMIC CHARGES
-----------------------
   0 C :   -0.096834
   1 C :    0.302425
   2 F :   -0.190638
   3 C :   -0.030164
   4 C :   -0.006683
   5 C :    0.098177
   6 C :    0.099029
   7 C :   -0.084270
   8 C :    0.036174
   9 C :    0.013157
  10 C :   -0.078870
  11 C :    0.137069
  12 O :   -0.145395
  13 C :   -0.141076
  14 C :    0.264412
  15 C :   -0.340378
  16 C :   -0.208749
  17 N :    0.176778
  18 C :   -0.172656
  19 N :    0.152592
  20 C :    0.094524
  21 C :   -0.130929
  22 C :    0.027173
  23 C :   -0.034261
  24 C :    0.008639
  25 S :    0.166800
  26 C :   -0.058770
  27 C :   -0.035713
  28 S :    0.147068
  29 C :   -0.052557
  30 C :   -0.049160
  31 C :   -0.011990
  32 C :   -0.012174
  33 S :    0.144416
  34 C :   -0.049184
  35 C :   -0.052543
  36 S :    0.144222
  37 C :   -0.035798
  38 C :   -0.058370
  39 C :    0.008594
  40 C :   -0.034220
  41 S :    0.147092
  42 C :    0.026667
  43 C :   -0.131212
  44 S :    0.166865
  45 C :    0.092771
  46 C :   -0.140957
  47 C :    0.136974
  48 O :   -0.145219
  49 C :    0.015972
  50 C :   -0.084078
  51 C :    0.102581
  52 C :    0.103807
  53 C :   -0.099837
  54 C :    0.304074
  55 C :   -0.027141
  56 C :   -0.012141
  57 F :   -0.189749
  58 C :   -0.090606
  59 C :    0.040124
  60 C :    0.262993
  61 C :   -0.336914
  62 C :   -0.209836
  63 N :    0.176900
  64 C :   -0.173908
  65 N :    0.153831
  66 H :   -0.003210
  67 H :    0.003410
  68 H :   -0.008446
  69 H :   -0.005157
  70 H :   -0.011729
  71 H :    0.023485
  72 H :    0.004415
  73 H :   -0.001503
  74 H :   -0.000795
  75 H :   -0.000866
  76 H :   -0.001351
  77 H :    0.005527
  78 H :    0.024053
  79 H :   -0.012089
  80 H :   -0.003598
  81 H :    0.003154
  82 H :   -0.008944
  83 H :   -0.005274
Sum of atomic charges:   -0.0000000

LOEWDIN ATOMIC CHARGES
----------------------
   0 C :   -0.042483
   1 C :    0.093108
   2 F :   -0.064768
   3 C :   -0.037164
   4 C :    0.004689
   5 C :   -0.019021
   6 C :    0.003115
   7 C :    0.009505
   8 C :   -0.017442
   9 C :   -0.059245
  10 C :    0.034150
  11 C :    0.082074
  12 O :   -0.146239
  13 C :   -0.097813
  14 C :    0.064763
  15 C :   -0.142939
  16 C :   -0.020527
  17 N :   -0.039931
  18 C :   -0.020816
  19 N :   -0.053432
  20 C :    0.050277
  21 C :   -0.178213
  22 C :   -0.021224
  23 C :   -0.197115
  24 C :   -0.177305
  25 S :    0.447737
  26 C :   -0.074268
  27 C :   -0.154310
  28 S :    0.430351
  29 C :   -0.174188
  30 C :   -0.063890
  31 C :   -0.195725
  32 C :   -0.195648
  33 S :    0.429517
  34 C :   -0.063976
  35 C :   -0.173962
  36 S :    0.429601
  37 C :   -0.154506
  38 C :   -0.074164
  39 C :   -0.177298
  40 C :   -0.196988
  41 S :    0.430208
  42 C :   -0.021906
  43 C :   -0.178007
  44 S :    0.447848
  45 C :    0.050285
  46 C :   -0.097750
  47 C :    0.082041
  48 O :   -0.146147
  49 C :   -0.059137
  50 C :    0.034034
  51 C :   -0.018803
  52 C :    0.003249
  53 C :   -0.042387
  54 C :    0.092884
  55 C :   -0.036924
  56 C :    0.004635
  57 F :   -0.064596
  58 C :    0.009486
  59 C :   -0.017410
  60 C :    0.064806
  61 C :   -0.142738
  62 C :   -0.020622
  63 N :   -0.039995
  64 C :   -0.020712
  65 N :   -0.053410
  66 H :    0.042956
  67 H :    0.041863
  68 H :    0.035937
  69 H :    0.038835
  70 H :    0.039782
  71 H :    0.046446
  72 H :    0.037868
  73 H :    0.032392
  74 H :    0.032361
  75 H :    0.032391
  76 H :    0.032374
  77 H :    0.038038
  78 H :    0.046569
  79 H :    0.039676
  80 H :    0.042897
  81 H :    0.041841
  82 H :    0.035778
  83 H :    0.038779

  Mayer bond orders larger than 0.100000
B(  0-C ,  1-C ) :   1.4393 B(  0-C ,  6-C ) :   1.2045 B(  0-C , 66-H ) :   1.0063
B(  1-C ,  2-F ) :   1.0883 B(  1-C ,  3-C ) :   1.2571 B(  3-C ,  4-C ) :   1.4601
B(  3-C , 67-H ) :   0.9920 B(  4-C ,  5-C ) :   1.2344 B(  4-C , 68-H ) :   0.9967
B(  5-C ,  6-C ) :   1.2568 B(  5-C , 10-C ) :   1.1910 B(  6-C ,  7-C ) :   1.2016
B(  7-C ,  8-C ) :   1.4635 B(  7-C , 69-H ) :   0.9945 B(  8-C ,  9-C ) :   1.2187
B(  8-C , 14-C ) :   0.9936 B(  9-C , 10-C ) :   1.4720 B(  9-C , 11-C ) :   0.9184
B( 10-C , 70-H ) :   1.0150 B( 11-C , 12-O ) :   2.2671 B( 11-C , 13-C ) :   0.9437
B( 13-C , 14-C ) :   1.0482 B( 13-C , 20-C ) :   1.6449 B( 14-C , 15-C ) :   1.6444
B( 15-C , 16-C ) :   1.1650 B( 15-C , 18-C ) :   1.1297 B( 16-C , 17-N ) :   3.0089
B( 18-C , 19-N ) :   2.9863 B( 20-C , 21-C ) :   1.1583 B( 20-C , 71-H ) :   0.9292
B( 21-C , 22-C ) :   1.4390 B( 21-C , 25-S ) :   1.0838 B( 22-C , 23-C ) :   1.3327
B( 22-C , 72-H ) :   0.9880 B( 23-C , 24-C ) :   1.3980 B( 23-C , 28-S ) :   1.0559
B( 24-C , 25-S ) :   1.0974 B( 24-C , 26-C ) :   1.2577 B( 26-C , 27-C ) :   1.5084
B( 26-C , 73-H ) :   0.9957 B( 27-C , 28-S ) :   1.1092 B( 27-C , 29-C ) :   1.1824
B( 29-C , 30-C ) :   1.5079 B( 29-C , 33-S ) :   1.1015 B( 30-C , 31-C ) :   1.2617
B( 30-C , 74-H ) :   0.9952 B( 31-C , 32-C ) :   1.4302 B( 31-C , 36-S ) :   1.0695
B( 32-C , 33-S ) :   1.0696 B( 32-C , 34-C ) :   1.2615 B( 34-C , 35-C ) :   1.5081
B( 34-C , 75-H ) :   0.9952 B( 35-C , 36-S ) :   1.1016 B( 35-C , 37-C ) :   1.1822
B( 37-C , 38-C ) :   1.5083 B( 37-C , 41-S ) :   1.1091 B( 38-C , 39-C ) :   1.2580
B( 38-C , 76-H ) :   0.9955 B( 39-C , 40-C ) :   1.3990 B( 39-C , 44-S ) :   1.0973
B( 40-C , 41-S ) :   1.0559 B( 40-C , 42-C ) :   1.3306 B( 42-C , 43-C ) :   1.4409
B( 42-C , 77-H ) :   0.9887 B( 43-C , 44-S ) :   1.0843 B( 43-C , 45-C ) :   1.1554
B( 45-C , 46-C ) :   1.6496 B( 45-C , 78-H ) :   0.9283 B( 46-C , 47-C ) :   0.9436
B( 46-C , 60-C ) :   1.0481 B( 47-C , 48-O ) :   2.2675 B( 47-C , 49-C ) :   0.9179
B( 49-C , 50-C ) :   1.4694 B( 49-C , 59-C ) :   1.2204 B( 50-C , 51-C ) :   1.1886
B( 50-C , 79-H ) :   1.0165 B( 51-C , 52-C ) :   1.2585 B( 51-C , 56-C ) :   1.2338
B( 52-C , 53-C ) :   1.2008 B( 52-C , 58-C ) :   1.2019 B( 53-C , 54-C ) :   1.4397
B( 53-C , 80-H ) :   1.0075 B( 54-C , 55-C ) :   1.2559 B( 54-C , 57-F ) :   1.0900
B( 55-C , 56-C ) :   1.4595 B( 55-C , 81-H ) :   0.9929 B( 56-C , 82-H ) :   0.9977
B( 58-C , 59-C ) :   1.4601 B( 58-C , 83-H ) :   0.9955 B( 59-C , 60-C ) :   0.9949
B( 60-C , 61-C ) :   1.6435 B( 61-C , 62-C ) :   1.1633 B( 61-C , 64-C ) :   1.1315
B( 62-C , 63-N ) :   3.0097 B( 64-C , 65-N ) :   2.9868

-----------------------------------------------------------------------------
         ABSORPTION SPECTRUM VIA TRANSITION ELECTRIC DIPOLE MOMENTS
-----------------------------------------------------------------------------
State   Energy  Wavelength   fosc         T2         TX        TY        TZ
        (cm-1)    (nm)                  (au**2)     (au)      (au)      (au)
-----------------------------------------------------------------------------
   0   16592.0    602.7   2.373468383  47.09351   5.03299  -4.23193  -1.96299
   1   19129.1    522.8   0.051610340   0.88822  -0.56780  -0.71804   0.22415
   2   25310.2    395.1   0.662467418   8.61677   2.40452  -1.62304   0.44813
   3   25802.0    387.6   0.028785534   0.36728   0.35953   0.46833  -0.13669
   4   27040.4    369.8   0.001625406   0.01979   0.08389   0.10819  -0.03235
   5   27115.1    368.8   0.009632663   0.11695  -0.25668   0.21333   0.07455
   6   27750.6    360.4   0.108596878   1.28831   0.92271  -0.56489   0.34323
   7   27800.6    359.7   0.001666649   0.01974   0.01588   0.13343  -0.04100
   8   28099.8    355.9   0.015384300   0.18024  -0.22648  -0.35688   0.03979
   9   28157.2    355.1   0.080605833   0.94244   0.36288  -0.04917   0.89907
  10   29182.9    342.7   0.044182007   0.49842   0.48225   0.46824  -0.21588
  11   29269.0    341.7   0.395928861   4.45332   1.23406  -1.28234  -1.13403
  12   30024.9    333.1   0.093375402   1.02383   0.74981  -0.61223  -0.29460
  13   30450.4    328.4   0.047974780   0.51868  -0.41611  -0.56818   0.15065
  14   30580.9    327.0   0.136178264   1.46600   0.60039  -0.67754  -0.80403
  15   31794.0    314.5   0.084336709   0.87327  -0.19308  -0.11027  -0.90765
  16   33550.0    298.1   0.131617593   1.29151   0.61516   0.92658  -0.23352
  17   33598.4    297.6   0.161211063   1.57961  -0.97762   0.73563   0.28763
  18   34106.1    293.2   0.014121957   0.13631  -0.02310  -0.34724  -0.12332
  19   34111.5    293.2   0.268838691   2.59457  -0.81554   0.86426   1.08744
  20   34344.6    291.2   0.019624131   0.18811  -0.25994  -0.32972   0.10874
  21   34575.1    289.2   0.006068681   0.05778   0.14611   0.18266  -0.05542
  22   35066.8    285.2   1.077201381  10.11291   1.58689  -1.78131  -2.10276
  23   35398.9    282.5   0.071463056   0.66461   0.47926   0.63606  -0.17419
  24   36140.2    276.7   0.085383883   0.77779  -0.25678  -0.03922  -0.84280
  25   36211.2    276.2   0.000752040   0.00684  -0.05765  -0.04562  -0.03785
  26   36391.3    274.8   0.000723787   0.00655  -0.04986  -0.06305   0.00931
  27   36784.4    271.9   0.057479572   0.51443  -0.58552   0.40647  -0.07985
  28   37274.6    268.3   0.018808454   0.16612   0.32576  -0.24436  -0.01690
  29   37992.4    263.2   0.009142209   0.07922  -0.16895  -0.21519   0.06610
  30   38432.3    260.2   0.026427267   0.22638   0.01630  -0.15900  -0.44814
  31   38575.1    259.2   0.008746135   0.07464  -0.14281  -0.21975   0.07719
  32   38720.5    258.3   0.181891539   1.54649   1.00981  -0.71364   0.13225
  33   38921.9    256.9   0.120619917   1.02024  -0.59088  -0.78974   0.21774
  34   39280.2    254.6   0.057712285   0.48369   0.50140  -0.23812   0.41904
  35   39370.1    254.0   0.004561191   0.03814  -0.08876  -0.16311   0.06047
  36   39729.3    251.7   0.026291449   0.21786  -0.26509  -0.36736   0.11242

FINAL SINGLE POINT ENERGY     -4946.661093254925

DIPOLE MOMENT
-------------
                                X             Y             Z
Electronic contribution:     -3.17934      -4.31072       1.19464
Nuclear contribution   :      5.06823       6.84498      -1.91962
                        -----------------------------------------
Total Dipole Moment    :      1.88889       2.53426      -0.72498
                        -----------------------------------------
Magnitude (a.u.)       :      3.24284
Magnitude (Debye)      :      8.24264

Rotational constants in cm-1:     0.003712     0.000169     0.000164
Rotational constants in MHz :   111.276642     5.058629     4.931402

                             ****ORCA TERMINATED NORMALLY****
TOTAL RUN TIME: 0 days 0 hours 7 minutes 37 seconds 0 msec
