                         Program Version 4.2.0 -  RELEASE  -
|  1> # ORCA input file
|  2> # SCF done       -186.987267228728          0.000626014187
|  3> ! CAM-B3LYP def2-SVP def2/J RIJCOSX Grid4 TightSCF
|  4> %maxcore 5000
|  5> %tddft
|  6>     Mode sTDDFT
|  7>     Ethresh 5.0
|  8>     maxcore 5000
|  9> end
| 10>
| 11> %pal
| 12>   nprocs 6
| 13>   end
| 14> * xyz 0 1
| 15>    C       10.71132         9.23205         3.32691
| 16>    C       10.20017        10.49039         3.48052
| 17>    F       11.02870        11.55044         3.44793
| 18>    C        8.83225        10.72803         3.67205
| 19>    C        7.97474         9.66396         3.70613
| 20>    C        8.44723         8.34454         3.55134
| 21>    C        9.84254         8.12385         3.36091
| 22>    C       10.34204         6.80901         3.21368
| 23>    C        9.47247         5.75275         3.25199
| 24>    C        8.07644         5.98063         3.42309
| 25>    C        7.56869         7.23836         3.57588
| 26>    C        7.36204         4.68880         3.38385
| 27>    O        6.17968         4.48964         3.54283
| 28>    C        8.40103         3.67884         3.04074
| 29>    C        9.69842         4.31228         3.16747
| 30>    C       10.88854         3.68374         3.42355
| 31>    C       12.10600         4.36534         3.62179
| 32>    N       13.12402         4.87612         3.76620
| 33>    C       11.02078         2.29116         3.60446
| 34>    N       11.18156         1.17570         3.82160
| 35>    C        8.03088         2.44442         2.61358
| 36>    C        8.81106         1.47946         1.90409
| 37>    C        9.84678         1.78867         1.02844
| 38>    C       10.57608         0.81809         0.35194
| 39>    C       10.36363        -0.54944         0.50564
| 40>    C        9.29006        -0.89847         1.36179
| 41>    C        8.51719         0.10400         2.02283
| 42>    N        7.58101        -0.51730         2.75173
| 43>    N        7.79006        -1.78349         2.52792
| 44>    N        8.77228        -2.08350         1.72531
| 45>    C        6.98622        -2.79464         3.14210
| 46>    C       11.20002        -1.53462        -0.14583
| 47>    C       11.07001        -2.89437         0.10924
| 48>    C       11.89712        -3.86260        -0.45252
| 49>    C       12.93601        -3.56871        -1.32751
| 50>    C       13.08217        -2.19304        -1.63516
| 51>    C       12.23192        -1.19678        -1.05641
| 52>    N       12.62125        -0.01188        -1.55301
| 53>    N       13.61118        -0.29630        -2.35118
| 54>    N       13.93706        -1.55397        -2.44932
| 55>    C       14.31984         0.72075        -3.06551
| 56>    C       13.81558        -4.59272        -1.84791
| 57>    C       14.94543        -4.28521        -2.60220
| 58>    C       15.83916        -5.24280        -3.06209
| 59>    C       15.71363        -6.60295        -2.78285
| 60>    C       14.54379        -6.95611        -2.07059
| 61>    C       13.61407        -5.97435        -1.60885
| 62>    N       12.62810        -6.63948        -0.98397
| 63>    N       12.95677        -7.89390        -1.08354
| 64>    N       14.06901        -8.15801        -1.71422
| 65>    C       12.16763        -8.93157        -0.49490
| 66>    C       16.70132        -7.52473        -3.24189
| 67>    C       16.99951        -8.78261        -2.81766
| 68>    C       17.78284        -9.68134        -3.70992
| 69>    O       18.40970        -9.36275        -4.69488
| 70>    C       17.57936       -11.03961        -3.16642
| 71>    C       17.99835       -12.23778        -3.66748
| 72>    C       17.66704       -13.42716        -2.97967
| 73>    C       16.89997       -13.34941        -1.78086
| 74>    C       16.56929       -14.53941        -1.10359
| 75>    C       16.99234       -15.73804        -1.60625
| 76>    C       17.74938       -15.83532        -2.78139
| 77>    C       18.07770       -14.69022        -3.45246
| 78>    F       16.67708       -16.87598        -0.95915
| 79>    C       16.48685       -12.09282        -1.28008
| 80>    C       16.82473       -10.95452        -1.96055
| 81>    C       16.58851        -9.54597        -1.66341
| 82>    C       16.23857        -9.03850        -0.43918
| 83>    C       16.36047        -7.67542        -0.10153
| 84>    N       16.48794        -6.58613         0.23735
| 85>    C       15.74608        -9.81432         0.62528
| 86>    N       15.26458       -10.38343         1.49981
| 87>    H       11.77089         9.08605         3.18599
| 88>    H        8.48691        11.74307         3.78803
| 89>    H        6.91674         9.82160         3.85244
| 90>    H       11.40132         6.67049         3.06489
| 91>    H        6.50840         7.38834         3.71394
| 92>    H        6.99643         2.17136         2.79553
| 93>    H       10.07811         2.82785         0.84116
| 94>    H       11.36199         1.13600        -0.31384
| 95>    H        6.17826        -2.30218         3.67763
| 96>    H        7.59131        -3.37856         3.83705
| 97>    H        6.58667        -3.46180         2.37839
| 98>    H       10.29751        -3.21218         0.79024
| 99>    H       11.73414        -4.89344        -0.18428
|100>    H       13.60924         1.44701        -3.45712
|101>    H       14.87190         0.24920        -3.87522
|102>    H       15.01663         1.23217        -2.39848
|103>    H       15.13785        -3.24853        -2.82543
|104>    H       16.70348        -4.91429        -3.62105
|105>    H       12.66996        -9.32366         0.39181
|106>    H       12.04145        -9.74137        -1.21176
|107>    H       11.20475        -8.51120        -0.21640
|108>    H       17.27556        -7.19500        -4.10353
|109>    H       18.57805       -12.27963        -4.57749
|110>    H       15.99102       -14.50245        -0.19353
|111>    H       18.05592       -16.80884        -3.12970
|112>    H       18.66034       -14.73944        -4.36008
|113>    H       15.90595       -12.06170        -0.37173
|114> *
|115>
|116>                          ****END OF INPUT****

CARTESIAN COORDINATES (ANGSTROEM)
---------------------------------
  C     10.711320    9.232050    3.326910
  C     10.200170   10.490390    3.480520
  F     11.028700   11.550440    3.447930
  C      8.832250   10.728030    3.672050
  C      7.974740    9.663960    3.706130
  C      8.447230    8.344540    3.551340
  C      9.842540    8.123850    3.360910
  C     10.342040    6.809010    3.213680
  C      9.472470    5.752750    3.251990
  C      8.076440    5.980630    3.423090
  C      7.568690    7.238360    3.575880
  C      7.362040    4.688800    3.383850
  O      6.179680    4.489640    3.542830
  C      8.401030    3.678840    3.040740
  C      9.698420    4.312280    3.167470
  C     10.888540    3.683740    3.423550
  C     12.106000    4.365340    3.621790
  N     13.124020    4.876120    3.766200
  C     11.020780    2.291160    3.604460
  N     11.181560    1.175700    3.821600
  C      8.030880    2.444420    2.613580
  C      8.811060    1.479460    1.904090
  C      9.846780    1.788670    1.028440
  C     10.576080    0.818090    0.351940
  C     10.363630   -0.549440    0.505640
  C      9.290060   -0.898470    1.361790
  C      8.517190    0.104000    2.022830
  N      7.581010   -0.517300    2.751730
  N      7.790060   -1.783490    2.527920
  N      8.772280   -2.083500    1.725310
  C      6.986220   -2.794640    3.142100
  C     11.200020   -1.534620   -0.145830
  C     11.070010   -2.894370    0.109240
  C     11.897120   -3.862600   -0.452520
  C     12.936010   -3.568710   -1.327510
  C     13.082170   -2.193040   -1.635160
  C     12.231920   -1.196780   -1.056410
  N     12.621250   -0.011880   -1.553010
  N     13.611180   -0.296300   -2.351180
  N     13.937060   -1.553970   -2.449320
  C     14.319840    0.720750   -3.065510
  C     13.815580   -4.592720   -1.847910
  C     14.945430   -4.285210   -2.602200
  C     15.839160   -5.242800   -3.062090
  C     15.713630   -6.602950   -2.782850
  C     14.543790   -6.956110   -2.070590
  C     13.614070   -5.974350   -1.608850
  N     12.628100   -6.639480   -0.983970
  N     12.956770   -7.893900   -1.083540
  N     14.069010   -8.158010   -1.714220
  C     12.167630   -8.931570   -0.494900
  C     16.701320   -7.524730   -3.241890
  C     16.999510   -8.782610   -2.817660
  C     17.782840   -9.681340   -3.709920
  O     18.409700   -9.362750   -4.694880
  C     17.579360  -11.039610   -3.166420
  C     17.998350  -12.237780   -3.667480
  C     17.667040  -13.427160   -2.979670
  C     16.899970  -13.349410   -1.780860
  C     16.569290  -14.539410   -1.103590
  C     16.992340  -15.738040   -1.606250
  C     17.749380  -15.835320   -2.781390
  C     18.077700  -14.690220   -3.452460
  F     16.677080  -16.875980   -0.959150
  C     16.486850  -12.092820   -1.280080
  C     16.824730  -10.954520   -1.960550
  C     16.588510   -9.545970   -1.663410
  C     16.238570   -9.038500   -0.439180
  C     16.360470   -7.675420   -0.101530
  N     16.487940   -6.586130    0.237350
  C     15.746080   -9.814320    0.625280
  N     15.264580  -10.383430    1.499810
  H     11.770890    9.086050    3.185990
  H      8.486910   11.743070    3.788030
  H      6.916740    9.821600    3.852440
  H     11.401320    6.670490    3.064890
  H      6.508400    7.388340    3.713940
  H      6.996430    2.171360    2.795530
  H     10.078110    2.827850    0.841160
  H     11.361990    1.136000   -0.313840
  H      6.178260   -2.302180    3.677630
  H      7.591310   -3.378560    3.837050
  H      6.586670   -3.461800    2.378390
  H     10.297510   -3.212180    0.790240
  H     11.734140   -4.893440   -0.184280
  H     13.609240    1.447010   -3.457120
  H     14.871900    0.249200   -3.875220
  H     15.016630    1.232170   -2.398480
  H     15.137850   -3.248530   -2.825430
  H     16.703480   -4.914290   -3.621050
  H     12.669960   -9.323660    0.391810
  H     12.041450   -9.741370   -1.211760
  H     11.204750   -8.511200   -0.216400
  H     17.275560   -7.195000   -4.103530
  H     18.578050  -12.279630   -4.577490
  H     15.991020  -14.502450   -0.193530
  H     18.055920  -16.808840   -3.129700
  H     18.660340  -14.739440   -4.360080
  H     15.905950  -12.061700   -0.371730

 Total Charge           Charge          ....    0
 Multiplicity           Mult            ....    1
 Number of Electrons    NEL             ....  482
 Basis Dimension        Dim             .... 1143

ORBITAL ENERGIES
----------------

  NO   OCC          E(Eh)            E(eV)
   0   2.0000     -24.784478      -674.4199
   1   2.0000     -24.781896      -674.3497
   2   2.0000     -19.210036      -522.7317
   3   2.0000     -19.207151      -522.6531
   4   2.0000     -14.545361      -395.7994
   5   2.0000     -14.543514      -395.7491
   6   2.0000     -14.543483      -395.7483
   7   2.0000     -14.447740      -393.1430
   8   2.0000     -14.444789      -393.0627
   9   2.0000     -14.444032      -393.0421
  10   2.0000     -14.443422      -393.0255
  11   2.0000     -14.442591      -393.0029
  12   2.0000     -14.442199      -392.9922
  13   2.0000     -14.413223      -392.2037
  14   2.0000     -14.412960      -392.1966
  15   2.0000     -14.409379      -392.0991
  16   2.0000     -14.404058      -391.9543
  17   2.0000     -10.368192      -282.1329
  18   2.0000     -10.364941      -282.0444
  19   2.0000     -10.361541      -281.9519
  20   2.0000     -10.357856      -281.8516
  21   2.0000     -10.339926      -281.3637
  22   2.0000     -10.338331      -281.3203
  23   2.0000     -10.332013      -281.1484
  24   2.0000     -10.327574      -281.0276
  25   2.0000     -10.325738      -280.9776
  26   2.0000     -10.323234      -280.9095
  27   2.0000     -10.321665      -280.8668
  28   2.0000     -10.315903      -280.7100
  29   2.0000     -10.315823      -280.7078
  30   2.0000     -10.311002      -280.5766
  31   2.0000     -10.310682      -280.5679
  32   2.0000     -10.307590      -280.4838
  33   2.0000     -10.305913      -280.4381
  34   2.0000     -10.304651      -280.4038
  35   2.0000     -10.304602      -280.4025
  36   2.0000     -10.304217      -280.3920
  37   2.0000     -10.303980      -280.3856
  38   2.0000     -10.303607      -280.3754
  39   2.0000     -10.303551      -280.3739
  40   2.0000     -10.303177      -280.3637
  41   2.0000     -10.302577      -280.3474
  42   2.0000     -10.300761      -280.2980
  43   2.0000     -10.299654      -280.2678
  44   2.0000     -10.299598      -280.2663
  45   2.0000     -10.298691      -280.2416
  46   2.0000     -10.297859      -280.2190
  47   2.0000     -10.296361      -280.1782
  48   2.0000     -10.296325      -280.1772
  49   2.0000     -10.296305      -280.1767
  50   2.0000     -10.295445      -280.1533
  51   2.0000     -10.293968      -280.1131
  52   2.0000     -10.293149      -280.0908
  53   2.0000     -10.293090      -280.0892
  54   2.0000     -10.292837      -280.0823
  55   2.0000     -10.292688      -280.0783
  56   2.0000     -10.292424      -280.0711
  57   2.0000     -10.290903      -280.0297
  58   2.0000     -10.290055      -280.0066
  59   2.0000     -10.289844      -280.0009
  60   2.0000     -10.289776      -279.9990
  61   2.0000     -10.288083      -279.9530
  62   2.0000     -10.287745      -279.9438
  63   2.0000     -10.287601      -279.9398
  64   2.0000     -10.287490      -279.9368
  65   2.0000     -10.285596      -279.8853
  66   2.0000     -10.284378      -279.8521
  67   2.0000     -10.283051      -279.8160
  68   2.0000     -10.271202      -279.4936
  69   2.0000     -10.271001      -279.4882
  70   2.0000     -10.268827      -279.4290
  71   2.0000     -10.267733      -279.3992
  72   2.0000      -1.299270       -35.3549
  73   2.0000      -1.296417       -35.2773
  74   2.0000      -1.222899       -33.2768
  75   2.0000      -1.221334       -33.2342
  76   2.0000      -1.220677       -33.2163
  77   2.0000      -1.125097       -30.6154
  78   2.0000      -1.121837       -30.5267
  79   2.0000      -1.015603       -27.6360
  80   2.0000      -1.012713       -27.5573
  81   2.0000      -0.997710       -27.1491
  82   2.0000      -0.996506       -27.1163
  83   2.0000      -0.995467       -27.0880
  84   2.0000      -0.994506       -27.0619
  85   2.0000      -0.993663       -27.0390
  86   2.0000      -0.991240       -26.9730
  87   2.0000      -0.988935       -26.9103
  88   2.0000      -0.984974       -26.8025
  89   2.0000      -0.980329       -26.6761
  90   2.0000      -0.974016       -26.5043
  91   2.0000      -0.971659       -26.4402
  92   2.0000      -0.968352       -26.3502
  93   2.0000      -0.929747       -25.2997
  94   2.0000      -0.927662       -25.2430
  95   2.0000      -0.923981       -25.1428
  96   2.0000      -0.920795       -25.0561
  97   2.0000      -0.916865       -24.9492
  98   2.0000      -0.905399       -24.6372
  99   2.0000      -0.895598       -24.3704
 100   2.0000      -0.888520       -24.1779
 101   2.0000      -0.884144       -24.0588
 102   2.0000      -0.880300       -23.9542
 103   2.0000      -0.874822       -23.8051
 104   2.0000      -0.857202       -23.3257
 105   2.0000      -0.838937       -22.8286
 106   2.0000      -0.832265       -22.6471
 107   2.0000      -0.828329       -22.5400
 108   2.0000      -0.819518       -22.3002
 109   2.0000      -0.817446       -22.2438
 110   2.0000      -0.812260       -22.1027
 111   2.0000      -0.808594       -22.0030
 112   2.0000      -0.790089       -21.4994
 113   2.0000      -0.780344       -21.2343
 114   2.0000      -0.758887       -20.6504
 115   2.0000      -0.754079       -20.5195
 116   2.0000      -0.743458       -20.2305
 117   2.0000      -0.741513       -20.1776
 118   2.0000      -0.730973       -19.8908
 119   2.0000      -0.727425       -19.7942
 120   2.0000      -0.718892       -19.5621
 121   2.0000      -0.716728       -19.5032
 122   2.0000      -0.710579       -19.3358
 123   2.0000      -0.710310       -19.3285
 124   2.0000      -0.706923       -19.2364
 125   2.0000      -0.702954       -19.1283
 126   2.0000      -0.701815       -19.0974
 127   2.0000      -0.694014       -18.8851
 128   2.0000      -0.678376       -18.4595
 129   2.0000      -0.675614       -18.3844
 130   2.0000      -0.671828       -18.2814
 131   2.0000      -0.658202       -17.9106
 132   2.0000      -0.642592       -17.4858
 133   2.0000      -0.633207       -17.2304
 134   2.0000      -0.632898       -17.2220
 135   2.0000      -0.630745       -17.1634
 136   2.0000      -0.628823       -17.1112
 137   2.0000      -0.627352       -17.0711
 138   2.0000      -0.624517       -16.9940
 139   2.0000      -0.619835       -16.8666
 140   2.0000      -0.618368       -16.8266
 141   2.0000      -0.608882       -16.5685
 142   2.0000      -0.608040       -16.5456
 143   2.0000      -0.606646       -16.5077
 144   2.0000      -0.605339       -16.4721
 145   2.0000      -0.600869       -16.3505
 146   2.0000      -0.596945       -16.2437
 147   2.0000      -0.592926       -16.1343
 148   2.0000      -0.589541       -16.0422
 149   2.0000      -0.586760       -15.9666
 150   2.0000      -0.573595       -15.6083
 151   2.0000      -0.572620       -15.5818
 152   2.0000      -0.565219       -15.3804
 153   2.0000      -0.559486       -15.2244
 154   2.0000      -0.557399       -15.1676
 155   2.0000      -0.556719       -15.1491
 156   2.0000      -0.555146       -15.1063
 157   2.0000      -0.554148       -15.0791
 158   2.0000      -0.552530       -15.0351
 159   2.0000      -0.551510       -15.0073
 160   2.0000      -0.546325       -14.8663
 161   2.0000      -0.542479       -14.7616
 162   2.0000      -0.540979       -14.7208
 163   2.0000      -0.530372       -14.4321
 164   2.0000      -0.527972       -14.3669
 165   2.0000      -0.527637       -14.3577
 166   2.0000      -0.525292       -14.2939
 167   2.0000      -0.522090       -14.2068
 168   2.0000      -0.521323       -14.1859
 169   2.0000      -0.518562       -14.1108
 170   2.0000      -0.515962       -14.0400
 171   2.0000      -0.512961       -13.9584
 172   2.0000      -0.511895       -13.9294
 173   2.0000      -0.510644       -13.8953
 174   2.0000      -0.509624       -13.8676
 175   2.0000      -0.507609       -13.8127
 176   2.0000      -0.506909       -13.7937
 177   2.0000      -0.505860       -13.7651
 178   2.0000      -0.504591       -13.7306
 179   2.0000      -0.498189       -13.5564
 180   2.0000      -0.494326       -13.4513
 181   2.0000      -0.493129       -13.4187
 182   2.0000      -0.489739       -13.3265
 183   2.0000      -0.485893       -13.2218
 184   2.0000      -0.482922       -13.1410
 185   2.0000      -0.481041       -13.0898
 186   2.0000      -0.478728       -13.0268
 187   2.0000      -0.477129       -12.9833
 188   2.0000      -0.476036       -12.9536
 189   2.0000      -0.471490       -12.8299
 190   2.0000      -0.465428       -12.6649
 191   2.0000      -0.460769       -12.5382
 192   2.0000      -0.460528       -12.5316
 193   2.0000      -0.456526       -12.4227
 194   2.0000      -0.455969       -12.4076
 195   2.0000      -0.454511       -12.3679
 196   2.0000      -0.451866       -12.2959
 197   2.0000      -0.447980       -12.1902
 198   2.0000      -0.446646       -12.1539
 199   2.0000      -0.445129       -12.1126
 200   2.0000      -0.442686       -12.0461
 201   2.0000      -0.438239       -11.9251
 202   2.0000      -0.436396       -11.8749
 203   2.0000      -0.435772       -11.8580
 204   2.0000      -0.434162       -11.8141
 205   2.0000      -0.432823       -11.7777
 206   2.0000      -0.431493       -11.7415
 207   2.0000      -0.425291       -11.5728
 208   2.0000      -0.422331       -11.4922
 209   2.0000      -0.421715       -11.4755
 210   2.0000      -0.420150       -11.4329
 211   2.0000      -0.414821       -11.2879
 212   2.0000      -0.412020       -11.2116
 213   2.0000      -0.405991       -11.0476
 214   2.0000      -0.403526       -10.9805
 215   2.0000      -0.400523       -10.8988
 216   2.0000      -0.396214       -10.7815
 217   2.0000      -0.393783       -10.7154
 218   2.0000      -0.385928       -10.5016
 219   2.0000      -0.384546       -10.4640
 220   2.0000      -0.382350       -10.4043
 221   2.0000      -0.378572       -10.3015
 222   2.0000      -0.377293       -10.2667
 223   2.0000      -0.375416       -10.2156
 224   2.0000      -0.371919       -10.1204
 225   2.0000      -0.370161       -10.0726
 226   2.0000      -0.368248       -10.0205
 227   2.0000      -0.346356        -9.4248
 228   2.0000      -0.342095        -9.3089
 229   2.0000      -0.330735        -8.9997
 230   2.0000      -0.328875        -8.9491
 231   2.0000      -0.326282        -8.8786
 232   2.0000      -0.324154        -8.8207
 233   2.0000      -0.320220        -8.7136
 234   2.0000      -0.318822        -8.6756
 235   2.0000      -0.310516        -8.4496
 236   2.0000      -0.302890        -8.2421
 237   2.0000      -0.297436        -8.0936
 238   2.0000      -0.290289        -7.8992
 239   2.0000      -0.284084        -7.7303
 240   2.0000      -0.249834        -6.7983
 241   0.0000      -0.099054        -2.6954
 242   0.0000      -0.085452        -2.3253
 243   0.0000      -0.057675        -1.5694
 244   0.0000      -0.049024        -1.3340
 245   0.0000      -0.041352        -1.1253

MULLIKEN ATOMIC CHARGES
-----------------------
   0 C :   -0.097126
   1 C :    0.301914
   2 F :   -0.191537
   3 C :   -0.030067
   4 C :   -0.008229
   5 C :    0.098948
   6 C :    0.100418
   7 C :   -0.084599
   8 C :    0.034820
   9 C :    0.012376
  10 C :   -0.081132
  11 C :    0.137051
  12 O :   -0.141404
  13 C :   -0.117969
  14 C :    0.267643
  15 C :   -0.334159
  16 C :   -0.179103
  17 N :    0.150860
  18 C :   -0.191604
  19 N :    0.176516
  20 C :    0.022615
  21 C :    0.004007
  22 C :   -0.005586
  23 C :   -0.056004
  24 C :    0.087325
  25 C :   -0.013824
  26 C :    0.000837
  27 N :   -0.044230
  28 N :   -0.063988
  29 N :   -0.071124
  30 C :    0.146361
  31 C :    0.079818
  32 C :   -0.053346
  33 C :   -0.049913
  34 C :    0.075573
  35 C :   -0.031019
  36 C :   -0.030653
  37 N :   -0.069326
  38 N :   -0.056150
  39 N :   -0.067332
  40 C :    0.145595
  41 C :    0.078339
  42 C :   -0.054476
  43 C :   -0.004151
  44 C :    0.079898
  45 C :   -0.038214
  46 C :   -0.002520
  47 N :   -0.055009
  48 N :   -0.058517
  49 N :   -0.067319
  50 C :    0.140352
  51 C :   -0.006068
  52 C :   -0.115557
  53 C :    0.133752
  54 O :   -0.146559
  55 C :    0.004903
  56 C :   -0.077876
  57 C :    0.097547
  58 C :    0.103043
  59 C :   -0.097360
  60 C :    0.302085
  61 C :   -0.032871
  62 C :   -0.008631
  63 F :   -0.192829
  64 C :   -0.095252
  65 C :    0.049721
  66 C :    0.312632
  67 C :   -0.319538
  68 C :   -0.225073
  69 N :    0.175929
  70 C :   -0.167393
  71 N :    0.123818
  72 H :   -0.002958
  73 H :    0.003015
  74 H :   -0.007893
  75 H :   -0.004993
  76 H :   -0.011298
  77 H :    0.031258
  78 H :   -0.012703
  79 H :   -0.016930
  80 H :    0.054484
  81 H :    0.058212
  82 H :    0.052038
  83 H :   -0.016431
  84 H :   -0.014820
  85 H :    0.051984
  86 H :    0.052144
  87 H :    0.058910
  88 H :   -0.013807
  89 H :   -0.015594
  90 H :    0.067591
  91 H :    0.051317
  92 H :    0.050271
  93 H :    0.016218
  94 H :   -0.013955
  95 H :   -0.005701
  96 H :    0.001168
  97 H :   -0.010167
  98 H :   -0.011420
Sum of atomic charges:   -0.0000000

LOEWDIN ATOMIC CHARGES
----------------------
   0 C :   -0.042500
   1 C :    0.092979
   2 F :   -0.065693
   3 C :   -0.037299
   4 C :    0.004509
   5 C :   -0.018756
   6 C :    0.003079
   7 C :    0.009876
   8 C :   -0.017610
   9 C :   -0.059068
  10 C :    0.033803
  11 C :    0.082755
  12 O :   -0.142654
  13 C :   -0.089990
  14 C :    0.066227
  15 C :   -0.134305
  16 C :   -0.018702
  17 N :   -0.053833
  18 C :   -0.017666
  19 N :   -0.040770
  20 C :    0.089526
  21 C :   -0.049668
  22 C :    0.009040
  23 C :   -0.013388
  24 C :    0.002226
  25 C :   -0.034983
  26 C :   -0.038065
  27 N :   -0.085954
  28 N :    0.159094
  29 N :   -0.089651
  30 C :    0.033748
  31 C :   -0.019877
  32 C :   -0.004496
  33 C :   -0.000933
  34 C :   -0.024178
  35 C :   -0.037996
  36 C :   -0.036970
  37 N :   -0.088838
  38 N :    0.155111
  39 N :   -0.086880
  40 C :    0.033522
  41 C :    0.011417
  42 C :   -0.018125
  43 C :    0.024864
  44 C :   -0.049487
  45 C :   -0.040094
  46 C :   -0.037997
  47 N :   -0.076199
  48 N :    0.160867
  49 N :   -0.086864
  50 C :    0.032494
  51 C :    0.074816
  52 C :   -0.088173
  53 C :    0.084318
  54 O :   -0.146446
  55 C :   -0.059288
  56 C :    0.033273
  57 C :   -0.020536
  58 C :    0.003475
  59 C :   -0.044461
  60 C :    0.092196
  61 C :   -0.039832
  62 C :    0.004358
  63 F :   -0.067282
  64 C :    0.004320
  65 C :   -0.011330
  66 C :    0.073062
  67 C :   -0.133880
  68 C :   -0.023336
  69 N :   -0.050749
  70 C :   -0.012590
  71 N :   -0.068911
  72 H :    0.042919
  73 H :    0.041675
  74 H :    0.035865
  75 H :    0.038797
  76 H :    0.039657
  77 H :    0.050562
  78 H :    0.031692
  79 H :    0.028501
  80 H :    0.043414
  81 H :    0.042941
  82 H :    0.040799
  83 H :    0.028842
  84 H :    0.028891
  85 H :    0.041309
  86 H :    0.041894
  87 H :    0.042413
  88 H :    0.028992
  89 H :    0.035093
  90 H :    0.044578
  91 H :    0.041456
  92 H :    0.041450
  93 H :    0.046051
  94 H :    0.038757
  95 H :    0.041715
  96 H :    0.040864
  97 H :    0.035190
  98 H :    0.037031

  Mayer bond orders larger than 0.100000
B(  0-C ,  1-C ) :   1.4429 B(  0-C ,  6-C ) :   1.2015 B(  0-C , 72-H ) :   1.0064
B(  1-C ,  2-F ) :   1.0873 B(  1-C ,  3-C ) :   1.2542 B(  3-C ,  4-C ) :   1.4602
B(  3-C , 73-H ) :   0.9937 B(  4-C ,  5-C ) :   1.2349 B(  4-C , 74-H ) :   0.9972
B(  5-C ,  6-C ) :   1.2545 B(  5-C , 10-C ) :   1.1927 B(  6-C ,  7-C ) :   1.2057
B(  7-C ,  8-C ) :   1.4599 B(  7-C , 75-H ) :   0.9946 B(  8-C ,  9-C ) :   1.2200
B(  8-C , 14-C ) :   0.9989 B(  9-C , 10-C ) :   1.4704 B(  9-C , 11-C ) :   0.9164
B( 10-C , 76-H ) :   1.0154 B( 11-C , 12-O ) :   2.2766 B( 11-C , 13-C ) :   0.9369
B( 13-C , 14-C ) :   1.0271 B( 13-C , 20-C ) :   1.6619 B( 14-C , 15-C ) :   1.6628
B( 15-C , 16-C ) :   1.1329 B( 15-C , 18-C ) :   1.1617 B( 16-C , 17-N ) :   2.9849
B( 18-C , 19-N ) :   3.0041 B( 20-C , 21-C ) :   1.0647 B( 20-C , 77-H ) :   0.9497
B( 21-C , 22-C ) :   1.3938 B( 21-C , 24-C ) :   0.1173 B( 21-C , 26-C ) :   1.1975
B( 22-C , 23-C ) :   1.2579 B( 22-C , 78-H ) :   0.9930 B( 23-C , 24-C ) :   1.4476
B( 23-C , 79-H ) :   0.9702 B( 24-C , 25-C ) :   1.1748 B( 24-C , 31-C ) :   1.0853
B( 25-C , 26-C ) :   1.2312 B( 25-C , 29-N ) :   1.4483 B( 26-C , 27-N ) :   1.5045
B( 27-N , 28-N ) :   1.2360 B( 27-N , 29-N ) :   0.1634 B( 28-N , 29-N ) :   1.2199
B( 28-N , 30-C ) :   0.9534 B( 30-C , 80-H ) :   0.9663 B( 30-C , 81-H ) :   0.9698
B( 30-C , 82-H ) :   0.9696 B( 31-C , 32-C ) :   1.4485 B( 31-C , 34-C ) :   0.1191
B( 31-C , 36-C ) :   1.1680 B( 32-C , 33-C ) :   1.2209 B( 32-C , 83-H ) :   0.9720
B( 33-C , 34-C ) :   1.4492 B( 33-C , 84-H ) :   0.9732 B( 34-C , 35-C ) :   1.1694
B( 34-C , 41-C ) :   1.0823 B( 35-C , 36-C ) :   1.2370 B( 35-C , 39-N ) :   1.4572
B( 36-C , 37-N ) :   1.4562 B( 37-N , 38-N ) :   1.2214 B( 37-N , 39-N ) :   0.1633
B( 38-N , 39-N ) :   1.2324 B( 38-N , 40-C ) :   0.9558 B( 40-C , 85-H ) :   0.9689
B( 40-C , 86-H ) :   0.9672 B( 40-C , 87-H ) :   0.9697 B( 41-C , 42-C ) :   1.4414
B( 41-C , 44-C ) :   0.1059 B( 41-C , 46-C ) :   1.1825 B( 42-C , 43-C ) :   1.2585
B( 42-C , 88-H ) :   0.9677 B( 43-C , 44-C ) :   1.3712 B( 43-C , 89-H ) :   0.9951
B( 44-C , 45-C ) :   1.1676 B( 44-C , 51-C ) :   1.0930 B( 45-C , 46-C ) :   1.2330
B( 45-C , 49-N ) :   1.4727 B( 46-C , 47-N ) :   1.4469 B( 47-N , 48-N ) :   1.2505
B( 47-N , 49-N ) :   0.1542 B( 48-N , 49-N ) :   1.2087 B( 48-N , 50-C ) :   0.9527
B( 50-C , 90-H ) :   0.9632 B( 50-C , 91-H ) :   0.9679 B( 50-C , 92-H ) :   0.9656
B( 51-C , 52-C ) :   1.6444 B( 51-C , 93-H ) :   0.9461 B( 52-C , 53-C ) :   0.9379
B( 52-C , 66-C ) :   1.0489 B( 53-C , 54-O ) :   2.2658 B( 53-C , 55-C ) :   0.9206
B( 55-C , 56-C ) :   1.4731 B( 55-C , 65-C ) :   1.2136 B( 56-C , 57-C ) :   1.1922
B( 56-C , 94-H ) :   1.0138 B( 57-C , 58-C ) :   1.2577 B( 57-C , 62-C ) :   1.2338
B( 58-C , 59-C ) :   1.2037 B( 58-C , 64-C ) :   1.1992 B( 59-C , 60-C ) :   1.4408
B( 59-C , 95-H ) :   1.0057 B( 60-C , 61-C ) :   1.2563 B( 60-C , 63-F ) :   1.0861
B( 61-C , 62-C ) :   1.4596 B( 61-C , 96-H ) :   0.9933 B( 62-C , 97-H ) :   0.9967
B( 64-C , 65-C ) :   1.4632 B( 64-C , 98-H ) :   0.9934 B( 65-C , 66-C ) :   1.0097
B( 66-C , 67-C ) :   1.6366 B( 67-C , 68-C ) :   1.1578 B( 67-C , 70-C ) :   1.1557
B( 68-C , 69-N ) :   3.0145 B( 70-C , 71-N ) :   2.9183

-----------------------------------------------------------------------------
         ABSORPTION SPECTRUM VIA TRANSITION ELECTRIC DIPOLE MOMENTS
-----------------------------------------------------------------------------
State   Energy  Wavelength   fosc         T2         TX        TY        TZ
        (cm-1)    (nm)                  (au**2)     (au)      (au)      (au)
-----------------------------------------------------------------------------
   0   17367.3    575.8   1.564378083  29.65413   2.15670  -4.69322  -1.72525
   1   20791.3    481.0   0.229435563   3.63291   1.40697  -1.04069   0.75519
   2   25978.9    384.9   0.043391718   0.54987   0.25507   0.41787   0.55695
   3   26518.2    377.1   0.065523760   0.81345   0.13962  -0.03387  -0.89040
   4   27034.0    369.9   0.400544452   4.87771   1.47648  -1.34849  -0.93772
   5   27572.0    362.7   0.026329529   0.31438  -0.06962   0.48843   0.26640
   6   28221.4    354.3   0.007649503   0.08923  -0.13117   0.03065  -0.26662
   7   28340.3    352.9   0.109937195   1.27707   0.85654  -0.52631  -0.51614
   8   29472.7    339.3   0.009108117   0.10174   0.10251   0.26980  -0.13579
   9   29943.0    334.0   0.026922908   0.29601  -0.16309   0.47530   0.20856
  10   30093.0    332.3   0.182830996   2.00014  -0.55806   1.23106   0.41618
  11   30437.0    328.5   0.165015154   1.78483   0.31117  -1.29911  -0.01826
  12   31110.3    321.4   0.069597514   0.73649   0.27566   0.77898  -0.23170
  13   31243.6    320.1   0.034342367   0.36186  -0.19652  -0.55587   0.11938
  14   31567.6    316.8   0.012287766   0.12815   0.15661   0.24409  -0.20986
  15   32684.6    306.0   0.152162517   1.53264  -0.55018  -1.05750   0.33412
  16   33283.8    300.4   0.288294167   2.85153  -0.58671   1.29683   0.90859
  17   33628.0    297.4   0.083509074   0.81754   0.53698  -0.69054   0.22880
  18   33700.6    296.7   0.274179784   2.67839   0.42088  -1.58151  -0.00849
  19   34099.2    293.3   0.041317600   0.39890   0.01769  -0.59155  -0.22059
  20   34811.1    287.3   0.030161075   0.28524   0.05867  -0.53073  -0.01082
  21   34940.3    286.2   0.453395772   4.27196  -0.32789   2.03958  -0.06747
  22   35061.2    285.2   0.237194202   2.22717   0.07417  -1.43637  -0.39812
  23   35824.0    279.1   0.024742537   0.22738   0.35382  -0.31967   0.00047
  24   36326.2    275.3   0.261985907   2.37429   0.04796   1.53065   0.17056
  25   36913.3    270.9   0.072482273   0.64643   0.33409  -0.57910  -0.44661
  26   37085.4    269.6   0.023029025   0.20443   0.22151  -0.30455  -0.25023
  27   37619.5    265.8   0.011112480   0.09725   0.13182   0.26287  -0.10379
  28   37775.5    264.7   0.282169177   2.45909  -0.26558   1.43280   0.57936
  29   37945.3    263.5   0.098329606   0.85310  -0.52690  -0.09857   0.75218
  30   38392.6    260.5   0.043987391   0.37719  -0.11493  -0.54385   0.26116
  31   38482.0    259.9   0.023509219   0.20112  -0.23234   0.37778  -0.06650
  32   38589.3    259.1   0.064126561   0.54708   0.53559  -0.45252   0.23547
  33   38847.9    257.4   0.054034209   0.45791  -0.30278   0.55580  -0.23942
  34   39235.9    254.9   0.135453937   1.13654   0.99739   0.37414  -0.04204
  35   39508.2    253.1   0.025638922   0.21364  -0.24615   0.38592   0.06419
  36   39874.6    250.8   0.020023256   0.16532   0.26807   0.14514  -0.26905
  37   40123.7    249.2   0.117908194   0.96743   0.38817   0.45720  -0.77957

FINAL SINGLE POINT ENERGY     -3169.955801717149

DIPOLE MOMENT
-------------
                                X             Y             Z
Electronic contribution:      9.93009       3.35398       8.44997
Nuclear contribution   :    -11.90766      -3.18687     -10.67539
                        -----------------------------------------
Total Dipole Moment    :     -1.97757       0.16712      -2.22542
                        -----------------------------------------
Magnitude (a.u.)       :      2.98181
Magnitude (Debye)      :      7.57917

Rotational constants in cm-1:     0.002989     0.000258     0.000247
Rotational constants in MHz :    89.618435     7.737986     7.409985

                             ****ORCA TERMINATED NORMALLY****
TOTAL RUN TIME: 0 days 0 hours 10 minutes 48 seconds 226 msec
