                         Program Version 4.2.0 -  RELEASE  -
|  1> # ORCA input file
|  2> # SCF done       -208.954969478848          0.000447101193
|  3> ! CAM-B3LYP def2-SVP def2/J RIJCOSX Grid4 TightSCF
|  4> %maxcore 5000
|  5> %tddft
|  6>     Mode sTDDFT
|  7>     Ethresh 5.0
|  8>     maxcore 5000
|  9> end
| 10>
| 11> %pal
| 12>   nprocs 6
| 13>   end
| 14> * xyz 0 1
| 15>    C        4.65689         4.92052         6.60991
| 16>    C        3.86876         5.96034         7.01848
| 17>    F        3.88495         6.33546         8.30911
| 18>    C        3.03368         6.66228         6.13779
| 19>    C        3.00462         6.29709         4.82090
| 20>    C        3.79831         5.23307         4.34459
| 21>    C        4.63845         4.52920         5.25694
| 22>    C        5.43600         3.45236         4.80549
| 23>    C        5.39581         3.09478         3.48436
| 24>    C        4.56966         3.81568         2.57317
| 25>    C        3.78365         4.85413         2.98432
| 26>    C        4.74504         3.26988         1.21619
| 27>    O        4.17602         3.58918         0.19930
| 28>    C        5.84168         2.26212         1.34068
| 29>    C        6.07016         2.02443         2.75594
| 30>    C        6.60708         0.89824         3.31693
| 31>    C        7.03095        -0.22535         2.57668
| 32>    N        7.33761        -1.18317         2.02405
| 33>    C        6.71887         0.69493         4.70880
| 34>    N        6.84134         0.49481         5.83187
| 35>    C        6.48733         1.84372         0.22852
| 36>    C        7.74616         1.16067         0.14092
| 37>    C        8.03174         0.24775        -0.88871
| 38>    N        9.17510        -0.38187        -0.98480
| 39>    C       10.08832        -0.14883        -0.03741
| 40>    N        9.94904         0.74869         0.94076
| 41>    C        8.81777         1.40071         1.01669
| 42>    C       11.31656        -0.88859        -0.08668
| 43>    C       11.69619        -1.79779        -1.03114
| 44>    C       12.97611        -2.34809        -0.78982
| 45>    C       13.65431        -3.33060        -1.54177
| 46>    C       13.13579        -3.86008        -2.78535
| 47>    C       13.21953        -5.14209        -3.25267
| 48>    C       12.66132        -5.29075        -4.53908
| 49>    C       12.16448        -4.13751        -5.07643
| 50>    S       12.36961        -2.83020        -3.96517
| 51>    C       11.50562        -3.94291        -6.39277
| 52>   Cl       12.62077        -6.80023        -5.36442
| 53>    C       14.87778        -3.75786        -1.03605
| 54>    C       15.45113        -3.24971         0.15666
| 55>    C       14.77572        -2.26553         0.90665
| 56>    C       13.55141        -1.83187         0.40183
| 57>    S       12.50810        -0.65918         1.15780
| 58>    C       15.29719        -1.73683         2.15003
| 59>    C       15.21657        -0.45521         2.61710
| 60>    C       15.77857        -0.30569         3.90237
| 61>    C       16.27540        -1.45744         4.44150
| 62>    S       16.06438        -2.76589         3.33141
| 63>    C       16.93722        -1.65779         5.75517
| 64>   Cl       15.82356         1.20833         4.71915
| 65>    C       16.72952        -3.80735         0.40148
| 66>    C       17.12990        -4.71114        -0.53897
| 67>    S       15.92701        -4.91965        -1.79587
| 68>    C       18.35402        -5.46102        -0.57744
| 69>    C       19.33505        -5.39129         0.42591
| 70>    N       20.44165        -6.09266         0.38141
| 71>    C       20.60729        -6.93384        -0.64010
| 72>    N       19.75302        -7.06111        -1.65974
| 73>    C       18.66455        -6.33114        -1.63388
| 74>    C       21.83256        -7.69914        -0.65062
| 75>    C       22.11183        -8.80960        -1.36267
| 76>    C       23.53659        -9.23651        -1.54465
| 77>    O       24.48636        -8.87503        -0.89383
| 78>    C       23.51901       -10.12767        -2.71827
| 79>    C       24.57251       -10.68471        -3.38632
| 80>    C       24.32240       -11.49406        -4.51597
| 81>    C       22.97722       -11.70497        -4.94040
| 82>    C       22.73639       -12.50605        -6.07392
| 83>    C       23.79272       -13.06487        -6.73774
| 84>    C       25.12168       -12.87174        -6.33458
| 85>    C       25.37406       -12.09593        -5.23798
| 86>    F       23.56487       -13.83019        -7.81950
| 87>    C       21.90536       -11.12130        -4.22673
| 88>    C       22.17108       -10.35126        -3.12595
| 89>    C       21.28192        -9.67310        -2.18879
| 90>    C       19.96935        -9.97929        -1.97559
| 91>    C       19.21209        -9.49865        -0.88469
| 92>    N       18.56438        -9.20875         0.01693
| 93>    C       19.24133       -10.89306        -2.76725
| 94>    N       18.60730       -11.62014        -3.38840
| 95>    H        5.28442         4.40038         7.31661
| 96>    H        2.43392         7.47389         6.51805
| 97>    H        2.36985         6.82265         4.12356
| 98>    H        6.06837         2.94244         5.51497
| 99>    H        3.15923         5.38117         2.27860
|100>    H        6.01929         2.11428        -0.71325
|101>    H        7.29074         0.01108        -1.64140
|102>    H        8.76028         2.17335         1.77455
|103>    H       11.05633        -2.05631        -1.85325
|104>    H       13.62534        -5.96458        -2.69382
|105>    H       11.94845        -4.60913        -7.13070
|106>    H       11.61079        -2.91308        -6.72500
|107>    H       10.44155        -4.17429        -6.32388
|108>    H       14.80531         0.36507         2.05970
|109>    H       18.02187        -1.60378         5.64994
|110>    H       16.68559        -2.63277         6.16659
|111>    H       16.62226        -0.88084         6.44818
|112>    H       17.33748        -3.53120         1.24180
|113>    H       19.22259        -4.74588         1.28650
|114>    H       17.99573        -6.44001        -2.47949
|115>    H       22.63490        -7.28148        -0.05360
|116>    H       25.58536       -10.50864        -3.05628
|117>    H       21.72626       -12.67961        -6.41042
|118>    H       25.91397       -13.33872        -6.89784
|119>    H       26.38896       -11.93257        -4.90819
|120>    H       20.89803       -11.28914        -4.57355
|121> *
|122>
|123>                          ****END OF INPUT****

CARTESIAN COORDINATES (ANGSTROEM)
---------------------------------
  C      4.656890    4.920520    6.609910
  C      3.868760    5.960340    7.018480
  F      3.884950    6.335460    8.309110
  C      3.033680    6.662280    6.137790
  C      3.004620    6.297090    4.820900
  C      3.798310    5.233070    4.344590
  C      4.638450    4.529200    5.256940
  C      5.436000    3.452360    4.805490
  C      5.395810    3.094780    3.484360
  C      4.569660    3.815680    2.573170
  C      3.783650    4.854130    2.984320
  C      4.745040    3.269880    1.216190
  O      4.176020    3.589180    0.199300
  C      5.841680    2.262120    1.340680
  C      6.070160    2.024430    2.755940
  C      6.607080    0.898240    3.316930
  C      7.030950   -0.225350    2.576680
  N      7.337610   -1.183170    2.024050
  C      6.718870    0.694930    4.708800
  N      6.841340    0.494810    5.831870
  C      6.487330    1.843720    0.228520
  C      7.746160    1.160670    0.140920
  C      8.031740    0.247750   -0.888710
  N      9.175100   -0.381870   -0.984800
  C     10.088320   -0.148830   -0.037410
  N      9.949040    0.748690    0.940760
  C      8.817770    1.400710    1.016690
  C     11.316560   -0.888590   -0.086680
  C     11.696190   -1.797790   -1.031140
  C     12.976110   -2.348090   -0.789820
  C     13.654310   -3.330600   -1.541770
  C     13.135790   -3.860080   -2.785350
  C     13.219530   -5.142090   -3.252670
  C     12.661320   -5.290750   -4.539080
  C     12.164480   -4.137510   -5.076430
  S     12.369610   -2.830200   -3.965170
  C     11.505620   -3.942910   -6.392770
  Cl    12.620770   -6.800230   -5.364420
  C     14.877780   -3.757860   -1.036050
  C     15.451130   -3.249710    0.156660
  C     14.775720   -2.265530    0.906650
  C     13.551410   -1.831870    0.401830
  S     12.508100   -0.659180    1.157800
  C     15.297190   -1.736830    2.150030
  C     15.216570   -0.455210    2.617100
  C     15.778570   -0.305690    3.902370
  C     16.275400   -1.457440    4.441500
  S     16.064380   -2.765890    3.331410
  C     16.937220   -1.657790    5.755170
  Cl    15.823560    1.208330    4.719150
  C     16.729520   -3.807350    0.401480
  C     17.129900   -4.711140   -0.538970
  S     15.927010   -4.919650   -1.795870
  C     18.354020   -5.461020   -0.577440
  C     19.335050   -5.391290    0.425910
  N     20.441650   -6.092660    0.381410
  C     20.607290   -6.933840   -0.640100
  N     19.753020   -7.061110   -1.659740
  C     18.664550   -6.331140   -1.633880
  C     21.832560   -7.699140   -0.650620
  C     22.111830   -8.809600   -1.362670
  C     23.536590   -9.236510   -1.544650
  O     24.486360   -8.875030   -0.893830
  C     23.519010  -10.127670   -2.718270
  C     24.572510  -10.684710   -3.386320
  C     24.322400  -11.494060   -4.515970
  C     22.977220  -11.704970   -4.940400
  C     22.736390  -12.506050   -6.073920
  C     23.792720  -13.064870   -6.737740
  C     25.121680  -12.871740   -6.334580
  C     25.374060  -12.095930   -5.237980
  F     23.564870  -13.830190   -7.819500
  C     21.905360  -11.121300   -4.226730
  C     22.171080  -10.351260   -3.125950
  C     21.281920   -9.673100   -2.188790
  C     19.969350   -9.979290   -1.975590
  C     19.212090   -9.498650   -0.884690
  N     18.564380   -9.208750    0.016930
  C     19.241330  -10.893060   -2.767250
  N     18.607300  -11.620140   -3.388400
  H      5.284420    4.400380    7.316610
  H      2.433920    7.473890    6.518050
  H      2.369850    6.822650    4.123560
  H      6.068370    2.942440    5.514970
  H      3.159230    5.381170    2.278600
  H      6.019290    2.114280   -0.713250
  H      7.290740    0.011080   -1.641400
  H      8.760280    2.173350    1.774550
  H     11.056330   -2.056310   -1.853250
  H     13.625340   -5.964580   -2.693820
  H     11.948450   -4.609130   -7.130700
  H     11.610790   -2.913080   -6.725000
  H     10.441550   -4.174290   -6.323880
  H     14.805310    0.365070    2.059700
  H     18.021870   -1.603780    5.649940
  H     16.685590   -2.632770    6.166590
  H     16.622260   -0.880840    6.448180
  H     17.337480   -3.531200    1.241800
  H     19.222590   -4.745880    1.286500
  H     17.995730   -6.440010   -2.479490
  H     22.634900   -7.281480   -0.053600
  H     25.585360  -10.508640   -3.056280
  H     21.726260  -12.679610   -6.410420
  H     25.913970  -13.338720   -6.897840
  H     26.388960  -11.932570   -4.908190
  H     20.898030  -11.289140   -4.573550

 Total Charge           Charge          ....    0
 Multiplicity           Mult            ....    1
 Number of Electrons    NEL             ....  586
 Basis Dimension        Dim             .... 1274

ORBITAL ENERGIES
----------------

  NO   OCC          E(Eh)            E(eV)
   0   2.0000    -101.582267     -2764.1940
   1   2.0000    -101.581467     -2764.1722
   2   2.0000     -88.958970     -2420.6966
   3   2.0000     -88.958559     -2420.6854
   4   2.0000     -88.957885     -2420.6671
   5   2.0000     -88.951265     -2420.4870
   6   2.0000     -24.791984      -674.6242
   7   2.0000     -24.785938      -674.4597
   8   2.0000     -19.224413      -523.1229
   9   2.0000     -19.216346      -522.9034
  10   2.0000     -14.424708      -392.5163
  11   2.0000     -14.424234      -392.5034
  12   2.0000     -14.423960      -392.4959
  13   2.0000     -14.423886      -392.4939
  14   2.0000     -14.422733      -392.4625
  15   2.0000     -14.422277      -392.4501
  16   2.0000     -14.416079      -392.2815
  17   2.0000     -14.412047      -392.1717
  18   2.0000     -10.376519      -282.3594
  19   2.0000     -10.375582      -282.3339
  20   2.0000     -10.369720      -282.1744
  21   2.0000     -10.367286      -282.1082
  22   2.0000     -10.361363      -281.9470
  23   2.0000     -10.355103      -281.7767
  24   2.0000     -10.353274      -281.7269
  25   2.0000     -10.352442      -281.7043
  26   2.0000     -10.343981      -281.4740
  27   2.0000     -10.339031      -281.3393
  28   2.0000     -10.338674      -281.3296
  29   2.0000     -10.337392      -281.2947
  30   2.0000     -10.331399      -281.1317
  31   2.0000     -10.331209      -281.1265
  32   2.0000     -10.328311      -281.0476
  33   2.0000     -10.326052      -280.9862
  34   2.0000     -10.325195      -280.9629
  35   2.0000     -10.317771      -280.7608
  36   2.0000     -10.317161      -280.7442
  37   2.0000     -10.316432      -280.7244
  38   2.0000     -10.316174      -280.7174
  39   2.0000     -10.315376      -280.6957
  40   2.0000     -10.315099      -280.6881
  41   2.0000     -10.314096      -280.6608
  42   2.0000     -10.310824      -280.5718
  43   2.0000     -10.310674      -280.5677
  44   2.0000     -10.310154      -280.5536
  45   2.0000     -10.309165      -280.5266
  46   2.0000     -10.308605      -280.5114
  47   2.0000     -10.308335      -280.5041
  48   2.0000     -10.308146      -280.4989
  49   2.0000     -10.307283      -280.4754
  50   2.0000     -10.307001      -280.4677
  51   2.0000     -10.306792      -280.4621
  52   2.0000     -10.306445      -280.4526
  53   2.0000     -10.306375      -280.4507
  54   2.0000     -10.306314      -280.4491
  55   2.0000     -10.304681      -280.4046
  56   2.0000     -10.303621      -280.3758
  57   2.0000     -10.303118      -280.3621
  58   2.0000     -10.302555      -280.3468
  59   2.0000     -10.302510      -280.3456
  60   2.0000     -10.301439      -280.3164
  61   2.0000     -10.301417      -280.3158
  62   2.0000     -10.301415      -280.3158
  63   2.0000     -10.301358      -280.3142
  64   2.0000     -10.300645      -280.2948
  65   2.0000     -10.298889      -280.2470
  66   2.0000     -10.297878      -280.2195
  67   2.0000     -10.297736      -280.2156
  68   2.0000     -10.295873      -280.1649
  69   2.0000     -10.294528      -280.1284
  70   2.0000     -10.294193      -280.1192
  71   2.0000     -10.291044      -280.0335
  72   2.0000     -10.290593      -280.0213
  73   2.0000     -10.288808      -279.9727
  74   2.0000     -10.285178      -279.8739
  75   2.0000     -10.280506      -279.7468
  76   2.0000     -10.279056      -279.7073
  77   2.0000     -10.278958      -279.7047
  78   2.0000     -10.276515      -279.6382
  79   2.0000     -10.276069      -279.6261
  80   2.0000      -9.537035      -259.5159
  81   2.0000      -9.536219      -259.4937
  82   2.0000      -8.054468      -219.1732
  83   2.0000      -8.054069      -219.1624
  84   2.0000      -8.052953      -219.1320
  85   2.0000      -8.046064      -218.9445
  86   2.0000      -7.307294      -198.8416
  87   2.0000      -7.306485      -198.8196
  88   2.0000      -7.297166      -198.5660
  89   2.0000      -7.296961      -198.5604
  90   2.0000      -7.296365      -198.5442
  91   2.0000      -7.296126      -198.5377
  92   2.0000      -6.023750      -163.9146
  93   2.0000      -6.023320      -163.9029
  94   2.0000      -6.022620      -163.8838
  95   2.0000      -6.019634      -163.8026
  96   2.0000      -6.019244      -163.7920
  97   2.0000      -6.018428      -163.7698
  98   2.0000      -6.016573      -163.7193
  99   2.0000      -6.016182      -163.7086
 100   2.0000      -6.015689      -163.6952
 101   2.0000      -6.014350      -163.6588
 102   2.0000      -6.011440      -163.5796
 103   2.0000      -6.007569      -163.4743
 104   2.0000      -1.307272       -35.5727
 105   2.0000      -1.301107       -35.4049
 106   2.0000      -1.139941       -31.0194
 107   2.0000      -1.132075       -30.8053
 108   2.0000      -1.099525       -29.9196
 109   2.0000      -1.096450       -29.8359
 110   2.0000      -1.028053       -27.9747
 111   2.0000      -1.017748       -27.6943
 112   2.0000      -1.015157       -27.6238
 113   2.0000      -1.009012       -27.4566
 114   2.0000      -1.002465       -27.2785
 115   2.0000      -1.001671       -27.2569
 116   2.0000      -1.000268       -27.2187
 117   2.0000      -0.995803       -27.0972
 118   2.0000      -0.994525       -27.0624
 119   2.0000      -0.993591       -27.0370
 120   2.0000      -0.988177       -26.8897
 121   2.0000      -0.985632       -26.8204
 122   2.0000      -0.983635       -26.7661
 123   2.0000      -0.975887       -26.5552
 124   2.0000      -0.947015       -25.7696
 125   2.0000      -0.944139       -25.6913
 126   2.0000      -0.940377       -25.5890
 127   2.0000      -0.932768       -25.3819
 128   2.0000      -0.928595       -25.2684
 129   2.0000      -0.923087       -25.1185
 130   2.0000      -0.908237       -24.7144
 131   2.0000      -0.901644       -24.5350
 132   2.0000      -0.900582       -24.5061
 133   2.0000      -0.894180       -24.3319
 134   2.0000      -0.891813       -24.2675
 135   2.0000      -0.885371       -24.0922
 136   2.0000      -0.867886       -23.6164
 137   2.0000      -0.863984       -23.5102
 138   2.0000      -0.857704       -23.3393
 139   2.0000      -0.849793       -23.1240
 140   2.0000      -0.842833       -22.9347
 141   2.0000      -0.840560       -22.8728
 142   2.0000      -0.834825       -22.7167
 143   2.0000      -0.826005       -22.4767
 144   2.0000      -0.810739       -22.0613
 145   2.0000      -0.809418       -22.0254
 146   2.0000      -0.807399       -21.9704
 147   2.0000      -0.801460       -21.8088
 148   2.0000      -0.791505       -21.5379
 149   2.0000      -0.782090       -21.2817
 150   2.0000      -0.772586       -21.0231
 151   2.0000      -0.766814       -20.8661
 152   2.0000      -0.762548       -20.7500
 153   2.0000      -0.758849       -20.6493
 154   2.0000      -0.756091       -20.5743
 155   2.0000      -0.747167       -20.3314
 156   2.0000      -0.741699       -20.1827
 157   2.0000      -0.730074       -19.8663
 158   2.0000      -0.721682       -19.6380
 159   2.0000      -0.717008       -19.5108
 160   2.0000      -0.708817       -19.2879
 161   2.0000      -0.705817       -19.2062
 162   2.0000      -0.694951       -18.9106
 163   2.0000      -0.690421       -18.7873
 164   2.0000      -0.689492       -18.7620
 165   2.0000      -0.681962       -18.5571
 166   2.0000      -0.679311       -18.4850
 167   2.0000      -0.668775       -18.1983
 168   2.0000      -0.653794       -17.7906
 169   2.0000      -0.651746       -17.7349
 170   2.0000      -0.649634       -17.6774
 171   2.0000      -0.648597       -17.6492
 172   2.0000      -0.640913       -17.4401
 173   2.0000      -0.638913       -17.3857
 174   2.0000      -0.636668       -17.3246
 175   2.0000      -0.633841       -17.2477
 176   2.0000      -0.630716       -17.1627
 177   2.0000      -0.629574       -17.1316
 178   2.0000      -0.627490       -17.0749
 179   2.0000      -0.622075       -16.9275
 180   2.0000      -0.606227       -16.4963
 181   2.0000      -0.603317       -16.4171
 182   2.0000      -0.600032       -16.3277
 183   2.0000      -0.598056       -16.2739
 184   2.0000      -0.593581       -16.1522
 185   2.0000      -0.590093       -16.0572
 186   2.0000      -0.583104       -15.8671
 187   2.0000      -0.578327       -15.7371
 188   2.0000      -0.575062       -15.6482
 189   2.0000      -0.570798       -15.5322
 190   2.0000      -0.566459       -15.4141
 191   2.0000      -0.564882       -15.3712
 192   2.0000      -0.563998       -15.3472
 193   2.0000      -0.558541       -15.1987
 194   2.0000      -0.555859       -15.1257
 195   2.0000      -0.555600       -15.1186
 196   2.0000      -0.553121       -15.0512
 197   2.0000      -0.546549       -14.8724
 198   2.0000      -0.543787       -14.7972
 199   2.0000      -0.543216       -14.7817
 200   2.0000      -0.542289       -14.7564
 201   2.0000      -0.541173       -14.7261
 202   2.0000      -0.538527       -14.6541
 203   2.0000      -0.534581       -14.5467
 204   2.0000      -0.532995       -14.5035
 205   2.0000      -0.530908       -14.4467
 206   2.0000      -0.524952       -14.2847
 207   2.0000      -0.523531       -14.2460
 208   2.0000      -0.522642       -14.2218
 209   2.0000      -0.521515       -14.1911
 210   2.0000      -0.520243       -14.1565
 211   2.0000      -0.519118       -14.1259
 212   2.0000      -0.518234       -14.1019
 213   2.0000      -0.515363       -14.0237
 214   2.0000      -0.514675       -14.0050
 215   2.0000      -0.512598       -13.9485
 216   2.0000      -0.509618       -13.8674
 217   2.0000      -0.507127       -13.7996
 218   2.0000      -0.504937       -13.7400
 219   2.0000      -0.502028       -13.6609
 220   2.0000      -0.501437       -13.6448
 221   2.0000      -0.495426       -13.4812
 222   2.0000      -0.495130       -13.4732
 223   2.0000      -0.493704       -13.4344
 224   2.0000      -0.491581       -13.3766
 225   2.0000      -0.490429       -13.3453
 226   2.0000      -0.484800       -13.1921
 227   2.0000      -0.482511       -13.1298
 228   2.0000      -0.481926       -13.1139
 229   2.0000      -0.476611       -12.9692
 230   2.0000      -0.474633       -12.9154
 231   2.0000      -0.473278       -12.8786
 232   2.0000      -0.470899       -12.8138
 233   2.0000      -0.469650       -12.7798
 234   2.0000      -0.468123       -12.7383
 235   2.0000      -0.465134       -12.6569
 236   2.0000      -0.464537       -12.6407
 237   2.0000      -0.461456       -12.5568
 238   2.0000      -0.457710       -12.4549
 239   2.0000      -0.457094       -12.4382
 240   2.0000      -0.453543       -12.3415
 241   2.0000      -0.451674       -12.2907
 242   2.0000      -0.450020       -12.2457
 243   2.0000      -0.448898       -12.2151
 244   2.0000      -0.446395       -12.1470
 245   2.0000      -0.441691       -12.0190
 246   2.0000      -0.440563       -11.9883
 247   2.0000      -0.439708       -11.9651
 248   2.0000      -0.438092       -11.9211
 249   2.0000      -0.436140       -11.8680
 250   2.0000      -0.435032       -11.8378
 251   2.0000      -0.431967       -11.7544
 252   2.0000      -0.428222       -11.6525
 253   2.0000      -0.427132       -11.6228
 254   2.0000      -0.424389       -11.5482
 255   2.0000      -0.423728       -11.5302
 256   2.0000      -0.422616       -11.5000
 257   2.0000      -0.421327       -11.4649
 258   2.0000      -0.417917       -11.3721
 259   2.0000      -0.416494       -11.3334
 260   2.0000      -0.412107       -11.2140
 261   2.0000      -0.409173       -11.1342
 262   2.0000      -0.407538       -11.0897
 263   2.0000      -0.404765       -11.0142
 264   2.0000      -0.403717       -10.9857
 265   2.0000      -0.399073       -10.8593
 266   2.0000      -0.392072       -10.6688
 267   2.0000      -0.391362       -10.6495
 268   2.0000      -0.390815       -10.6346
 269   2.0000      -0.388213       -10.5638
 270   2.0000      -0.383165       -10.4264
 271   2.0000      -0.380671       -10.3586
 272   2.0000      -0.377924       -10.2838
 273   2.0000      -0.376660       -10.2494
 274   2.0000      -0.374119       -10.1803
 275   2.0000      -0.363098        -9.8804
 276   2.0000      -0.346551        -9.4301
 277   2.0000      -0.341737        -9.2991
 278   2.0000      -0.337500        -9.1838
 279   2.0000      -0.333713        -9.0808
 280   2.0000      -0.331214        -9.0128
 281   2.0000      -0.330081        -8.9820
 282   2.0000      -0.321495        -8.7483
 283   2.0000      -0.316854        -8.6220
 284   2.0000      -0.316026        -8.5995
 285   2.0000      -0.313128        -8.5207
 286   2.0000      -0.309243        -8.4149
 287   2.0000      -0.304144        -8.2762
 288   2.0000      -0.300814        -8.1856
 289   2.0000      -0.296933        -8.0800
 290   2.0000      -0.290446        -7.9034
 291   2.0000      -0.278888        -7.5889
 292   2.0000      -0.246037        -6.6950
 293   0.0000      -0.103530        -2.8172
 294   0.0000      -0.095282        -2.5928
 295   0.0000      -0.066770        -1.8169
 296   0.0000      -0.058660        -1.5962
 297   0.0000      -0.050322        -1.3693

MULLIKEN ATOMIC CHARGES
-----------------------
   0 C :   -0.096139
   1 C :    0.303462
   2 F :   -0.187731
   3 C :   -0.028446
   4 C :   -0.008396
   5 C :    0.101307
   6 C :    0.101797
   7 C :   -0.081494
   8 C :    0.037530
   9 C :    0.009074
  10 C :   -0.077285
  11 C :    0.136635
  12 O :   -0.136531
  13 C :   -0.116878
  14 C :    0.263247
  15 C :   -0.326388
  16 C :   -0.192113
  17 N :    0.178648
  18 C :   -0.174704
  19 N :    0.160479
  20 C :    0.049176
  21 C :   -0.043104
  22 C :    0.071953
  23 N :   -0.036969
  24 C :   -0.058830
  25 N :   -0.050898
  26 C :    0.058798
  27 C :   -0.003284
  28 C :   -0.056847
  29 C :    0.071227
  30 C :    0.152444
  31 C :   -0.213325
  32 C :    0.035341
  33 C :    0.087829
  34 C :   -0.266747
  35 S :    0.143195
  36 C :    0.118041
  37 Cl:   -0.086359
  38 C :   -0.137132
  39 C :    0.087196
  40 C :    0.145576
  41 C :   -0.139988
  42 S :    0.166424
  43 C :   -0.213730
  44 C :    0.038616
  45 C :    0.087676
  46 C :   -0.266465
  47 S :    0.134319
  48 C :    0.119935
  49 Cl:   -0.088677
  50 C :   -0.066084
  51 C :   -0.016758
  52 S :    0.105437
  53 C :    0.056121
  54 C :    0.035059
  55 N :   -0.038258
  56 C :   -0.084249
  57 N :   -0.070101
  58 C :    0.022313
  59 C :    0.087304
  60 C :   -0.089356
  61 C :    0.135795
  62 O :   -0.132415
  63 C :    0.003466
  64 C :   -0.076300
  65 C :    0.099243
  66 C :    0.102823
  67 C :   -0.096540
  68 C :    0.302553
  69 C :   -0.029231
  70 C :   -0.008427
  71 F :   -0.189315
  72 C :   -0.084261
  73 C :    0.045174
  74 C :    0.287519
  75 C :   -0.298690
  76 C :   -0.181047
  77 N :    0.157429
  78 C :   -0.187080
  79 N :    0.156530
  80 H :    0.000608
  81 H :    0.006938
  82 H :   -0.005768
  83 H :   -0.001174
  84 H :   -0.008038
  85 H :    0.031128
  86 H :    0.010703
  87 H :    0.021428
  88 H :    0.001265
  89 H :   -0.003312
  90 H :    0.034131
  91 H :    0.019919
  92 H :    0.046330
  93 H :   -0.005255
  94 H :    0.043792
  95 H :    0.026257
  96 H :    0.031200
  97 H :   -0.010605
  98 H :    0.010018
  99 H :    0.021560
 100 H :    0.027626
 101 H :   -0.010076
 102 H :   -0.001883
 103 H :    0.004471
 104 H :   -0.008350
 105 H :   -0.003032
Sum of atomic charges:   -0.0000000

LOEWDIN ATOMIC CHARGES
----------------------
   0 C :   -0.040790
   1 C :    0.095090
   2 F :   -0.061979
   3 C :   -0.033727
   4 C :    0.005787
   5 C :   -0.017425
   6 C :    0.004416
   7 C :    0.014199
   8 C :   -0.019070
   9 C :   -0.061681
  10 C :    0.037853
  11 C :    0.084219
  12 O :   -0.137069
  13 C :   -0.079890
  14 C :    0.065438
  15 C :   -0.127852
  16 C :   -0.019162
  17 N :   -0.037661
  18 C :   -0.018384
  19 N :   -0.041878
  20 C :    0.072805
  21 C :   -0.093121
  22 C :    0.074993
  23 N :   -0.068693
  24 C :    0.033950
  25 N :   -0.081885
  26 C :    0.067673
  27 C :   -0.177374
  28 C :   -0.023574
  29 C :   -0.043816
  30 C :   -0.047440
  31 C :   -0.176446
  32 C :   -0.072945
  33 C :   -0.178418
  34 C :   -0.198807
  35 S :    0.455256
  36 C :   -0.060260
  37 Cl:    0.129198
  38 C :   -0.142281
  39 C :   -0.038575
  40 C :   -0.052278
  41 C :   -0.140129
  42 S :    0.453092
  43 C :   -0.174701
  44 C :   -0.072156
  45 C :   -0.177523
  46 C :   -0.198158
  47 S :    0.448792
  48 C :   -0.060426
  49 Cl:    0.128571
  50 C :   -0.049814
  51 C :   -0.152181
  52 S :    0.423962
  53 C :   -0.062521
  54 C :    0.061940
  55 N :   -0.060217
  56 C :    0.012606
  57 N :   -0.060922
  58 C :    0.050316
  59 C :    0.059639
  60 C :   -0.057319
  61 C :    0.084891
  62 O :   -0.132739
  63 C :   -0.061428
  64 C :    0.036518
  65 C :   -0.018613
  66 C :    0.004781
  67 C :   -0.042001
  68 C :    0.093697
  69 C :   -0.036454
  70 C :    0.005276
  71 F :   -0.063654
  72 C :    0.011243
  73 C :   -0.014784
  74 C :    0.072278
  75 C :   -0.113334
  76 C :   -0.016785
  77 N :   -0.051595
  78 C :   -0.017078
  79 N :   -0.047274
  80 H :    0.044282
  81 H :    0.043293
  82 H :    0.036850
  83 H :    0.040254
  84 H :    0.041076
  85 H :    0.049614
  86 H :    0.030178
  87 H :    0.028475
  88 H :    0.024837
  89 H :    0.027717
  90 H :    0.038177
  91 H :    0.033949
  92 H :    0.043279
  93 H :    0.026999
  94 H :    0.042006
  95 H :    0.036452
  96 H :    0.036980
  97 H :    0.016567
  98 H :    0.028365
  99 H :    0.022717
 100 H :    0.052599
 101 H :    0.040148
 102 H :    0.043364
 103 H :    0.042160
 104 H :    0.035987
 105 H :    0.039483

  Mayer bond orders larger than 0.100000
B(  0-C ,  1-C ) :   1.4412 B(  0-C ,  6-C ) :   1.2025 B(  0-C , 80-H ) :   1.0067
B(  1-C ,  2-F ) :   1.0913 B(  1-C ,  3-C ) :   1.2518 B(  3-C ,  4-C ) :   1.4638
B(  3-C , 81-H ) :   0.9934 B(  4-C ,  5-C ) :   1.2311 B(  4-C , 82-H ) :   0.9977
B(  5-C ,  6-C ) :   1.2515 B(  5-C , 10-C ) :   1.1980 B(  6-C ,  7-C ) :   1.2075
B(  7-C ,  8-C ) :   1.4578 B(  7-C , 83-H ) :   0.9949 B(  8-C ,  9-C ) :   1.2162
B(  8-C , 14-C ) :   1.0031 B(  9-C , 10-C ) :   1.4645 B(  9-C , 11-C ) :   0.9224
B( 10-C , 84-H ) :   1.0157 B( 11-C , 12-O ) :   2.2782 B( 11-C , 13-C ) :   0.9274
B( 13-C , 14-C ) :   1.0057 B( 13-C , 20-C ) :   1.7495 B( 14-C , 15-C ) :   1.6790
B( 15-C , 16-C ) :   1.1564 B( 15-C , 18-C ) :   1.1298 B( 16-C , 17-N ) :   3.0040
B( 18-C , 19-N ) :   2.9882 B( 20-C , 21-C ) :   1.0229 B( 20-C , 85-H ) :   0.9429
B( 21-C , 22-C ) :   1.2952 B( 21-C , 26-C ) :   1.3058 B( 22-C , 23-N ) :   1.5873
B( 22-C , 86-H ) :   0.9905 B( 23-N , 24-C ) :   1.5627 B( 24-C , 25-N ) :   1.5658
B( 24-C , 27-C ) :   1.0252 B( 25-N , 26-C ) :   1.5925 B( 26-C , 87-H ) :   0.9847
B( 27-C , 28-C ) :   1.5931 B( 27-C , 42-S ) :   1.0693 B( 28-C , 29-C ) :   1.1588
B( 28-C , 88-H ) :   0.9837 B( 29-C , 30-C ) :   1.2869 B( 29-C , 41-C ) :   1.2727
B( 30-C , 31-C ) :   0.9946 B( 30-C , 38-C ) :   1.4255 B( 31-C , 32-C ) :   1.5424
B( 31-C , 35-S ) :   1.1344 B( 32-C , 33-C ) :   1.2336 B( 32-C , 89-H ) :   0.9943
B( 33-C , 34-C ) :   1.5898 B( 33-C , 37-Cl) :   1.0258 B( 34-C , 35-S ) :   1.1380
B( 34-C , 36-C ) :   1.0875 B( 36-C , 90-H ) :   0.9476 B( 36-C , 91-H ) :   0.9454
B( 36-C , 92-H ) :   0.9501 B( 38-C , 39-C ) :   1.2688 B( 38-C , 52-S ) :   1.0566
B( 39-C , 40-C ) :   1.3040 B( 39-C , 50-C ) :   1.1736 B( 40-C , 41-C ) :   1.4114
B( 40-C , 43-C ) :   0.9913 B( 41-C , 42-S ) :   1.0641 B( 43-C , 44-C ) :   1.5498
B( 43-C , 47-S ) :   1.1279 B( 44-C , 45-C ) :   1.2275 B( 44-C , 93-H ) :   0.9938
B( 45-C , 46-C ) :   1.5964 B( 45-C , 49-Cl) :   1.0166 B( 46-C , 47-S ) :   1.1324
B( 46-C , 48-C ) :   1.0853 B( 48-C , 94-H ) :   0.9496 B( 48-C , 95-H ) :   0.9464
B( 48-C , 96-H ) :   0.9460 B( 50-C , 51-C ) :   1.6003 B( 50-C , 97-H ) :   0.9700
B( 51-C , 52-S ) :   1.0682 B( 51-C , 53-C ) :   1.0751 B( 53-C , 54-C ) :   1.3215
B( 53-C , 58-C ) :   1.3046 B( 54-C , 55-N ) :   1.5783 B( 54-C , 98-H ) :   0.9820
B( 55-N , 56-C ) :   1.5062 B( 56-C , 57-N ) :   1.4749 B( 56-C , 59-C ) :   1.0126
B( 57-N , 58-C ) :   1.5633 B( 58-C , 99-H ) :   0.9803 B( 59-C , 60-C ) :   1.7079
B( 59-C ,100-H ) :   0.9511 B( 60-C , 61-C ) :   0.9212 B( 60-C , 74-C ) :   1.0027
B( 61-C , 62-O ) :   2.2856 B( 61-C , 63-C ) :   0.9211 B( 63-C , 64-C ) :   1.4640
B( 63-C , 73-C ) :   1.2158 B( 64-C , 65-C ) :   1.2006 B( 64-C ,101-H ) :   1.0155
B( 65-C , 66-C ) :   1.2535 B( 65-C , 70-C ) :   1.2296 B( 66-C , 67-C ) :   1.2021
B( 66-C , 72-C ) :   1.2068 B( 67-C , 68-C ) :   1.4416 B( 67-C ,102-H ) :   1.0072
B( 68-C , 69-C ) :   1.2522 B( 68-C , 71-F ) :   1.0898 B( 69-C , 70-C ) :   1.4645
B( 69-C ,103-H ) :   0.9928 B( 70-C ,104-H ) :   0.9978 B( 72-C , 73-C ) :   1.4578
B( 72-C ,105-H ) :   0.9949 B( 73-C , 74-C ) :   1.0019 B( 74-C , 75-C ) :   1.7024
B( 75-C , 76-C ) :   1.1513 B( 75-C , 78-C ) :   1.1364 B( 76-C , 77-N ) :   2.9815
B( 78-C , 79-N ) :   2.9879

-----------------------------------------------------------------------------
         ABSORPTION SPECTRUM VIA TRANSITION ELECTRIC DIPOLE MOMENTS
-----------------------------------------------------------------------------
State   Energy  Wavelength   fosc         T2         TX        TY        TZ
        (cm-1)    (nm)                  (au**2)     (au)      (au)      (au)
-----------------------------------------------------------------------------
   0   18384.9    543.9   0.673832067  12.06610   2.20903  -2.11329  -1.64933
   1   20588.0    485.7   0.102283681   1.63557   0.50788  -1.10971  -0.38231
   2   23582.0    424.1   0.768749614  10.73200  -2.81530   1.60964   0.46384
   3   25291.1    395.4   0.078903065   1.02708   0.30412   0.56768  -0.78251
   4   26257.7    380.8   0.249944925   3.13374  -0.59411   1.09015   1.26188
   5   26704.3    374.5   0.569686533   7.02313   1.64884  -1.81925  -0.99738
   6   26968.3    370.8   0.031564993   0.38533   0.14373  -0.53626  -0.27766
   7   27365.2    365.4   0.003541185   0.04260   0.10000  -0.15043   0.09987
   8   27570.3    362.7   0.015137712   0.18076  -0.03097   0.24159  -0.34847
   9   28179.2    354.9   0.047673629   0.55696   0.71372  -0.05993  -0.20970
  10   29064.4    344.1   0.043228396   0.48965   0.19343  -0.46266  -0.48804
  11   29194.3    342.5   0.059448878   0.67038   0.28296  -0.69995  -0.31683
  12   29687.4    336.8   0.069847184   0.77455  -0.54233  -0.02011  -0.69284
  13   29988.9    333.5   0.053449082   0.58675  -0.08101   0.08232   0.75724
  14   30277.2    330.3   0.065784427   0.71529  -0.48213   0.69321  -0.04796
  15   30370.9    329.3   0.014410752   0.15621  -0.27943   0.27627  -0.04242
  16   30496.0    327.9   0.112699085   1.21661   0.98059  -0.50453   0.02224
  17   31070.4    321.8   0.503434144   5.33423   2.13197  -0.69590   0.55196
  18   31989.7    312.6   0.065560581   0.67470  -0.09656   0.13366   0.80468
  19   32186.1    310.7   0.024888716   0.25457  -0.11570  -0.29832   0.39012
  20   32965.8    303.3   0.006123209   0.06115   0.05719  -0.18933   0.14843
  21   33234.6    300.9   0.856331652   8.48257  -2.62544   1.25812  -0.08239
  22   33666.0    297.0   0.046805837   0.45770  -0.47406  -0.44111   0.19594
  23   33949.7    294.6   0.124596572   1.20822   0.68529  -0.85386  -0.09753
  24   34070.1    293.5   0.021748516   0.21015  -0.20722   0.26056   0.31515
  25   34184.2    292.5   0.102687858   0.98894   0.33489  -0.83715  -0.41949
  26   34284.3    291.7   0.089051040   0.85511   0.05590  -0.91648   0.10979
  27   34677.6    288.4   0.232326816   2.20560  -0.93494   0.84210   0.78890
  28   34846.0    287.0   0.772598917   7.29922   1.10506  -1.59050  -1.88371
  29   34987.5    285.8   0.073857140   0.69495  -0.39079  -0.28539  -0.67881
  30   35400.7    282.5   0.461679165   4.29343   0.76198  -1.23295  -1.48076
  31   35539.5    281.4   0.104233242   0.96554   0.16364  -0.65639  -0.71268
  32   35798.7    279.3   0.046498833   0.42761   0.31214  -0.57281   0.04548
  33   36263.3    275.8   0.012191182   0.11068  -0.17501   0.28292   0.00157
  34   36329.2    275.3   0.052491309   0.47567   0.29714  -0.25380  -0.56830
  35   36561.8    273.5   0.032515049   0.29277  -0.01140   0.27170   0.46778
  36   36809.3    271.7   0.075161579   0.67222  -0.32685   0.51710   0.54590
  37   36863.9    271.3   0.019916895   0.17787   0.37482  -0.18695  -0.04924
  38   37023.8    270.1   0.009598776   0.08535  -0.15851   0.13890  -0.20232
  39   37197.3    268.8   0.011811780   0.10454  -0.27360   0.11805  -0.12548
  40   37516.8    266.5   0.007400073   0.06494   0.15074  -0.20454  -0.01934
  41   38004.8    263.1   0.027034723   0.23419  -0.45599  -0.09340   0.13241
  42   38416.5    260.3   0.101659804   0.87118  -0.25025   0.58568   0.68230
  43   39064.1    256.0   0.058097029   0.48961  -0.11144   0.30715  -0.61875
  44   39409.8    253.7   0.031433289   0.26258  -0.50588   0.08139  -0.00637
  45   39484.0    253.3   0.011463660   0.09558  -0.22600  -0.18993  -0.09182
  46   39644.3    252.2   0.088179251   0.73225   0.53118  -0.26347   0.61699
  47   39792.0    251.3   0.080951449   0.66974  -0.43614   0.27871  -0.63391
  48   39880.8    250.7   0.072684227   0.60000   0.56108  -0.37200  -0.38315
  49   39992.3    250.0   0.033951857   0.27949  -0.36494  -0.38118   0.03176
  50   40240.1    248.5   0.008396177   0.06869   0.03352  -0.18964   0.17778

FINAL SINGLE POINT ENERGY     -5674.812803442827

DIPOLE MOMENT
-------------
                                X             Y             Z
Electronic contribution:     -0.27141      -5.44072       2.17054
Nuclear contribution   :     -0.08188       8.51489      -3.23417
                        -----------------------------------------
Total Dipole Moment    :     -0.35329       3.07417      -1.06363
                        -----------------------------------------
Magnitude (a.u.)       :      3.27210
Magnitude (Debye)      :      8.31702

Rotational constants in cm-1:     0.001575     0.000191     0.000175
Rotational constants in MHz :    47.229964     5.722286     5.238270

                             ****ORCA TERMINATED NORMALLY****
TOTAL RUN TIME: 0 days 0 hours 10 minutes 44 seconds 57 msec
