                         Program Version 4.2.0 -  RELEASE  -
|  1> # ORCA input file
|  2> # SCF done       -202.170656145680          0.000741691096
|  3> ! CAM-B3LYP def2-SVP def2/J RIJCOSX Grid4 TightSCF
|  4> %maxcore 5000
|  5> %tddft
|  6>     Mode sTDDFT
|  7>     Ethresh 5.0
|  8>     maxcore 5000
|  9> end
| 10>
| 11> %pal
| 12>   nprocs 6
| 13>   end
| 14> * xyz 0 1
| 15>    C       10.16061         1.65795         8.72704
| 16>    C       10.71556         2.23951         9.83221
| 17>    F       10.96963         1.48859        10.92236
| 18>    C       11.03941         3.60231         9.88369
| 19>    C       10.81831         4.37956         8.78078
| 20>    C       10.28162         3.82486         7.60041
| 21>    C        9.92636         2.44353         7.58145
| 22>    C        9.36712         1.86497         6.41799
| 23>    C        9.22606         2.63451         5.29699
| 24>    C        9.62807         4.00285         5.30147
| 25>    C       10.12178         4.59761         6.42745
| 26>    C        9.43842         4.57038         3.95322
| 27>    O        9.62413         5.70850         3.58606
| 28>    C        9.02487         3.41794         3.10453
| 29>    C        8.69229         2.31444         3.97819
| 30>    C        7.79479         1.31681         3.70145
| 31>    C        7.07463         1.24808         2.49212
| 32>    N        6.43050         1.20084         1.54203
| 33>    C        7.37771         0.34269         4.63309
| 34>    N        6.98225        -0.46967         5.34018
| 35>    C        9.06981         3.51506         1.74980
| 36>    C        9.08102         2.48867         0.77876
| 37>    C        8.66309         2.64807        -0.53389
| 38>    O        8.13040         3.79592        -1.01242
| 39>    C        7.39698         3.58400        -2.20497
| 40>    C        8.18291         2.71369        -3.19483
| 41>    C        9.49565         3.37521        -3.60628
| 42>    O        8.41902         1.43093        -2.61834
| 43>    C        8.78776         1.48605        -1.31406
| 44>    C        9.34507         0.41346        -0.63373
| 45>    S        9.68669         0.86559         1.01583
| 46>    C        9.62404        -0.87629        -1.16614
| 47>    C       10.26312        -1.86868        -0.45302
| 48>    C       10.56590        -3.13427        -0.95202
| 49>    C       10.17753        -3.51100        -2.31386
| 50>    C        9.53726        -2.69707        -3.18116
| 51>    S        9.08438        -1.08551        -2.82704
| 52>    C       10.61950        -4.84829        -2.48093
| 53>    C       11.24932        -5.29631        -1.31812
| 54>    C       11.72720        -6.61963        -1.47720
| 55>    C       11.44604        -7.11747        -2.70955
| 56>    S       10.59773        -6.01702        -3.73795
| 57>    C       11.22292        -4.22969        -0.34133
| 58>    C       11.76841        -4.25090         0.95957
| 59>    C       12.30912        -5.35768         1.54266
| 60>    C       12.91675        -5.43474         2.80800
| 61>    C       13.44553        -6.60186         3.35481
| 62>    O       13.37694        -7.81851         2.73970
| 63>    C       13.60856        -8.86824         3.66021
| 64>    C       14.85437        -8.59758         4.51602
| 65>    C       16.11100        -8.48824         3.65528
| 66>    O       14.66522        -7.41252         5.28479
| 67>    C       14.05962        -6.42161         4.59726
| 68>    C       13.97198        -5.11377         5.08104
| 69>    S       13.15562        -4.10260         3.90351
| 70>    C       14.56274        -4.66583         6.26835
| 71>    C       14.37733        -3.47231         6.91317
| 72>    C       15.41147        -2.91977         7.81622
| 73>    O       16.37820        -3.49530         8.26580
| 74>    C       15.04613        -1.49489         7.98942
| 75>    C       15.73102        -0.50064         8.62337
| 76>    C       15.22531         0.81952         8.58137
| 77>    C       14.02218         1.08454         7.86591
| 78>    C       13.56233         2.41160         7.77302
| 79>    C       14.25975         3.40928         8.39411
| 80>    C       15.42727         3.16626         9.12749
| 81>    C       15.89917         1.88525         9.21066
| 82>    F       13.82017         4.68112         8.30288
| 83>    C       13.30820         0.02585         7.25559
| 84>    C       13.81013        -1.24346         7.32610
| 85>    C       13.30809        -2.51523         6.81242
| 86>    C       11.98769        -2.81343         6.57722
| 87>    C       11.51789        -4.12870         6.39113
| 88>    N       11.10257        -5.19468         6.29132
| 89>    C       10.96450        -1.85565         6.64056
| 90>    N       10.10611        -1.09391         6.68895
| 91>    H        9.91436         0.60788         8.71482
| 92>    H       11.46355         4.00792        10.78854
| 93>    H       11.07527         5.42757         8.79248
| 94>    H        9.10531         0.81957         6.43179
| 95>    H       10.40641         5.63904         6.42165
| 96>    H        9.14697         4.52118         1.34792
| 97>    H        7.20411         4.57260        -2.62185
| 98>    H        6.44581         3.09161        -1.96417
| 99>    H        7.56623         2.51028        -4.07566
|100>    H       10.08118         3.64318        -2.72915
|101>    H        9.29094         4.27518        -4.17879
|102>    H       10.07559         2.68880        -4.21811
|103>    H       10.54253        -1.62318         0.56368
|104>    H        9.27040        -3.01549        -4.17668
|105>    H       12.26000        -7.19633        -0.74417
|106>    H       11.69048        -8.08898        -3.09265
|107>    H       11.75817        -3.32621         1.52265
|108>    H       12.28750        -6.30283         1.02451
|109>    H       13.73611        -9.77296         3.06537
|110>    H       12.73673        -8.97848         4.31893
|111>    H       14.96960        -9.39487         5.25700
|112>    H       15.97254        -7.74643         2.87116
|113>    H       16.32890        -9.44855         3.19675
|114>    H       16.95361        -8.19023         4.27388
|115>    H       15.32457        -5.32233         6.67661
|116>    H       16.65442        -0.71252         9.14118
|117>    H       12.66863         2.63624         7.21308
|118>    H       15.93247         3.99222         9.60246
|119>    H       16.80379         1.67379         9.76072
|120>    H       12.39317         0.25006         6.72928
|121> *
|122>
|123>                          ****END OF INPUT****

CARTESIAN COORDINATES (ANGSTROEM)
---------------------------------
  C     10.160610    1.657950    8.727040
  C     10.715560    2.239510    9.832210
  F     10.969630    1.488590   10.922360
  C     11.039410    3.602310    9.883690
  C     10.818310    4.379560    8.780780
  C     10.281620    3.824860    7.600410
  C      9.926360    2.443530    7.581450
  C      9.367120    1.864970    6.417990
  C      9.226060    2.634510    5.296990
  C      9.628070    4.002850    5.301470
  C     10.121780    4.597610    6.427450
  C      9.438420    4.570380    3.953220
  O      9.624130    5.708500    3.586060
  C      9.024870    3.417940    3.104530
  C      8.692290    2.314440    3.978190
  C      7.794790    1.316810    3.701450
  C      7.074630    1.248080    2.492120
  N      6.430500    1.200840    1.542030
  C      7.377710    0.342690    4.633090
  N      6.982250   -0.469670    5.340180
  C      9.069810    3.515060    1.749800
  C      9.081020    2.488670    0.778760
  C      8.663090    2.648070   -0.533890
  O      8.130400    3.795920   -1.012420
  C      7.396980    3.584000   -2.204970
  C      8.182910    2.713690   -3.194830
  C      9.495650    3.375210   -3.606280
  O      8.419020    1.430930   -2.618340
  C      8.787760    1.486050   -1.314060
  C      9.345070    0.413460   -0.633730
  S      9.686690    0.865590    1.015830
  C      9.624040   -0.876290   -1.166140
  C     10.263120   -1.868680   -0.453020
  C     10.565900   -3.134270   -0.952020
  C     10.177530   -3.511000   -2.313860
  C      9.537260   -2.697070   -3.181160
  S      9.084380   -1.085510   -2.827040
  C     10.619500   -4.848290   -2.480930
  C     11.249320   -5.296310   -1.318120
  C     11.727200   -6.619630   -1.477200
  C     11.446040   -7.117470   -2.709550
  S     10.597730   -6.017020   -3.737950
  C     11.222920   -4.229690   -0.341330
  C     11.768410   -4.250900    0.959570
  C     12.309120   -5.357680    1.542660
  C     12.916750   -5.434740    2.808000
  C     13.445530   -6.601860    3.354810
  O     13.376940   -7.818510    2.739700
  C     13.608560   -8.868240    3.660210
  C     14.854370   -8.597580    4.516020
  C     16.111000   -8.488240    3.655280
  O     14.665220   -7.412520    5.284790
  C     14.059620   -6.421610    4.597260
  C     13.971980   -5.113770    5.081040
  S     13.155620   -4.102600    3.903510
  C     14.562740   -4.665830    6.268350
  C     14.377330   -3.472310    6.913170
  C     15.411470   -2.919770    7.816220
  O     16.378200   -3.495300    8.265800
  C     15.046130   -1.494890    7.989420
  C     15.731020   -0.500640    8.623370
  C     15.225310    0.819520    8.581370
  C     14.022180    1.084540    7.865910
  C     13.562330    2.411600    7.773020
  C     14.259750    3.409280    8.394110
  C     15.427270    3.166260    9.127490
  C     15.899170    1.885250    9.210660
  F     13.820170    4.681120    8.302880
  C     13.308200    0.025850    7.255590
  C     13.810130   -1.243460    7.326100
  C     13.308090   -2.515230    6.812420
  C     11.987690   -2.813430    6.577220
  C     11.517890   -4.128700    6.391130
  N     11.102570   -5.194680    6.291320
  C     10.964500   -1.855650    6.640560
  N     10.106110   -1.093910    6.688950
  H      9.914360    0.607880    8.714820
  H     11.463550    4.007920   10.788540
  H     11.075270    5.427570    8.792480
  H      9.105310    0.819570    6.431790
  H     10.406410    5.639040    6.421650
  H      9.146970    4.521180    1.347920
  H      7.204110    4.572600   -2.621850
  H      6.445810    3.091610   -1.964170
  H      7.566230    2.510280   -4.075660
  H     10.081180    3.643180   -2.729150
  H      9.290940    4.275180   -4.178790
  H     10.075590    2.688800   -4.218110
  H     10.542530   -1.623180    0.563680
  H      9.270400   -3.015490   -4.176680
  H     12.260000   -7.196330   -0.744170
  H     11.690480   -8.088980   -3.092650
  H     11.758170   -3.326210    1.522650
  H     12.287500   -6.302830    1.024510
  H     13.736110   -9.772960    3.065370
  H     12.736730   -8.978480    4.318930
  H     14.969600   -9.394870    5.257000
  H     15.972540   -7.746430    2.871160
  H     16.328900   -9.448550    3.196750
  H     16.953610   -8.190230    4.273880
  H     15.324570   -5.322330    6.676610
  H     16.654420   -0.712520    9.141180
  H     12.668630    2.636240    7.213080
  H     15.932470    3.992220    9.602460
  H     16.803790    1.673790    9.760720
  H     12.393170    0.250060    6.729280

 Total Charge           Charge          ....    0
 Multiplicity           Mult            ....    1
 Number of Electrons    NEL             ....  548
 Basis Dimension        Dim             .... 1230

ORBITAL ENERGIES
----------------

  NO   OCC          E(Eh)            E(eV)
   0   2.0000     -88.976081     -2421.1623
   1   2.0000     -88.971480     -2421.0370
   2   2.0000     -88.957596     -2420.6592
   3   2.0000     -88.957303     -2420.6513
   4   2.0000     -24.781059      -674.3269
   5   2.0000     -24.772014      -674.0808
   6   2.0000     -19.274671      -524.4905
   7   2.0000     -19.272832      -524.4404
   8   2.0000     -19.268530      -524.3234
   9   2.0000     -19.260407      -524.1023
  10   2.0000     -19.203060      -522.5418
  11   2.0000     -19.194944      -522.3210
  12   2.0000     -14.406262      -392.0143
  13   2.0000     -14.403572      -391.9411
  14   2.0000     -14.398414      -391.8008
  15   2.0000     -14.395491      -391.7212
  16   2.0000     -10.359509      -281.8966
  17   2.0000     -10.356498      -281.8146
  18   2.0000     -10.355519      -281.7880
  19   2.0000     -10.354804      -281.7685
  20   2.0000     -10.354454      -281.7590
  21   2.0000     -10.352736      -281.7123
  22   2.0000     -10.352269      -281.6996
  23   2.0000     -10.348124      -281.5868
  24   2.0000     -10.346598      -281.5452
  25   2.0000     -10.346361      -281.5388
  26   2.0000     -10.338678      -281.3297
  27   2.0000     -10.335339      -281.2389
  28   2.0000     -10.334281      -281.2101
  29   2.0000     -10.330953      -281.1195
  30   2.0000     -10.327946      -281.0377
  31   2.0000     -10.326180      -280.9896
  32   2.0000     -10.325100      -280.9603
  33   2.0000     -10.325082      -280.9598
  34   2.0000     -10.323502      -280.9168
  35   2.0000     -10.315497      -280.6989
  36   2.0000     -10.314768      -280.6791
  37   2.0000     -10.312259      -280.6108
  38   2.0000     -10.312256      -280.6108
  39   2.0000     -10.306474      -280.4534
  40   2.0000     -10.304845      -280.4091
  41   2.0000     -10.302380      -280.3420
  42   2.0000     -10.301494      -280.3179
  43   2.0000     -10.299889      -280.2742
  44   2.0000     -10.298837      -280.2456
  45   2.0000     -10.297465      -280.2083
  46   2.0000     -10.296307      -280.1768
  47   2.0000     -10.294325      -280.1228
  48   2.0000     -10.292847      -280.0826
  49   2.0000     -10.291973      -280.0588
  50   2.0000     -10.291202      -280.0378
  51   2.0000     -10.290048      -280.0064
  52   2.0000     -10.289489      -279.9912
  53   2.0000     -10.288092      -279.9532
  54   2.0000     -10.287649      -279.9412
  55   2.0000     -10.287399      -279.9344
  56   2.0000     -10.287266      -279.9307
  57   2.0000     -10.286993      -279.9233
  58   2.0000     -10.286738      -279.9164
  59   2.0000     -10.286637      -279.9136
  60   2.0000     -10.286303      -279.9045
  61   2.0000     -10.285104      -279.8719
  62   2.0000     -10.284018      -279.8424
  63   2.0000     -10.281324      -279.7690
  64   2.0000     -10.279931      -279.7311
  65   2.0000     -10.278462      -279.6912
  66   2.0000     -10.277512      -279.6653
  67   2.0000     -10.277495      -279.6649
  68   2.0000     -10.276580      -279.6399
  69   2.0000     -10.276386      -279.6347
  70   2.0000     -10.275930      -279.6223
  71   2.0000     -10.275832      -279.6196
  72   2.0000     -10.275128      -279.6004
  73   2.0000     -10.273959      -279.5686
  74   2.0000     -10.273120      -279.5458
  75   2.0000     -10.272279      -279.5229
  76   2.0000      -8.070803      -219.6177
  77   2.0000      -8.065710      -219.4791
  78   2.0000      -8.052703      -219.1252
  79   2.0000      -8.052149      -219.1101
  80   2.0000      -6.040477      -164.3697
  81   2.0000      -6.035566      -164.2361
  82   2.0000      -6.035377      -164.2310
  83   2.0000      -6.032722      -164.1587
  84   2.0000      -6.031493      -164.1253
  85   2.0000      -6.026915      -164.0007
  86   2.0000      -6.022124      -163.8703
  87   2.0000      -6.021683      -163.8583
  88   2.0000      -6.017943      -163.7566
  89   2.0000      -6.017886      -163.7550
  90   2.0000      -6.014811      -163.6713
  91   2.0000      -6.013425      -163.6336
  92   2.0000      -1.294096       -35.2141
  93   2.0000      -1.286006       -34.9940
  94   2.0000      -1.202190       -32.7133
  95   2.0000      -1.191947       -32.4345
  96   2.0000      -1.163458       -31.6593
  97   2.0000      -1.151792       -31.3418
  98   2.0000      -1.117954       -30.4211
  99   2.0000      -1.109825       -30.1999
 100   2.0000      -1.012149       -27.5420
 101   2.0000      -1.006510       -27.3885
 102   2.0000      -1.006298       -27.3827
 103   2.0000      -0.998822       -27.1793
 104   2.0000      -0.990614       -26.9560
 105   2.0000      -0.988111       -26.8879
 106   2.0000      -0.986978       -26.8570
 107   2.0000      -0.978177       -26.6176
 108   2.0000      -0.977847       -26.6086
 109   2.0000      -0.970167       -26.3996
 110   2.0000      -0.963500       -26.2182
 111   2.0000      -0.962335       -26.1865
 112   2.0000      -0.930933       -25.3320
 113   2.0000      -0.917775       -24.9739
 114   2.0000      -0.915636       -24.9157
 115   2.0000      -0.906808       -24.6755
 116   2.0000      -0.900762       -24.5110
 117   2.0000      -0.898595       -24.4520
 118   2.0000      -0.890488       -24.2314
 119   2.0000      -0.886780       -24.1305
 120   2.0000      -0.881351       -23.9828
 121   2.0000      -0.874738       -23.8028
 122   2.0000      -0.872476       -23.7413
 123   2.0000      -0.866858       -23.5884
 124   2.0000      -0.863761       -23.5041
 125   2.0000      -0.842875       -22.9358
 126   2.0000      -0.839937       -22.8559
 127   2.0000      -0.827204       -22.5094
 128   2.0000      -0.824938       -22.4477
 129   2.0000      -0.821989       -22.3675
 130   2.0000      -0.819773       -22.3072
 131   2.0000      -0.815557       -22.1924
 132   2.0000      -0.809041       -22.0151
 133   2.0000      -0.796307       -21.6686
 134   2.0000      -0.793587       -21.5946
 135   2.0000      -0.787119       -21.4186
 136   2.0000      -0.776369       -21.1261
 137   2.0000      -0.767086       -20.8735
 138   2.0000      -0.750214       -20.4144
 139   2.0000      -0.747860       -20.3503
 140   2.0000      -0.744742       -20.2655
 141   2.0000      -0.734613       -19.9898
 142   2.0000      -0.730054       -19.8658
 143   2.0000      -0.725882       -19.7523
 144   2.0000      -0.707375       -19.2487
 145   2.0000      -0.703884       -19.1537
 146   2.0000      -0.698193       -18.9988
 147   2.0000      -0.694935       -18.9102
 148   2.0000      -0.694562       -18.9000
 149   2.0000      -0.679894       -18.5009
 150   2.0000      -0.669533       -18.2189
 151   2.0000      -0.668902       -18.2017
 152   2.0000      -0.667840       -18.1728
 153   2.0000      -0.666442       -18.1348
 154   2.0000      -0.654283       -17.8039
 155   2.0000      -0.651892       -17.7389
 156   2.0000      -0.647702       -17.6249
 157   2.0000      -0.638352       -17.3704
 158   2.0000      -0.629800       -17.1377
 159   2.0000      -0.625050       -17.0085
 160   2.0000      -0.623293       -16.9607
 161   2.0000      -0.621668       -16.9164
 162   2.0000      -0.619894       -16.8682
 163   2.0000      -0.616260       -16.7693
 164   2.0000      -0.614731       -16.7277
 165   2.0000      -0.611813       -16.6483
 166   2.0000      -0.608756       -16.5651
 167   2.0000      -0.602166       -16.3858
 168   2.0000      -0.600480       -16.3399
 169   2.0000      -0.593797       -16.1580
 170   2.0000      -0.581374       -15.8200
 171   2.0000      -0.580029       -15.7834
 172   2.0000      -0.578826       -15.7507
 173   2.0000      -0.571059       -15.5393
 174   2.0000      -0.567375       -15.4391
 175   2.0000      -0.559154       -15.2153
 176   2.0000      -0.557956       -15.1828
 177   2.0000      -0.556024       -15.1302
 178   2.0000      -0.553546       -15.0628
 179   2.0000      -0.551953       -15.0194
 180   2.0000      -0.551142       -14.9973
 181   2.0000      -0.550402       -14.9772
 182   2.0000      -0.545594       -14.8464
 183   2.0000      -0.543863       -14.7993
 184   2.0000      -0.543285       -14.7835
 185   2.0000      -0.540461       -14.7067
 186   2.0000      -0.538499       -14.6533
 187   2.0000      -0.536844       -14.6083
 188   2.0000      -0.533884       -14.5277
 189   2.0000      -0.528586       -14.3836
 190   2.0000      -0.525424       -14.2975
 191   2.0000      -0.523063       -14.2333
 192   2.0000      -0.521496       -14.1906
 193   2.0000      -0.518524       -14.1097
 194   2.0000      -0.517463       -14.0809
 195   2.0000      -0.514862       -14.0101
 196   2.0000      -0.513149       -13.9635
 197   2.0000      -0.511913       -13.9299
 198   2.0000      -0.510336       -13.8869
 199   2.0000      -0.508128       -13.8269
 200   2.0000      -0.506646       -13.7866
 201   2.0000      -0.504205       -13.7201
 202   2.0000      -0.503811       -13.7094
 203   2.0000      -0.498324       -13.5601
 204   2.0000      -0.497668       -13.5422
 205   2.0000      -0.497447       -13.5362
 206   2.0000      -0.493926       -13.4404
 207   2.0000      -0.492050       -13.3894
 208   2.0000      -0.486426       -13.2363
 209   2.0000      -0.484228       -13.1765
 210   2.0000      -0.482652       -13.1336
 211   2.0000      -0.481198       -13.0941
 212   2.0000      -0.478141       -13.0109
 213   2.0000      -0.476037       -12.9536
 214   2.0000      -0.472693       -12.8626
 215   2.0000      -0.471546       -12.8314
 216   2.0000      -0.469909       -12.7869
 217   2.0000      -0.468494       -12.7484
 218   2.0000      -0.466414       -12.6918
 219   2.0000      -0.462501       -12.5853
 220   2.0000      -0.461249       -12.5512
 221   2.0000      -0.457546       -12.4504
 222   2.0000      -0.455128       -12.3847
 223   2.0000      -0.452810       -12.3216
 224   2.0000      -0.451519       -12.2864
 225   2.0000      -0.446346       -12.1457
 226   2.0000      -0.443466       -12.0673
 227   2.0000      -0.440573       -11.9886
 228   2.0000      -0.439691       -11.9646
 229   2.0000      -0.436387       -11.8747
 230   2.0000      -0.435388       -11.8475
 231   2.0000      -0.434296       -11.8178
 232   2.0000      -0.431926       -11.7533
 233   2.0000      -0.430516       -11.7149
 234   2.0000      -0.428541       -11.6612
 235   2.0000      -0.426742       -11.6122
 236   2.0000      -0.424652       -11.5554
 237   2.0000      -0.423885       -11.5345
 238   2.0000      -0.422985       -11.5100
 239   2.0000      -0.419068       -11.4034
 240   2.0000      -0.416541       -11.3346
 241   2.0000      -0.416104       -11.3228
 242   2.0000      -0.414392       -11.2762
 243   2.0000      -0.413815       -11.2605
 244   2.0000      -0.412748       -11.2314
 245   2.0000      -0.410553       -11.1717
 246   2.0000      -0.409333       -11.1385
 247   2.0000      -0.406925       -11.0730
 248   2.0000      -0.404961       -11.0195
 249   2.0000      -0.399792       -10.8789
 250   2.0000      -0.398604       -10.8466
 251   2.0000      -0.391803       -10.6615
 252   2.0000      -0.390371       -10.6225
 253   2.0000      -0.387392       -10.5415
 254   2.0000      -0.380858       -10.3637
 255   2.0000      -0.375729       -10.2241
 256   2.0000      -0.370063       -10.0699
 257   2.0000      -0.364925        -9.9301
 258   2.0000      -0.362234        -9.8569
 259   2.0000      -0.347046        -9.4436
 260   2.0000      -0.341538        -9.2937
 261   2.0000      -0.325347        -8.8531
 262   2.0000      -0.324224        -8.8226
 263   2.0000      -0.317646        -8.6436
 264   2.0000      -0.305227        -8.3057
 265   2.0000      -0.302041        -8.2189
 266   2.0000      -0.300426        -8.1750
 267   2.0000      -0.292946        -7.9715
 268   2.0000      -0.292255        -7.9527
 269   2.0000      -0.288732        -7.8568
 270   2.0000      -0.282735        -7.6936
 271   2.0000      -0.278343        -7.5741
 272   2.0000      -0.260260        -7.0820
 273   2.0000      -0.219523        -5.9735
 274   0.0000      -0.095594        -2.6013
 275   0.0000      -0.079907        -2.1744
 276   0.0000      -0.051726        -1.4075
 277   0.0000      -0.043721        -1.1897
 278   0.0000      -0.037403        -1.0178

MULLIKEN ATOMIC CHARGES
-----------------------
   0 C :   -0.103062
   1 C :    0.313343
   2 F :   -0.192649
   3 C :   -0.032950
   4 C :   -0.005112
   5 C :    0.079766
   6 C :    0.069269
   7 C :   -0.071344
   8 C :    0.031919
   9 C :    0.014090
  10 C :   -0.084811
  11 C :    0.140710
  12 O :   -0.145976
  13 C :   -0.135591
  14 C :    0.251555
  15 C :   -0.317474
  16 C :   -0.194721
  17 N :    0.150746
  18 C :   -0.177878
  19 N :    0.168222
  20 C :    0.047971
  21 C :   -0.209843
  22 C :    0.224665
  23 O :   -0.287019
  24 C :    0.232383
  25 C :    0.024468
  26 C :    0.060787
  27 O :   -0.310345
  28 C :    0.164640
  29 C :   -0.122073
  30 S :    0.161020
  31 C :   -0.028210
  32 C :   -0.093263
  33 C :    0.078453
  34 C :    0.056928
  35 C :   -0.115602
  36 S :    0.165605
  37 C :   -0.114585
  38 C :    0.058068
  39 C :   -0.013012
  40 C :   -0.064917
  41 S :    0.126518
  42 C :    0.079205
  43 C :   -0.006204
  44 C :   -0.019862
  45 C :   -0.094746
  46 C :    0.158160
  47 O :   -0.314698
  48 C :    0.230520
  49 C :    0.023188
  50 C :    0.061039
  51 O :   -0.270677
  52 C :    0.227808
  53 C :   -0.196040
  54 S :    0.138562
  55 C :    0.043494
  56 C :   -0.143890
  57 C :    0.144134
  58 O :   -0.152674
  59 C :    0.011284
  60 C :   -0.088172
  61 C :    0.098755
  62 C :    0.108131
  63 C :   -0.094457
  64 C :    0.309002
  65 C :   -0.031501
  66 C :   -0.013498
  67 F :   -0.198559
  68 C :   -0.084191
  69 C :    0.043165
  70 C :    0.243279
  71 C :   -0.333078
  72 C :   -0.196586
  73 N :    0.158223
  74 C :   -0.157679
  75 N :    0.145876
  76 H :    0.003156
  77 H :   -0.002064
  78 H :   -0.011735
  79 H :    0.011099
  80 H :   -0.014884
  81 H :    0.031810
  82 H :    0.033183
  83 H :    0.049735
  84 H :    0.028591
  85 H :    0.031518
  86 H :    0.024955
  87 H :    0.034492
  88 H :   -0.007136
  89 H :    0.033379
  90 H :   -0.003788
  91 H :    0.023275
  92 H :   -0.025469
  93 H :   -0.022882
  94 H :    0.026422
  95 H :    0.043967
  96 H :    0.028692
  97 H :    0.032217
  98 H :    0.020069
  99 H :    0.035211
 100 H :    0.025201
 101 H :   -0.015804
 102 H :   -0.009778
 103 H :   -0.002738
 104 H :   -0.012934
 105 H :   -0.015761
Sum of atomic charges:   -0.0000000

LOEWDIN ATOMIC CHARGES
----------------------
   0 C :   -0.039899
   1 C :    0.091458
   2 F :   -0.068131
   3 C :   -0.039324
   4 C :    0.004419
   5 C :   -0.026934
   6 C :   -0.003425
   7 C :    0.017025
   8 C :   -0.023762
   9 C :   -0.062018
  10 C :    0.029198
  11 C :    0.081994
  12 O :   -0.148656
  13 C :   -0.094496
  14 C :    0.059947
  15 C :   -0.136834
  16 C :   -0.026388
  17 N :   -0.063609
  18 C :   -0.024559
  19 N :   -0.037682
  20 C :    0.051387
  21 C :   -0.205449
  22 C :    0.020489
  23 O :   -0.082906
  24 C :    0.084324
  25 C :    0.056067
  26 C :   -0.058364
  27 O :   -0.100144
  28 C :   -0.016063
  29 C :   -0.192777
  30 S :    0.463431
  31 C :   -0.169715
  32 C :   -0.024935
  33 C :   -0.007402
  34 C :   -0.051336
  35 C :   -0.146319
  36 S :    0.491802
  37 C :   -0.200139
  38 C :   -0.035473
  39 C :   -0.066600
  40 C :   -0.165531
  41 S :    0.422580
  42 C :   -0.056057
  43 C :    0.007763
  44 C :   -0.062985
  45 C :   -0.144130
  46 C :   -0.029190
  47 O :   -0.105561
  48 C :    0.080843
  49 C :    0.055291
  50 C :   -0.058107
  51 O :   -0.074124
  52 C :    0.034661
  53 C :   -0.212772
  54 S :    0.448950
  55 C :    0.059204
  56 C :   -0.121169
  57 C :    0.079432
  58 O :   -0.157293
  59 C :   -0.054765
  60 C :    0.029032
  61 C :   -0.019198
  62 C :    0.002529
  63 C :   -0.041258
  64 C :    0.088628
  65 C :   -0.042039
  66 C :    0.002777
  67 F :   -0.068339
  68 C :    0.004054
  69 C :   -0.013890
  70 C :    0.063446
  71 C :   -0.161914
  72 C :   -0.033532
  73 N :   -0.058950
  74 C :    0.004700
  75 N :   -0.062875
  76 H :    0.044525
  77 H :    0.039632
  78 H :    0.033961
  79 H :    0.036074
  80 H :    0.038623
  81 H :    0.052962
  82 H :    0.035008
  83 H :    0.030891
  84 H :    0.034532
  85 H :    0.032808
  86 H :    0.034789
  87 H :    0.034817
  88 H :    0.031395
  89 H :    0.035611
  90 H :    0.030759
  91 H :    0.023189
  92 H :    0.024235
  93 H :    0.034578
  94 H :    0.032161
  95 H :    0.027306
  96 H :    0.034158
  97 H :    0.032733
  98 H :    0.032906
  99 H :    0.035056
 100 H :    0.050995
 101 H :    0.037902
 102 H :    0.040713
 103 H :    0.039451
 104 H :    0.034349
 105 H :    0.035467

  Mayer bond orders larger than 0.100000
B(  0-C ,  1-C ) :   1.4242 B(  0-C ,  6-C ) :   1.2067 B(  0-C , 76-H ) :   1.0076
B(  1-C ,  2-F ) :   1.0894 B(  1-C ,  3-C ) :   1.2529 B(  3-C ,  4-C ) :   1.4546
B(  3-C , 77-H ) :   0.9938 B(  4-C ,  5-C ) :   1.2374 B(  4-C , 78-H ) :   0.9967
B(  5-C ,  6-C ) :   1.2460 B(  5-C , 10-C ) :   1.1871 B(  6-C ,  7-C ) :   1.2093
B(  7-C ,  8-C ) :   1.4533 B(  7-C , 79-H ) :   0.9796 B(  8-C ,  9-C ) :   1.2110
B(  8-C , 14-C ) :   0.9967 B(  9-C , 10-C ) :   1.4676 B(  9-C , 11-C ) :   0.9195
B( 10-C , 80-H ) :   1.0176 B( 11-C , 12-O ) :   2.2738 B( 11-C , 13-C ) :   0.9386
B( 13-C , 14-C ) :   1.0390 B( 13-C , 20-C ) :   1.6346 B( 14-C , 15-C ) :   1.6601
B( 15-C , 16-C ) :   1.1586 B( 15-C , 18-C ) :   1.1342 B( 16-C , 17-N ) :   3.0133
B( 18-C , 19-N ) :   2.9952 B( 20-C , 21-C ) :   1.1283 B( 20-C , 81-H ) :   0.9464
B( 21-C , 22-C ) :   1.4448 B( 21-C , 29-C ) :   0.1043 B( 21-C , 30-S ) :   1.0858
B( 22-C , 23-O ) :   1.1897 B( 22-C , 28-C ) :   1.2110 B( 23-O , 24-C ) :   0.9436
B( 24-C , 25-C ) :   1.0398 B( 24-C , 82-H ) :   0.9525 B( 24-C , 83-H ) :   0.9458
B( 25-C , 26-C ) :   1.0659 B( 25-C , 27-O ) :   0.9190 B( 25-C , 84-H ) :   0.9349
B( 26-C , 85-H ) :   0.9580 B( 26-C , 86-H ) :   0.9617 B( 26-C , 87-H ) :   0.9593
B( 27-O , 28-C ) :   1.1185 B( 28-C , 29-C ) :   1.4440 B( 29-C , 30-S ) :   1.1154
B( 29-C , 31-C ) :   1.1944 B( 31-C , 32-C ) :   1.4862 B( 31-C , 36-S ) :   1.0797
B( 32-C , 33-C ) :   1.2591 B( 32-C , 88-H ) :   0.9699 B( 33-C , 34-C ) :   1.0597
B( 33-C , 42-C ) :   1.3338 B( 34-C , 35-C ) :   1.5924 B( 34-C , 37-C ) :   1.1847
B( 35-C , 36-S ) :   1.1370 B( 35-C , 89-H ) :   0.9392 B( 37-C , 38-C ) :   1.4526
B( 37-C , 41-S ) :   1.0787 B( 38-C , 39-C ) :   1.2057 B( 38-C , 42-C ) :   1.0814
B( 39-C , 40-C ) :   1.5936 B( 39-C , 90-H ) :   0.9973 B( 40-C , 41-S ) :   1.1531
B( 40-C , 91-H ) :   0.9639 B( 42-C , 43-C ) :   1.2118 B( 43-C , 44-C ) :   1.5298
B( 43-C , 92-H ) :   0.9668 B( 44-C , 45-C ) :   1.2233 B( 44-C , 93-H ) :   0.9755
B( 45-C , 46-C ) :   1.4039 B( 45-C , 54-S ) :   1.1052 B( 46-C , 47-O ) :   1.1169
B( 46-C , 52-C ) :   1.2362 B( 47-O , 48-C ) :   0.9591 B( 48-C , 49-C ) :   1.0354
B( 48-C , 94-H ) :   0.9525 B( 48-C , 95-H ) :   0.9454 B( 49-C , 50-C ) :   1.0638
B( 49-C , 51-O ) :   0.9235 B( 49-C , 96-H ) :   0.9348 B( 50-C , 97-H ) :   0.9585
B( 50-C , 98-H ) :   0.9623 B( 50-C , 99-H ) :   0.9599 B( 51-O , 52-C ) :   1.2027
B( 52-C , 53-C ) :   1.3638 B( 53-C , 54-S ) :   1.0575 B( 53-C , 55-C ) :   1.2528
B( 55-C , 56-C ) :   1.4895 B( 55-C ,100-H ) :   0.9531 B( 56-C , 57-C ) :   0.9618
B( 56-C , 70-C ) :   1.0984 B( 57-C , 58-O ) :   2.2720 B( 57-C , 59-C ) :   0.9125
B( 59-C , 60-C ) :   1.4817 B( 59-C , 69-C ) :   1.2206 B( 60-C , 61-C ) :   1.1827
B( 60-C ,101-H ) :   1.0149 B( 61-C , 62-C ) :   1.2589 B( 61-C , 66-C ) :   1.2389
B( 62-C , 63-C ) :   1.2103 B( 62-C , 68-C ) :   1.1948 B( 63-C , 64-C ) :   1.4324
B( 63-C ,102-H ) :   1.0046 B( 64-C , 65-C ) :   1.2663 B( 64-C , 67-F ) :   1.0599
B( 65-C , 66-C ) :   1.4546 B( 65-C ,103-H ) :   0.9944 B( 66-C ,104-H ) :   0.9967
B( 68-C , 69-C ) :   1.4715 B( 68-C ,105-H ) :   0.9978 B( 69-C , 70-C ) :   0.9859
B( 70-C , 71-C ) :   1.6079 B( 71-C , 72-C ) :   1.1467 B( 71-C , 74-C ) :   1.1598
B( 72-C , 73-N ) :   3.0259 B( 74-C , 75-N ) :   2.9315

-----------------------------------------------------------------------------
         ABSORPTION SPECTRUM VIA TRANSITION ELECTRIC DIPOLE MOMENTS
-----------------------------------------------------------------------------
State   Energy  Wavelength   fosc         T2         TX        TY        TZ
        (cm-1)    (nm)                  (au**2)     (au)      (au)      (au)
-----------------------------------------------------------------------------
   0   11932.3    838.1   0.338718027   9.34521  -1.73914   1.47513  -2.03583
   1   16235.2    615.9   0.546092909  11.07352  -0.05753   1.61794   2.90731
   2   20765.0    481.6   0.652738245  10.34862   0.73617  -2.16136  -2.26609
   3   21524.3    464.6   0.153724990   2.35120  -0.31567   0.28161  -1.47386
   4   23353.5    428.2   0.251991779   3.55230   0.95799  -1.07401   1.21699
   5   24044.6    415.9   0.089666260   1.22768   0.20382  -0.81141   0.72646
   6   24720.4    404.5   0.137972018   1.83743   0.43269   0.81342   0.99426
   7   25681.5    389.4   0.106336232   1.36313   0.61503   0.26398   0.95665
   8   25832.3    387.1   0.124219146   1.58307   0.37445  -1.16547  -0.29077
   9   26152.1    382.4   0.112699497   1.41870  -0.44681  -0.79201  -0.76928
  10   27089.0    369.2   0.045871549   0.55748  -0.21201  -0.27292   0.66185
  11   27401.9    364.9   0.019911494   0.23922  -0.28208  -0.38882  -0.09206
  12   27486.4    363.8   0.085776440   1.02737  -0.26740  -0.46837  -0.85819
  13   27979.0    357.4   0.209992496   2.47085  -0.56316   0.91442  -1.14785
  14   28413.8    351.9   0.081977078   0.94981  -0.65648   0.63025  -0.34876
  15   28484.4    351.1   0.047731888   0.55167  -0.46410  -0.53217  -0.23038
  16   29040.1    344.4   0.015257138   0.17296  -0.30459   0.13467  -0.24910
  17   29484.4    339.2   0.032930721   0.36769   0.26583  -0.45279   0.30333
  18   29732.1    336.3   0.020431832   0.22623  -0.28254  -0.23809  -0.29953
  19   30095.1    332.3   0.005989590   0.06552   0.20631  -0.08460  -0.12569
  20   30209.9    331.0   0.075444165   0.82215   0.76492   0.18180   0.45166
  21   30968.8    322.9   0.199666456   2.12254  -0.69037   0.04930  -1.28199
  22   31621.4    316.2   0.470626380   4.89971   0.47557   1.68811   1.35049
  23   31872.7    313.7   0.040522852   0.41856   0.29486  -0.55301  -0.16062
  24   32211.2    310.5   0.011006525   0.11249  -0.07318  -0.32248  -0.05606
  25   32586.1    306.9   0.171827634   1.73595  -0.41719   0.55867  -1.11794
  26   32969.6    303.3   0.100279861   1.00133  -0.54139  -0.76860  -0.34275
  27   33229.0    300.9   0.024285217   0.24060  -0.27911  -0.27177  -0.29807
  28   33537.8    298.2   0.026047602   0.25569   0.03614   0.43899   0.24834
  29   33594.0    297.7   0.071879629   0.70440   0.64003  -0.05947   0.53966
  30   34270.1    291.8   0.236642055   2.27327  -0.59848  -0.85522  -1.08798
  31   34415.0    290.6   0.217386844   2.07951  -0.59189   0.59719  -1.17155
  32   34624.2    288.8   0.163776883   1.55721  -0.59988  -0.90543  -0.61445
  33   34835.0    287.1   0.196590417   1.85790  -0.27461   1.10004  -0.75657
  34   35102.5    284.9   0.176119106   1.65175   0.31048   1.09971   0.58820
  35   35391.9    282.6   0.117096308   1.08922   0.10807  -1.02988  -0.12996
  36   35461.3    282.0   0.250380501   2.32446   0.73239   1.27667   0.39772
  37   35969.2    278.0   0.128419476   1.17537   0.17093  -1.06194   0.13582
  38   36633.3    273.0   0.127828150   1.14875   0.63444  -0.61205   0.60961
  39   36870.3    271.2   0.167084951   1.49189  -0.72311   0.75946  -0.62627
  40   36973.1    270.5   0.042164344   0.37543  -0.05177  -0.50830  -0.33821
  41   37253.3    268.4   0.086221731   0.76195   0.11641   0.69352   0.51714
  42   37641.6    265.7   0.094046818   0.82253  -0.32485  -0.71911  -0.44708
  43   37784.1    264.7   0.058955531   0.51368  -0.31242   0.37813  -0.52258
  44   38356.4    260.7   0.098936987   0.84917  -0.51565   0.66108  -0.38243
  45   38705.5    258.4   0.155884146   1.32588  -0.56082   0.89982  -0.44910
  46   38824.9    257.6   0.135581412   1.14965   0.82550   0.65768   0.18882
  47   38965.5    256.6   0.088429205   0.74712  -0.71147   0.45820  -0.17602
  48   39127.9    255.6   0.106483257   0.89592   0.16759   0.92928   0.06535
  49   39450.1    253.5   0.012926437   0.10787  -0.15680  -0.15179  -0.24544
  50   39461.4    253.4   0.097099613   0.81007   0.76930   0.30994   0.34954
  51   39928.1    250.5   0.021926198   0.18078  -0.25678  -0.33545  -0.04818
  52   39979.9    250.1   0.028017076   0.23070   0.33485   0.22124   0.26388
  53   39994.5    250.0   0.039528519   0.32538   0.35598  -0.32450   0.30554
  54   40213.9    248.7   0.013555473   0.11097   0.23298  -0.16463   0.17202

FINAL SINGLE POINT ENERGY     -4762.707354006308

DIPOLE MOMENT
-------------
                                X             Y             Z
Electronic contribution:    -15.67549      16.61780      20.89040
Nuclear contribution   :     17.76429     -16.70609     -24.74533
                        -----------------------------------------
Total Dipole Moment    :      2.08880      -0.08829      -3.85493
                        -----------------------------------------
Magnitude (a.u.)       :      4.38536
Magnitude (Debye)      :     11.14669

Rotational constants in cm-1:     0.000833     0.000700     0.000420
Rotational constants in MHz :    24.972608    20.972739    12.585110

                             ****ORCA TERMINATED NORMALLY****
TOTAL RUN TIME: 0 days 0 hours 13 minutes 31 seconds 292 msec
