                         Program Version 4.2.0 -  RELEASE  -
|  1> # ORCA input file
|  2> # SCF done       -178.126207415435          0.000523956863
|  3> ! CAM-B3LYP def2-SVP def2/J RIJCOSX Grid4 TightSCF
|  4> %maxcore 5000
|  5> %tddft
|  6>     Mode sTDDFT
|  7>     Ethresh 5.0
|  8>     maxcore 5000
|  9> end
| 10>
| 11> %pal
| 12>   nprocs 6
| 13>   end
| 14> * xyz 0 1
| 15>    C       14.20925         6.57284        -8.91093
| 16>    C       14.35882         7.30089       -10.05879
| 17>    F       15.34820         8.20462       -10.14528
| 18>    C       13.51031         7.14416       -11.16417
| 19>    C       12.49493         6.23155       -11.09600
| 20>    C       12.29264         5.45606        -9.93556
| 21>    C       13.16484         5.63224        -8.82091
| 22>    C       12.97114         4.87965        -7.63966
| 23>    C       11.93639         3.98490        -7.57569
| 24>    C       11.08346         3.79461        -8.70225
| 25>    C       11.24743         4.50990        -9.85427
| 26>    C       10.08940         2.75341        -8.39246
| 27>    O        9.17717         2.35671        -9.07813
| 28>    C       10.47813         2.22830        -7.04710
| 29>    C       11.47195         3.12869        -6.48915
| 30>    C       11.75011         3.31945        -5.16326
| 31>    C       11.11565         2.63446        -4.10653
| 32>    N       10.60756         2.15025        -3.19820
| 33>    C       12.64085         4.30537        -4.68564
| 34>    N       13.35601         5.08587        -4.24329
| 35>    C        9.96787         1.05218        -6.61784
| 36>    C       10.43270         0.23346        -5.53397
| 37>    C        9.55586        -0.51389        -4.72902
| 38>    N        9.96456        -1.25621        -3.73160
| 39>    C       11.27722        -1.28138        -3.48206
| 40>    N       12.20443        -0.67343        -4.23029
| 41>    C       11.79356         0.05478        -5.23574
| 42>    C       11.74638        -2.03419        -2.36094
| 43>    C       11.02772        -2.74223        -1.42255
| 44>    C       11.83800        -3.36070        -0.47323
| 45>    C       13.18675        -3.12949        -0.67338
| 46>    S       13.44629        -2.11939        -2.07029
| 47>    C       14.29687        -3.62143         0.07839
| 48>    C       15.58447        -3.25326        -0.22887
| 49>    C       16.73181        -3.70938         0.41250
| 50>    C       16.62720        -4.57613         1.59400
| 51>    C       15.45829        -5.05768         2.07515
| 52>    S       13.92355        -4.73212         1.38202
| 53>    C       17.95878        -4.74126         2.06470
| 54>    C       18.83672        -4.03271         1.24348
| 55>    C       20.17942        -4.15560         1.65954
| 56>    C       20.28388        -4.93730         2.76643
| 57>    S       18.77153        -5.55387         3.34227
| 58>    C       18.09055        -3.39994         0.18580
| 59>    C       18.69260        -2.61545        -0.81994
| 60>    C       18.11713        -2.22527        -1.99508
| 61>    C       18.68851        -1.33605        -2.92522
| 62>    C       19.94727        -0.77815        -3.01214
| 63>    C       19.98735         0.03398        -4.20092
| 64>    C       21.03039         0.77205        -4.69786
| 65>    C       22.28203         0.85751        -4.06434
| 66>    N       23.32166         0.96068        -3.58986
| 67>    C       20.88369         1.49118        -5.90009
| 68>    N       20.76351         2.06979        -6.88357
| 69>    O       18.81063        -0.01781        -4.84370
| 70>    C       17.88683        -0.83051        -4.10550
| 71>    C       16.70280         0.05416        -3.73801
| 72>    C       16.06599         0.72451        -4.77606
| 73>    C       14.98693         1.54650        -4.51363
| 74>    C       14.52087         1.69284        -3.21807
| 75>    C       15.16002         1.03557        -2.18370
| 76>    C       16.25717         0.22962        -2.43708
| 77>    C       17.44021        -2.01859        -4.94714
| 78>    C       18.34486        -2.63460        -5.80126
| 79>    C       17.96541        -3.74708        -6.53054
| 80>    C       16.68607        -4.25973        -6.40103
| 81>    C       15.78429        -3.64977        -5.54589
| 82>    C       16.15583        -2.53180        -4.82010
| 83>    C       21.02586        -0.98618        -2.14423
| 84>    N       21.88393        -1.19045        -1.40907
| 85>    H       14.87968         6.72133        -8.07893
| 86>    H       13.67763         7.74651       -12.04293
| 87>    H       11.82944         6.09300       -11.93465
| 88>    H       13.65166         5.02677        -6.81576
| 89>    H       10.58443         4.35731       -10.69263
| 90>    H        9.14088         0.65910        -7.20159
| 91>    H        8.48659        -0.47978        -4.89302
| 92>    H       12.56697         0.48683        -5.85926
| 93>    H        9.95499        -2.79386        -1.44592
| 94>    H       11.46367        -3.95898         0.33859
| 95>    H       15.67877        -2.53072        -1.02498
| 96>    H       15.41071        -5.69864         2.94133
| 97>    H       21.01957        -3.69275         1.17480
| 98>    H       21.17513        -5.20181         3.30096
| 99>    H       19.70920        -2.30584        -0.61766
|100>    H       17.14770        -2.60964        -2.27516
|101>    H       16.43272         0.60302        -5.78432
|102>    H       14.51677         2.08152        -5.32648
|103>    H       13.67337         2.32630        -3.00580
|104>    H       14.81187         1.15673        -1.16913
|105>    H       16.76046        -0.25246        -1.61186
|106>    H       19.34491        -2.24031        -5.90803
|107>    H       18.67385        -4.21519        -7.19721
|108>    H       16.39276        -5.13136        -6.96671
|109>    H       14.78310        -4.04089        -5.44168
|110>    H       15.43932        -2.05368        -4.16804
|111> *
|112>
|113>                          ****END OF INPUT****

CARTESIAN COORDINATES (ANGSTROEM)
---------------------------------
  C     14.209250    6.572840   -8.910930
  C     14.358820    7.300890  -10.058790
  F     15.348200    8.204620  -10.145280
  C     13.510310    7.144160  -11.164170
  C     12.494930    6.231550  -11.096000
  C     12.292640    5.456060   -9.935560
  C     13.164840    5.632240   -8.820910
  C     12.971140    4.879650   -7.639660
  C     11.936390    3.984900   -7.575690
  C     11.083460    3.794610   -8.702250
  C     11.247430    4.509900   -9.854270
  C     10.089400    2.753410   -8.392460
  O      9.177170    2.356710   -9.078130
  C     10.478130    2.228300   -7.047100
  C     11.471950    3.128690   -6.489150
  C     11.750110    3.319450   -5.163260
  C     11.115650    2.634460   -4.106530
  N     10.607560    2.150250   -3.198200
  C     12.640850    4.305370   -4.685640
  N     13.356010    5.085870   -4.243290
  C      9.967870    1.052180   -6.617840
  C     10.432700    0.233460   -5.533970
  C      9.555860   -0.513890   -4.729020
  N      9.964560   -1.256210   -3.731600
  C     11.277220   -1.281380   -3.482060
  N     12.204430   -0.673430   -4.230290
  C     11.793560    0.054780   -5.235740
  C     11.746380   -2.034190   -2.360940
  C     11.027720   -2.742230   -1.422550
  C     11.838000   -3.360700   -0.473230
  C     13.186750   -3.129490   -0.673380
  S     13.446290   -2.119390   -2.070290
  C     14.296870   -3.621430    0.078390
  C     15.584470   -3.253260   -0.228870
  C     16.731810   -3.709380    0.412500
  C     16.627200   -4.576130    1.594000
  C     15.458290   -5.057680    2.075150
  S     13.923550   -4.732120    1.382020
  C     17.958780   -4.741260    2.064700
  C     18.836720   -4.032710    1.243480
  C     20.179420   -4.155600    1.659540
  C     20.283880   -4.937300    2.766430
  S     18.771530   -5.553870    3.342270
  C     18.090550   -3.399940    0.185800
  C     18.692600   -2.615450   -0.819940
  C     18.117130   -2.225270   -1.995080
  C     18.688510   -1.336050   -2.925220
  C     19.947270   -0.778150   -3.012140
  C     19.987350    0.033980   -4.200920
  C     21.030390    0.772050   -4.697860
  C     22.282030    0.857510   -4.064340
  N     23.321660    0.960680   -3.589860
  C     20.883690    1.491180   -5.900090
  N     20.763510    2.069790   -6.883570
  O     18.810630   -0.017810   -4.843700
  C     17.886830   -0.830510   -4.105500
  C     16.702800    0.054160   -3.738010
  C     16.065990    0.724510   -4.776060
  C     14.986930    1.546500   -4.513630
  C     14.520870    1.692840   -3.218070
  C     15.160020    1.035570   -2.183700
  C     16.257170    0.229620   -2.437080
  C     17.440210   -2.018590   -4.947140
  C     18.344860   -2.634600   -5.801260
  C     17.965410   -3.747080   -6.530540
  C     16.686070   -4.259730   -6.401030
  C     15.784290   -3.649770   -5.545890
  C     16.155830   -2.531800   -4.820100
  C     21.025860   -0.986180   -2.144230
  N     21.883930   -1.190450   -1.409070
  H     14.879680    6.721330   -8.078930
  H     13.677630    7.746510  -12.042930
  H     11.829440    6.093000  -11.934650
  H     13.651660    5.026770   -6.815760
  H     10.584430    4.357310  -10.692630
  H      9.140880    0.659100   -7.201590
  H      8.486590   -0.479780   -4.893020
  H     12.566970    0.486830   -5.859260
  H      9.954990   -2.793860   -1.445920
  H     11.463670   -3.958980    0.338590
  H     15.678770   -2.530720   -1.024980
  H     15.410710   -5.698640    2.941330
  H     21.019570   -3.692750    1.174800
  H     21.175130   -5.201810    3.300960
  H     19.709200   -2.305840   -0.617660
  H     17.147700   -2.609640   -2.275160
  H     16.432720    0.603020   -5.784320
  H     14.516770    2.081520   -5.326480
  H     13.673370    2.326300   -3.005800
  H     14.811870    1.156730   -1.169130
  H     16.760460   -0.252460   -1.611860
  H     19.344910   -2.240310   -5.908030
  H     18.673850   -4.215190   -7.197210
  H     16.392760   -5.131360   -6.966710
  H     14.783100   -4.040890   -5.441680
  H     15.439320   -2.053680   -4.168040

 Total Charge           Charge          ....    0
 Multiplicity           Mult            ....    1
 Number of Electrons    NEL             ....  490
 Basis Dimension        Dim             .... 1122

ORBITAL ENERGIES
----------------

  NO   OCC          E(Eh)            E(eV)
   0   2.0000     -88.997630     -2421.7486
   1   2.0000     -88.978883     -2421.2385
   2   2.0000     -88.964606     -2420.8500
   3   2.0000     -24.791591      -674.6135
   4   2.0000     -19.281949      -524.6885
   5   2.0000     -19.228629      -523.2376
   6   2.0000     -14.433355      -392.7516
   7   2.0000     -14.432040      -392.7158
   8   2.0000     -14.430938      -392.6858
   9   2.0000     -14.430556      -392.6754
  10   2.0000     -14.408546      -392.0765
  11   2.0000     -14.384042      -391.4097
  12   2.0000     -14.383835      -391.4041
  13   2.0000     -10.381649      -282.4990
  14   2.0000     -10.379799      -282.4487
  15   2.0000     -10.377289      -282.3804
  16   2.0000     -10.370634      -282.1993
  17   2.0000     -10.366191      -282.0784
  18   2.0000     -10.361087      -281.9395
  19   2.0000     -10.358753      -281.8760
  20   2.0000     -10.347887      -281.5803
  21   2.0000     -10.345757      -281.5224
  22   2.0000     -10.344805      -281.4965
  23   2.0000     -10.344695      -281.4935
  24   2.0000     -10.333929      -281.2005
  25   2.0000     -10.333881      -281.1992
  26   2.0000     -10.331946      -281.1465
  27   2.0000     -10.330524      -281.1079
  28   2.0000     -10.330381      -281.1040
  29   2.0000     -10.319129      -280.7978
  30   2.0000     -10.318688      -280.7858
  31   2.0000     -10.316705      -280.7318
  32   2.0000     -10.315991      -280.7124
  33   2.0000     -10.315948      -280.7112
  34   2.0000     -10.315384      -280.6959
  35   2.0000     -10.315141      -280.6893
  36   2.0000     -10.312631      -280.6209
  37   2.0000     -10.312395      -280.6145
  38   2.0000     -10.311485      -280.5898
  39   2.0000     -10.311099      -280.5793
  40   2.0000     -10.310405      -280.5604
  41   2.0000     -10.310223      -280.5554
  42   2.0000     -10.309787      -280.5436
  43   2.0000     -10.307059      -280.4693
  44   2.0000     -10.305650      -280.4310
  45   2.0000     -10.303731      -280.3788
  46   2.0000     -10.302292      -280.3396
  47   2.0000     -10.302070      -280.3336
  48   2.0000     -10.297747      -280.2159
  49   2.0000     -10.296569      -280.1839
  50   2.0000     -10.296493      -280.1818
  51   2.0000     -10.296431      -280.1801
  52   2.0000     -10.289790      -279.9994
  53   2.0000     -10.289368      -279.9879
  54   2.0000     -10.289344      -279.9873
  55   2.0000     -10.289316      -279.9865
  56   2.0000     -10.288806      -279.9726
  57   2.0000     -10.288537      -279.9653
  58   2.0000     -10.283984      -279.8414
  59   2.0000     -10.279996      -279.7329
  60   2.0000     -10.277717      -279.6709
  61   2.0000     -10.277418      -279.6628
  62   2.0000     -10.277069      -279.6533
  63   2.0000     -10.276361      -279.6340
  64   2.0000     -10.276313      -279.6327
  65   2.0000     -10.275907      -279.6217
  66   2.0000     -10.275614      -279.6137
  67   2.0000     -10.275508      -279.6108
  68   2.0000     -10.273870      -279.5662
  69   2.0000     -10.273441      -279.5545
  70   2.0000      -8.092694      -220.2134
  71   2.0000      -8.072682      -219.6688
  72   2.0000      -8.059950      -219.3224
  73   2.0000      -6.062183      -164.9604
  74   2.0000      -6.057572      -164.8349
  75   2.0000      -6.054843      -164.7606
  76   2.0000      -6.042036      -164.4121
  77   2.0000      -6.037767      -164.2960
  78   2.0000      -6.035011      -164.2210
  79   2.0000      -6.029454      -164.0698
  80   2.0000      -6.025122      -163.9519
  81   2.0000      -6.021952      -163.8656
  82   2.0000      -1.307308       -35.5737
  83   2.0000      -1.203934       -32.7607
  84   2.0000      -1.144149       -31.1339
  85   2.0000      -1.107672       -30.1413
  86   2.0000      -1.034551       -28.1516
  87   2.0000      -1.023285       -27.8450
  88   2.0000      -1.013913       -27.5900
  89   2.0000      -1.009700       -27.4753
  90   2.0000      -1.008326       -27.4380
  91   2.0000      -1.001709       -27.2579
  92   2.0000      -0.996729       -27.1224
  93   2.0000      -0.988564       -26.9002
  94   2.0000      -0.983382       -26.7592
  95   2.0000      -0.981520       -26.7085
  96   2.0000      -0.972643       -26.4670
  97   2.0000      -0.962624       -26.1943
  98   2.0000      -0.953171       -25.9371
  99   2.0000      -0.950648       -25.8685
 100   2.0000      -0.948589       -25.8124
 101   2.0000      -0.938157       -25.5285
 102   2.0000      -0.933482       -25.4013
 103   2.0000      -0.920057       -25.0360
 104   2.0000      -0.914821       -24.8935
 105   2.0000      -0.905424       -24.6378
 106   2.0000      -0.896331       -24.3904
 107   2.0000      -0.886110       -24.1123
 108   2.0000      -0.876034       -23.8381
 109   2.0000      -0.871541       -23.7158
 110   2.0000      -0.855748       -23.2861
 111   2.0000      -0.848695       -23.0942
 112   2.0000      -0.846357       -23.0305
 113   2.0000      -0.843008       -22.9394
 114   2.0000      -0.842264       -22.9192
 115   2.0000      -0.839843       -22.8533
 116   2.0000      -0.835703       -22.7406
 117   2.0000      -0.819829       -22.3087
 118   2.0000      -0.809966       -22.0403
 119   2.0000      -0.800556       -21.7842
 120   2.0000      -0.788235       -21.4490
 121   2.0000      -0.776439       -21.1280
 122   2.0000      -0.771040       -20.9811
 123   2.0000      -0.766007       -20.8441
 124   2.0000      -0.757178       -20.6039
 125   2.0000      -0.738585       -20.0979
 126   2.0000      -0.733801       -19.9677
 127   2.0000      -0.725577       -19.7439
 128   2.0000      -0.719267       -19.5722
 129   2.0000      -0.717789       -19.5320
 130   2.0000      -0.701660       -19.0931
 131   2.0000      -0.699123       -19.0241
 132   2.0000      -0.695113       -18.9150
 133   2.0000      -0.693950       -18.8833
 134   2.0000      -0.692992       -18.8573
 135   2.0000      -0.685538       -18.6544
 136   2.0000      -0.679510       -18.4904
 137   2.0000      -0.678010       -18.4496
 138   2.0000      -0.658807       -17.9271
 139   2.0000      -0.657867       -17.9015
 140   2.0000      -0.654676       -17.8146
 141   2.0000      -0.646644       -17.5961
 142   2.0000      -0.644007       -17.5243
 143   2.0000      -0.638622       -17.3778
 144   2.0000      -0.635377       -17.2895
 145   2.0000      -0.629432       -17.1277
 146   2.0000      -0.625290       -17.0150
 147   2.0000      -0.623276       -16.9602
 148   2.0000      -0.618639       -16.8340
 149   2.0000      -0.609341       -16.5810
 150   2.0000      -0.603710       -16.4278
 151   2.0000      -0.599280       -16.3073
 152   2.0000      -0.594732       -16.1835
 153   2.0000      -0.590107       -16.0576
 154   2.0000      -0.583731       -15.8841
 155   2.0000      -0.577914       -15.7258
 156   2.0000      -0.575165       -15.6510
 157   2.0000      -0.568346       -15.4655
 158   2.0000      -0.566317       -15.4103
 159   2.0000      -0.564626       -15.3643
 160   2.0000      -0.560941       -15.2640
 161   2.0000      -0.557794       -15.1783
 162   2.0000      -0.554521       -15.0893
 163   2.0000      -0.550715       -14.9857
 164   2.0000      -0.548065       -14.9136
 165   2.0000      -0.545225       -14.8363
 166   2.0000      -0.540132       -14.6977
 167   2.0000      -0.536671       -14.6036
 168   2.0000      -0.535908       -14.5828
 169   2.0000      -0.533741       -14.5238
 170   2.0000      -0.532442       -14.4885
 171   2.0000      -0.530255       -14.4290
 172   2.0000      -0.527465       -14.3531
 173   2.0000      -0.526635       -14.3305
 174   2.0000      -0.523498       -14.2451
 175   2.0000      -0.522188       -14.2094
 176   2.0000      -0.514156       -13.9909
 177   2.0000      -0.513594       -13.9756
 178   2.0000      -0.510694       -13.8967
 179   2.0000      -0.507657       -13.8140
 180   2.0000      -0.506823       -13.7914
 181   2.0000      -0.503941       -13.7129
 182   2.0000      -0.502278       -13.6677
 183   2.0000      -0.498233       -13.5576
 184   2.0000      -0.497321       -13.5328
 185   2.0000      -0.495632       -13.4868
 186   2.0000      -0.493566       -13.4306
 187   2.0000      -0.492427       -13.3996
 188   2.0000      -0.480496       -13.0750
 189   2.0000      -0.479153       -13.0384
 190   2.0000      -0.474677       -12.9166
 191   2.0000      -0.471457       -12.8290
 192   2.0000      -0.468852       -12.7581
 193   2.0000      -0.466344       -12.6899
 194   2.0000      -0.465345       -12.6627
 195   2.0000      -0.464576       -12.6417
 196   2.0000      -0.460030       -12.5180
 197   2.0000      -0.458722       -12.4824
 198   2.0000      -0.457395       -12.4463
 199   2.0000      -0.453636       -12.3441
 200   2.0000      -0.451728       -12.2921
 201   2.0000      -0.450689       -12.2639
 202   2.0000      -0.448200       -12.1962
 203   2.0000      -0.447240       -12.1700
 204   2.0000      -0.443539       -12.0693
 205   2.0000      -0.440766       -11.9939
 206   2.0000      -0.440340       -11.9823
 207   2.0000      -0.437901       -11.9159
 208   2.0000      -0.435164       -11.8414
 209   2.0000      -0.434628       -11.8268
 210   2.0000      -0.429370       -11.6837
 211   2.0000      -0.428265       -11.6537
 212   2.0000      -0.426435       -11.6039
 213   2.0000      -0.425755       -11.5854
 214   2.0000      -0.420732       -11.4487
 215   2.0000      -0.418719       -11.3939
 216   2.0000      -0.417587       -11.3631
 217   2.0000      -0.414544       -11.2803
 218   2.0000      -0.413658       -11.2562
 219   2.0000      -0.412876       -11.2349
 220   2.0000      -0.412388       -11.2216
 221   2.0000      -0.407901       -11.0996
 222   2.0000      -0.401979       -10.9384
 223   2.0000      -0.398576       -10.8458
 224   2.0000      -0.396197       -10.7811
 225   2.0000      -0.392827       -10.6894
 226   2.0000      -0.391412       -10.6509
 227   2.0000      -0.383033       -10.4228
 228   2.0000      -0.379103       -10.3159
 229   2.0000      -0.360453        -9.8084
 230   2.0000      -0.352136        -9.5821
 231   2.0000      -0.349969        -9.5232
 232   2.0000      -0.344496        -9.3742
 233   2.0000      -0.338013        -9.1978
 234   2.0000      -0.334234        -9.0950
 235   2.0000      -0.331732        -9.0269
 236   2.0000      -0.327640        -8.9156
 237   2.0000      -0.324205        -8.8221
 238   2.0000      -0.323887        -8.8134
 239   2.0000      -0.317735        -8.6460
 240   2.0000      -0.311221        -8.4687
 241   2.0000      -0.305353        -8.3091
 242   2.0000      -0.294864        -8.0236
 243   2.0000      -0.280333        -7.6283
 244   2.0000      -0.245207        -6.6724
 245   0.0000      -0.110266        -3.0005
 246   0.0000      -0.094731        -2.5778
 247   0.0000      -0.068919        -1.8754
 248   0.0000      -0.054162        -1.4738
 249   0.0000      -0.044413        -1.2085

MULLIKEN ATOMIC CHARGES
-----------------------
   0 C :   -0.094328
   1 C :    0.304370
   2 F :   -0.183965
   3 C :   -0.025140
   4 C :   -0.007580
   5 C :    0.099069
   6 C :    0.101029
   7 C :   -0.080410
   8 C :    0.037093
   9 C :    0.008416
  10 C :   -0.075431
  11 C :    0.138652
  12 O :   -0.134925
  13 C :   -0.114820
  14 C :    0.269685
  15 C :   -0.337656
  16 C :   -0.195365
  17 N :    0.181596
  18 C :   -0.201812
  19 N :    0.180396
  20 C :    0.045242
  21 C :   -0.040159
  22 C :    0.071777
  23 N :   -0.040421
  24 C :   -0.041029
  25 N :   -0.060626
  26 C :    0.066859
  27 C :   -0.024520
  28 C :    0.024699
  29 C :   -0.007659
  30 C :   -0.064108
  31 S :    0.157984
  32 C :    0.002958
  33 C :   -0.092735
  34 C :    0.080466
  35 C :    0.054463
  36 C :   -0.124467
  37 S :    0.156138
  38 C :   -0.107380
  39 C :    0.052202
  40 C :    0.012933
  41 C :   -0.064696
  42 S :    0.132813
  43 C :    0.070707
  44 C :    0.014896
  45 C :   -0.102137
  46 C :    0.136710
  47 C :   -0.177810
  48 C :    0.357010
  49 C :   -0.429821
  50 C :   -0.201595
  51 N :    0.177710
  52 C :   -0.168868
  53 N :    0.147993
  54 O :   -0.245113
  55 C :    0.114280
  56 C :    0.014809
  57 C :    0.009992
  58 C :    0.030324
  59 C :    0.041988
  60 C :    0.028525
  61 C :   -0.010968
  62 C :    0.056476
  63 C :   -0.030124
  64 C :    0.026433
  65 C :    0.031414
  66 C :    0.022842
  67 C :    0.005554
  68 C :   -0.235168
  69 N :    0.203655
  70 H :    0.004841
  71 H :    0.008666
  72 H :   -0.004880
  73 H :    0.002418
  74 H :   -0.007215
  75 H :    0.034290
  76 H :    0.013145
  77 H :    0.011458
  78 H :    0.005765
  79 H :    0.000606
  80 H :   -0.015024
  81 H :    0.043767
  82 H :    0.006366
  83 H :    0.033628
  84 H :    0.006349
  85 H :   -0.008581
  86 H :   -0.006499
  87 H :   -0.018102
  88 H :   -0.010033
  89 H :   -0.014409
  90 H :    0.001577
  91 H :   -0.002901
  92 H :   -0.008000
  93 H :   -0.011053
  94 H :   -0.017500
  95 H :    0.002000
Sum of atomic charges:   -0.0000000

LOEWDIN ATOMIC CHARGES
----------------------
   0 C :   -0.038442
   1 C :    0.097115
   2 F :   -0.058450
   3 C :   -0.030834
   4 C :    0.005740
   5 C :   -0.016390
   6 C :    0.005085
   7 C :    0.016021
   8 C :   -0.021619
   9 C :   -0.062593
  10 C :    0.039622
  11 C :    0.084479
  12 O :   -0.135620
  13 C :   -0.078004
  14 C :    0.068399
  15 C :   -0.133116
  16 C :   -0.019926
  17 N :   -0.042693
  18 C :   -0.023663
  19 N :   -0.036302
  20 C :    0.072063
  21 C :   -0.092925
  22 C :    0.076169
  23 N :   -0.071083
  24 C :    0.028981
  25 N :   -0.083521
  26 C :    0.068309
  27 C :   -0.185611
  28 C :   -0.014717
  29 C :   -0.058850
  30 C :   -0.181143
  31 S :    0.501457
  32 C :   -0.167054
  33 C :   -0.032217
  34 C :    0.008110
  35 C :   -0.042414
  36 C :   -0.138254
  37 S :    0.481170
  38 C :   -0.208806
  39 C :   -0.032921
  40 C :   -0.057940
  41 C :   -0.155699
  42 S :    0.425057
  43 C :   -0.064619
  44 C :    0.053172
  45 C :   -0.074096
  46 C :    0.064002
  47 C :   -0.122516
  48 C :    0.137168
  49 C :   -0.194660
  50 C :   -0.034732
  51 N :   -0.051172
  52 C :   -0.023761
  53 N :   -0.065598
  54 O :   -0.038846
  55 C :    0.077346
  56 C :   -0.030264
  57 C :   -0.001718
  58 C :   -0.019807
  59 C :   -0.008747
  60 C :   -0.016995
  61 C :   -0.031866
  62 C :   -0.029106
  63 C :   -0.010966
  64 C :   -0.015150
  65 C :   -0.017535
  66 C :   -0.019481
  67 C :   -0.025135
  68 C :   -0.031169
  69 N :   -0.039218
  70 H :    0.046073
  71 H :    0.044171
  72 H :    0.037193
  73 H :    0.040945
  74 H :    0.041620
  75 H :    0.050439
  76 H :    0.030913
  77 H :    0.026100
  78 H :    0.040719
  79 H :    0.028041
  80 H :    0.026944
  81 H :    0.039922
  82 H :    0.039351
  83 H :    0.026740
  84 H :    0.042776
  85 H :    0.029128
  86 H :    0.034203
  87 H :    0.021378
  88 H :    0.027937
  89 H :    0.029974
  90 H :    0.028668
  91 H :    0.032507
  92 H :    0.031904
  93 H :    0.029464
  94 H :    0.028873
  95 H :    0.022516

  Mayer bond orders larger than 0.100000
B(  0-C ,  1-C ) :   1.4418 B(  0-C ,  6-C ) :   1.2022 B(  0-C , 70-H ) :   1.0061
B(  1-C ,  2-F ) :   1.0956 B(  1-C ,  3-C ) :   1.2523 B(  3-C ,  4-C ) :   1.4638
B(  3-C , 71-H ) :   0.9921 B(  4-C ,  5-C ) :   1.2340 B(  4-C , 72-H ) :   0.9967
B(  5-C ,  6-C ) :   1.2489 B(  5-C , 10-C ) :   1.1979 B(  6-C ,  7-C ) :   1.2128
B(  7-C ,  8-C ) :   1.4511 B(  7-C , 73-H ) :   0.9943 B(  8-C ,  9-C ) :   1.2136
B(  8-C , 14-C ) :   1.0047 B(  9-C , 10-C ) :   1.4650 B(  9-C , 11-C ) :   0.9244
B( 10-C , 74-H ) :   1.0153 B( 11-C , 12-O ) :   2.2806 B( 11-C , 13-C ) :   0.9218
B( 13-C , 14-C ) :   1.0099 B( 13-C , 20-C ) :   1.7567 B( 14-C , 15-C ) :   1.6619
B( 15-C , 16-C ) :   1.1688 B( 15-C , 18-C ) :   1.1378 B( 16-C , 17-N ) :   2.9797
B( 18-C , 19-N ) :   2.9754 B( 20-C , 21-C ) :   1.0153 B( 20-C , 75-H ) :   0.9424
B( 21-C , 22-C ) :   1.2978 B( 21-C , 26-C ) :   1.3047 B( 22-C , 23-N ) :   1.5849
B( 22-C , 76-H ) :   0.9903 B( 23-N , 24-C ) :   1.5675 B( 24-C , 25-N ) :   1.5464
B( 24-C , 27-C ) :   1.0430 B( 25-N , 26-C ) :   1.5833 B( 26-C , 77-H ) :   0.9816
B( 27-C , 28-C ) :   1.5099 B( 27-C , 30-C ) :   0.1039 B( 27-C , 31-S ) :   1.1394
B( 28-C , 29-C ) :   1.2705 B( 28-C , 78-H ) :   0.9999 B( 29-C , 30-C ) :   1.4767
B( 29-C , 79-H ) :   0.9891 B( 30-C , 31-S ) :   1.1405 B( 30-C , 32-C ) :   1.1480
B( 32-C , 33-C ) :   1.5051 B( 32-C , 37-S ) :   1.0818 B( 33-C , 34-C ) :   1.2613
B( 33-C , 80-H ) :   0.9611 B( 34-C , 35-C ) :   1.0695 B( 34-C , 43-C ) :   1.3393
B( 35-C , 36-C ) :   1.5897 B( 35-C , 38-C ) :   1.1790 B( 36-C , 37-S ) :   1.1493
B( 36-C , 81-H ) :   0.9400 B( 38-C , 39-C ) :   1.4411 B( 38-C , 42-S ) :   1.0741
B( 39-C , 40-C ) :   1.2344 B( 39-C , 43-C ) :   1.0878 B( 40-C , 41-C ) :   1.5796
B( 40-C , 82-H ) :   0.9979 B( 41-C , 42-S ) :   1.1578 B( 41-C , 83-H ) :   0.9657
B( 43-C , 44-C ) :   1.2068 B( 44-C , 45-C ) :   1.5160 B( 44-C , 84-H ) :   0.9549
B( 45-C , 46-C ) :   1.2090 B( 45-C , 85-H ) :   0.9527 B( 46-C , 47-C ) :   1.5598
B( 46-C , 55-C ) :   0.9640 B( 47-C , 48-C ) :   1.0723 B( 47-C , 68-C ) :   1.1645
B( 48-C , 49-C ) :   1.6006 B( 48-C , 54-O ) :   1.2137 B( 49-C , 50-C ) :   1.1816
B( 49-C , 52-C ) :   1.1199 B( 50-C , 51-N ) :   3.0226 B( 52-C , 53-N ) :   3.0512
B( 54-O , 55-C ) :   0.9769 B( 55-C , 56-C ) :   0.9372 B( 55-C , 62-C ) :   0.9102
B( 56-C , 57-C ) :   1.3931 B( 56-C , 61-C ) :   1.4372 B( 57-C , 58-C ) :   1.3947
B( 57-C , 86-H ) :   1.0015 B( 58-C , 59-C ) :   1.3563 B( 58-C , 87-H ) :   0.9807
B( 59-C , 60-C ) :   1.4206 B( 59-C , 88-H ) :   0.9855 B( 60-C , 61-C ) :   1.3588
B( 60-C , 89-H ) :   0.9872 B( 61-C , 90-H ) :   0.9669 B( 62-C , 63-C ) :   1.3762
B( 62-C , 67-C ) :   1.4046 B( 63-C , 64-C ) :   1.3933 B( 63-C , 91-H ) :   0.9983
B( 64-C , 65-C ) :   1.3790 B( 64-C , 92-H ) :   0.9912 B( 65-C , 66-C ) :   1.3887
B( 65-C , 93-H ) :   0.9939 B( 66-C , 67-C ) :   1.3791 B( 66-C , 94-H ) :   0.9903
B( 67-C , 95-H ) :   0.9764 B( 68-C , 69-N ) :   2.9577

-----------------------------------------------------------------------------
         ABSORPTION SPECTRUM VIA TRANSITION ELECTRIC DIPOLE MOMENTS
-----------------------------------------------------------------------------
State   Energy  Wavelength   fosc         T2         TX        TY        TZ
        (cm-1)    (nm)                  (au**2)     (au)      (au)      (au)
-----------------------------------------------------------------------------
   0   15604.6    640.8   0.525287318  11.08202   3.32896  -0.00176   0.00599
   1   19008.0    526.1   0.325092245   5.63048   0.92788   1.59393  -1.49295
   2   23381.7    427.7   0.704134505   9.91415   0.42701   2.29705  -2.11077
   3   23671.2    422.5   0.044081109   0.61307   0.69428  -0.15419   0.32752
   4   25205.1    396.7   0.065388224   0.85406   0.54401  -0.07764  -0.74302
   5   26128.4    382.7   0.120107515   1.51333  -0.10547   0.73526  -0.98061
   6   26312.5    380.0   0.540784624   6.76609   0.04211  -1.64879   2.01142
   7   27002.8    370.3   0.003497040   0.04264  -0.12168   0.05003   0.15914
   8   27417.3    364.7   0.031902073   0.38306  -0.39827  -0.40183  -0.25094
   9   28806.7    347.1   0.102237081   1.16840   0.23261   0.53372  -0.91073
  10   29030.2    344.5   0.089288379   1.01256  -0.15941   0.72119  -0.68340
  11   29209.2    342.4   0.020792147   0.23434   0.04780   0.36895  -0.30974
  12   29585.3    338.0   0.037769130   0.42028   0.21804   0.56438  -0.23284
  13   29765.1    336.0   0.177300706   1.96101  -0.06092   0.71120  -1.20478
  14   30382.3    329.1   0.122700539   1.32954   0.64014  -0.34440   0.89507
  15   30600.4    326.8   0.010671247   0.11481  -0.20233  -0.15791  -0.22121
  16   31176.0    320.8   0.175613101   1.85443  -1.02103   0.23957  -0.86864
  17   31609.6    316.4   0.100475878   1.04645   0.72244   0.14711   0.70915
  18   31966.0    312.8   0.080818028   0.83233   0.17188  -0.60846   0.65770
  19   33144.5    301.7   0.043354712   0.43063  -0.48030   0.19102  -0.40429
  20   33340.8    299.9   0.383727209   3.78898  -0.15553   1.23873  -1.49343
  21   33436.3    299.1   0.081905810   0.80644  -0.31253   0.43623  -0.72005
  22   33712.7    296.6   0.434700745   4.24494   0.76947   0.93116  -1.66907
  23   33890.0    295.1   0.066259058   0.64365  -0.26595  -0.27677   0.70450
  24   34411.4    290.6   0.306739506   2.93456   1.29342   0.81583  -0.77205
  25   34755.1    287.7   0.009267551   0.08779  -0.28861  -0.06694  -0.00333
  26   35131.9    284.6   0.003628592   0.03400  -0.10784   0.13929  -0.05450
  27   35278.5    283.5   0.012585139   0.11744   0.22943   0.22524   0.11862
  28   35448.3    282.1   0.013912300   0.12920  -0.22825  -0.09116  -0.26230
  29   35511.3    281.6   0.027161211   0.25180   0.10437  -0.34706   0.34707
  30   35620.8    280.7   0.008249845   0.07625   0.12875  -0.14360   0.19761
  31   36193.7    276.3   0.089024441   0.80975   0.85743  -0.25841   0.08829
  32   36545.1    273.6   0.000130143   0.00117  -0.03371   0.00381  -0.00462
  33   36629.2    273.0   0.074898095   0.67316  -0.68682  -0.42392   0.14742
  34   37285.9    268.2   0.210693467   1.86029   0.69448   0.89707  -0.75714
  35   37337.8    267.8   0.026949008   0.23761  -0.44714  -0.16679   0.09930
  36   38133.2    262.2   0.007603995   0.06565   0.06766  -0.24081   0.05548
  37   38362.5    260.7   0.269907391   2.31624   0.91434   0.02374   1.21641
  38   38845.6    257.4   0.018164182   0.15394  -0.04906   0.35369   0.16259
  39   38978.3    256.6   0.033808526   0.28555  -0.22252   0.36107  -0.32505
  40   39137.4    255.5   0.054987391   0.46254  -0.51545  -0.39020  -0.21118
  41   39475.8    253.3   0.088695567   0.73968   0.78205  -0.06689   0.35159
  42   39833.2    251.0   0.061238625   0.50612  -0.52152  -0.41243   0.25307
  43   40094.6    249.4   0.046852830   0.38470   0.60277   0.14039   0.04075
  44   40222.2    248.6   0.047860656   0.39173  -0.28744  -0.48575   0.27048

FINAL SINGLE POINT ENERGY     -4011.789100104184

DIPOLE MOMENT
-------------
                                X             Y             Z
Electronic contribution:      3.21403      11.36598       5.89362
Nuclear contribution   :     -8.34799     -14.13723      -5.75378
                        -----------------------------------------
Total Dipole Moment    :     -5.13396      -2.77125       0.13984
                        -----------------------------------------
Magnitude (a.u.)       :      5.83583
Magnitude (Debye)      :     14.83351

Rotational constants in cm-1:     0.001450     0.000594     0.000467
Rotational constants in MHz :    43.474508    17.818898    13.989637

                             ****ORCA TERMINATED NORMALLY****
TOTAL RUN TIME: 0 days 0 hours 22 minutes 19 seconds 891 msec
