                         Program Version 4.2.0 -  RELEASE  -
|  1> # ORCA input file
|  2> # SCF done       -174.104634449233          0.000368032114
|  3> ! CAM-B3LYP def2-SVP def2/J RIJCOSX Grid4 TightSCF
|  4> %maxcore 5000
|  5> %tddft
|  6>     Mode sTDDFT
|  7>     Ethresh 5.0
|  8>     maxcore 5000
|  9> end
| 10>
| 11> %pal
| 12>   nprocs 6
| 13>   end
| 14> * xyz 0 1
| 15>    C        3.07537         3.22004         7.08781
| 16>    C        2.25459         4.13322         7.68914
| 17>    F        2.00645         4.03340         9.00661
| 18>    C        1.65310         5.18392         6.98229
| 19>    C        1.89364         5.30274         5.64194
| 20>    C        2.73203         4.38877         4.97084
| 21>    C        3.33308         3.32593         5.70710
| 22>    C        4.16977         2.39088         5.05494
| 23>    C        4.39665         2.51536         3.71030
| 24>    C        3.80648         3.59026         2.98361
| 25>    C        2.99151         4.50449         3.58753
| 26>    C        4.23522         3.52218         1.57608
| 27>    O        3.90428         4.23299         0.65636
| 28>    C        5.23196         2.41101         1.52367
| 29>    C        5.16589         1.69067         2.78249
| 30>    C        5.54194         0.39314         3.00365
| 31>    C        6.05985        -0.46497         2.01155
| 32>    N        6.43644        -1.22471         1.23809
| 33>    C        5.37726        -0.27088         4.23765
| 34>    N        5.27893        -0.84715         5.22513
| 35>    C        6.04740         2.30713         0.44796
| 36>    C        7.25412         1.54616         0.31625
| 37>    C        7.65478         1.00023        -0.91653
| 38>    N        8.73777         0.28080        -1.05761
| 39>    C        9.47916         0.06319         0.03461
| 40>    N        9.24424         0.61520         1.22970
| 41>    C        8.16755         1.34440         1.36551
| 42>    C       10.62363        -0.79843        -0.06895
| 43>    C       10.95514        -1.43287        -1.23936
| 44>    C       12.04881        -2.28128        -1.37923
| 45>    C       12.93084        -2.56177        -0.24237
| 46>    C       12.76529        -2.03934         0.99700
| 47>    S       11.50360        -0.96510         1.42949
| 48>    C       13.91161        -3.45514        -0.74622
| 49>    C       13.66652        -3.72836        -2.09836
| 50>    C       14.64700        -4.59408        -2.63711
| 51>    C       15.57162        -4.95013        -1.70848
| 52>    S       15.30613        -4.25591        -0.14551
| 53>    C       12.49497        -3.00243        -2.50752
| 54>    C       11.85835        -2.97036        -3.77325
| 55>    C       12.12234        -3.78222        -4.82488
| 56>    C       11.44365        -3.72525        -6.08401
| 57>    C       11.56855        -4.76547        -7.02356
| 58>    N       10.91724        -4.78959        -8.15993
| 59>    C       10.12793        -3.74623        -8.44249
| 60>    N       10.00464        -2.66512        -7.66754
| 61>    C       10.62794        -2.66196        -6.51585
| 62>    C        9.41217        -3.71815        -9.69190
| 63>    C        9.13025        -4.74542       -10.52360
| 64>    C        8.73347        -4.46328       -11.93714
| 65>    O        8.36965        -3.40377       -12.38900
| 66>    C        8.94369        -5.73415       -12.65499
| 67>    C        8.84175        -5.98871       -13.99291
| 68>    C        9.10763        -7.29129       -14.46930
| 69>    C        9.48576        -8.30887       -13.54483
| 70>    C        9.75308        -9.60496       -14.02797
| 71>    C        9.64092        -9.85895       -15.36638
| 72>    C        9.26934        -8.87261       -16.29068
| 73>    C        9.00836        -7.60892       -15.83980
| 74>    F        9.89358       -11.09674       -15.82920
| 75>    C        9.58111        -8.01776       -12.16437
| 76>    C        9.30539        -6.75095       -11.72369
| 77>    C        9.27125        -6.18393       -10.37897
| 78>    C        9.14880        -6.89736        -9.22072
| 79>    C        8.82235        -6.32735        -7.97094
| 80>    N        8.47300        -5.94979        -6.94505
| 81>    C        9.23147        -8.30367        -9.15375
| 82>    N        9.30929        -9.44362        -9.04440
| 83>    H        3.51810         2.42169         7.66253
| 84>    H        1.01473         5.87400         7.51072
| 85>    H        1.44168         6.10323         5.07603
| 86>    H        4.61779         1.60239         5.63849
| 87>    H        2.54935         5.30607         3.01517
| 88>    H        5.77163         2.92176        -0.40394
| 89>    H        7.05227         1.13698        -1.80535
| 90>    H        8.03178         1.82499         2.32733
| 91>    H       10.30103        -1.23659        -2.07715
| 92>    H       13.43470        -2.27727         1.80902
| 93>    H       14.69028        -4.93578        -3.65454
| 94>    H       16.41943        -5.59327        -1.84253
| 95>    H       11.06653        -2.24051        -3.87076
| 96>    H       12.85291        -4.57159        -4.72431
| 97>    H       12.21035        -5.61695        -6.82816
| 98>    H       10.49723        -1.76824        -5.91961
| 99>    H        9.12356        -2.72780       -10.02507
|100>    H        8.55913        -5.20489       -14.67964
|101>    H       10.03774       -10.38996       -13.34494
|102>    H        9.19742        -9.13225       -17.33495
|103>    H        8.72015        -6.83221       -16.53206
|104>    H        9.87758        -8.80367       -11.48791
|105> *
|106>
|107>                          ****END OF INPUT****

CARTESIAN COORDINATES (ANGSTROEM)
---------------------------------
  C      3.075370    3.220040    7.087810
  C      2.254590    4.133220    7.689140
  F      2.006450    4.033400    9.006610
  C      1.653100    5.183920    6.982290
  C      1.893640    5.302740    5.641940
  C      2.732030    4.388770    4.970840
  C      3.333080    3.325930    5.707100
  C      4.169770    2.390880    5.054940
  C      4.396650    2.515360    3.710300
  C      3.806480    3.590260    2.983610
  C      2.991510    4.504490    3.587530
  C      4.235220    3.522180    1.576080
  O      3.904280    4.232990    0.656360
  C      5.231960    2.411010    1.523670
  C      5.165890    1.690670    2.782490
  C      5.541940    0.393140    3.003650
  C      6.059850   -0.464970    2.011550
  N      6.436440   -1.224710    1.238090
  C      5.377260   -0.270880    4.237650
  N      5.278930   -0.847150    5.225130
  C      6.047400    2.307130    0.447960
  C      7.254120    1.546160    0.316250
  C      7.654780    1.000230   -0.916530
  N      8.737770    0.280800   -1.057610
  C      9.479160    0.063190    0.034610
  N      9.244240    0.615200    1.229700
  C      8.167550    1.344400    1.365510
  C     10.623630   -0.798430   -0.068950
  C     10.955140   -1.432870   -1.239360
  C     12.048810   -2.281280   -1.379230
  C     12.930840   -2.561770   -0.242370
  C     12.765290   -2.039340    0.997000
  S     11.503600   -0.965100    1.429490
  C     13.911610   -3.455140   -0.746220
  C     13.666520   -3.728360   -2.098360
  C     14.647000   -4.594080   -2.637110
  C     15.571620   -4.950130   -1.708480
  S     15.306130   -4.255910   -0.145510
  C     12.494970   -3.002430   -2.507520
  C     11.858350   -2.970360   -3.773250
  C     12.122340   -3.782220   -4.824880
  C     11.443650   -3.725250   -6.084010
  C     11.568550   -4.765470   -7.023560
  N     10.917240   -4.789590   -8.159930
  C     10.127930   -3.746230   -8.442490
  N     10.004640   -2.665120   -7.667540
  C     10.627940   -2.661960   -6.515850
  C      9.412170   -3.718150   -9.691900
  C      9.130250   -4.745420  -10.523600
  C      8.733470   -4.463280  -11.937140
  O      8.369650   -3.403770  -12.389000
  C      8.943690   -5.734150  -12.654990
  C      8.841750   -5.988710  -13.992910
  C      9.107630   -7.291290  -14.469300
  C      9.485760   -8.308870  -13.544830
  C      9.753080   -9.604960  -14.027970
  C      9.640920   -9.858950  -15.366380
  C      9.269340   -8.872610  -16.290680
  C      9.008360   -7.608920  -15.839800
  F      9.893580  -11.096740  -15.829200
  C      9.581110   -8.017760  -12.164370
  C      9.305390   -6.750950  -11.723690
  C      9.271250   -6.183930  -10.378970
  C      9.148800   -6.897360   -9.220720
  C      8.822350   -6.327350   -7.970940
  N      8.473000   -5.949790   -6.945050
  C      9.231470   -8.303670   -9.153750
  N      9.309290   -9.443620   -9.044400
  H      3.518100    2.421690    7.662530
  H      1.014730    5.874000    7.510720
  H      1.441680    6.103230    5.076030
  H      4.617790    1.602390    5.638490
  H      2.549350    5.306070    3.015170
  H      5.771630    2.921760   -0.403940
  H      7.052270    1.136980   -1.805350
  H      8.031780    1.824990    2.327330
  H     10.301030   -1.236590   -2.077150
  H     13.434700   -2.277270    1.809020
  H     14.690280   -4.935780   -3.654540
  H     16.419430   -5.593270   -1.842530
  H     11.066530   -2.240510   -3.870760
  H     12.852910   -4.571590   -4.724310
  H     12.210350   -5.616950   -6.828160
  H     10.497230   -1.768240   -5.919610
  H      9.123560   -2.727800  -10.025070
  H      8.559130   -5.204890  -14.679640
  H     10.037740  -10.389960  -13.344940
  H      9.197420   -9.132250  -17.334950
  H      8.720150   -6.832210  -16.532060
  H      9.877580   -8.803670  -11.487910

 Total Charge           Charge          ....    0
 Multiplicity           Mult            ....    1
 Number of Electrons    NEL             ....  468
 Basis Dimension        Dim             .... 1070

ORBITAL ENERGIES
----------------

  NO   OCC          E(Eh)            E(eV)
   0   2.0000     -88.973992     -2421.1054
   1   2.0000     -88.957412     -2420.6542
   2   2.0000     -24.792292      -674.6326
   3   2.0000     -24.782311      -674.3610
   4   2.0000     -19.224536      -523.1262
   5   2.0000     -19.209907      -522.7282
   6   2.0000     -14.428031      -392.6067
   7   2.0000     -14.427115      -392.5818
   8   2.0000     -14.425374      -392.5344
   9   2.0000     -14.425283      -392.5319
  10   2.0000     -14.415050      -392.2534
  11   2.0000     -14.412614      -392.1872
  12   2.0000     -14.410936      -392.1415
  13   2.0000     -14.405034      -391.9809
  14   2.0000     -10.376923      -282.3704
  15   2.0000     -10.375641      -282.3356
  16   2.0000     -10.365820      -282.0683
  17   2.0000     -10.365752      -282.0664
  18   2.0000     -10.360786      -281.9313
  19   2.0000     -10.355759      -281.7945
  20   2.0000     -10.353425      -281.7310
  21   2.0000     -10.343067      -281.4492
  22   2.0000     -10.341318      -281.4016
  23   2.0000     -10.340822      -281.3881
  24   2.0000     -10.337236      -281.2905
  25   2.0000     -10.332421      -281.1595
  26   2.0000     -10.329353      -281.0760
  27   2.0000     -10.327212      -281.0177
  28   2.0000     -10.326964      -281.0110
  29   2.0000     -10.326755      -281.0053
  30   2.0000     -10.318391      -280.7777
  31   2.0000     -10.318131      -280.7706
  32   2.0000     -10.315793      -280.7070
  33   2.0000     -10.315048      -280.6867
  34   2.0000     -10.314481      -280.6713
  35   2.0000     -10.312984      -280.6306
  36   2.0000     -10.311369      -280.5866
  37   2.0000     -10.310057      -280.5509
  38   2.0000     -10.309519      -280.5363
  39   2.0000     -10.308808      -280.5169
  40   2.0000     -10.308451      -280.5072
  41   2.0000     -10.307384      -280.4782
  42   2.0000     -10.304963      -280.4123
  43   2.0000     -10.302075      -280.3337
  44   2.0000     -10.301814      -280.3266
  45   2.0000     -10.301773      -280.3255
  46   2.0000     -10.301118      -280.3077
  47   2.0000     -10.299290      -280.2579
  48   2.0000     -10.299188      -280.2552
  49   2.0000     -10.297377      -280.2059
  50   2.0000     -10.297010      -280.1959
  51   2.0000     -10.296620      -280.1853
  52   2.0000     -10.296268      -280.1757
  53   2.0000     -10.295654      -280.1590
  54   2.0000     -10.295039      -280.1422
  55   2.0000     -10.294154      -280.1182
  56   2.0000     -10.293952      -280.1127
  57   2.0000     -10.292750      -280.0800
  58   2.0000     -10.290697      -280.0241
  59   2.0000     -10.289632      -279.9951
  60   2.0000     -10.287184      -279.9285
  61   2.0000     -10.285418      -279.8805
  62   2.0000     -10.285326      -279.8780
  63   2.0000     -10.284921      -279.8669
  64   2.0000     -10.279547      -279.7207
  65   2.0000     -10.277716      -279.6709
  66   2.0000     -10.276654      -279.6420
  67   2.0000     -10.276333      -279.6332
  68   2.0000      -8.068668      -219.5596
  69   2.0000      -8.052973      -219.1325
  70   2.0000      -6.038132      -164.3059
  71   2.0000      -6.033511      -164.1802
  72   2.0000      -6.030813      -164.1068
  73   2.0000      -6.022406      -163.8780
  74   2.0000      -6.018150      -163.7622
  75   2.0000      -6.014984      -163.6760
  76   2.0000      -1.307525       -35.5796
  77   2.0000      -1.297203       -35.2987
  78   2.0000      -1.140004       -31.0211
  79   2.0000      -1.125306       -30.6211
  80   2.0000      -1.103936       -30.0396
  81   2.0000      -1.084878       -29.5210
  82   2.0000      -1.029006       -28.0007
  83   2.0000      -1.011770       -27.5317
  84   2.0000      -1.009872       -27.4800
  85   2.0000      -1.006680       -27.3932
  86   2.0000      -1.003730       -27.3129
  87   2.0000      -0.998363       -27.1668
  88   2.0000      -0.995076       -27.0774
  89   2.0000      -0.987592       -26.8737
  90   2.0000      -0.985934       -26.8286
  91   2.0000      -0.978231       -26.6190
  92   2.0000      -0.972988       -26.4764
  93   2.0000      -0.970802       -26.4169
  94   2.0000      -0.945145       -25.7187
  95   2.0000      -0.934263       -25.4226
  96   2.0000      -0.929311       -25.2878
  97   2.0000      -0.923407       -25.1272
  98   2.0000      -0.915535       -24.9130
  99   2.0000      -0.904887       -24.6232
 100   2.0000      -0.895697       -24.3732
 101   2.0000      -0.893797       -24.3215
 102   2.0000      -0.887829       -24.1591
 103   2.0000      -0.881953       -23.9992
 104   2.0000      -0.871723       -23.7208
 105   2.0000      -0.857802       -23.3420
 106   2.0000      -0.851169       -23.1615
 107   2.0000      -0.842707       -22.9312
 108   2.0000      -0.832598       -22.6562
 109   2.0000      -0.828861       -22.5545
 110   2.0000      -0.820909       -22.3381
 111   2.0000      -0.804279       -21.8855
 112   2.0000      -0.798064       -21.7164
 113   2.0000      -0.781406       -21.2631
 114   2.0000      -0.771593       -20.9961
 115   2.0000      -0.767668       -20.8893
 116   2.0000      -0.761554       -20.7229
 117   2.0000      -0.753861       -20.5136
 118   2.0000      -0.749004       -20.3814
 119   2.0000      -0.737018       -20.0553
 120   2.0000      -0.731346       -19.9009
 121   2.0000      -0.719000       -19.5650
 122   2.0000      -0.717456       -19.5230
 123   2.0000      -0.712552       -19.3895
 124   2.0000      -0.704255       -19.1638
 125   2.0000      -0.698127       -18.9970
 126   2.0000      -0.691226       -18.8092
 127   2.0000      -0.690031       -18.7767
 128   2.0000      -0.682289       -18.5660
 129   2.0000      -0.673355       -18.3229
 130   2.0000      -0.665082       -18.0978
 131   2.0000      -0.654386       -17.8067
 132   2.0000      -0.651105       -17.7175
 133   2.0000      -0.642433       -17.4815
 134   2.0000      -0.641027       -17.4432
 135   2.0000      -0.639141       -17.3919
 136   2.0000      -0.636657       -17.3243
 137   2.0000      -0.629819       -17.1382
 138   2.0000      -0.627662       -17.0796
 139   2.0000      -0.624083       -16.9822
 140   2.0000      -0.620058       -16.8726
 141   2.0000      -0.609231       -16.5780
 142   2.0000      -0.605078       -16.4650
 143   2.0000      -0.594740       -16.1837
 144   2.0000      -0.589501       -16.0411
 145   2.0000      -0.587933       -15.9985
 146   2.0000      -0.575546       -15.6614
 147   2.0000      -0.568562       -15.4714
 148   2.0000      -0.566695       -15.4206
 149   2.0000      -0.565020       -15.3750
 150   2.0000      -0.563903       -15.3446
 151   2.0000      -0.561142       -15.2694
 152   2.0000      -0.559538       -15.2258
 153   2.0000      -0.555946       -15.1281
 154   2.0000      -0.554729       -15.0950
 155   2.0000      -0.549830       -14.9616
 156   2.0000      -0.547464       -14.8973
 157   2.0000      -0.545705       -14.8494
 158   2.0000      -0.544193       -14.8082
 159   2.0000      -0.542540       -14.7633
 160   2.0000      -0.541182       -14.7263
 161   2.0000      -0.535164       -14.5626
 162   2.0000      -0.531414       -14.4605
 163   2.0000      -0.530288       -14.4299
 164   2.0000      -0.529992       -14.4218
 165   2.0000      -0.525818       -14.3082
 166   2.0000      -0.521944       -14.2028
 167   2.0000      -0.519332       -14.1317
 168   2.0000      -0.515935       -14.0393
 169   2.0000      -0.513957       -13.9855
 170   2.0000      -0.512230       -13.9385
 171   2.0000      -0.511049       -13.9063
 172   2.0000      -0.507875       -13.8200
 173   2.0000      -0.505965       -13.7680
 174   2.0000      -0.503487       -13.7006
 175   2.0000      -0.501430       -13.6446
 176   2.0000      -0.495912       -13.4944
 177   2.0000      -0.495059       -13.4712
 178   2.0000      -0.490907       -13.3583
 179   2.0000      -0.488870       -13.3028
 180   2.0000      -0.485906       -13.2222
 181   2.0000      -0.483584       -13.1590
 182   2.0000      -0.478603       -13.0234
 183   2.0000      -0.477121       -12.9831
 184   2.0000      -0.476209       -12.9583
 185   2.0000      -0.466869       -12.7042
 186   2.0000      -0.463242       -12.6055
 187   2.0000      -0.459090       -12.4925
 188   2.0000      -0.458597       -12.4791
 189   2.0000      -0.454509       -12.3678
 190   2.0000      -0.452677       -12.3180
 191   2.0000      -0.451944       -12.2980
 192   2.0000      -0.447051       -12.1649
 193   2.0000      -0.444544       -12.0967
 194   2.0000      -0.443726       -12.0744
 195   2.0000      -0.440508       -11.9868
 196   2.0000      -0.436415       -11.8755
 197   2.0000      -0.435979       -11.8636
 198   2.0000      -0.435766       -11.8578
 199   2.0000      -0.435412       -11.8482
 200   2.0000      -0.433764       -11.8033
 201   2.0000      -0.430381       -11.7113
 202   2.0000      -0.426288       -11.5999
 203   2.0000      -0.425076       -11.5669
 204   2.0000      -0.424024       -11.5383
 205   2.0000      -0.422171       -11.4879
 206   2.0000      -0.416682       -11.3385
 207   2.0000      -0.415413       -11.3040
 208   2.0000      -0.412784       -11.2324
 209   2.0000      -0.409843       -11.1524
 210   2.0000      -0.407106       -11.0779
 211   2.0000      -0.398294       -10.8381
 212   2.0000      -0.397332       -10.8120
 213   2.0000      -0.394784       -10.7426
 214   2.0000      -0.389760       -10.6059
 215   2.0000      -0.388146       -10.5620
 216   2.0000      -0.381299       -10.3757
 217   2.0000      -0.379158       -10.3174
 218   2.0000      -0.374110       -10.1801
 219   2.0000      -0.369578       -10.0567
 220   2.0000      -0.350859        -9.5474
 221   2.0000      -0.346885        -9.4392
 222   2.0000      -0.337638        -9.1876
 223   2.0000      -0.335029        -9.1166
 224   2.0000      -0.328994        -8.9524
 225   2.0000      -0.326571        -8.8864
 226   2.0000      -0.322863        -8.7855
 227   2.0000      -0.317781        -8.6473
 228   2.0000      -0.309041        -8.4094
 229   2.0000      -0.304959        -8.2984
 230   2.0000      -0.302290        -8.2257
 231   2.0000      -0.290794        -7.9129
 232   2.0000      -0.278143        -7.5687
 233   2.0000      -0.233956        -6.3663
 234   0.0000      -0.105974        -2.8837
 235   0.0000      -0.090371        -2.4591
 236   0.0000      -0.068305        -1.8587
 237   0.0000      -0.057867        -1.5747
 238   0.0000      -0.047303        -1.2872

MULLIKEN ATOMIC CHARGES
-----------------------
   0 C :   -0.095208
   1 C :    0.304045
   2 F :   -0.187653
   3 C :   -0.028498
   4 C :   -0.008874
   5 C :    0.099930
   6 C :    0.102257
   7 C :   -0.082800
   8 C :    0.038963
   9 C :    0.008391
  10 C :   -0.075976
  11 C :    0.136636
  12 O :   -0.137625
  13 C :   -0.115055
  14 C :    0.268557
  15 C :   -0.334586
  16 C :   -0.190020
  17 N :    0.176476
  18 C :   -0.173274
  19 N :    0.158833
  20 C :    0.048255
  21 C :   -0.050233
  22 C :    0.074959
  23 N :   -0.047281
  24 C :   -0.013113
  25 N :   -0.066877
  26 C :    0.063333
  27 C :   -0.075686
  28 C :   -0.044245
  29 C :    0.065738
  30 C :    0.059361
  31 C :   -0.122282
  32 S :    0.197347
  33 C :   -0.109773
  34 C :    0.047914
  35 C :   -0.001462
  36 C :   -0.065734
  37 S :    0.129753
  38 C :    0.087355
  39 C :    0.007682
  40 C :   -0.013470
  41 C :    0.053338
  42 C :    0.037257
  43 N :   -0.073995
  44 C :   -0.088713
  45 N :   -0.039196
  46 C :    0.027920
  47 C :    0.088991
  48 C :   -0.095190
  49 C :    0.136869
  50 O :   -0.135256
  51 C :    0.002698
  52 C :   -0.074077
  53 C :    0.096808
  54 C :    0.099376
  55 C :   -0.094706
  56 C :    0.301382
  57 C :   -0.032498
  58 C :   -0.006962
  59 F :   -0.190880
  60 C :   -0.082396
  61 C :    0.042540
  62 C :    0.292825
  63 C :   -0.300883
  64 C :   -0.185178
  65 N :    0.160054
  66 C :   -0.189570
  67 N :    0.150309
  68 H :   -0.000025
  69 H :    0.006926
  70 H :   -0.005720
  71 H :   -0.001750
  72 H :   -0.008099
  73 H :    0.032410
  74 H :    0.014483
  75 H :    0.019434
  76 H :    0.004622
  77 H :    0.035012
  78 H :   -0.014468
  79 H :    0.026841
  80 H :   -0.023989
  81 H :   -0.031122
  82 H :    0.003332
  83 H :    0.006052
  84 H :    0.025254
  85 H :   -0.012120
  86 H :   -0.002341
  87 H :    0.003322
  88 H :   -0.009537
  89 H :   -0.005445
Sum of atomic charges:   -0.0000000

LOEWDIN ATOMIC CHARGES
----------------------
   0 C :   -0.040811
   1 C :    0.095123
   2 F :   -0.062142
   3 C :   -0.033449
   4 C :    0.005833
   5 C :   -0.017298
   6 C :    0.004262
   7 C :    0.013991
   8 C :   -0.019292
   9 C :   -0.061399
  10 C :    0.037936
  11 C :    0.083983
  12 O :   -0.137426
  13 C :   -0.081731
  14 C :    0.065987
  15 C :   -0.129782
  16 C :   -0.018746
  17 N :   -0.038981
  18 C :   -0.018223
  19 N :   -0.043116
  20 C :    0.073249
  21 C :   -0.095491
  22 C :    0.077736
  23 N :   -0.072047
  24 C :    0.033769
  25 N :   -0.091467
  26 C :    0.071082
  27 C :   -0.196065
  28 C :    0.017439
  29 C :   -0.017783
  30 C :   -0.055769
  31 C :   -0.135586
  32 S :    0.498706
  33 C :   -0.194717
  34 C :   -0.039309
  35 C :   -0.065147
  36 C :   -0.163591
  37 S :    0.424385
  38 C :   -0.044007
  39 C :    0.007446
  40 C :   -0.042286
  41 C :   -0.045184
  42 C :    0.049604
  43 N :   -0.062571
  44 C :    0.002832
  45 N :   -0.060967
  46 C :    0.049329
  47 C :    0.064069
  48 C :   -0.065633
  49 C :    0.083869
  50 O :   -0.136922
  51 C :   -0.060501
  52 C :    0.034885
  53 C :   -0.019190
  54 C :    0.004232
  55 C :   -0.042668
  56 C :    0.092831
  57 C :   -0.038190
  58 C :    0.004718
  59 F :   -0.065390
  60 C :    0.009648
  61 C :   -0.014294
  62 C :    0.072315
  63 C :   -0.115479
  64 C :   -0.016864
  65 N :   -0.053107
  66 C :   -0.016442
  67 N :   -0.052156
  68 H :    0.044150
  69 H :    0.043318
  70 H :    0.036931
  71 H :    0.040029
  72 H :    0.041207
  73 H :    0.050066
  74 H :    0.031623
  75 H :    0.028813
  76 H :    0.041610
  77 H :    0.036155
  78 H :    0.028586
  79 H :    0.024154
  80 H :    0.029073
  81 H :    0.027040
  82 H :    0.024994
  83 H :    0.023827
  84 H :    0.051598
  85 H :    0.039531
  86 H :    0.043131
  87 H :    0.041568
  88 H :    0.035589
  89 H :    0.038966

  Mayer bond orders larger than 0.100000
B(  0-C ,  1-C ) :   1.4423 B(  0-C ,  6-C ) :   1.2018 B(  0-C , 68-H ) :   1.0062
B(  1-C ,  2-F ) :   1.0914 B(  1-C ,  3-C ) :   1.2527 B(  3-C ,  4-C ) :   1.4636
B(  3-C , 69-H ) :   0.9932 B(  4-C ,  5-C ) :   1.2325 B(  4-C , 70-H ) :   0.9974
B(  5-C ,  6-C ) :   1.2512 B(  5-C , 10-C ) :   1.1967 B(  6-C ,  7-C ) :   1.2086
B(  7-C ,  8-C ) :   1.4576 B(  7-C , 71-H ) :   0.9936 B(  8-C ,  9-C ) :   1.2154
B(  8-C , 14-C ) :   1.0026 B(  9-C , 10-C ) :   1.4673 B(  9-C , 11-C ) :   0.9234
B( 10-C , 72-H ) :   1.0152 B( 11-C , 12-O ) :   2.2761 B( 11-C , 13-C ) :   0.9266
B( 13-C , 14-C ) :   1.0088 B( 13-C , 20-C ) :   1.7405 B( 14-C , 15-C ) :   1.6726
B( 15-C , 16-C ) :   1.1598 B( 15-C , 18-C ) :   1.1297 B( 16-C , 17-N ) :   2.9993
B( 18-C , 19-N ) :   2.9842 B( 20-C , 21-C ) :   1.0290 B( 20-C , 73-H ) :   0.9413
B( 21-C , 22-C ) :   1.2900 B( 21-C , 26-C ) :   1.3020 B( 22-C , 23-N ) :   1.5920
B( 22-C , 74-H ) :   0.9904 B( 23-N , 24-C ) :   1.5274 B( 24-C , 25-N ) :   1.5375
B( 24-C , 27-C ) :   1.0407 B( 25-N , 26-C ) :   1.5974 B( 26-C , 75-H ) :   0.9850
B( 27-C , 28-C ) :   1.5597 B( 27-C , 32-S ) :   1.0647 B( 28-C , 29-C ) :   1.2145
B( 28-C , 76-H ) :   0.9647 B( 29-C , 30-C ) :   1.0595 B( 29-C , 38-C ) :   1.3571
B( 30-C , 31-C ) :   1.5783 B( 30-C , 33-C ) :   1.1930 B( 31-C , 32-S ) :   1.1560
B( 31-C , 77-H ) :   0.9411 B( 33-C , 34-C ) :   1.4351 B( 33-C , 37-S ) :   1.0800
B( 34-C , 35-C ) :   1.2081 B( 34-C , 38-C ) :   1.0980 B( 35-C , 36-C ) :   1.5943
B( 35-C , 78-H ) :   0.9986 B( 36-C , 37-S ) :   1.1505 B( 36-C , 79-H ) :   0.9646
B( 38-C , 39-C ) :   1.1812 B( 39-C , 40-C ) :   1.6278 B( 39-C , 80-H ) :   0.9550
B( 40-C , 41-C ) :   1.0903 B( 40-C , 81-H ) :   0.9850 B( 41-C , 42-C ) :   1.2844
B( 41-C , 46-C ) :   1.2936 B( 42-C , 43-N ) :   1.5667 B( 42-C , 82-H ) :   0.9868
B( 43-N , 44-C ) :   1.4644 B( 44-C , 45-N ) :   1.5005 B( 44-C , 47-C ) :   1.0260
B( 45-N , 46-C ) :   1.5859 B( 46-C , 83-H ) :   0.9802 B( 47-C , 48-C ) :   1.6816
B( 47-C , 84-H ) :   0.9504 B( 48-C , 49-C ) :   0.9274 B( 48-C , 62-C ) :   1.0115
B( 49-C , 50-O ) :   2.2837 B( 49-C , 51-C ) :   0.9179 B( 51-C , 52-C ) :   1.4711
B( 51-C , 61-C ) :   1.2170 B( 52-C , 53-C ) :   1.1964 B( 52-C , 85-H ) :   1.0132
B( 53-C , 54-C ) :   1.2545 B( 53-C , 58-C ) :   1.2343 B( 54-C , 55-C ) :   1.2002
B( 54-C , 60-C ) :   1.2103 B( 55-C , 56-C ) :   1.4446 B( 55-C , 86-H ) :   1.0052
B( 56-C , 57-C ) :   1.2532 B( 56-C , 59-F ) :   1.0884 B( 57-C , 58-C ) :   1.4630
B( 57-C , 87-H ) :   0.9931 B( 58-C , 88-H ) :   0.9956 B( 60-C , 61-C ) :   1.4581
B( 60-C , 89-H ) :   0.9922 B( 61-C , 62-C ) :   1.0001 B( 62-C , 63-C ) :   1.6922
B( 63-C , 64-C ) :   1.1537 B( 63-C , 66-C ) :   1.1394 B( 64-C , 65-N ) :   2.9844
B( 66-C , 67-N ) :   2.9833

-----------------------------------------------------------------------------
         ABSORPTION SPECTRUM VIA TRANSITION ELECTRIC DIPOLE MOMENTS
-----------------------------------------------------------------------------
State   Energy  Wavelength   fosc         T2         TX        TY        TZ
        (cm-1)    (nm)                  (au**2)     (au)      (au)      (au)
-----------------------------------------------------------------------------
   0   14762.9    677.4   0.785072567  17.50704   1.63862  -2.10034  -3.22653
   1   18052.5    553.9   0.504029929   9.19167  -1.27348  -1.08235  -2.52951
   2   22987.8    435.0   0.174165338   2.49425   1.01254  -0.81004  -0.90159
   3   23759.1    420.9   0.362334854   5.02060   2.03784  -0.78686  -0.49865
   4   23976.9    417.1   0.037690007   0.51750  -0.38209  -0.36759  -0.48619
   5   25574.5    391.0   0.014833134   0.19094   0.10503   0.07345  -0.41775
   6   26501.8    377.3   0.016658400   0.20693  -0.07662   0.42847   0.13221
   7   27219.7    367.4   0.131254920   1.58748   0.71139   0.01318   1.03982
   8   27333.9    365.8   0.016032771   0.19310   0.31249  -0.12269   0.28355
   9   27486.0    363.8   0.091467722   1.09555   0.01454   0.39554  -0.96896
  10   27927.1    358.1   0.090950333   1.07215   0.07407   0.67763   0.77941
  11   28247.8    354.0   0.219443815   2.55749  -0.10520   0.24014   1.57758
  12   28814.0    347.1   0.094085132   1.07496   0.47706  -0.62369   0.67705
  13   29155.2    343.0   0.070740316   0.79878  -0.50787   0.57759   0.45523
  14   29814.6    335.4   0.032525281   0.35914  -0.31722  -0.46662   0.20194
  15   29971.9    333.6   0.058248210   0.63980   0.20528  -0.47778  -0.60777
  16   30474.0    328.1   0.145661804   1.57359   0.59709   0.78049   0.77968
  17   30868.1    324.0   0.009797646   0.10449   0.21911   0.15129  -0.18329
  18   31025.6    322.3   0.212870804   2.25876  -0.03050  -0.22277  -1.48600
  19   32057.5    311.9   0.054352645   0.55817  -0.25063   0.41340  -0.56961
  20   32722.9    305.6   0.107089308   1.07738  -0.04208  -0.11771  -1.03042
  21   33130.6    301.8   0.200359663   1.99093   1.34096  -0.41844   0.13293
  22   33921.1    294.8   1.508912124  14.64432  -1.81077   2.29116   2.47306
  23   34167.9    292.7   0.420573707   4.05228   0.43206   0.05923   1.96522
  24   34435.6    290.4   0.062308203   0.59568   0.67145   0.13116   0.35725
  25   34526.2    289.6   0.235797806   2.24836  -0.66829   1.08310   0.79288
  26   34697.6    288.2   0.109199051   1.03608   0.55033  -0.57524  -0.63429
  27   35212.7    284.0   0.147807515   1.38189  -0.01784  -0.52163  -1.05332
  28   35605.5    280.9   0.029126214   0.26930   0.31354  -0.17853   0.37299
  29   36075.6    277.2   0.018937834   0.17282  -0.09601   0.08963  -0.39442
  30   36124.4    276.8   0.027164570   0.24756  -0.18119   0.02037  -0.46294
  31   36250.2    275.9   0.094297200   0.85637   0.39635  -0.49050  -0.67727
  32   36747.3    272.1   0.068094313   0.61004   0.40976  -0.59176  -0.30326
  33   37302.2    268.1   0.148269222   1.30855  -0.09509  -0.24580  -1.11315
  34   37673.6    265.4   0.192842764   1.68516  -0.93063   0.88841  -0.17268
  35   37890.3    263.9   0.024589514   0.21365   0.25728  -0.24957  -0.29184
  36   38204.4    261.8   0.030576682   0.26348  -0.40257   0.31708  -0.02969
  37   38713.2    258.3   0.011027548   0.09378   0.20654   0.15313  -0.16635
  38   38842.1    257.5   0.094717177   0.80279  -0.75221   0.10673   0.47495
  39   39107.0    255.7   0.070133207   0.59040   0.44673  -0.33534   0.52762
  40   39247.9    254.8   0.027349322   0.22941  -0.00669   0.20828  -0.43125
  41   39408.8    253.8   0.156943248   1.31107  -0.22317   1.09101   0.26638
  42   39641.4    252.3   0.117667443   0.97720   0.74993  -0.38840  -0.51376
  43   39930.9    250.4   0.021699206   0.17890  -0.30876  -0.19361   0.21467

FINAL SINGLE POINT ENERGY     -3651.607344208811

DIPOLE MOMENT
-------------
                                X             Y             Z
Electronic contribution:     -5.23386      -4.82633      10.76689
Nuclear contribution   :      6.09362       7.72380      -9.73395
                        -----------------------------------------
Total Dipole Moment    :      0.85977       2.89747       1.03294
                        -----------------------------------------
Magnitude (a.u.)       :      3.19398
Magnitude (Debye)      :      8.11845

Rotational constants in cm-1:     0.001563     0.000265     0.000237
Rotational constants in MHz :    46.846664     7.948772     7.107405

                             ****ORCA TERMINATED NORMALLY****
TOTAL RUN TIME: 0 days 0 hours 13 minutes 22 seconds 571 msec
