                         Program Version 4.2.0 -  RELEASE  -
|  1> # ORCA input file
|  2> # SCF done       -136.022273441100          0.000660512695
|  3> ! CAM-B3LYP def2-SVP def2/J RIJCOSX Grid4 TightSCF
|  4> %maxcore 5000
|  5> %tddft
|  6>     Mode sTDDFT
|  7>     Ethresh 5.0
|  8>     maxcore 5000
|  9> end
| 10>
| 11> %pal
| 12>   nprocs 6
| 13>   end
| 14> * xyz 0 1
| 15>    C        1.23897         2.90724        -3.57015
| 16>    C       -0.10979         3.12544        -3.62203
| 17>    F       -0.71277         3.26066        -4.81569
| 18>    C       -0.90225         3.21475        -2.46886
| 19>    C       -0.30736         3.08184        -1.24541
| 20>    C        1.08052         2.85818        -1.13335
| 21>    C        1.86927         2.76894        -2.31805
| 22>    C        3.26381         2.55082        -2.23132
| 23>    C        3.84983         2.43000        -0.99943
| 24>    C        3.05368         2.50982         0.18051
| 25>    C        1.70547         2.72018         0.12533
| 26>    C        3.91047         2.32014         1.36315
| 27>    O        3.60191         2.37522         2.53014
| 28>    C        5.25889         1.97737         0.81749
| 29>    C        5.24470         2.24409        -0.61021
| 30>    C        6.33171         2.50056        -1.40106
| 31>    C        7.65770         2.55219        -0.92342
| 32>    N        8.74664         2.65851        -0.57719
| 33>    C        6.24520         2.83232        -2.76967
| 34>    N        6.22432         3.08820        -3.88811
| 35>    C        6.17678         1.41577         1.63691
| 36>    C        7.37891         0.71491         1.28611
| 37>    C        8.52834         0.75340         2.09283
| 38>    N        9.62205         0.09724         1.79956
| 39>    C        9.63904        -0.61959         0.67343
| 40>    N        8.58783        -0.76558        -0.13644
| 41>    C        7.48508        -0.13016         0.16939
| 42>    C       10.86863        -1.30311         0.32778
| 43>    C       12.04282        -1.13840         1.07586
| 44>    N       13.15546        -1.75891         0.76767
| 45>    C       13.14289        -2.56235        -0.30331
| 46>    N       12.08043        -2.78508        -1.08699
| 47>    C       10.96639        -2.16672        -0.77206
| 48>    C       14.38526        -3.21663        -0.61165
| 49>    C       14.52158        -4.08752        -1.66119
| 50>    C       15.71100        -4.73429        -1.99309
| 51>    C       16.90062        -4.56582        -1.14056
| 52>    C       16.96516        -3.74174        -0.06790
| 53>    S       15.66842        -2.77148         0.48814
| 54>    C       17.88376        -5.42859        -1.68906
| 55>    C       17.35802        -6.08846        -2.80342
| 56>    C       18.29782        -6.96299        -3.39592
| 57>    C       19.48098        -6.94806        -2.73070
| 58>    S       19.51134        -5.87723        -1.36713
| 59>    C       16.00896        -5.64920        -3.01969
| 60>    C       15.21854        -6.11732        -4.10999
| 61>    C       14.11856        -5.53254        -4.62770
| 62>    C       13.34937        -6.04247        -5.73478
| 63>    C       13.55722        -7.27476        -6.37182
| 64>    N       12.82435        -7.68531        -7.38862
| 65>    C       11.85690        -6.88251        -7.79750
| 66>    N       11.54663        -5.70862        -7.27425
| 67>    C       12.28129        -5.29782        -6.25983
| 68>    H        1.81769         2.84696        -4.47859
| 69>    H       -1.96190         3.38647        -2.57228
| 70>    H       -0.89627         3.14712        -0.34296
| 71>    H        3.83392         2.47656        -3.14384
| 72>    H        1.12347         2.78186         1.03265
| 73>    H        5.93434         1.44749         2.69530
| 74>    H        8.55798         1.35776         2.99035
| 75>    H        6.63025        -0.32160        -0.46931
| 76>    H       12.06343        -0.48465         1.93682
| 77>    H       10.10833        -2.35404        -1.40355
| 78>    H       13.61947        -4.27420        -2.22454
| 79>    H       17.86734        -3.64319         0.51580
| 80>    H       18.11552        -7.57037        -4.26394
| 81>    H       20.36727        -7.50935        -2.95397
| 82>    H       15.59864        -7.01756        -4.57618
| 83>    H       13.77333        -4.58648        -4.23574
| 84>    H       14.33323        -7.95943        -6.05466
| 85>    H       11.26104        -7.21985        -8.63513
| 86>    H       12.01620        -4.33478        -5.83909
| 87> *
| 88>
| 89>                          ****END OF INPUT****

CARTESIAN COORDINATES (ANGSTROEM)
---------------------------------
  C      1.238970    2.907240   -3.570150
  C     -0.109790    3.125440   -3.622030
  F     -0.712770    3.260660   -4.815690
  C     -0.902250    3.214750   -2.468860
  C     -0.307360    3.081840   -1.245410
  C      1.080520    2.858180   -1.133350
  C      1.869270    2.768940   -2.318050
  C      3.263810    2.550820   -2.231320
  C      3.849830    2.430000   -0.999430
  C      3.053680    2.509820    0.180510
  C      1.705470    2.720180    0.125330
  C      3.910470    2.320140    1.363150
  O      3.601910    2.375220    2.530140
  C      5.258890    1.977370    0.817490
  C      5.244700    2.244090   -0.610210
  C      6.331710    2.500560   -1.401060
  C      7.657700    2.552190   -0.923420
  N      8.746640    2.658510   -0.577190
  C      6.245200    2.832320   -2.769670
  N      6.224320    3.088200   -3.888110
  C      6.176780    1.415770    1.636910
  C      7.378910    0.714910    1.286110
  C      8.528340    0.753400    2.092830
  N      9.622050    0.097240    1.799560
  C      9.639040   -0.619590    0.673430
  N      8.587830   -0.765580   -0.136440
  C      7.485080   -0.130160    0.169390
  C     10.868630   -1.303110    0.327780
  C     12.042820   -1.138400    1.075860
  N     13.155460   -1.758910    0.767670
  C     13.142890   -2.562350   -0.303310
  N     12.080430   -2.785080   -1.086990
  C     10.966390   -2.166720   -0.772060
  C     14.385260   -3.216630   -0.611650
  C     14.521580   -4.087520   -1.661190
  C     15.711000   -4.734290   -1.993090
  C     16.900620   -4.565820   -1.140560
  C     16.965160   -3.741740   -0.067900
  S     15.668420   -2.771480    0.488140
  C     17.883760   -5.428590   -1.689060
  C     17.358020   -6.088460   -2.803420
  C     18.297820   -6.962990   -3.395920
  C     19.480980   -6.948060   -2.730700
  S     19.511340   -5.877230   -1.367130
  C     16.008960   -5.649200   -3.019690
  C     15.218540   -6.117320   -4.109990
  C     14.118560   -5.532540   -4.627700
  C     13.349370   -6.042470   -5.734780
  C     13.557220   -7.274760   -6.371820
  N     12.824350   -7.685310   -7.388620
  C     11.856900   -6.882510   -7.797500
  N     11.546630   -5.708620   -7.274250
  C     12.281290   -5.297820   -6.259830
  H      1.817690    2.846960   -4.478590
  H     -1.961900    3.386470   -2.572280
  H     -0.896270    3.147120   -0.342960
  H      3.833920    2.476560   -3.143840
  H      1.123470    2.781860    1.032650
  H      5.934340    1.447490    2.695300
  H      8.557980    1.357760    2.990350
  H      6.630250   -0.321600   -0.469310
  H     12.063430   -0.484650    1.936820
  H     10.108330   -2.354040   -1.403550
  H     13.619470   -4.274200   -2.224540
  H     17.867340   -3.643190    0.515800
  H     18.115520   -7.570370   -4.263940
  H     20.367270   -7.509350   -2.953970
  H     15.598640   -7.017560   -4.576180
  H     13.773330   -4.586480   -4.235740
  H     14.333230   -7.959430   -6.054660
  H     11.261040   -7.219850   -8.635130
  H     12.016200   -4.334780   -5.839090

 Total Charge           Charge          ....    0
 Multiplicity           Mult            ....    1
 Number of Electrons    NEL             ....  370
 Basis Dimension        Dim             ....  845

ORBITAL ENERGIES
----------------

  NO   OCC          E(Eh)            E(eV)
   0   2.0000     -88.964145     -2420.8375
   1   2.0000     -88.950033     -2420.4535
   2   2.0000     -24.793379      -674.6621
   3   2.0000     -19.227035      -523.1942
   4   2.0000     -14.427550      -392.5936
   5   2.0000     -14.427520      -392.5928
   6   2.0000     -14.427259      -392.5857
   7   2.0000     -14.426363      -392.5613
   8   2.0000     -14.416207      -392.2849
   9   2.0000     -14.415685      -392.2707
  10   2.0000     -14.397915      -391.7872
  11   2.0000     -14.397255      -391.7692
  12   2.0000     -10.378179      -282.4046
  13   2.0000     -10.377958      -282.3986
  14   2.0000     -10.364424      -282.0303
  15   2.0000     -10.358211      -281.8613
  16   2.0000     -10.355502      -281.7875
  17   2.0000     -10.354272      -281.7541
  18   2.0000     -10.342815      -281.4423
  19   2.0000     -10.341287      -281.4007
  20   2.0000     -10.331492      -281.1342
  21   2.0000     -10.328955      -281.0652
  22   2.0000     -10.328899      -281.0636
  23   2.0000     -10.326225      -280.9909
  24   2.0000     -10.326151      -280.9888
  25   2.0000     -10.318252      -280.7739
  26   2.0000     -10.317648      -280.7575
  27   2.0000     -10.317260      -280.7469
  28   2.0000     -10.315971      -280.7118
  29   2.0000     -10.314231      -280.6645
  30   2.0000     -10.312310      -280.6122
  31   2.0000     -10.311035      -280.5775
  32   2.0000     -10.310532      -280.5638
  33   2.0000     -10.309167      -280.5267
  34   2.0000     -10.308200      -280.5004
  35   2.0000     -10.306652      -280.4583
  36   2.0000     -10.306293      -280.4485
  37   2.0000     -10.304593      -280.4022
  38   2.0000     -10.303058      -280.3605
  39   2.0000     -10.300935      -280.3027
  40   2.0000     -10.297448      -280.2078
  41   2.0000     -10.291062      -280.0340
  42   2.0000     -10.290674      -280.0235
  43   2.0000     -10.289246      -279.9846
  44   2.0000     -10.287878      -279.9474
  45   2.0000     -10.282353      -279.7971
  46   2.0000     -10.280308      -279.7414
  47   2.0000     -10.277238      -279.6579
  48   2.0000     -10.275651      -279.6147
  49   2.0000     -10.270774      -279.4820
  50   2.0000     -10.270345      -279.4703
  51   2.0000     -10.269613      -279.4504
  52   2.0000     -10.266058      -279.3536
  53   2.0000      -8.058813      -219.2915
  54   2.0000      -8.045400      -218.9265
  55   2.0000      -6.028284      -164.0380
  56   2.0000      -6.023675      -163.9125
  57   2.0000      -6.020926      -163.8377
  58   2.0000      -6.014883      -163.6733
  59   2.0000      -6.010644      -163.5579
  60   2.0000      -6.007372      -163.4689
  61   2.0000      -1.308649       -35.6101
  62   2.0000      -1.142485       -31.0886
  63   2.0000      -1.103888       -30.0383
  64   2.0000      -1.089623       -29.6501
  65   2.0000      -1.067983       -29.0613
  66   2.0000      -1.030962       -28.0539
  67   2.0000      -1.011579       -27.5265
  68   2.0000      -1.005656       -27.3653
  69   2.0000      -0.997682       -27.1483
  70   2.0000      -0.997202       -27.1352
  71   2.0000      -0.987472       -26.8705
  72   2.0000      -0.985533       -26.8177
  73   2.0000      -0.963834       -26.2273
  74   2.0000      -0.963511       -26.2185
  75   2.0000      -0.948529       -25.8108
  76   2.0000      -0.933751       -25.4087
  77   2.0000      -0.923947       -25.1419
  78   2.0000      -0.912653       -24.8345
  79   2.0000      -0.903962       -24.5981
  80   2.0000      -0.897271       -24.4160
  81   2.0000      -0.893319       -24.3085
  82   2.0000      -0.875469       -23.8227
  83   2.0000      -0.853621       -23.2282
  84   2.0000      -0.849216       -23.1083
  85   2.0000      -0.843673       -22.9575
  86   2.0000      -0.825941       -22.4750
  87   2.0000      -0.816412       -22.2157
  88   2.0000      -0.799431       -21.7536
  89   2.0000      -0.782256       -21.2863
  90   2.0000      -0.774307       -21.0700
  91   2.0000      -0.772472       -21.0200
  92   2.0000      -0.761790       -20.7293
  93   2.0000      -0.746884       -20.3237
  94   2.0000      -0.742694       -20.2097
  95   2.0000      -0.732814       -19.9409
  96   2.0000      -0.728613       -19.8266
  97   2.0000      -0.723525       -19.6881
  98   2.0000      -0.718870       -19.5615
  99   2.0000      -0.701842       -19.0981
 100   2.0000      -0.696239       -18.9456
 101   2.0000      -0.692196       -18.8356
 102   2.0000      -0.685824       -18.6622
 103   2.0000      -0.656289       -17.8585
 104   2.0000      -0.654203       -17.8018
 105   2.0000      -0.645748       -17.5717
 106   2.0000      -0.641004       -17.4426
 107   2.0000      -0.638425       -17.3724
 108   2.0000      -0.634212       -17.2578
 109   2.0000      -0.629121       -17.1193
 110   2.0000      -0.623530       -16.9671
 111   2.0000      -0.610004       -16.5990
 112   2.0000      -0.607314       -16.5259
 113   2.0000      -0.606542       -16.5048
 114   2.0000      -0.596519       -16.2321
 115   2.0000      -0.589468       -16.0402
 116   2.0000      -0.588051       -16.0017
 117   2.0000      -0.576469       -15.6865
 118   2.0000      -0.568634       -15.4733
 119   2.0000      -0.566351       -15.4112
 120   2.0000      -0.565628       -15.3915
 121   2.0000      -0.557926       -15.1819
 122   2.0000      -0.556889       -15.1537
 123   2.0000      -0.548495       -14.9253
 124   2.0000      -0.546413       -14.8687
 125   2.0000      -0.540931       -14.7195
 126   2.0000      -0.538973       -14.6662
 127   2.0000      -0.532741       -14.4966
 128   2.0000      -0.530977       -14.4486
 129   2.0000      -0.529887       -14.4190
 130   2.0000      -0.527749       -14.3608
 131   2.0000      -0.524160       -14.2631
 132   2.0000      -0.519320       -14.1314
 133   2.0000      -0.514928       -14.0119
 134   2.0000      -0.509235       -13.8570
 135   2.0000      -0.505733       -13.7617
 136   2.0000      -0.505589       -13.7578
 137   2.0000      -0.504289       -13.7224
 138   2.0000      -0.498837       -13.5740
 139   2.0000      -0.498460       -13.5638
 140   2.0000      -0.496982       -13.5236
 141   2.0000      -0.492220       -13.3940
 142   2.0000      -0.491568       -13.3762
 143   2.0000      -0.483030       -13.1439
 144   2.0000      -0.478768       -13.0280
 145   2.0000      -0.478446       -13.0192
 146   2.0000      -0.467762       -12.7285
 147   2.0000      -0.467163       -12.7122
 148   2.0000      -0.461203       -12.5500
 149   2.0000      -0.456482       -12.4215
 150   2.0000      -0.452942       -12.3252
 151   2.0000      -0.450164       -12.2496
 152   2.0000      -0.448523       -12.2049
 153   2.0000      -0.442863       -12.0509
 154   2.0000      -0.438857       -11.9419
 155   2.0000      -0.438406       -11.9296
 156   2.0000      -0.437856       -11.9147
 157   2.0000      -0.428659       -11.6644
 158   2.0000      -0.426998       -11.6192
 159   2.0000      -0.418169       -11.3789
 160   2.0000      -0.414714       -11.2849
 161   2.0000      -0.413335       -11.2474
 162   2.0000      -0.409895       -11.1538
 163   2.0000      -0.406396       -11.0586
 164   2.0000      -0.403148       -10.9702
 165   2.0000      -0.399720       -10.8769
 166   2.0000      -0.398795       -10.8518
 167   2.0000      -0.390584       -10.6283
 168   2.0000      -0.381388       -10.3781
 169   2.0000      -0.379128       -10.3166
 170   2.0000      -0.378367       -10.2959
 171   2.0000      -0.377492       -10.2721
 172   2.0000      -0.358961        -9.7678
 173   2.0000      -0.352650        -9.5961
 174   2.0000      -0.348332        -9.4786
 175   2.0000      -0.337190        -9.1754
 176   2.0000      -0.333634        -9.0786
 177   2.0000      -0.324760        -8.8372
 178   2.0000      -0.323539        -8.8040
 179   2.0000      -0.312439        -8.5019
 180   2.0000      -0.309021        -8.4089
 181   2.0000      -0.305484        -8.3127
 182   2.0000      -0.304453        -8.2846
 183   2.0000      -0.270533        -7.3616
 184   2.0000      -0.228406        -6.2152
 185   0.0000      -0.105497        -2.8707
 186   0.0000      -0.070813        -1.9269
 187   0.0000      -0.061072        -1.6619
 188   0.0000      -0.038275        -1.0415
 189   0.0000      -0.023511        -0.6398

MULLIKEN ATOMIC CHARGES
-----------------------
   0 C :   -0.095958
   1 C :    0.304203
   2 F :   -0.186586
   3 C :   -0.028895
   4 C :   -0.007875
   5 C :    0.099329
   6 C :    0.100108
   7 C :   -0.080083
   8 C :    0.039863
   9 C :    0.007131
  10 C :   -0.074231
  11 C :    0.135687
  12 O :   -0.136312
  13 C :   -0.111998
  14 C :    0.267344
  15 C :   -0.330256
  16 C :   -0.191394
  17 N :    0.175301
  18 C :   -0.175340
  19 N :    0.163863
  20 C :    0.043427
  21 C :   -0.047875
  22 C :    0.076374
  23 N :   -0.047163
  24 C :   -0.045002
  25 N :   -0.047720
  26 C :    0.065365
  27 C :   -0.003884
  28 C :    0.066181
  29 N :   -0.076410
  30 C :   -0.022596
  31 N :   -0.055886
  32 C :    0.062660
  33 C :   -0.080075
  34 C :   -0.056755
  35 C :    0.058697
  36 C :    0.051245
  37 C :   -0.128352
  38 S :    0.189179
  39 C :   -0.102521
  40 C :    0.045561
  41 C :    0.007538
  42 C :   -0.068784
  43 S :    0.122921
  44 C :    0.077788
  45 C :    0.002609
  46 C :   -0.012334
  47 C :    0.020417
  48 C :    0.018048
  49 N :   -0.092151
  50 C :    0.059618
  51 N :   -0.088967
  52 C :    0.011763
  53 H :    0.001944
  54 H :    0.008700
  55 H :   -0.005955
  56 H :   -0.001740
  57 H :   -0.007785
  58 H :    0.035460
  59 H :    0.012197
  60 H :    0.018143
  61 H :    0.022987
  62 H :    0.019593
  63 H :    0.000686
  64 H :    0.031963
  65 H :   -0.017885
  66 H :    0.024518
  67 H :   -0.025678
  68 H :   -0.014679
  69 H :    0.003450
  70 H :    0.013670
  71 H :    0.003598
Sum of atomic charges:   -0.0000000

LOEWDIN ATOMIC CHARGES
----------------------
   0 C :   -0.040496
   1 C :    0.095501
   2 F :   -0.061316
   3 C :   -0.033030
   4 C :    0.006069
   5 C :   -0.017144
   6 C :    0.004406
   7 C :    0.014972
   8 C :   -0.019748
   9 C :   -0.062042
  10 C :    0.038626
  11 C :    0.084428
  12 O :   -0.136164
  13 C :   -0.078574
  14 C :    0.066176
  15 C :   -0.128011
  16 C :   -0.018338
  17 N :   -0.040015
  18 C :   -0.018750
  19 N :   -0.040416
  20 C :    0.072251
  21 C :   -0.091221
  22 C :    0.077170
  23 N :   -0.071623
  24 C :    0.052503
  25 N :   -0.073586
  26 C :    0.068131
  27 C :   -0.100617
  28 C :    0.083018
  29 N :   -0.102337
  30 C :    0.026432
  31 N :   -0.084850
  32 C :    0.079888
  33 C :   -0.199738
  34 C :    0.011733
  35 C :   -0.025606
  36 C :   -0.054353
  37 C :   -0.140133
  38 S :    0.492041
  39 C :   -0.199573
  40 C :   -0.043277
  41 C :   -0.064932
  42 C :   -0.165509
  43 S :    0.415596
  44 C :   -0.046276
  45 C :   -0.006002
  46 C :   -0.034090
  47 C :   -0.065757
  48 C :    0.045376
  49 N :   -0.083473
  50 C :    0.034849
  51 N :   -0.083352
  52 C :    0.040893
  53 H :    0.044632
  54 H :    0.043800
  55 H :    0.036992
  56 H :    0.040302
  57 H :    0.041317
  58 H :    0.050719
  59 H :    0.030757
  60 H :    0.028209
  61 H :    0.031373
  62 H :    0.030423
  63 H :    0.039653
  64 H :    0.034434
  65 H :    0.029438
  66 H :    0.022620
  67 H :    0.027181
  68 H :    0.028414
  69 H :    0.020716
  70 H :    0.016124
  71 H :    0.023184

  Mayer bond orders larger than 0.100000
B(  0-C ,  1-C ) :   1.4410 B(  0-C ,  6-C ) :   1.2015 B(  0-C , 53-H ) :   1.0073
B(  1-C ,  2-F ) :   1.0933 B(  1-C ,  3-C ) :   1.2512 B(  3-C ,  4-C ) :   1.4644
B(  3-C , 54-H ) :   0.9927 B(  4-C ,  5-C ) :   1.2307 B(  4-C , 55-H ) :   0.9979
B(  5-C ,  6-C ) :   1.2518 B(  5-C , 10-C ) :   1.1978 B(  6-C ,  7-C ) :   1.2086
B(  7-C ,  8-C ) :   1.4558 B(  7-C , 56-H ) :   0.9945 B(  8-C ,  9-C ) :   1.2143
B(  8-C , 14-C ) :   1.0046 B(  9-C , 10-C ) :   1.4648 B(  9-C , 11-C ) :   0.9247
B( 10-C , 57-H ) :   1.0161 B( 11-C , 12-O ) :   2.2780 B( 11-C , 13-C ) :   0.9227
B( 13-C , 14-C ) :   1.0053 B( 13-C , 20-C ) :   1.7558 B( 14-C , 15-C ) :   1.6769
B( 15-C , 16-C ) :   1.1600 B( 15-C , 18-C ) :   1.1296 B( 16-C , 17-N ) :   3.0021
B( 18-C , 19-N ) :   2.9857 B( 20-C , 21-C ) :   1.0157 B( 20-C , 58-H ) :   0.9408
B( 21-C , 22-C ) :   1.3030 B( 21-C , 26-C ) :   1.3056 B( 22-C , 23-N ) :   1.5814
B( 22-C , 59-H ) :   0.9912 B( 23-N , 24-C ) :   1.5556 B( 24-C , 25-N ) :   1.5531
B( 24-C , 27-C ) :   0.9901 B( 25-N , 26-C ) :   1.5909 B( 26-C , 60-H ) :   0.9861
B( 27-C , 28-C ) :   1.3317 B( 27-C , 32-C ) :   1.3202 B( 28-C , 29-N ) :   1.5621
B( 28-C , 61-H ) :   0.9757 B( 29-N , 30-C ) :   1.5495 B( 30-C , 31-N ) :   1.5399
B( 30-C , 33-C ) :   1.0348 B( 31-N , 32-C ) :   1.5673 B( 32-C , 62-H ) :   0.9772
B( 33-C , 34-C ) :   1.5657 B( 33-C , 38-S ) :   1.0632 B( 34-C , 35-C ) :   1.1967
B( 34-C , 63-H ) :   0.9669 B( 35-C , 36-C ) :   1.0580 B( 35-C , 44-C ) :   1.3854
B( 36-C , 37-C ) :   1.5833 B( 36-C , 39-C ) :   1.1945 B( 37-C , 38-S ) :   1.1492
B( 37-C , 64-H ) :   0.9416 B( 39-C , 40-C ) :   1.4265 B( 39-C , 43-S ) :   1.0722
B( 40-C , 41-C ) :   1.2083 B( 40-C , 44-C ) :   1.1241 B( 41-C , 42-C ) :   1.5956
B( 41-C , 65-H ) :   0.9975 B( 42-C , 43-S ) :   1.1473 B( 42-C , 66-H ) :   0.9658
B( 44-C , 45-C ) :   1.1375 B( 45-C , 46-C ) :   1.6780 B( 45-C , 67-H ) :   0.9552
B( 46-C , 47-C ) :   1.0668 B( 46-C , 68-H ) :   0.9828 B( 47-C , 48-C ) :   1.3224
B( 47-C , 52-C ) :   1.3236 B( 48-C , 49-N ) :   1.5801 B( 48-C , 69-H ) :   0.9840
B( 49-N , 50-C ) :   1.4991 B( 50-C , 51-N ) :   1.5073 B( 50-C , 70-H ) :   0.9758
B( 51-N , 52-C ) :   1.5691 B( 52-C , 71-H ) :   0.9890

-----------------------------------------------------------------------------
         ABSORPTION SPECTRUM VIA TRANSITION ELECTRIC DIPOLE MOMENTS
-----------------------------------------------------------------------------
State   Energy  Wavelength   fosc         T2         TX        TY        TZ
        (cm-1)    (nm)                  (au**2)     (au)      (au)      (au)
-----------------------------------------------------------------------------
   0   16319.8    612.8   0.425452963   8.58249   1.99581  -1.83135  -1.11596
   1   21049.9    475.1   0.423736189   6.62707  -0.69711   1.49137   1.97912
   2   23300.9    429.2   0.002856706   0.04036   0.20006   0.01689  -0.00731
   3   24645.5    405.8   0.493404509   6.59083  -2.12562   1.28425  -0.65061
   4   26498.1    377.4   0.037690550   0.46827   0.66577   0.13090  -0.08880
   5   27126.5    368.6   0.121085849   1.46952  -1.01282   0.04758  -0.66441
   6   27359.3    365.5   0.027181859   0.32708  -0.14760  -0.37159   0.40891
   7   28034.8    356.7   0.017075492   0.20052  -0.11780  -0.42998   0.04190
   8   28892.3    346.1   0.080911305   0.92194  -0.95982  -0.00458   0.02589
   9   29823.8    335.3   0.010441342   0.11526   0.04090   0.14756  -0.30300
  10   30167.9    331.5   0.202637237   2.21131   1.26990  -0.21982   0.74185
  11   30705.6    325.7   0.012172644   0.13051  -0.25676  -0.04112  -0.25079
  12   30873.7    323.9   0.443159186   4.72549   1.78904   0.09327   1.23131
  13   31130.6    321.2   0.073625690   0.77860  -0.58280  -0.19449  -0.63334
  14   33458.2    298.9   1.301578090  12.80688   3.27827  -1.27048  -0.66759
  15   33866.6    295.3   0.099080229   0.96314   0.50869   0.37442   0.75112
  16   33923.3    294.8   0.065733911   0.63792  -0.73244  -0.27778  -0.15586
  17   34562.5    289.3   0.441618787   4.20647  -1.71450  -0.21125  -1.10560
  18   34794.7    287.4   0.022027167   0.20841   0.34676   0.07631   0.28695
  19   35131.5    284.6   0.045152315   0.42312  -0.34618  -0.27876  -0.47494
  20   35253.5    283.7   0.085441405   0.79789  -0.21531  -0.39205  -0.77319
  21   35811.2    279.2   0.054896580   0.50466  -0.53506   0.11735  -0.45234
  22   36071.1    277.2   0.026158968   0.23875   0.32847  -0.33109  -0.14573
  23   36536.3    273.7   0.131862067   1.18815   0.50524  -0.70003  -0.66546
  24   37215.6    268.7   0.096326221   0.85211   0.10790   0.29801   0.86698
  25   37472.8    266.9   0.398003579   3.49660  -1.76777   0.59716  -0.12249
  26   38043.3    262.9   0.087953874   0.76112   0.83148  -0.25757  -0.05852
  27   38123.4    262.3   0.014393334   0.12429   0.34156   0.08498  -0.02020
  28   38250.8    261.4   0.020188698   0.17376   0.39428  -0.08427   0.10581
  29   38771.5    257.9   0.061755793   0.52437   0.55274  -0.34059   0.32071
  30   39021.6    256.3   0.034524684   0.29127  -0.31682   0.34341  -0.27013
  31   39314.3    254.4   0.014303094   0.11977   0.10955  -0.19976   0.26051
  32   39581.3    252.6   0.236147205   1.96412   0.28395   0.17970  -1.36059

FINAL SINGLE POINT ENERGY     -2980.219355664018

DIPOLE MOMENT
-------------
                                X             Y             Z
Electronic contribution:     -8.21952      16.98060       8.90449
Nuclear contribution   :      6.36687     -16.55209      -7.05635
                        -----------------------------------------
Total Dipole Moment    :     -1.85265       0.42850       1.84814
                        -----------------------------------------
Magnitude (a.u.)       :      2.65170
Magnitude (Debye)      :      6.74009

Rotational constants in cm-1:     0.002810     0.000481     0.000422
Rotational constants in MHz :    84.234605    14.414529    12.647401

                             ****ORCA TERMINATED NORMALLY****
TOTAL RUN TIME: 0 days 0 hours 5 minutes 2 seconds 518 msec
