                         Program Version 4.2.0 -  RELEASE  -
|  1> # ORCA input file
|  2> # SCF done       -196.408036248928          0.000763008855
|  3> ! CAM-B3LYP def2-SVP def2/J RIJCOSX Grid4 TightSCF
|  4> %maxcore 5000
|  5> %tddft
|  6>     Mode sTDDFT
|  7>     Ethresh 5.0
|  8>     maxcore 5000
|  9> end
| 10>
| 11> %pal
| 12>   nprocs 6
| 13>   end
| 14> * xyz 0 1
| 15>    C        2.26460         7.44866         0.77824
| 16>    C        1.98733         8.77363         0.96998
| 17>    F        0.93079         9.12615         1.72689
| 18>    C        2.76505         9.79354         0.40657
| 19>    C        3.84181         9.45347        -0.36461
| 20>    C        4.17403         8.10307        -0.59429
| 21>    C        3.36984         7.08045        -0.01280
| 22>    C        3.68149         5.71734        -0.23281
| 23>    C        4.76605         5.39346        -1.00023
| 24>    C        5.57203         6.42015        -1.57087
| 25>    C        5.28911         7.74148        -1.38465
| 26>    C        6.68579         5.80218        -2.31922
| 27>    O        7.54125         6.35940        -2.97020
| 28>    C        6.56918         4.34338        -2.05751
| 29>    C        5.30864         4.10110        -1.41419
| 30>    C        4.62689         2.90813        -1.39365
| 31>    C        5.07628         1.76811        -2.08017
| 32>    N        5.41086         0.82134        -2.63878
| 33>    C        3.40657         2.70230        -0.72661
| 34>    N        2.43483         2.46111        -0.16273
| 35>    C        7.64054         3.53993        -2.34980
| 36>    C        8.01141         2.28518        -1.84830
| 37>    C        7.57793         1.57579        -0.72295
| 38>    O        6.61246         2.00141         0.12477
| 39>    C        6.59997         1.29059         1.35236
| 40>    C        6.80899        -0.21922         1.16459
| 41>    C        5.67945        -0.87228         0.37469
| 42>    O        8.06797        -0.44934         0.53865
| 43>    C        8.29778         0.39464        -0.49829
| 44>    C        9.29853         0.16882        -1.43207
| 45>    S        9.35918         1.44701        -2.59578
| 46>    C       10.18080        -0.92850        -1.45500
| 47>    C       11.20079        -1.14137        -2.37068
| 48>    O       11.47651        -0.30640        -3.40244
| 49>    C       12.34367        -0.90879        -4.34870
| 50>    C       13.51115        -1.64724        -3.67251
| 51>    C       14.38840        -0.69743        -2.86357
| 52>    O       13.00063        -2.69959        -2.85160
| 53>    C       11.93660        -2.30587        -2.11242
| 54>    C       11.48345        -2.99913        -0.99839
| 55>    S       10.11796        -2.20365        -0.26898
| 56>    C       12.10972        -4.12896        -0.44245
| 57>    C       11.78404        -4.78554         0.73262
| 58>    O       10.72004        -4.44895         1.51023
| 59>    C       10.87886        -4.94446         2.82761
| 60>    C       11.29404        -6.42331         2.81912
| 61>    C       10.23588        -7.29467         2.14663
| 62>    O       12.55634        -6.57284         2.17076
| 63>    C       12.68368        -5.81007         1.06675
| 64>    C       13.75575        -5.91559         0.18100
| 65>    S       13.54686        -4.79310        -1.14926
| 66>    C       14.83165        -6.81202         0.29536
| 67>    C       16.04729        -6.73998        -0.32689
| 68>    C       16.87919        -7.95278        -0.51203
| 69>    O       16.72987        -9.03211         0.01668
| 70>    C       17.88888        -7.57513        -1.52554
| 71>    C       18.84190        -8.34896        -2.12069
| 72>    C       19.70024        -7.76944        -3.08314
| 73>    C       19.54897        -6.39172        -3.41507
| 74>    C       20.40637        -5.82210        -4.37630
| 75>    C       21.36496        -6.59853        -4.96514
| 76>    C       21.53124        -7.95389        -4.65143
| 77>    C       20.70547        -8.52336        -3.72213
| 78>    F       22.18706        -6.05418        -5.88234
| 79>    C       18.55677        -5.61125        -2.77689
| 80>    C       17.74346        -6.19365        -1.84394
| 81>    C       16.69573        -5.63715        -0.99415
| 82>    C       16.55719        -4.30729        -0.67897
| 83>    C       15.80310        -3.84840         0.42010
| 84>    N       15.26076        -3.43798         1.34584
| 85>    C       17.18207        -3.25896        -1.37519
| 86>    N       17.61305        -2.35362        -1.93704
| 87>    H        1.64112         6.69022         1.22559
| 88>    H        2.49850        10.82178         0.59277
| 89>    H        4.45694        10.22133        -0.80941
| 90>    H        3.05819         4.96269         0.22096
| 91>    H        5.90829         8.50409        -1.83288
| 92>    H        8.37074         3.99758        -3.01126
| 93>    H        5.62873         1.49435         1.80533
| 94>    H        7.39575         1.68447         1.99890
| 95>    H        6.90019        -0.68677         2.15065
| 96>    H        5.61286        -0.45275        -0.62684
| 97>    H        4.73202        -0.71967         0.88383
| 98>    H        5.87056        -1.93869         0.28801
| 99>    H       12.71108        -0.09869        -4.97848
|100>    H       11.77423        -1.62070        -4.96120
|101>    H       14.10701        -2.15706        -4.43557
|102>    H       13.79941        -0.18002        -2.10926
|103>    H       14.83790         0.03829        -3.52389
|104>    H       15.18102        -1.25424        -2.37001
|105>    H        9.91487        -4.81485         3.31925
|106>    H       11.64472        -4.35712         3.35118
|107>    H       11.46920        -6.76108         3.84537
|108>    H       10.00158        -6.91254         1.15523
|109>    H        9.32885        -7.29997         2.74399
|110>    H       10.60530        -8.31250         2.05224
|111>    H       14.65051        -7.69173         0.90454
|112>    H       18.94508        -9.39126        -1.85846
|113>    H       20.30941        -4.78030        -4.63941
|114>    H       22.30539        -8.51693        -5.14816
|115>    H       20.81458        -9.56596        -3.46371
|116>    H       18.45893        -4.57134        -3.04680
|117> *
|118>
|119>                          ****END OF INPUT****

CARTESIAN COORDINATES (ANGSTROEM)
---------------------------------
  C      2.264600    7.448660    0.778240
  C      1.987330    8.773630    0.969980
  F      0.930790    9.126150    1.726890
  C      2.765050    9.793540    0.406570
  C      3.841810    9.453470   -0.364610
  C      4.174030    8.103070   -0.594290
  C      3.369840    7.080450   -0.012800
  C      3.681490    5.717340   -0.232810
  C      4.766050    5.393460   -1.000230
  C      5.572030    6.420150   -1.570870
  C      5.289110    7.741480   -1.384650
  C      6.685790    5.802180   -2.319220
  O      7.541250    6.359400   -2.970200
  C      6.569180    4.343380   -2.057510
  C      5.308640    4.101100   -1.414190
  C      4.626890    2.908130   -1.393650
  C      5.076280    1.768110   -2.080170
  N      5.410860    0.821340   -2.638780
  C      3.406570    2.702300   -0.726610
  N      2.434830    2.461110   -0.162730
  C      7.640540    3.539930   -2.349800
  C      8.011410    2.285180   -1.848300
  C      7.577930    1.575790   -0.722950
  O      6.612460    2.001410    0.124770
  C      6.599970    1.290590    1.352360
  C      6.808990   -0.219220    1.164590
  C      5.679450   -0.872280    0.374690
  O      8.067970   -0.449340    0.538650
  C      8.297780    0.394640   -0.498290
  C      9.298530    0.168820   -1.432070
  S      9.359180    1.447010   -2.595780
  C     10.180800   -0.928500   -1.455000
  C     11.200790   -1.141370   -2.370680
  O     11.476510   -0.306400   -3.402440
  C     12.343670   -0.908790   -4.348700
  C     13.511150   -1.647240   -3.672510
  C     14.388400   -0.697430   -2.863570
  O     13.000630   -2.699590   -2.851600
  C     11.936600   -2.305870   -2.112420
  C     11.483450   -2.999130   -0.998390
  S     10.117960   -2.203650   -0.268980
  C     12.109720   -4.128960   -0.442450
  C     11.784040   -4.785540    0.732620
  O     10.720040   -4.448950    1.510230
  C     10.878860   -4.944460    2.827610
  C     11.294040   -6.423310    2.819120
  C     10.235880   -7.294670    2.146630
  O     12.556340   -6.572840    2.170760
  C     12.683680   -5.810070    1.066750
  C     13.755750   -5.915590    0.181000
  S     13.546860   -4.793100   -1.149260
  C     14.831650   -6.812020    0.295360
  C     16.047290   -6.739980   -0.326890
  C     16.879190   -7.952780   -0.512030
  O     16.729870   -9.032110    0.016680
  C     17.888880   -7.575130   -1.525540
  C     18.841900   -8.348960   -2.120690
  C     19.700240   -7.769440   -3.083140
  C     19.548970   -6.391720   -3.415070
  C     20.406370   -5.822100   -4.376300
  C     21.364960   -6.598530   -4.965140
  C     21.531240   -7.953890   -4.651430
  C     20.705470   -8.523360   -3.722130
  F     22.187060   -6.054180   -5.882340
  C     18.556770   -5.611250   -2.776890
  C     17.743460   -6.193650   -1.843940
  C     16.695730   -5.637150   -0.994150
  C     16.557190   -4.307290   -0.678970
  C     15.803100   -3.848400    0.420100
  N     15.260760   -3.437980    1.345840
  C     17.182070   -3.258960   -1.375190
  N     17.613050   -2.353620   -1.937040
  H      1.641120    6.690220    1.225590
  H      2.498500   10.821780    0.592770
  H      4.456940   10.221330   -0.809410
  H      3.058190    4.962690    0.220960
  H      5.908290    8.504090   -1.832880
  H      8.370740    3.997580   -3.011260
  H      5.628730    1.494350    1.805330
  H      7.395750    1.684470    1.998900
  H      6.900190   -0.686770    2.150650
  H      5.612860   -0.452750   -0.626840
  H      4.732020   -0.719670    0.883830
  H      5.870560   -1.938690    0.288010
  H     12.711080   -0.098690   -4.978480
  H     11.774230   -1.620700   -4.961200
  H     14.107010   -2.157060   -4.435570
  H     13.799410   -0.180020   -2.109260
  H     14.837900    0.038290   -3.523890
  H     15.181020   -1.254240   -2.370010
  H      9.914870   -4.814850    3.319250
  H     11.644720   -4.357120    3.351180
  H     11.469200   -6.761080    3.845370
  H     10.001580   -6.912540    1.155230
  H      9.328850   -7.299970    2.743990
  H     10.605300   -8.312500    2.052240
  H     14.650510   -7.691730    0.904540
  H     18.945080   -9.391260   -1.858460
  H     20.309410   -4.780300   -4.639410
  H     22.305390   -8.516930   -5.148160
  H     20.814580   -9.565960   -3.463710
  H     18.458930   -4.571340   -3.046800

 Total Charge           Charge          ....    0
 Multiplicity           Mult            ....    1
 Number of Electrons    NEL             ....  518
 Basis Dimension        Dim             .... 1170

ORBITAL ENERGIES
----------------

  NO   OCC          E(Eh)            E(eV)
   0   2.0000     -88.965988     -2420.8876
   1   2.0000     -88.965126     -2420.8641
   2   2.0000     -88.962040     -2420.7802
   3   2.0000     -24.780588      -674.3141
   4   2.0000     -24.779696      -674.2898
   5   2.0000     -19.279731      -524.6282
   6   2.0000     -19.272624      -524.4348
   7   2.0000     -19.271330      -524.3995
   8   2.0000     -19.268719      -524.3285
   9   2.0000     -19.268228      -524.3151
  10   2.0000     -19.266381      -524.2649
  11   2.0000     -19.202667      -522.5311
  12   2.0000     -19.200393      -522.4693
  13   2.0000     -14.409861      -392.1123
  14   2.0000     -14.407802      -392.0562
  15   2.0000     -14.405815      -392.0021
  16   2.0000     -14.401905      -391.8958
  17   2.0000     -10.363361      -282.0014
  18   2.0000     -10.362438      -281.9763
  19   2.0000     -10.357982      -281.8550
  20   2.0000     -10.357212      -281.8341
  21   2.0000     -10.353893      -281.7438
  22   2.0000     -10.353017      -281.7199
  23   2.0000     -10.351100      -281.6678
  24   2.0000     -10.348004      -281.5835
  25   2.0000     -10.347443      -281.5682
  26   2.0000     -10.346785      -281.5503
  27   2.0000     -10.346680      -281.5475
  28   2.0000     -10.345977      -281.5284
  29   2.0000     -10.344682      -281.4931
  30   2.0000     -10.343997      -281.4745
  31   2.0000     -10.343248      -281.4541
  32   2.0000     -10.341895      -281.4173
  33   2.0000     -10.329910      -281.0911
  34   2.0000     -10.328708      -281.0584
  35   2.0000     -10.327640      -281.0294
  36   2.0000     -10.325687      -280.9762
  37   2.0000     -10.325355      -280.9672
  38   2.0000     -10.325003      -280.9576
  39   2.0000     -10.316652      -280.7304
  40   2.0000     -10.314075      -280.6603
  41   2.0000     -10.313957      -280.6571
  42   2.0000     -10.312150      -280.6079
  43   2.0000     -10.311541      -280.5913
  44   2.0000     -10.311357      -280.5863
  45   2.0000     -10.311089      -280.5790
  46   2.0000     -10.308655      -280.5128
  47   2.0000     -10.305948      -280.4391
  48   2.0000     -10.303518      -280.3730
  49   2.0000     -10.299000      -280.2500
  50   2.0000     -10.297945      -280.2213
  51   2.0000     -10.297083      -280.1979
  52   2.0000     -10.295658      -280.1591
  53   2.0000     -10.293765      -280.1076
  54   2.0000     -10.292506      -280.0733
  55   2.0000     -10.291500      -280.0459
  56   2.0000     -10.291180      -280.0372
  57   2.0000     -10.290873      -280.0289
  58   2.0000     -10.290654      -280.0229
  59   2.0000     -10.290092      -280.0077
  60   2.0000     -10.288266      -279.9579
  61   2.0000     -10.288234      -279.9571
  62   2.0000     -10.287227      -279.9297
  63   2.0000     -10.283460      -279.8272
  64   2.0000     -10.283190      -279.8198
  65   2.0000     -10.282006      -279.7876
  66   2.0000     -10.280726      -279.7528
  67   2.0000     -10.280548      -279.7479
  68   2.0000     -10.279731      -279.7257
  69   2.0000     -10.276706      -279.6434
  70   2.0000     -10.264909      -279.3224
  71   2.0000     -10.263965      -279.2967
  72   2.0000      -8.059893      -219.3208
  73   2.0000      -8.059766      -219.3174
  74   2.0000      -8.056030      -219.2157
  75   2.0000      -6.029470      -164.0702
  76   2.0000      -6.029440      -164.0694
  77   2.0000      -6.025723      -163.9682
  78   2.0000      -6.025498      -163.9621
  79   2.0000      -6.025310      -163.9570
  80   2.0000      -6.021625      -163.8567
  81   2.0000      -6.021191      -163.8449
  82   2.0000      -6.021091      -163.8422
  83   2.0000      -6.017250      -163.7377
  84   2.0000      -1.295077       -35.2408
  85   2.0000      -1.294229       -35.2178
  86   2.0000      -1.200027       -32.6544
  87   2.0000      -1.197831       -32.5946
  88   2.0000      -1.196398       -32.5557
  89   2.0000      -1.160818       -31.5875
  90   2.0000      -1.159056       -31.5395
  91   2.0000      -1.158528       -31.5251
  92   2.0000      -1.117681       -30.4136
  93   2.0000      -1.115376       -30.3509
  94   2.0000      -1.011970       -27.5371
  95   2.0000      -1.009856       -27.4796
  96   2.0000      -1.006976       -27.4012
  97   2.0000      -0.997239       -27.1363
  98   2.0000      -0.992395       -27.0044
  99   2.0000      -0.991645       -26.9840
 100   2.0000      -0.986785       -26.8518
 101   2.0000      -0.984546       -26.7909
 102   2.0000      -0.979002       -26.6400
 103   2.0000      -0.967222       -26.3194
 104   2.0000      -0.966404       -26.2972
 105   2.0000      -0.920878       -25.0584
 106   2.0000      -0.919201       -25.0127
 107   2.0000      -0.905665       -24.6444
 108   2.0000      -0.898524       -24.4501
 109   2.0000      -0.896018       -24.3819
 110   2.0000      -0.892150       -24.2766
 111   2.0000      -0.890355       -24.2278
 112   2.0000      -0.884649       -24.0725
 113   2.0000      -0.880440       -23.9580
 114   2.0000      -0.876792       -23.8587
 115   2.0000      -0.872532       -23.7428
 116   2.0000      -0.858337       -23.3565
 117   2.0000      -0.839953       -22.8563
 118   2.0000      -0.829710       -22.5775
 119   2.0000      -0.827039       -22.5049
 120   2.0000      -0.826694       -22.4955
 121   2.0000      -0.824646       -22.4398
 122   2.0000      -0.820284       -22.3211
 123   2.0000      -0.814192       -22.1553
 124   2.0000      -0.798351       -21.7242
 125   2.0000      -0.793439       -21.5906
 126   2.0000      -0.789358       -21.4795
 127   2.0000      -0.780367       -21.2349
 128   2.0000      -0.770759       -20.9734
 129   2.0000      -0.752519       -20.4771
 130   2.0000      -0.751676       -20.4541
 131   2.0000      -0.746756       -20.3203
 132   2.0000      -0.739813       -20.1313
 133   2.0000      -0.731577       -19.9072
 134   2.0000      -0.727531       -19.7971
 135   2.0000      -0.709693       -19.3117
 136   2.0000      -0.706367       -19.2212
 137   2.0000      -0.701522       -19.0894
 138   2.0000      -0.700727       -19.0678
 139   2.0000      -0.685586       -18.6557
 140   2.0000      -0.683639       -18.6028
 141   2.0000      -0.675203       -18.3732
 142   2.0000      -0.672339       -18.2953
 143   2.0000      -0.669424       -18.2160
 144   2.0000      -0.669046       -18.2057
 145   2.0000      -0.649491       -17.6735
 146   2.0000      -0.646499       -17.5921
 147   2.0000      -0.640224       -17.4214
 148   2.0000      -0.636236       -17.3129
 149   2.0000      -0.629065       -17.1177
 150   2.0000      -0.625122       -17.0104
 151   2.0000      -0.624204       -16.9854
 152   2.0000      -0.620700       -16.8901
 153   2.0000      -0.617398       -16.8002
 154   2.0000      -0.614634       -16.7251
 155   2.0000      -0.611807       -16.6481
 156   2.0000      -0.608613       -16.5612
 157   2.0000      -0.604813       -16.4578
 158   2.0000      -0.596387       -16.2285
 159   2.0000      -0.594902       -16.1881
 160   2.0000      -0.590087       -16.0571
 161   2.0000      -0.583734       -15.8842
 162   2.0000      -0.582749       -15.8574
 163   2.0000      -0.577062       -15.7026
 164   2.0000      -0.562902       -15.3173
 165   2.0000      -0.557862       -15.1802
 166   2.0000      -0.557048       -15.1581
 167   2.0000      -0.554313       -15.0836
 168   2.0000      -0.552772       -15.0417
 169   2.0000      -0.551986       -15.0203
 170   2.0000      -0.550951       -14.9921
 171   2.0000      -0.549589       -14.9551
 172   2.0000      -0.546812       -14.8795
 173   2.0000      -0.543081       -14.7780
 174   2.0000      -0.541843       -14.7443
 175   2.0000      -0.540685       -14.7128
 176   2.0000      -0.539509       -14.6808
 177   2.0000      -0.538136       -14.6434
 178   2.0000      -0.535982       -14.5848
 179   2.0000      -0.528349       -14.3771
 180   2.0000      -0.526736       -14.3332
 181   2.0000      -0.524971       -14.2852
 182   2.0000      -0.523213       -14.2374
 183   2.0000      -0.520631       -14.1671
 184   2.0000      -0.518391       -14.1061
 185   2.0000      -0.517004       -14.0684
 186   2.0000      -0.515999       -14.0410
 187   2.0000      -0.514601       -14.0030
 188   2.0000      -0.512339       -13.9415
 189   2.0000      -0.509095       -13.8532
 190   2.0000      -0.508489       -13.8367
 191   2.0000      -0.504696       -13.7335
 192   2.0000      -0.504394       -13.7253
 193   2.0000      -0.500663       -13.6237
 194   2.0000      -0.499273       -13.5859
 195   2.0000      -0.493958       -13.4413
 196   2.0000      -0.492058       -13.3896
 197   2.0000      -0.488575       -13.2948
 198   2.0000      -0.486154       -13.2289
 199   2.0000      -0.481917       -13.1136
 200   2.0000      -0.480939       -13.0870
 201   2.0000      -0.479810       -13.0563
 202   2.0000      -0.477776       -13.0009
 203   2.0000      -0.473829       -12.8935
 204   2.0000      -0.472832       -12.8664
 205   2.0000      -0.472137       -12.8475
 206   2.0000      -0.469626       -12.7792
 207   2.0000      -0.467209       -12.7134
 208   2.0000      -0.463663       -12.6169
 209   2.0000      -0.462446       -12.5838
 210   2.0000      -0.461800       -12.5662
 211   2.0000      -0.458304       -12.4711
 212   2.0000      -0.452878       -12.3234
 213   2.0000      -0.449920       -12.2430
 214   2.0000      -0.448885       -12.2148
 215   2.0000      -0.444776       -12.1030
 216   2.0000      -0.443716       -12.0741
 217   2.0000      -0.441770       -12.0212
 218   2.0000      -0.436852       -11.8873
 219   2.0000      -0.435521       -11.8511
 220   2.0000      -0.434838       -11.8325
 221   2.0000      -0.433589       -11.7986
 222   2.0000      -0.432619       -11.7722
 223   2.0000      -0.430495       -11.7144
 224   2.0000      -0.429547       -11.6886
 225   2.0000      -0.428137       -11.6502
 226   2.0000      -0.426303       -11.6003
 227   2.0000      -0.422315       -11.4918
 228   2.0000      -0.419093       -11.4041
 229   2.0000      -0.418967       -11.4007
 230   2.0000      -0.416747       -11.3403
 231   2.0000      -0.415473       -11.3056
 232   2.0000      -0.413950       -11.2641
 233   2.0000      -0.410622       -11.1736
 234   2.0000      -0.409787       -11.1509
 235   2.0000      -0.408467       -11.1150
 236   2.0000      -0.403109       -10.9692
 237   2.0000      -0.398993       -10.8572
 238   2.0000      -0.396132       -10.7793
 239   2.0000      -0.394597       -10.7375
 240   2.0000      -0.389333       -10.5943
 241   2.0000      -0.382084       -10.3970
 242   2.0000      -0.379393       -10.3238
 243   2.0000      -0.373101       -10.1526
 244   2.0000      -0.372289       -10.1305
 245   2.0000      -0.359632        -9.7861
 246   2.0000      -0.348878        -9.4935
 247   2.0000      -0.328030        -8.9262
 248   2.0000      -0.324457        -8.8289
 249   2.0000      -0.319272        -8.6878
 250   2.0000      -0.306945        -8.3524
 251   2.0000      -0.302992        -8.2448
 252   2.0000      -0.300054        -8.1649
 253   2.0000      -0.296418        -8.0660
 254   2.0000      -0.292950        -7.9716
 255   2.0000      -0.291712        -7.9379
 256   2.0000      -0.289146        -7.8681
 257   2.0000      -0.273208        -7.4344
 258   2.0000      -0.234973        -6.3939
 259   0.0000      -0.095271        -2.5924
 260   0.0000      -0.075659        -2.0588
 261   0.0000      -0.050307        -1.3689
 262   0.0000      -0.044696        -1.2162
 263   0.0000      -0.030626        -0.8334

MULLIKEN ATOMIC CHARGES
-----------------------
   0 C :   -0.099090
   1 C :    0.302112
   2 F :   -0.193983
   3 C :   -0.034197
   4 C :   -0.009840
   5 C :    0.096074
   6 C :    0.104978
   7 C :   -0.097601
   8 C :    0.051726
   9 C :    0.004910
  10 C :   -0.080785
  11 C :    0.136553
  12 O :   -0.150027
  13 C :   -0.147525
  14 C :    0.285571
  15 C :   -0.329821
  16 C :   -0.166333
  17 N :    0.130799
  18 C :   -0.187867
  19 N :    0.137874
  20 C :    0.075373
  21 C :   -0.166348
  22 C :    0.194376
  23 O :   -0.293380
  24 C :    0.232558
  25 C :    0.022828
  26 C :    0.062558
  27 O :   -0.303406
  28 C :    0.121130
  29 C :   -0.107745
  30 S :    0.190575
  31 C :   -0.137191
  32 C :    0.142843
  33 O :   -0.308761
  34 C :    0.239178
  35 C :    0.013656
  36 C :    0.067137
  37 O :   -0.299883
  38 C :    0.145257
  39 C :   -0.122996
  40 S :    0.215222
  41 C :   -0.106644
  42 C :    0.125705
  43 O :   -0.311938
  44 C :    0.232311
  45 C :    0.023010
  46 C :    0.058840
  47 O :   -0.268648
  48 C :    0.236418
  49 C :   -0.221993
  50 S :    0.175888
  51 C :    0.060412
  52 C :   -0.147090
  53 C :    0.142646
  54 O :   -0.150766
  55 C :    0.002363
  56 C :   -0.082753
  57 C :    0.098550
  58 C :    0.102984
  59 C :   -0.099828
  60 C :    0.303832
  61 C :   -0.034840
  62 C :   -0.009679
  63 F :   -0.193696
  64 C :   -0.091183
  65 C :    0.046890
  66 C :    0.260976
  67 C :   -0.341668
  68 C :   -0.205345
  69 N :    0.155306
  70 C :   -0.133876
  71 N :    0.108016
  72 H :   -0.005627
  73 H :    0.000418
  74 H :   -0.011454
  75 H :   -0.011985
  76 H :   -0.014977
  77 H :    0.017107
  78 H :    0.038567
  79 H :    0.035664
  80 H :    0.021920
  81 H :    0.035297
  82 H :    0.023358
  83 H :    0.028698
  84 H :    0.033708
  85 H :    0.035551
  86 H :    0.029798
  87 H :    0.028833
  88 H :    0.021925
  89 H :    0.042879
  90 H :    0.027780
  91 H :    0.046662
  92 H :    0.028829
  93 H :    0.032620
  94 H :    0.022046
  95 H :    0.036749
  96 H :    0.025352
  97 H :   -0.014324
  98 H :   -0.006246
  99 H :    0.001390
 100 H :   -0.010546
 101 H :   -0.010705
Sum of atomic charges:    0.0000000

LOEWDIN ATOMIC CHARGES
----------------------
   0 C :   -0.044825
   1 C :    0.091363
   2 F :   -0.068153
   3 C :   -0.041350
   4 C :    0.003868
   5 C :   -0.021472
   6 C :    0.002677
   7 C :    0.002500
   8 C :   -0.013019
   9 C :   -0.059009
  10 C :    0.031609
  11 C :    0.081672
  12 O :   -0.152311
  13 C :   -0.104020
  14 C :    0.065287
  15 C :   -0.146231
  16 C :   -0.010361
  17 N :   -0.067718
  18 C :   -0.020285
  19 N :   -0.070702
  20 C :    0.044819
  21 C :   -0.204853
  22 C :    0.020143
  23 O :   -0.062825
  24 C :    0.083369
  25 C :    0.056333
  26 C :   -0.061669
  27 O :   -0.099261
  28 C :   -0.021712
  29 C :   -0.178309
  30 S :    0.475289
  31 C :   -0.208749
  32 C :   -0.012767
  33 O :   -0.097347
  34 C :    0.083498
  35 C :    0.057596
  36 C :   -0.057032
  37 O :   -0.094853
  38 C :   -0.007303
  39 C :   -0.215952
  40 S :    0.486077
  41 C :   -0.163310
  42 C :   -0.033994
  43 O :   -0.104047
  44 C :    0.082573
  45 C :    0.056516
  46 C :   -0.057913
  47 O :   -0.074800
  48 C :    0.034994
  49 C :   -0.223489
  50 S :    0.489415
  51 C :    0.064306
  52 C :   -0.118268
  53 C :    0.079634
  54 O :   -0.154671
  55 C :   -0.056689
  56 C :    0.030188
  57 C :   -0.019893
  58 C :    0.002090
  59 C :   -0.044633
  60 C :    0.091258
  61 C :   -0.040418
  62 C :    0.003645
  63 F :   -0.068042
  64 C :    0.004472
  65 C :   -0.014747
  66 C :    0.062618
  67 C :   -0.159574
  68 C :   -0.034219
  69 N :   -0.065603
  70 C :   -0.013065
  71 N :   -0.073666
  72 H :    0.041558
  73 H :    0.040449
  74 H :    0.034731
  75 H :    0.036827
  76 H :    0.038290
  77 H :    0.044916
  78 H :    0.036370
  79 H :    0.026018
  80 H :    0.032721
  81 H :    0.033839
  82 H :    0.034335
  83 H :    0.034121
  84 H :    0.035336
  85 H :    0.024440
  86 H :    0.035216
  87 H :    0.032216
  88 H :    0.035099
  89 H :    0.037397
  90 H :    0.032975
  91 H :    0.028565
  92 H :    0.034520
  93 H :    0.032987
  94 H :    0.033627
  95 H :    0.035559
  96 H :    0.050747
  97 H :    0.038426
  98 H :    0.041386
  99 H :    0.040789
 100 H :    0.034957
 101 H :    0.036907

  Mayer bond orders larger than 0.100000
B(  0-C ,  1-C ) :   1.4400 B(  0-C ,  6-C ) :   1.2043 B(  0-C , 72-H ) :   1.0060
B(  1-C ,  2-F ) :   1.0849 B(  1-C ,  3-C ) :   1.2568 B(  3-C ,  4-C ) :   1.4582
B(  3-C , 73-H ) :   0.9937 B(  4-C ,  5-C ) :   1.2378 B(  4-C , 74-H ) :   0.9966
B(  5-C ,  6-C ) :   1.2602 B(  5-C , 10-C ) :   1.1855 B(  6-C ,  7-C ) :   1.1960
B(  7-C ,  8-C ) :   1.4703 B(  7-C , 75-H ) :   0.9945 B(  8-C ,  9-C ) :   1.2162
B(  8-C , 14-C ) :   0.9944 B(  9-C , 10-C ) :   1.4798 B(  9-C , 11-C ) :   0.9183
B( 10-C , 76-H ) :   1.0146 B( 11-C , 12-O ) :   2.2613 B( 11-C , 13-C ) :   0.9516
B( 13-C , 14-C ) :   1.0935 B( 13-C , 20-C ) :   1.5672 B( 14-C , 15-C ) :   1.6027
B( 15-C , 16-C ) :   1.1902 B( 15-C , 18-C ) :   1.1525 B( 16-C , 17-N ) :   2.8798
B( 18-C , 19-N ) :   2.9688 B( 20-C , 21-C ) :   1.2307 B( 20-C , 77-H ) :   0.9239
B( 21-C , 22-C ) :   1.3810 B( 21-C , 29-C ) :   0.1028 B( 21-C , 30-S ) :   1.0603
B( 22-C , 23-O ) :   1.1568 B( 22-C , 28-C ) :   1.2420 B( 23-O , 24-C ) :   0.9352
B( 24-C , 25-C ) :   1.0409 B( 24-C , 78-H ) :   0.9514 B( 24-C , 79-H ) :   0.9467
B( 25-C , 26-C ) :   1.0645 B( 25-C , 27-O ) :   0.9235 B( 25-C , 80-H ) :   0.9323
B( 26-C , 81-H ) :   0.9453 B( 26-C , 82-H ) :   0.9583 B( 26-C , 83-H ) :   0.9540
B( 27-O , 28-C ) :   1.1426 B( 28-C , 29-C ) :   1.4448 B( 29-C , 30-S ) :   1.1314
B( 29-C , 31-C ) :   1.2209 B( 31-C , 32-C ) :   1.4465 B( 31-C , 39-C ) :   0.1119
B( 31-C , 40-S ) :   1.0915 B( 32-C , 33-O ) :   1.1444 B( 32-C , 38-C ) :   1.2252
B( 33-O , 34-C ) :   0.9433 B( 34-C , 35-C ) :   1.0356 B( 34-C , 84-H ) :   0.9528
B( 34-C , 85-H ) :   0.9475 B( 35-C , 36-C ) :   1.0671 B( 35-C , 37-O ) :   0.9137
B( 35-C , 86-H ) :   0.9340 B( 36-C , 87-H ) :   0.9546 B( 36-C , 88-H ) :   0.9585
B( 36-C , 89-H ) :   0.9525 B( 37-O , 38-C ) :   1.1513 B( 38-C , 39-C ) :   1.4376
B( 39-C , 40-S ) :   1.0751 B( 39-C , 41-C ) :   1.2292 B( 41-C , 42-C ) :   1.4328
B( 41-C , 49-C ) :   0.1018 B( 41-C , 50-S ) :   1.1356 B( 42-C , 43-O ) :   1.1325
B( 42-C , 48-C ) :   1.2251 B( 43-O , 44-C ) :   0.9507 B( 44-C , 45-C ) :   1.0395
B( 44-C , 90-H ) :   0.9522 B( 44-C , 91-H ) :   0.9448 B( 45-C , 46-C ) :   1.0642
B( 45-C , 47-O ) :   0.9223 B( 45-C , 92-H ) :   0.9347 B( 46-C , 93-H ) :   0.9589
B( 46-C , 94-H ) :   0.9623 B( 46-C , 95-H ) :   0.9595 B( 47-O , 48-C ) :   1.2078
B( 48-C , 49-C ) :   1.3777 B( 49-C , 50-S ) :   1.0491 B( 49-C , 51-C ) :   1.2093
B( 51-C , 52-C ) :   1.5312 B( 51-C , 96-H ) :   0.9548 B( 52-C , 53-C ) :   0.9568
B( 52-C , 66-C ) :   1.0766 B( 53-C , 54-O ) :   2.2735 B( 53-C , 55-C ) :   0.9134
B( 55-C , 56-C ) :   1.4809 B( 55-C , 65-C ) :   1.2176 B( 56-C , 57-C ) :   1.1880
B( 56-C , 97-H ) :   1.0141 B( 57-C , 58-C ) :   1.2553 B( 57-C , 62-C ) :   1.2390
B( 58-C , 59-C ) :   1.2035 B( 58-C , 64-C ) :   1.2015 B( 59-C , 60-C ) :   1.4423
B( 59-C , 98-H ) :   1.0054 B( 60-C , 61-C ) :   1.2556 B( 60-C , 63-F ) :   1.0855
B( 61-C , 62-C ) :   1.4586 B( 61-C , 99-H ) :   0.9936 B( 62-C ,100-H ) :   0.9958
B( 64-C , 65-C ) :   1.4668 B( 64-C ,101-H ) :   0.9931 B( 65-C , 66-C ) :   1.0059
B( 66-C , 67-C ) :   1.6089 B( 67-C , 68-C ) :   1.1571 B( 67-C , 70-C ) :   1.1545
B( 68-C , 69-N ) :   3.0189 B( 70-C , 71-N ) :   2.8854

-----------------------------------------------------------------------------
         ABSORPTION SPECTRUM VIA TRANSITION ELECTRIC DIPOLE MOMENTS
-----------------------------------------------------------------------------
State   Energy  Wavelength   fosc         T2         TX        TY        TZ
        (cm-1)    (nm)                  (au**2)     (au)      (au)      (au)
-----------------------------------------------------------------------------
   0   14648.2    682.7   1.453235008  32.66086  -4.54762   3.46001  -0.09112
   1   19781.5    505.5   0.345448320   5.74910  -1.18262   2.08449  -0.07371
   2   24196.4    413.3   0.070677805   0.96163  -0.54223   0.71445   0.39645
   3   25289.6    395.4   0.205252007   2.67191  -0.16464  -1.46724   0.70144
   4   25503.6    392.1   0.174764563   2.25594   1.11821  -0.80107  -0.60319
   5   26458.7    377.9   0.023846342   0.29671   0.53889  -0.04634  -0.06448
   6   27206.9    367.6   0.278891842   3.37468  -0.35507   1.75331  -0.41774
   7   27754.6    360.3   0.062406866   0.74024  -0.25613  -0.50628   0.64677
   8   28176.1    354.9   0.007113400   0.08311   0.06414   0.08680   0.26733
   9   28324.6    353.1   0.119759525   1.39195   0.03464   1.15518   0.23727
  10   29048.6    344.3   0.018389049   0.20841   0.31202  -0.13357  -0.30530
  11   29343.6    340.8   0.097233195   1.09088   0.81983   0.50998  -0.39835
  12   29849.2    335.0   0.100390624   1.10723  -0.79954   0.14165   0.66925
  13   30240.2    330.7   0.057036762   0.62093   0.49438  -0.45364  -0.41320
  14   30864.8    324.0   0.016010800   0.17078   0.15387   0.37027   0.10001
  15   31239.7    320.1   0.055298490   0.58275  -0.39826   0.62607  -0.17940
  16   32637.8    306.4   0.057508223   0.58008   0.01432  -0.74320  -0.16590
  17   33256.2    300.7   0.038635580   0.38246  -0.54336   0.20137   0.21604
  18   33267.8    300.6   0.150490436   1.48923   0.45586  -1.00054  -0.52946
  19   33717.5    296.6   0.050789932   0.49590   0.29299   0.54756  -0.33202
  20   33941.6    294.6   0.230218463   2.23297  -0.37221   1.36588   0.47834
  21   34262.2    291.9   0.042125182   0.40476   0.41201  -0.33617  -0.34929
  22   34527.3    289.6   0.130639214   1.24562  -0.85491   0.55110   0.45940
  23   34854.2    286.9   0.108024994   1.02034  -0.22442   0.93563   0.30752
  24   35104.0    284.9   0.786296920   7.37405   1.69937  -1.29038  -1.67961
  25   35753.3    279.7   0.016930878   0.15590  -0.19886  -0.06338   0.33516
  26   36556.0    273.6   0.007932317   0.07144   0.17903  -0.05764  -0.18990
  27   36700.6    272.5   0.005367306   0.04815   0.16427   0.14253   0.02909
  28   37183.3    268.9   0.203675361   1.80329  -0.36780   1.21345   0.44220
  29   37708.5    265.2   0.134284866   1.17237   0.12402  -1.02268   0.33333
  30   37727.6    265.1   0.014301967   0.12480  -0.27710   0.07015   0.20759
  31   38185.2    261.9   0.098981200   0.85336  -0.32340  -0.81945   0.27798
  32   38703.6    258.4   0.190743227   1.62246   0.70095   0.92378  -0.52703
  33   39025.7    256.2   0.222977287   1.88099  -0.15144   1.30946   0.37863
  34   39273.2    254.6   0.031123955   0.26090   0.47644  -0.07360  -0.16877
  35   40046.0    249.7   0.039535303   0.32501   0.43268   0.01630  -0.37085

FINAL SINGLE POINT ENERGY     -4324.671602741541

DIPOLE MOMENT
-------------
                                X             Y             Z
Electronic contribution:      7.07402      14.71764     -12.41333
Nuclear contribution   :     -7.09511     -15.57931      13.23981
                        -----------------------------------------
Total Dipole Moment    :     -0.02110      -0.86167       0.82647
                        -----------------------------------------
Magnitude (a.u.)       :      1.19414
Magnitude (Debye)      :      3.03527

Rotational constants in cm-1:     0.002332     0.000302     0.000277
Rotational constants in MHz :    69.916203     9.043042     8.311108

                             ****ORCA TERMINATED NORMALLY****
TOTAL RUN TIME: 0 days 0 hours 12 minutes 2 seconds 161 msec
