                         Program Version 4.2.0 -  RELEASE  -
|  1> # ORCA input file
|  2> # SCF done       -216.326817723085          0.000486767112
|  3> ! CAM-B3LYP def2-SVP def2/J RIJCOSX Grid4 TightSCF
|  4> %maxcore 5000
|  5> %tddft
|  6>     Mode sTDDFT
|  7>     Ethresh 5.0
|  8>     maxcore 5000
|  9> end
| 10>
| 11> %pal
| 12>   nprocs 6
| 13>   end
| 14> * xyz 0 1
| 15>    C       20.95533        -2.99695         1.37294
| 16>    C       22.21741        -3.25273         0.91319
| 17>    F       22.94630        -4.22537         1.48690
| 18>    C       22.79149        -2.53511        -0.14543
| 19>    C       22.06575        -1.54226        -0.74227
| 20>    C       20.75882        -1.23684        -0.30939
| 21>    C       20.19338        -1.97738         0.77034
| 22>    C       18.88706        -1.68504         1.22665
| 23>    C       18.17261        -0.69000         0.61717
| 24>    C       18.73594         0.03764        -0.47219
| 25>    C       19.99820        -0.21842        -0.92587
| 26>    C       17.75180         1.01689        -0.96949
| 27>    O       17.89115         1.84897        -1.83432
| 28>    C       16.49753         0.71509        -0.21660
| 29>    C       16.84277        -0.15714         0.88735
| 30>    C       16.17755        -0.23187         2.08160
| 31>    C       15.04005         0.55037         2.36340
| 32>    N       14.14612         1.22081         2.62625
| 33>    C       16.61780        -1.00412         3.17569
| 34>    N       16.93924        -1.62497         4.08538
| 35>    C       15.30468         1.15211        -0.69232
| 36>    C       14.00010         0.65396        -0.42936
| 37>    C       12.82577         1.31085        -0.70389
| 38>    C       11.67067         0.54478        -0.45772
| 39>    C       10.29823         0.89152        -0.56552
| 40>    C        9.39316        -0.18047        -0.38515
| 41>    C        9.87998        -1.40821         0.12831
| 42>    N       11.14702        -1.68841         0.36116
| 43>    C       12.00539        -0.75303         0.01592
| 44>    S       13.71483        -0.98312         0.15073
| 45>    S        8.62215        -2.57685         0.41349
| 46>    C        7.47623        -1.48823        -0.30924
| 47>    C        8.00588        -0.29706        -0.68936
| 48>    F        7.31471         0.61427        -1.39148
| 49>    F        6.21212        -1.86618        -0.46536
| 50>    C        9.92959         2.25366        -0.75967
| 51>    C        8.85524         2.91103        -0.22648
| 52>    C        8.59626         4.30407        -0.38073
| 53>    C        7.51204         4.75516         0.30035
| 54>    C        6.84161         3.74703         1.03435
| 55>    S        7.66687         2.21740         0.85808
| 56>    C        5.66310         3.83200         1.74340
| 57>    C        4.81076         4.94650         1.92961
| 58>    C        3.66447         4.65346         2.59827
| 59>    C        3.54108         3.29362         2.99751
| 60>    S        4.97101         2.41210         2.49377
| 61>    C        2.46645         2.75638         3.65597
| 62>    C        2.31611         1.43402         4.12112
| 63>    C        3.19943         0.37636         4.05994
| 64>    C        2.77169        -0.76094         4.76431
| 65>    C        3.46014        -1.96341         5.04217
| 66>    C        2.71731        -2.94817         5.72114
| 67>    C        1.40006        -2.64218         6.14806
| 68>    N        0.78584        -1.49287         5.96361
| 69>    C        1.46053        -0.58731         5.29615
| 70>    S        0.85291         1.00650         5.00364
| 71>    S        0.65280        -3.94417         7.02667
| 72>    C        2.10431        -4.88578         6.84210
| 73>    C        3.09099        -4.25198         6.15832
| 74>    F        4.28399        -4.80733         5.91145
| 75>    F        2.16295        -6.10970         7.34988
| 76>    C        4.83892        -2.18460         4.69324
| 77>    C        5.87462        -1.30933         4.69170
| 78>    C        7.15715        -1.69180         4.02070
| 79>    O        7.45118        -2.78570         3.60320
| 80>    C        7.92568        -0.43862         3.90518
| 81>    C        9.15517        -0.23066         3.34863
| 82>    C        9.66890         1.08342         3.28477
| 83>    C        8.88589         2.16515         3.78483
| 84>    C        9.35766         3.48236         3.62447
| 85>    C       10.55703         3.69271         3.00261
| 86>    C       11.36813         2.64100         2.55787
| 87>    C       10.92571         1.35687         2.71048
| 88>    F       10.98480         4.95472         2.80697
| 89>    C        7.64819         1.91277         4.41772
| 90>    C        7.17994         0.62757         4.48695
| 91>    C        5.99264         0.07099         5.12180
| 92>    C        5.22972         0.70481         6.06843
| 93>    C        4.33340         0.03402         6.92437
| 94>    N        3.64308        -0.47901         7.68433
| 95>    C        5.29653         2.08738         6.33109
| 96>    N        5.25825         3.21842         6.52452
| 97>    H       20.54657        -3.56722         2.19231
| 98>    H       23.79129        -2.78205        -0.46548
| 99>    H       22.48673        -0.97619        -1.55944
|100>    H       18.47642        -2.26390         2.03901
|101>    H       20.41180         0.34772        -1.74698
|102>    H       15.36272         1.92765        -1.45057
|103>    H       12.81646         2.32025        -1.07409
|104>    H       10.64515         2.87327        -1.28275
|105>    H        9.22400         4.91934        -1.00038
|106>    H        7.16838         5.77368         0.29024
|107>    H        5.06316         5.92206         1.55526
|108>    H        2.89178         5.36678         2.82289
|109>    H        1.64805         3.42974         3.87187
|110>    H        4.11113         0.40355         3.49478
|111>    H        5.10025        -3.19077         4.38026
|112>    H        9.73002        -1.05700         2.95789
|113>    H        8.77183         4.31510         3.98220
|114>    H       12.33081         2.85346         2.12305
|115>    H       11.54661         0.53284         2.39625
|116>    H        7.09339         2.74452         4.82168
|117> *
|118>
|119>                          ****END OF INPUT****

CARTESIAN COORDINATES (ANGSTROEM)
---------------------------------
  C     20.955330   -2.996950    1.372940
  C     22.217410   -3.252730    0.913190
  F     22.946300   -4.225370    1.486900
  C     22.791490   -2.535110   -0.145430
  C     22.065750   -1.542260   -0.742270
  C     20.758820   -1.236840   -0.309390
  C     20.193380   -1.977380    0.770340
  C     18.887060   -1.685040    1.226650
  C     18.172610   -0.690000    0.617170
  C     18.735940    0.037640   -0.472190
  C     19.998200   -0.218420   -0.925870
  C     17.751800    1.016890   -0.969490
  O     17.891150    1.848970   -1.834320
  C     16.497530    0.715090   -0.216600
  C     16.842770   -0.157140    0.887350
  C     16.177550   -0.231870    2.081600
  C     15.040050    0.550370    2.363400
  N     14.146120    1.220810    2.626250
  C     16.617800   -1.004120    3.175690
  N     16.939240   -1.624970    4.085380
  C     15.304680    1.152110   -0.692320
  C     14.000100    0.653960   -0.429360
  C     12.825770    1.310850   -0.703890
  C     11.670670    0.544780   -0.457720
  C     10.298230    0.891520   -0.565520
  C      9.393160   -0.180470   -0.385150
  C      9.879980   -1.408210    0.128310
  N     11.147020   -1.688410    0.361160
  C     12.005390   -0.753030    0.015920
  S     13.714830   -0.983120    0.150730
  S      8.622150   -2.576850    0.413490
  C      7.476230   -1.488230   -0.309240
  C      8.005880   -0.297060   -0.689360
  F      7.314710    0.614270   -1.391480
  F      6.212120   -1.866180   -0.465360
  C      9.929590    2.253660   -0.759670
  C      8.855240    2.911030   -0.226480
  C      8.596260    4.304070   -0.380730
  C      7.512040    4.755160    0.300350
  C      6.841610    3.747030    1.034350
  S      7.666870    2.217400    0.858080
  C      5.663100    3.832000    1.743400
  C      4.810760    4.946500    1.929610
  C      3.664470    4.653460    2.598270
  C      3.541080    3.293620    2.997510
  S      4.971010    2.412100    2.493770
  C      2.466450    2.756380    3.655970
  C      2.316110    1.434020    4.121120
  C      3.199430    0.376360    4.059940
  C      2.771690   -0.760940    4.764310
  C      3.460140   -1.963410    5.042170
  C      2.717310   -2.948170    5.721140
  C      1.400060   -2.642180    6.148060
  N      0.785840   -1.492870    5.963610
  C      1.460530   -0.587310    5.296150
  S      0.852910    1.006500    5.003640
  S      0.652800   -3.944170    7.026670
  C      2.104310   -4.885780    6.842100
  C      3.090990   -4.251980    6.158320
  F      4.283990   -4.807330    5.911450
  F      2.162950   -6.109700    7.349880
  C      4.838920   -2.184600    4.693240
  C      5.874620   -1.309330    4.691700
  C      7.157150   -1.691800    4.020700
  O      7.451180   -2.785700    3.603200
  C      7.925680   -0.438620    3.905180
  C      9.155170   -0.230660    3.348630
  C      9.668900    1.083420    3.284770
  C      8.885890    2.165150    3.784830
  C      9.357660    3.482360    3.624470
  C     10.557030    3.692710    3.002610
  C     11.368130    2.641000    2.557870
  C     10.925710    1.356870    2.710480
  F     10.984800    4.954720    2.806970
  C      7.648190    1.912770    4.417720
  C      7.179940    0.627570    4.486950
  C      5.992640    0.070990    5.121800
  C      5.229720    0.704810    6.068430
  C      4.333400    0.034020    6.924370
  N      3.643080   -0.479010    7.684330
  C      5.296530    2.087380    6.331090
  N      5.258250    3.218420    6.524520
  H     20.546570   -3.567220    2.192310
  H     23.791290   -2.782050   -0.465480
  H     22.486730   -0.976190   -1.559440
  H     18.476420   -2.263900    2.039010
  H     20.411800    0.347720   -1.746980
  H     15.362720    1.927650   -1.450570
  H     12.816460    2.320250   -1.074090
  H     10.645150    2.873270   -1.282750
  H      9.224000    4.919340   -1.000380
  H      7.168380    5.773680    0.290240
  H      5.063160    5.922060    1.555260
  H      2.891780    5.366780    2.822890
  H      1.648050    3.429740    3.871870
  H      4.111130    0.403550    3.494780
  H      5.100250   -3.190770    4.380260
  H      9.730020   -1.057000    2.957890
  H      8.771830    4.315100    3.982200
  H     12.330810    2.853460    2.123050
  H     11.546610    0.532840    2.396250
  H      7.093390    2.744520    4.821680

 Total Charge           Charge          ....    0
 Multiplicity           Mult            ....    1
 Number of Electrons    NEL             ....  600
 Basis Dimension        Dim             .... 1272

ORBITAL ENERGIES
----------------

  NO   OCC          E(Eh)            E(eV)
   0   2.0000     -88.973410     -2421.0896
   1   2.0000     -88.968746     -2420.9626
   2   2.0000     -88.966898     -2420.9124
   3   2.0000     -88.966490     -2420.9013
   4   2.0000     -88.961184     -2420.7569
   5   2.0000     -88.957616     -2420.6598
   6   2.0000     -24.811030      -675.1424
   7   2.0000     -24.807390      -675.0434
   8   2.0000     -24.796375      -674.7437
   9   2.0000     -24.796108      -674.7364
  10   2.0000     -24.790465      -674.5828
  11   2.0000     -24.780098      -674.3008
  12   2.0000     -19.222517      -523.0713
  13   2.0000     -19.214145      -522.8435
  14   2.0000     -14.431652      -392.7052
  15   2.0000     -14.427096      -392.5812
  16   2.0000     -14.425245      -392.5309
  17   2.0000     -14.423164      -392.4743
  18   2.0000     -14.416433      -392.2911
  19   2.0000     -14.413833      -392.2203
  20   2.0000     -10.391202      -282.7590
  21   2.0000     -10.387754      -282.6652
  22   2.0000     -10.374741      -282.3111
  23   2.0000     -10.374450      -282.3031
  24   2.0000     -10.370772      -282.2031
  25   2.0000     -10.365378      -282.0563
  26   2.0000     -10.363939      -282.0171
  27   2.0000     -10.361370      -281.9472
  28   2.0000     -10.357251      -281.8351
  29   2.0000     -10.353281      -281.7271
  30   2.0000     -10.352585      -281.7081
  31   2.0000     -10.350264      -281.6450
  32   2.0000     -10.346434      -281.5408
  33   2.0000     -10.343933      -281.4727
  34   2.0000     -10.341964      -281.4191
  35   2.0000     -10.337152      -281.2882
  36   2.0000     -10.331891      -281.1451
  37   2.0000     -10.331217      -281.1267
  38   2.0000     -10.330327      -281.1025
  39   2.0000     -10.329905      -281.0910
  40   2.0000     -10.329087      -281.0687
  41   2.0000     -10.328674      -281.0575
  42   2.0000     -10.327703      -281.0311
  43   2.0000     -10.327656      -281.0298
  44   2.0000     -10.324977      -280.9569
  45   2.0000     -10.322780      -280.8971
  46   2.0000     -10.318788      -280.7885
  47   2.0000     -10.315562      -280.7007
  48   2.0000     -10.315242      -280.6920
  49   2.0000     -10.314782      -280.6795
  50   2.0000     -10.313170      -280.6356
  51   2.0000     -10.312217      -280.6097
  52   2.0000     -10.311471      -280.5894
  53   2.0000     -10.310538      -280.5640
  54   2.0000     -10.308193      -280.5002
  55   2.0000     -10.307235      -280.4741
  56   2.0000     -10.306900      -280.4650
  57   2.0000     -10.306707      -280.4597
  58   2.0000     -10.306353      -280.4501
  59   2.0000     -10.306121      -280.4438
  60   2.0000     -10.305034      -280.4142
  61   2.0000     -10.304314      -280.3946
  62   2.0000     -10.302942      -280.3573
  63   2.0000     -10.302714      -280.3511
  64   2.0000     -10.302266      -280.3389
  65   2.0000     -10.302093      -280.3342
  66   2.0000     -10.301232      -280.3108
  67   2.0000     -10.301088      -280.3069
  68   2.0000     -10.299798      -280.2717
  69   2.0000     -10.299630      -280.2672
  70   2.0000     -10.298593      -280.2390
  71   2.0000     -10.298008      -280.2230
  72   2.0000     -10.297272      -280.2030
  73   2.0000     -10.294042      -280.1151
  74   2.0000     -10.293363      -280.0967
  75   2.0000     -10.292019      -280.0601
  76   2.0000     -10.291930      -280.0577
  77   2.0000     -10.287783      -279.9448
  78   2.0000     -10.285289      -279.8769
  79   2.0000     -10.283953      -279.8406
  80   2.0000     -10.280996      -279.7601
  81   2.0000     -10.280452      -279.7453
  82   2.0000      -8.070180      -219.6007
  83   2.0000      -8.064821      -219.4549
  84   2.0000      -8.063642      -219.4229
  85   2.0000      -8.061965      -219.3772
  86   2.0000      -8.056327      -219.2238
  87   2.0000      -8.054302      -219.1687
  88   2.0000      -6.039685      -164.3482
  89   2.0000      -6.035863      -164.2442
  90   2.0000      -6.034320      -164.2022
  91   2.0000      -6.033176      -164.1711
  92   2.0000      -6.031707      -164.1311
  93   2.0000      -6.031006      -164.1120
  94   2.0000      -6.030268      -164.0919
  95   2.0000      -6.029368      -164.0674
  96   2.0000      -6.027601      -164.0194
  97   2.0000      -6.026133      -163.9794
  98   2.0000      -6.026125      -163.9792
  99   2.0000      -6.024419      -163.9328
 100   2.0000      -6.023718      -163.9137
 101   2.0000      -6.023086      -163.8965
 102   2.0000      -6.022067      -163.8688
 103   2.0000      -6.019822      -163.8077
 104   2.0000      -6.017193      -163.7361
 105   2.0000      -6.015568      -163.6919
 106   2.0000      -1.328685       -36.1554
 107   2.0000      -1.325991       -36.0820
 108   2.0000      -1.307843       -35.5882
 109   2.0000      -1.307188       -35.5704
 110   2.0000      -1.305787       -35.5323
 111   2.0000      -1.294357       -35.2212
 112   2.0000      -1.138154       -30.9708
 113   2.0000      -1.129753       -30.7421
 114   2.0000      -1.081415       -29.4268
 115   2.0000      -1.073566       -29.2132
 116   2.0000      -1.028497       -27.9868
 117   2.0000      -1.018479       -27.7142
 118   2.0000      -1.014487       -27.6056
 119   2.0000      -1.008251       -27.4359
 120   2.0000      -1.004929       -27.3455
 121   2.0000      -1.000594       -27.2275
 122   2.0000      -0.997195       -27.1351
 123   2.0000      -0.995897       -27.0997
 124   2.0000      -0.993887       -27.0450
 125   2.0000      -0.989670       -26.9303
 126   2.0000      -0.984320       -26.7847
 127   2.0000      -0.977170       -26.5901
 128   2.0000      -0.973403       -26.4876
 129   2.0000      -0.967694       -26.3323
 130   2.0000      -0.942879       -25.6570
 131   2.0000      -0.936409       -25.4810
 132   2.0000      -0.932867       -25.3846
 133   2.0000      -0.918892       -25.0043
 134   2.0000      -0.910858       -24.7857
 135   2.0000      -0.902675       -24.5630
 136   2.0000      -0.893418       -24.3111
 137   2.0000      -0.891973       -24.2718
 138   2.0000      -0.882471       -24.0133
 139   2.0000      -0.879514       -23.9328
 140   2.0000      -0.874027       -23.7835
 141   2.0000      -0.863891       -23.5077
 142   2.0000      -0.860673       -23.4201
 143   2.0000      -0.856195       -23.2982
 144   2.0000      -0.850979       -23.1563
 145   2.0000      -0.842121       -22.9153
 146   2.0000      -0.840105       -22.8604
 147   2.0000      -0.835146       -22.7255
 148   2.0000      -0.830952       -22.6114
 149   2.0000      -0.827509       -22.5177
 150   2.0000      -0.820020       -22.3139
 151   2.0000      -0.814884       -22.1741
 152   2.0000      -0.803920       -21.8758
 153   2.0000      -0.796160       -21.6646
 154   2.0000      -0.788218       -21.4485
 155   2.0000      -0.770127       -20.9562
 156   2.0000      -0.763465       -20.7749
 157   2.0000      -0.757790       -20.6205
 158   2.0000      -0.742132       -20.1944
 159   2.0000      -0.734107       -19.9761
 160   2.0000      -0.724720       -19.7206
 161   2.0000      -0.719036       -19.5660
 162   2.0000      -0.717087       -19.5129
 163   2.0000      -0.714811       -19.4510
 164   2.0000      -0.713054       -19.4032
 165   2.0000      -0.707034       -19.2394
 166   2.0000      -0.701917       -19.1001
 167   2.0000      -0.694101       -18.8874
 168   2.0000      -0.690857       -18.7992
 169   2.0000      -0.689859       -18.7720
 170   2.0000      -0.686082       -18.6693
 171   2.0000      -0.678311       -18.4578
 172   2.0000      -0.674225       -18.3466
 173   2.0000      -0.670836       -18.2544
 174   2.0000      -0.664391       -18.0790
 175   2.0000      -0.661672       -18.0050
 176   2.0000      -0.656933       -17.8761
 177   2.0000      -0.643612       -17.5136
 178   2.0000      -0.643195       -17.5022
 179   2.0000      -0.639443       -17.4001
 180   2.0000      -0.635581       -17.2950
 181   2.0000      -0.634717       -17.2715
 182   2.0000      -0.627997       -17.0887
 183   2.0000      -0.626849       -17.0574
 184   2.0000      -0.624042       -16.9810
 185   2.0000      -0.623334       -16.9618
 186   2.0000      -0.622708       -16.9448
 187   2.0000      -0.614705       -16.7270
 188   2.0000      -0.611186       -16.6312
 189   2.0000      -0.602394       -16.3920
 190   2.0000      -0.600927       -16.3521
 191   2.0000      -0.597856       -16.2685
 192   2.0000      -0.592065       -16.1109
 193   2.0000      -0.590729       -16.0745
 194   2.0000      -0.587386       -15.9836
 195   2.0000      -0.586524       -15.9601
 196   2.0000      -0.579141       -15.7592
 197   2.0000      -0.576374       -15.6839
 198   2.0000      -0.568688       -15.4748
 199   2.0000      -0.565942       -15.4001
 200   2.0000      -0.563268       -15.3273
 201   2.0000      -0.562818       -15.3150
 202   2.0000      -0.561562       -15.2809
 203   2.0000      -0.559569       -15.2267
 204   2.0000      -0.554562       -15.0904
 205   2.0000      -0.553455       -15.0603
 206   2.0000      -0.552806       -15.0426
 207   2.0000      -0.552071       -15.0226
 208   2.0000      -0.549753       -14.9595
 209   2.0000      -0.548566       -14.9272
 210   2.0000      -0.547498       -14.8982
 211   2.0000      -0.545916       -14.8551
 212   2.0000      -0.542855       -14.7718
 213   2.0000      -0.541059       -14.7230
 214   2.0000      -0.536715       -14.6047
 215   2.0000      -0.535102       -14.5609
 216   2.0000      -0.534653       -14.5486
 217   2.0000      -0.529937       -14.4203
 218   2.0000      -0.529234       -14.4012
 219   2.0000      -0.527681       -14.3589
 220   2.0000      -0.524856       -14.2821
 221   2.0000      -0.521733       -14.1971
 222   2.0000      -0.517193       -14.0735
 223   2.0000      -0.516165       -14.0456
 224   2.0000      -0.515364       -14.0238
 225   2.0000      -0.512189       -13.9374
 226   2.0000      -0.511688       -13.9237
 227   2.0000      -0.509179       -13.8555
 228   2.0000      -0.508109       -13.8263
 229   2.0000      -0.507609       -13.8127
 230   2.0000      -0.504985       -13.7413
 231   2.0000      -0.498889       -13.5755
 232   2.0000      -0.498770       -13.5722
 233   2.0000      -0.496678       -13.5153
 234   2.0000      -0.491745       -13.3811
 235   2.0000      -0.490894       -13.3579
 236   2.0000      -0.489834       -13.3291
 237   2.0000      -0.485418       -13.2089
 238   2.0000      -0.485001       -13.1975
 239   2.0000      -0.480050       -13.0628
 240   2.0000      -0.479930       -13.0596
 241   2.0000      -0.476862       -12.9761
 242   2.0000      -0.476015       -12.9530
 243   2.0000      -0.473493       -12.8844
 244   2.0000      -0.466458       -12.6930
 245   2.0000      -0.463841       -12.6217
 246   2.0000      -0.462790       -12.5931
 247   2.0000      -0.459845       -12.5130
 248   2.0000      -0.459281       -12.4977
 249   2.0000      -0.456105       -12.4113
 250   2.0000      -0.452901       -12.3241
 251   2.0000      -0.451213       -12.2781
 252   2.0000      -0.448631       -12.2079
 253   2.0000      -0.448104       -12.1935
 254   2.0000      -0.445574       -12.1247
 255   2.0000      -0.444220       -12.0878
 256   2.0000      -0.442837       -12.0502
 257   2.0000      -0.442539       -12.0421
 258   2.0000      -0.441610       -12.0168
 259   2.0000      -0.438597       -11.9348
 260   2.0000      -0.437405       -11.9024
 261   2.0000      -0.436876       -11.8880
 262   2.0000      -0.435956       -11.8630
 263   2.0000      -0.434070       -11.8117
 264   2.0000      -0.432757       -11.7759
 265   2.0000      -0.430020       -11.7014
 266   2.0000      -0.427030       -11.6201
 267   2.0000      -0.424691       -11.5564
 268   2.0000      -0.423785       -11.5318
 269   2.0000      -0.420535       -11.4433
 270   2.0000      -0.416767       -11.3408
 271   2.0000      -0.413413       -11.2495
 272   2.0000      -0.411545       -11.1987
 273   2.0000      -0.409896       -11.1538
 274   2.0000      -0.400086       -10.8869
 275   2.0000      -0.393141       -10.6979
 276   2.0000      -0.387631       -10.5480
 277   2.0000      -0.384258       -10.4562
 278   2.0000      -0.377838       -10.2815
 279   2.0000      -0.372754       -10.1431
 280   2.0000      -0.362330        -9.8595
 281   2.0000      -0.357015        -9.7149
 282   2.0000      -0.354097        -9.6355
 283   2.0000      -0.351241        -9.5577
 284   2.0000      -0.347191        -9.4475
 285   2.0000      -0.342722        -9.3260
 286   2.0000      -0.341985        -9.3059
 287   2.0000      -0.339561        -9.2399
 288   2.0000      -0.335752        -9.1363
 289   2.0000      -0.332516        -9.0482
 290   2.0000      -0.323953        -8.8152
 291   2.0000      -0.320479        -8.7207
 292   2.0000      -0.306251        -8.3335
 293   2.0000      -0.305787        -8.3209
 294   2.0000      -0.302047        -8.2191
 295   2.0000      -0.295457        -8.0398
 296   2.0000      -0.287471        -7.8225
 297   2.0000      -0.281797        -7.6681
 298   2.0000      -0.276172        -7.5150
 299   2.0000      -0.232848        -6.3361
 300   0.0000      -0.111964        -3.0467
 301   0.0000      -0.100290        -2.7290
 302   0.0000      -0.083943        -2.2842
 303   0.0000      -0.062960        -1.7132
 304   0.0000      -0.055002        -1.4967

MULLIKEN ATOMIC CHARGES
-----------------------
   0 C :   -0.097962
   1 C :    0.305598
   2 F :   -0.187728
   3 C :   -0.026382
   4 C :   -0.009406
   5 C :    0.099214
   6 C :    0.100678
   7 C :   -0.079588
   8 C :    0.040685
   9 C :    0.010622
  10 C :   -0.077162
  11 C :    0.143100
  12 O :   -0.138536
  13 C :   -0.127787
  14 C :    0.245815
  15 C :   -0.307910
  16 C :   -0.177735
  17 N :    0.159170
  18 C :   -0.177456
  19 N :    0.164691
  20 C :    0.038267
  21 C :   -0.088258
  22 C :    0.014160
  23 C :    0.072955
  24 C :    0.134395
  25 C :    0.008268
  26 C :   -0.186899
  27 N :   -0.014732
  28 C :   -0.155221
  29 S :    0.151124
  30 S :    0.173680
  31 C :    0.067556
  32 C :    0.206202
  33 F :   -0.172281
  34 F :   -0.148772
  35 C :   -0.071667
  36 C :   -0.003059
  37 C :    0.035143
  38 C :    0.048856
  39 C :   -0.047591
  40 S :    0.098707
  41 C :   -0.025959
  42 C :    0.035916
  43 C :    0.050654
  44 C :   -0.018303
  45 S :    0.049696
  46 C :    0.050330
  47 C :   -0.106290
  48 C :    0.001574
  49 C :    0.016007
  50 C :    0.059529
  51 C :    0.083621
  52 C :   -0.168274
  53 N :    0.012855
  54 C :   -0.131984
  55 S :    0.144893
  56 S :    0.138650
  57 C :    0.061590
  58 C :    0.222494
  59 F :   -0.172662
  60 F :   -0.147196
  61 C :   -0.015408
  62 C :   -0.106253
  63 C :    0.140711
  64 O :   -0.135141
  65 C :    0.017493
  66 C :   -0.101715
  67 C :    0.114480
  68 C :    0.118289
  69 C :   -0.108256
  70 C :    0.312594
  71 C :   -0.025177
  72 C :   -0.005375
  73 F :   -0.195438
  74 C :   -0.113493
  75 C :    0.064248
  76 C :    0.218067
  77 C :   -0.304301
  78 C :   -0.181437
  79 N :    0.172658
  80 C :   -0.179008
  81 N :    0.148694
  82 H :   -0.000376
  83 H :    0.005422
  84 H :   -0.007293
  85 H :   -0.000862
  86 H :   -0.009605
  87 H :    0.029117
  88 H :   -0.007037
  89 H :   -0.011741
  90 H :   -0.005020
  91 H :   -0.005927
  92 H :   -0.006931
  93 H :   -0.001818
  94 H :   -0.008705
  95 H :    0.018134
  96 H :    0.034816
  97 H :   -0.007929
  98 H :   -0.013166
  99 H :    0.002509
 100 H :   -0.009044
 101 H :   -0.010671
Sum of atomic charges:   -0.0000000

LOEWDIN ATOMIC CHARGES
----------------------
   0 C :   -0.041154
   1 C :    0.094786
   2 F :   -0.062201
   3 C :   -0.034575
   4 C :    0.005519
   5 C :   -0.017975
   6 C :    0.004327
   7 C :    0.013774
   8 C :   -0.017685
   9 C :   -0.060564
  10 C :    0.037043
  11 C :    0.084546
  12 O :   -0.139740
  13 C :   -0.088285
  14 C :    0.062899
  15 C :   -0.135673
  16 C :   -0.017218
  17 N :   -0.047107
  18 C :   -0.019948
  19 N :   -0.041929
  20 C :    0.048876
  21 C :   -0.165182
  22 C :   -0.009122
  23 C :   -0.069277
  24 C :    0.015857
  25 C :   -0.097491
  26 C :   -0.125209
  27 N :   -0.107535
  28 C :   -0.129123
  29 S :    0.440684
  30 S :    0.447519
  31 C :   -0.097965
  32 C :   -0.017838
  33 F :   -0.053988
  34 F :   -0.039655
  35 C :   -0.069993
  36 C :   -0.118620
  37 C :   -0.026437
  38 C :   -0.019055
  39 C :   -0.174102
  40 S :    0.436095
  41 C :   -0.168183
  42 C :   -0.030360
  43 C :   -0.016018
  44 C :   -0.132162
  45 S :    0.414194
  46 C :   -0.064805
  47 C :   -0.144261
  48 C :   -0.065434
  49 C :   -0.053981
  50 C :   -0.014708
  51 C :   -0.062945
  52 C :   -0.128499
  53 N :   -0.078643
  54 C :   -0.125976
  55 S :    0.424032
  56 S :    0.421989
  57 C :   -0.094184
  58 C :    0.001245
  59 F :   -0.046631
  60 F :   -0.037642
  61 C :    0.064557
  62 C :   -0.077179
  63 C :    0.082955
  64 O :   -0.137037
  65 C :   -0.064827
  66 C :    0.031313
  67 C :   -0.023570
  68 C :   -0.005566
  69 C :   -0.051171
  70 C :    0.090977
  71 C :   -0.027941
  72 C :    0.011104
  73 F :   -0.070164
  74 C :    0.001221
  75 C :   -0.023261
  76 C :    0.056649
  77 C :   -0.124481
  78 C :   -0.014281
  79 N :   -0.044300
  80 C :   -0.015348
  81 N :   -0.052660
  82 H :    0.043979
  83 H :    0.042823
  84 H :    0.036446
  85 H :    0.040315
  86 H :    0.040630
  87 H :    0.052307
  88 H :    0.034642
  89 H :    0.034227
  90 H :    0.036380
  91 H :    0.036059
  92 H :    0.035377
  93 H :    0.038600
  94 H :    0.038007
  95 H :    0.014603
  96 H :    0.047343
  97 H :    0.036217
  98 H :    0.038655
  99 H :    0.035980
 100 H :    0.031958
 101 H :    0.034153

  Mayer bond orders larger than 0.100000
B(  0-C ,  1-C ) :   1.4394 B(  0-C ,  6-C ) :   1.2032 B(  0-C , 82-H ) :   1.0078
B(  1-C ,  2-F ) :   1.0909 B(  1-C ,  3-C ) :   1.2540 B(  3-C ,  4-C ) :   1.4621
B(  3-C , 83-H ) :   0.9924 B(  4-C ,  5-C ) :   1.2313 B(  4-C , 84-H ) :   0.9982
B(  5-C ,  6-C ) :   1.2558 B(  5-C , 10-C ) :   1.1954 B(  6-C ,  7-C ) :   1.2007
B(  7-C ,  8-C ) :   1.4621 B(  7-C , 85-H ) :   0.9969 B(  8-C ,  9-C ) :   1.2159
B(  8-C , 14-C ) :   1.0019 B(  9-C , 10-C ) :   1.4655 B(  9-C , 11-C ) :   0.9238
B( 10-C , 86-H ) :   1.0167 B( 11-C , 12-O ) :   2.2766 B( 11-C , 13-C ) :   0.9290
B( 13-C , 14-C ) :   1.0285 B( 13-C , 20-C ) :   1.6634 B( 14-C , 15-C ) :   1.6657
B( 15-C , 16-C ) :   1.1523 B( 15-C , 18-C ) :   1.1345 B( 16-C , 17-N ) :   2.9759
B( 18-C , 19-N ) :   2.9942 B( 20-C , 21-C ) :   1.1166 B( 20-C , 87-H ) :   0.9513
B( 21-C , 22-C ) :   1.4938 B( 21-C , 29-S ) :   1.0748 B( 22-C , 23-C ) :   1.1938
B( 22-C , 88-H ) :   0.9982 B( 23-C , 24-C ) :   1.2704 B( 23-C , 28-C ) :   1.1966
B( 24-C , 25-C ) :   1.2967 B( 24-C , 35-C ) :   1.1245 B( 25-C , 26-C ) :   1.1817
B( 25-C , 32-C ) :   1.0930 B( 26-C , 27-N ) :   1.5215 B( 26-C , 30-S ) :   1.1009
B( 27-N , 28-C ) :   1.5354 B( 28-C , 29-S ) :   1.0918 B( 30-S , 31-C ) :   1.0881
B( 31-C , 32-C ) :   1.4987 B( 31-C , 34-F ) :   1.1445 B( 32-C , 33-F ) :   1.1481
B( 35-C , 36-C ) :   1.6139 B( 35-C , 89-H ) :   0.9533 B( 36-C , 37-C ) :   1.1267
B( 36-C , 40-S ) :   1.0635 B( 37-C , 38-C ) :   1.6103 B( 37-C , 90-H ) :   0.9980
B( 38-C , 39-C ) :   1.1680 B( 38-C , 91-H ) :   0.9924 B( 39-C , 40-S ) :   1.0638
B( 39-C , 41-C ) :   1.5129 B( 41-C , 42-C ) :   1.1746 B( 41-C , 45-S ) :   1.0488
B( 42-C , 43-C ) :   1.6024 B( 42-C , 92-H ) :   0.9927 B( 43-C , 44-C ) :   1.1364
B( 43-C , 93-H ) :   0.9982 B( 44-C , 45-S ) :   1.0423 B( 44-C , 46-C ) :   1.5981
B( 46-C , 47-C ) :   1.1753 B( 46-C , 94-H ) :   0.9523 B( 47-C , 48-C ) :   1.4750
B( 47-C , 55-S ) :   1.0780 B( 48-C , 49-C ) :   1.2695 B( 48-C , 95-H ) :   0.9501
B( 49-C , 50-C ) :   1.2936 B( 49-C , 54-C ) :   1.1788 B( 50-C , 51-C ) :   1.3594
B( 50-C , 61-C ) :   1.0452 B( 51-C , 52-C ) :   1.1853 B( 51-C , 58-C ) :   1.0897
B( 52-C , 53-N ) :   1.5401 B( 52-C , 56-S ) :   1.0758 B( 53-N , 54-C ) :   1.5725
B( 54-C , 55-S ) :   1.0810 B( 56-S , 57-C ) :   1.0889 B( 57-C , 58-C ) :   1.5013
B( 57-C , 60-F ) :   1.1450 B( 58-C , 59-F ) :   1.1273 B( 61-C , 62-C ) :   1.7182
B( 61-C , 96-H ) :   0.9312 B( 62-C , 63-C ) :   0.9237 B( 62-C , 76-C ) :   1.0181
B( 63-C , 64-O ) :   2.2602 B( 63-C , 65-C ) :   0.9238 B( 65-C , 66-C ) :   1.4467
B( 65-C , 75-C ) :   1.2150 B( 66-C , 67-C ) :   1.1971 B( 66-C , 97-H ) :   1.0121
B( 67-C , 68-C ) :   1.2472 B( 67-C , 72-C ) :   1.2282 B( 68-C , 69-C ) :   1.1972
B( 68-C , 74-C ) :   1.1959 B( 69-C , 70-C ) :   1.4298 B( 69-C , 98-H ) :   1.0067
B( 70-C , 71-C ) :   1.2409 B( 70-C , 73-F ) :   1.0876 B( 71-C , 72-C ) :   1.4669
B( 71-C , 99-H ) :   0.9879 B( 72-C ,100-H ) :   0.9866 B( 74-C , 75-C ) :   1.4344
B( 74-C ,101-H ) :   0.9970 B( 75-C , 76-C ) :   1.0174 B( 76-C , 77-C ) :   1.6460
B( 77-C , 78-C ) :   1.1737 B( 77-C , 80-C ) :   1.1379 B( 78-C , 79-N ) :   2.9772
B( 80-C , 81-N ) :   2.9628

-----------------------------------------------------------------------------
         ABSORPTION SPECTRUM VIA TRANSITION ELECTRIC DIPOLE MOMENTS
-----------------------------------------------------------------------------
State   Energy  Wavelength   fosc         T2         TX        TY        TZ
        (cm-1)    (nm)                  (au**2)     (au)      (au)      (au)
-----------------------------------------------------------------------------
   0   11276.9    886.8   0.371686772  10.85084  -2.69186  -0.28047   1.87778
   1   14417.7    693.6   0.489262668  11.17179  -3.19338   0.95250   0.25851
   2   18361.2    544.6   0.173091539   3.10349   1.02740   0.19313  -1.41797
   3   20519.8    487.3   0.377381465   6.05457   2.44334  -0.08188  -0.27925
   4   21528.4    464.5   0.032960258   0.50403   0.56782   0.24965  -0.34538
   5   21635.3    462.2   0.046636206   0.70964  -0.74864  -0.09646   0.37399
   6   22250.5    449.4   0.233079078   3.44856  -0.03682  -1.68251   0.78510
   7   23554.6    424.5   0.391855853   5.47680  -2.19209   0.16868  -0.80194
   8   24128.1    414.5   0.047204204   0.64407   0.55406   0.57443  -0.08432
   9   25236.1    396.3   0.050569270   0.65969   0.07312   0.55452   0.58894
  10   25268.0    395.8   0.110463678   1.43921   1.15321  -0.31458  -0.10180
  11   25714.8    388.9   0.140816948   1.80280   0.11096   1.27443  -0.40782
  12   25797.2    387.6   0.084543703   1.07891   0.72698   0.50883  -0.53990
  13   26306.8    380.1   0.049369007   0.61782  -0.61137   0.49192  -0.04539
  14   26455.4    378.0   0.042048314   0.52325   0.35012  -0.62586   0.09468
  15   26781.7    373.4   0.014906510   0.18324  -0.32580   0.25987  -0.09775
  16   27743.9    360.4   0.106603491   1.26497  -0.60898  -0.94263  -0.07463
  17   27920.9    358.2   0.227923474   2.68742   0.61213   1.50332  -0.22967
  18   28136.9    355.4   0.076272614   0.89242  -0.82640   0.28214   0.36038
  19   28242.1    354.1   0.009937113   0.11583  -0.12477   0.00046   0.31665
  20   28589.2    349.8   0.055556029   0.63974   0.48391   0.43505  -0.46508
  21   28734.2    348.0   0.011401492   0.13063   0.31397   0.16350   0.07292
  22   29348.6    340.7   0.059368658   0.66596  -0.51810  -0.46326   0.42769
  23   29505.5    338.9   0.034243842   0.38208   0.55435   0.24535  -0.12076
  24   29704.1    336.7   0.047739471   0.52910   0.50552  -0.43645  -0.28821
  25   30126.0    331.9   0.034279364   0.37460   0.56502  -0.18737  -0.14230
  26   30527.3    327.6   0.040924134   0.44133  -0.59661  -0.04016   0.28944
  27   31002.4    322.6   0.020586288   0.21860   0.41726  -0.12915  -0.16678
  28   31415.1    318.3   0.040488090   0.42429   0.50971  -0.20521  -0.34983
  29   31513.7    317.3   0.042935015   0.44853  -0.57532   0.11862   0.32165
  30   31915.9    313.3   0.178846199   1.84480  -0.80315  -0.78854   0.76023
  31   32189.2    310.7   0.075260934   0.76972  -0.69459   0.53044  -0.07686
  32   32536.2    307.4   0.718335044   7.26836  -2.45581  -0.46464   1.01068
  33   32734.6    305.5   0.165978057   1.66924  -1.01473  -0.44111   0.66707
  34   32877.6    304.2   0.215848506   2.16135  -1.14590  -0.34118   0.85549
  35   33128.4    301.9   0.093858425   0.93271   0.73734  -0.18674  -0.59512
  36   33267.0    300.6   0.109871096   1.08729  -0.63354  -0.65932   0.50122
  37   33395.1    299.4   0.095014069   0.93666   0.75595  -0.34432  -0.49662
  38   33648.6    297.2   0.408533593   3.99702  -1.84089   0.71512   0.31100
  39   34020.5    293.9   0.112971475   1.09321   1.04532  -0.01968   0.01162
  40   34145.4    292.9   0.004577994   0.04414   0.02161   0.20876  -0.00958
  41   34551.7    289.4   0.114612308   1.09204   0.76719   0.70785   0.04906
  42   34669.3    288.4   0.040843647   0.38784  -0.12633   0.57413  -0.20556
  43   34826.8    287.1   0.115915616   1.09573   0.58896  -0.85543  -0.13072
  44   34928.9    286.3   0.042695491   0.40241   0.41142   0.44788  -0.18041
  45   35251.7    283.7   0.002248925   0.02100   0.08402   0.10838   0.04687
  46   35516.1    281.6   0.002212868   0.02051  -0.08043   0.00965   0.11811
  47   35565.4    281.2   0.015418313   0.14272   0.07026  -0.35238  -0.11667
  48   35682.4    280.3   0.013020575   0.12013   0.07075  -0.30147   0.15569
  49   35950.2    278.2   0.115265263   1.05554   0.15000  -0.98642   0.24497
  50   36033.3    277.5   0.039726932   0.36296  -0.56248   0.09173   0.19533
  51   36246.1    275.9   0.057543946   0.52265  -0.62283  -0.33474   0.15062
  52   36325.5    275.3   0.009060535   0.08211  -0.27508   0.01906   0.07799
  53   36716.5    272.4   0.073883938   0.66247  -0.14547   0.70968   0.37102
  54   36959.7    270.6   0.071644469   0.63816   0.41563  -0.68119  -0.03739
  55   37086.7    269.6   0.102150399   0.90677   0.52149  -0.75634  -0.25052
  56   37231.6    268.6   0.380785611   3.36701   1.56063   0.61109  -0.74699
  57   37352.1    267.7   0.037583271   0.33125  -0.56363   0.10708   0.04588
  58   37459.6    267.0   0.062332838   0.54781  -0.66883   0.27876   0.15091
  59   37854.0    264.2   0.018511211   0.16099   0.12430   0.31611   0.21357
  60   38009.7    263.1   0.009183010   0.07954  -0.04283  -0.25163   0.11994
  61   38119.5    262.3   0.018054688   0.15593  -0.09904   0.37609   0.06837
  62   38481.7    259.9   0.018599533   0.15912   0.08191  -0.31352   0.23263
  63   38616.3    259.0   0.028780138   0.24536  -0.32494  -0.37306  -0.02442
  64   38677.9    258.5   0.027173384   0.23129   0.23398  -0.22922  -0.35213
  65   38763.5    258.0   0.006260384   0.05317   0.04231  -0.17748   0.14100
  66   39077.2    255.9   0.067819194   0.57135   0.17875  -0.67662   0.28563
  67   39344.5    254.2   0.073405842   0.61422  -0.43241  -0.47738   0.44649
  68   39520.8    253.0   0.033394983   0.27818  -0.07105   0.20254   0.48178
  69   39683.4    252.0   0.182447459   1.51358   0.34793   0.52413  -1.05726
  70   39755.5    251.5   0.027953951   0.23148   0.26442   0.35387   0.19064
  71   40022.7    249.9   0.087222188   0.71746   0.01188  -0.79911  -0.28060
  72   40212.6    248.7   0.059221400   0.48483   0.62125  -0.30031   0.09326
  73   40297.1    248.2   0.023878489   0.19508  -0.05161  -0.43801  -0.02378
  74   40322.3    248.0   0.016420705   0.13407  -0.21851  -0.19802   0.21705

FINAL SINGLE POINT ENERGY     -5836.710399974295

DIPOLE MOMENT
-------------
                                X             Y             Z
Electronic contribution:    -40.45054     -37.04112      16.84615
Nuclear contribution   :     41.97433      38.99215     -20.48463
                        -----------------------------------------
Total Dipole Moment    :      1.52379       1.95103      -3.63848
                        -----------------------------------------
Magnitude (a.u.)       :      4.40079
Magnitude (Debye)      :     11.18591

Rotational constants in cm-1:     0.001411     0.000325     0.000293
Rotational constants in MHz :    42.293948     9.751743     8.788891

                             ****ORCA TERMINATED NORMALLY****
TOTAL RUN TIME: 0 days 0 hours 16 minutes 8 seconds 27 msec
