                         Program Version 4.2.0 -  RELEASE  -
|  1> # ORCA input file
|  2> # SCF done       -185.733496414914          0.000523193313
|  3> ! CAM-B3LYP def2-SVP def2/J RIJCOSX Grid4 TightSCF
|  4> %maxcore 5000
|  5> %tddft
|  6>     Mode sTDDFT
|  7>     Ethresh 5.0
|  8>     maxcore 5000
|  9> end
| 10>
| 11> %pal
| 12>   nprocs 6
| 13>   end
| 14> * xyz 0 1
| 15>    C        0.64803         1.11512        -0.72796
| 16>    C       -0.70676         1.07830        -0.54798
| 17>    F       -1.51866         1.42502        -1.56201
| 18>    C       -1.29417         0.68910         0.66398
| 19>    C       -0.48536         0.33231         1.70659
| 20>    C        0.91867         0.35140         1.57614
| 21>    C        1.49681         0.75259         0.33604
| 22>    C        2.90228         0.78986         0.18391
| 23>    C        3.70158         0.43641         1.23788
| 24>    C        3.11714         0.01838         2.46894
| 25>    C        1.76361        -0.02139         2.64462
| 26>    C        4.18416        -0.34507         3.41798
| 27>    O        4.07494        -0.69627         4.56949
| 28>    C        5.45216        -0.24790         2.63638
| 29>    C        5.15465         0.41798         1.38157
| 30>    C        6.03589         1.10975         0.59458
| 31>    C        7.40158         1.28607         0.89870
| 32>    N        8.50485         1.51312         1.11972
| 33>    C        5.66256         1.80701        -0.57344
| 34>    N        5.41138         2.37654        -1.53755
| 35>    C        6.57620        -0.82928         3.11958
| 36>    C        7.78529        -1.13537         2.41739
| 37>    C        9.03797        -1.13168         3.05539
| 38>    N       10.15857        -1.37722         2.42842
| 39>    C       10.09066        -1.63792         1.11593
| 40>    N        8.94131        -1.76927         0.43534
| 41>    C        7.82465        -1.53434         1.06821
| 42>    C       11.28999        -1.80915         0.37090
| 43>    S       11.17549        -2.20835        -1.29781
| 44>    C       12.89608        -2.24260        -1.50017
| 45>    C       13.54477        -1.89096        -0.30152
| 46>    C       12.62608        -1.66502         0.77031
| 47>    C       13.10220        -1.35460         2.05348
| 48>    C       14.45029        -1.22217         2.27123
| 49>    S       14.97900        -0.88665         3.93141
| 50>    C       16.14455        -2.27922         4.24176
| 51>    C       17.47606        -1.78816         4.77037
| 52>    C       15.35410        -1.30599         1.18130
| 53>    S       17.09018        -0.94694         1.35027
| 54>    C       16.98898         0.84356         1.75954
| 55>    C       18.38586         1.40293         1.93251
| 56>    C       14.91107        -1.65280        -0.06849
| 57>    C       13.40391        -2.62143        -2.77108
| 58>    C       14.65832        -3.05129        -3.04141
| 59>    C       15.14792        -3.42280        -4.33681
| 60>    C       16.47903        -3.85143        -4.49293
| 61>    N       16.98434        -4.22242        -5.64299
| 62>    C       16.18909        -4.16304        -6.71699
| 63>    N       14.92455        -3.73363        -6.69234
| 64>    C       14.41236        -3.39087        -5.53603
| 65>    C       16.72078        -4.50621        -8.01190
| 66>    C       17.88852        -5.11890        -8.30341
| 67>    C       18.45253        -5.01123        -9.68682
| 68>    O       17.85624        -4.69587       -10.68767
| 69>    C       19.88886        -5.30713        -9.53506
| 70>    C       20.88666        -5.20796       -10.46274
| 71>    C       22.21264        -5.51237       -10.08425
| 72>    C       22.48213        -5.91070        -8.74164
| 73>    C       23.80898        -6.20315        -8.36952
| 74>    C       24.80518        -6.10198        -9.30015
| 75>    C       24.56030        -5.71426       -10.62506
| 76>    C       23.27898        -5.42572       -11.00343
| 77>    F       26.07240        -6.38061        -8.94641
| 78>    C       21.42882        -6.01236        -7.80380
| 79>    C       20.14960        -5.72180        -8.19618
| 80>    C       18.88494        -5.77081        -7.46956
| 81>    C       18.64417        -6.49748        -6.33962
| 82>    C       17.35342        -6.74556        -5.82256
| 83>    N       16.33538        -7.06463        -5.39966
| 84>    C       19.64894        -7.17176        -5.61439
| 85>    N       20.43291        -7.72271        -4.98283
| 86>    H        1.06517         1.42376        -1.67375
| 87>    H       -2.36938         0.67966         0.74684
| 88>    H       -0.91408         0.02892         2.64980
| 89>    H        3.31239         1.08925        -0.76762
| 90>    H        1.34283        -0.33347         3.58869
| 91>    H        6.52676        -1.14688         4.15695
| 92>    H        9.12311        -0.89028         4.10731
| 93>    H        6.91174        -1.70402         0.50900
| 94>    H       12.39942        -1.23383         2.86096
| 95>    H       16.26062        -2.81679         3.30350
| 96>    H       15.64502        -2.91953         4.96896
| 97>    H       17.98843        -1.19653         4.01661
| 98>    H       18.10292        -2.63979         5.02639
| 99>    H       17.33360        -1.17868         5.65943
|100>    H       16.40349         0.94478         2.67239
|101>    H       16.46787         1.32394         0.93099
|102>    H       18.89683         0.91362         2.75896
|103>    H       18.32788         2.46879         2.14246
|104>    H       18.97347         1.25553         1.02885
|105>    H       15.62347        -1.68228        -0.87596
|106>    H       12.67219        -2.59824        -3.56773
|107>    H       15.37120        -3.16700        -2.23808
|108>    H       17.15153        -3.89670        -3.64404
|109>    H       13.37898        -3.07119        -5.56316
|110>    H       16.13240        -4.14866        -8.84898
|111>    H       20.66641        -4.89815       -11.47333
|112>    H       24.03420        -6.50809        -7.35954
|113>    H       25.38684        -5.65212       -11.31500
|114>    H       23.06523        -5.12485       -12.01795
|115>    H       21.66035        -6.30736        -6.79252
|116> *
|117>
|118>                          ****END OF INPUT****

CARTESIAN COORDINATES (ANGSTROEM)
---------------------------------
  C      0.648030    1.115120   -0.727960
  C     -0.706760    1.078300   -0.547980
  F     -1.518660    1.425020   -1.562010
  C     -1.294170    0.689100    0.663980
  C     -0.485360    0.332310    1.706590
  C      0.918670    0.351400    1.576140
  C      1.496810    0.752590    0.336040
  C      2.902280    0.789860    0.183910
  C      3.701580    0.436410    1.237880
  C      3.117140    0.018380    2.468940
  C      1.763610   -0.021390    2.644620
  C      4.184160   -0.345070    3.417980
  O      4.074940   -0.696270    4.569490
  C      5.452160   -0.247900    2.636380
  C      5.154650    0.417980    1.381570
  C      6.035890    1.109750    0.594580
  C      7.401580    1.286070    0.898700
  N      8.504850    1.513120    1.119720
  C      5.662560    1.807010   -0.573440
  N      5.411380    2.376540   -1.537550
  C      6.576200   -0.829280    3.119580
  C      7.785290   -1.135370    2.417390
  C      9.037970   -1.131680    3.055390
  N     10.158570   -1.377220    2.428420
  C     10.090660   -1.637920    1.115930
  N      8.941310   -1.769270    0.435340
  C      7.824650   -1.534340    1.068210
  C     11.289990   -1.809150    0.370900
  S     11.175490   -2.208350   -1.297810
  C     12.896080   -2.242600   -1.500170
  C     13.544770   -1.890960   -0.301520
  C     12.626080   -1.665020    0.770310
  C     13.102200   -1.354600    2.053480
  C     14.450290   -1.222170    2.271230
  S     14.979000   -0.886650    3.931410
  C     16.144550   -2.279220    4.241760
  C     17.476060   -1.788160    4.770370
  C     15.354100   -1.305990    1.181300
  S     17.090180   -0.946940    1.350270
  C     16.988980    0.843560    1.759540
  C     18.385860    1.402930    1.932510
  C     14.911070   -1.652800   -0.068490
  C     13.403910   -2.621430   -2.771080
  C     14.658320   -3.051290   -3.041410
  C     15.147920   -3.422800   -4.336810
  C     16.479030   -3.851430   -4.492930
  N     16.984340   -4.222420   -5.642990
  C     16.189090   -4.163040   -6.716990
  N     14.924550   -3.733630   -6.692340
  C     14.412360   -3.390870   -5.536030
  C     16.720780   -4.506210   -8.011900
  C     17.888520   -5.118900   -8.303410
  C     18.452530   -5.011230   -9.686820
  O     17.856240   -4.695870  -10.687670
  C     19.888860   -5.307130   -9.535060
  C     20.886660   -5.207960  -10.462740
  C     22.212640   -5.512370  -10.084250
  C     22.482130   -5.910700   -8.741640
  C     23.808980   -6.203150   -8.369520
  C     24.805180   -6.101980   -9.300150
  C     24.560300   -5.714260  -10.625060
  C     23.278980   -5.425720  -11.003430
  F     26.072400   -6.380610   -8.946410
  C     21.428820   -6.012360   -7.803800
  C     20.149600   -5.721800   -8.196180
  C     18.884940   -5.770810   -7.469560
  C     18.644170   -6.497480   -6.339620
  C     17.353420   -6.745560   -5.822560
  N     16.335380   -7.064630   -5.399660
  C     19.648940   -7.171760   -5.614390
  N     20.432910   -7.722710   -4.982830
  H      1.065170    1.423760   -1.673750
  H     -2.369380    0.679660    0.746840
  H     -0.914080    0.028920    2.649800
  H      3.312390    1.089250   -0.767620
  H      1.342830   -0.333470    3.588690
  H      6.526760   -1.146880    4.156950
  H      9.123110   -0.890280    4.107310
  H      6.911740   -1.704020    0.509000
  H     12.399420   -1.233830    2.860960
  H     16.260620   -2.816790    3.303500
  H     15.645020   -2.919530    4.968960
  H     17.988430   -1.196530    4.016610
  H     18.102920   -2.639790    5.026390
  H     17.333600   -1.178680    5.659430
  H     16.403490    0.944780    2.672390
  H     16.467870    1.323940    0.930990
  H     18.896830    0.913620    2.758960
  H     18.327880    2.468790    2.142460
  H     18.973470    1.255530    1.028850
  H     15.623470   -1.682280   -0.875960
  H     12.672190   -2.598240   -3.567730
  H     15.371200   -3.167000   -2.238080
  H     17.151530   -3.896700   -3.644040
  H     13.378980   -3.071190   -5.563160
  H     16.132400   -4.148660   -8.848980
  H     20.666410   -4.898150  -11.473330
  H     24.034200   -6.508090   -7.359540
  H     25.386840   -5.652120  -11.315000
  H     23.065230   -5.124850  -12.017950
  H     21.660350   -6.307360   -6.792520

 Total Charge           Charge          ....    0
 Multiplicity           Mult            ....    1
 Number of Electrons    NEL             ....  504
 Basis Dimension        Dim             .... 1156

ORBITAL ENERGIES
----------------

  NO   OCC          E(Eh)            E(eV)
   0   2.0000     -88.976298     -2421.1682
   1   2.0000     -88.913984     -2419.4725
   2   2.0000     -88.912195     -2419.4238
   3   2.0000     -24.791016      -674.5978
   4   2.0000     -24.785464      -674.4468
   5   2.0000     -19.221995      -523.0571
   6   2.0000     -19.215662      -522.8848
   7   2.0000     -14.424303      -392.5052
   8   2.0000     -14.423265      -392.4770
   9   2.0000     -14.423169      -392.4744
  10   2.0000     -14.422910      -392.4673
  11   2.0000     -14.422085      -392.4449
  12   2.0000     -14.421918      -392.4403
  13   2.0000     -14.415972      -392.2785
  14   2.0000     -14.410118      -392.1193
  15   2.0000     -10.375371      -282.3282
  16   2.0000     -10.373171      -282.2683
  17   2.0000     -10.369263      -282.1620
  18   2.0000     -10.366639      -282.0906
  19   2.0000     -10.362832      -281.9870
  20   2.0000     -10.352892      -281.7165
  21   2.0000     -10.352373      -281.7024
  22   2.0000     -10.350913      -281.6627
  23   2.0000     -10.343079      -281.4495
  24   2.0000     -10.338594      -281.3274
  25   2.0000     -10.337408      -281.2952
  26   2.0000     -10.337210      -281.2898
  27   2.0000     -10.329949      -281.0922
  28   2.0000     -10.329521      -281.0806
  29   2.0000     -10.326509      -280.9986
  30   2.0000     -10.325300      -280.9657
  31   2.0000     -10.324664      -280.9484
  32   2.0000     -10.319868      -280.8179
  33   2.0000     -10.317698      -280.7588
  34   2.0000     -10.313837      -280.6538
  35   2.0000     -10.313771      -280.6520
  36   2.0000     -10.312769      -280.6247
  37   2.0000     -10.307807      -280.4897
  38   2.0000     -10.307736      -280.4878
  39   2.0000     -10.307361      -280.4776
  40   2.0000     -10.306978      -280.4671
  41   2.0000     -10.306063      -280.4422
  42   2.0000     -10.305973      -280.4398
  43   2.0000     -10.305879      -280.4372
  44   2.0000     -10.305664      -280.4314
  45   2.0000     -10.305646      -280.4309
  46   2.0000     -10.304974      -280.4126
  47   2.0000     -10.303692      -280.3777
  48   2.0000     -10.303571      -280.3744
  49   2.0000     -10.302613      -280.3484
  50   2.0000     -10.302088      -280.3341
  51   2.0000     -10.301828      -280.3270
  52   2.0000     -10.300862      -280.3007
  53   2.0000     -10.300316      -280.2858
  54   2.0000     -10.300080      -280.2794
  55   2.0000     -10.297453      -280.2080
  56   2.0000     -10.297155      -280.1998
  57   2.0000     -10.297088      -280.1980
  58   2.0000     -10.296386      -280.1789
  59   2.0000     -10.294814      -280.1361
  60   2.0000     -10.294027      -280.1147
  61   2.0000     -10.292187      -280.0646
  62   2.0000     -10.291909      -280.0571
  63   2.0000     -10.289958      -280.0040
  64   2.0000     -10.288406      -279.9618
  65   2.0000     -10.285137      -279.8728
  66   2.0000     -10.283985      -279.8414
  67   2.0000     -10.282728      -279.8072
  68   2.0000     -10.272834      -279.5380
  69   2.0000     -10.260290      -279.1967
  70   2.0000     -10.252137      -278.9748
  71   2.0000      -8.070819      -219.6181
  72   2.0000      -8.008636      -217.9261
  73   2.0000      -8.007208      -217.8872
  74   2.0000      -6.039626      -164.3466
  75   2.0000      -6.035516      -164.2348
  76   2.0000      -6.033993      -164.1933
  77   2.0000      -5.979102      -162.6996
  78   2.0000      -5.977617      -162.6592
  79   2.0000      -5.975361      -162.5979
  80   2.0000      -5.973921      -162.5586
  81   2.0000      -5.968091      -162.4000
  82   2.0000      -5.966638      -162.3605
  83   2.0000      -1.306176       -35.5429
  84   2.0000      -1.300571       -35.3903
  85   2.0000      -1.137422       -30.9508
  86   2.0000      -1.131336       -30.7852
  87   2.0000      -1.098677       -29.8965
  88   2.0000      -1.095107       -29.7994
  89   2.0000      -1.026765       -27.9397
  90   2.0000      -1.016961       -27.6729
  91   2.0000      -1.007814       -27.4240
  92   2.0000      -1.006138       -27.3784
  93   2.0000      -1.001442       -27.2506
  94   2.0000      -0.999641       -27.2016
  95   2.0000      -0.994010       -27.0484
  96   2.0000      -0.993569       -27.0364
  97   2.0000      -0.986830       -26.8530
  98   2.0000      -0.983790       -26.7703
  99   2.0000      -0.975352       -26.5407
 100   2.0000      -0.955745       -26.0071
 101   2.0000      -0.943741       -25.6805
 102   2.0000      -0.937659       -25.5150
 103   2.0000      -0.927643       -25.2425
 104   2.0000      -0.924007       -25.1435
 105   2.0000      -0.906327       -24.6624
 106   2.0000      -0.900615       -24.5070
 107   2.0000      -0.893699       -24.3188
 108   2.0000      -0.891819       -24.2676
 109   2.0000      -0.888934       -24.1891
 110   2.0000      -0.886750       -24.1297
 111   2.0000      -0.883170       -24.0323
 112   2.0000      -0.869994       -23.6737
 113   2.0000      -0.855769       -23.2867
 114   2.0000      -0.845119       -22.9969
 115   2.0000      -0.841609       -22.9013
 116   2.0000      -0.840339       -22.8668
 117   2.0000      -0.834079       -22.6964
 118   2.0000      -0.824163       -22.4266
 119   2.0000      -0.807399       -21.9704
 120   2.0000      -0.794227       -21.6120
 121   2.0000      -0.779126       -21.2011
 122   2.0000      -0.773110       -21.0374
 123   2.0000      -0.771843       -21.0029
 124   2.0000      -0.765408       -20.8278
 125   2.0000      -0.760258       -20.6877
 126   2.0000      -0.757140       -20.6028
 127   2.0000      -0.753893       -20.5145
 128   2.0000      -0.737316       -20.0634
 129   2.0000      -0.727626       -19.7997
 130   2.0000      -0.721172       -19.6241
 131   2.0000      -0.715751       -19.4766
 132   2.0000      -0.708335       -19.2748
 133   2.0000      -0.702355       -19.1120
 134   2.0000      -0.699914       -19.0456
 135   2.0000      -0.694509       -18.8985
 136   2.0000      -0.688179       -18.7263
 137   2.0000      -0.687430       -18.7059
 138   2.0000      -0.681304       -18.5392
 139   2.0000      -0.678259       -18.4564
 140   2.0000      -0.671561       -18.2741
 141   2.0000      -0.659189       -17.9374
 142   2.0000      -0.650466       -17.7001
 143   2.0000      -0.649488       -17.6735
 144   2.0000      -0.645406       -17.5624
 145   2.0000      -0.638615       -17.3776
 146   2.0000      -0.635100       -17.2820
 147   2.0000      -0.633038       -17.2258
 148   2.0000      -0.629362       -17.1258
 149   2.0000      -0.627711       -17.0809
 150   2.0000      -0.617746       -16.8097
 151   2.0000      -0.605542       -16.4776
 152   2.0000      -0.600804       -16.3487
 153   2.0000      -0.598570       -16.2879
 154   2.0000      -0.592345       -16.1185
 155   2.0000      -0.585815       -15.9408
 156   2.0000      -0.580403       -15.7936
 157   2.0000      -0.573023       -15.5927
 158   2.0000      -0.566951       -15.4275
 159   2.0000      -0.565316       -15.3830
 160   2.0000      -0.563776       -15.3411
 161   2.0000      -0.561540       -15.2803
 162   2.0000      -0.558050       -15.1853
 163   2.0000      -0.555490       -15.1157
 164   2.0000      -0.554380       -15.0854
 165   2.0000      -0.550137       -14.9700
 166   2.0000      -0.549365       -14.9490
 167   2.0000      -0.546588       -14.8734
 168   2.0000      -0.543543       -14.7906
 169   2.0000      -0.542168       -14.7532
 170   2.0000      -0.539913       -14.6918
 171   2.0000      -0.538673       -14.6580
 172   2.0000      -0.533882       -14.5277
 173   2.0000      -0.532116       -14.4796
 174   2.0000      -0.531335       -14.4583
 175   2.0000      -0.529727       -14.4146
 176   2.0000      -0.525665       -14.3041
 177   2.0000      -0.523989       -14.2585
 178   2.0000      -0.523128       -14.2350
 179   2.0000      -0.519723       -14.1424
 180   2.0000      -0.519266       -14.1299
 181   2.0000      -0.518040       -14.0966
 182   2.0000      -0.513070       -13.9614
 183   2.0000      -0.509261       -13.8577
 184   2.0000      -0.509090       -13.8530
 185   2.0000      -0.505875       -13.7656
 186   2.0000      -0.503815       -13.7095
 187   2.0000      -0.499967       -13.6048
 188   2.0000      -0.495888       -13.4938
 189   2.0000      -0.494300       -13.4506
 190   2.0000      -0.493646       -13.4328
 191   2.0000      -0.491618       -13.3776
 192   2.0000      -0.488690       -13.2979
 193   2.0000      -0.485413       -13.2088
 194   2.0000      -0.483669       -13.1613
 195   2.0000      -0.480896       -13.0858
 196   2.0000      -0.475421       -12.9369
 197   2.0000      -0.473010       -12.8713
 198   2.0000      -0.471982       -12.8433
 199   2.0000      -0.464268       -12.6334
 200   2.0000      -0.463744       -12.6191
 201   2.0000      -0.457516       -12.4496
 202   2.0000      -0.456998       -12.4355
 203   2.0000      -0.456625       -12.4254
 204   2.0000      -0.455124       -12.3845
 205   2.0000      -0.450777       -12.2663
 206   2.0000      -0.449347       -12.2274
 207   2.0000      -0.445982       -12.1358
 208   2.0000      -0.441995       -12.0273
 209   2.0000      -0.440828       -11.9955
 210   2.0000      -0.440103       -11.9758
 211   2.0000      -0.437514       -11.9054
 212   2.0000      -0.436498       -11.8777
 213   2.0000      -0.435998       -11.8641
 214   2.0000      -0.434043       -11.8109
 215   2.0000      -0.432533       -11.7698
 216   2.0000      -0.429856       -11.6970
 217   2.0000      -0.428570       -11.6620
 218   2.0000      -0.427001       -11.6193
 219   2.0000      -0.425239       -11.5713
 220   2.0000      -0.422923       -11.5083
 221   2.0000      -0.419747       -11.4219
 222   2.0000      -0.417858       -11.3705
 223   2.0000      -0.411615       -11.2006
 224   2.0000      -0.409924       -11.1546
 225   2.0000      -0.407927       -11.1003
 226   2.0000      -0.404345       -11.0028
 227   2.0000      -0.399514       -10.8713
 228   2.0000      -0.397913       -10.8278
 229   2.0000      -0.392650       -10.6845
 230   2.0000      -0.388330       -10.5670
 231   2.0000      -0.386750       -10.5240
 232   2.0000      -0.384469       -10.4619
 233   2.0000      -0.382211       -10.4005
 234   2.0000      -0.378510       -10.2998
 235   2.0000      -0.372239       -10.1291
 236   2.0000      -0.365494        -9.9456
 237   2.0000      -0.347646        -9.4599
 238   2.0000      -0.344307        -9.3691
 239   2.0000      -0.335610        -9.1324
 240   2.0000      -0.334447        -9.1008
 241   2.0000      -0.331239        -9.0135
 242   2.0000      -0.327562        -8.9134
 243   2.0000      -0.325613        -8.8604
 244   2.0000      -0.318630        -8.6704
 245   2.0000      -0.314151        -8.5485
 246   2.0000      -0.308660        -8.3991
 247   2.0000      -0.302958        -8.2439
 248   2.0000      -0.296559        -8.0698
 249   2.0000      -0.292488        -7.9590
 250   2.0000      -0.276374        -7.5205
 251   2.0000      -0.247121        -6.7245
 252   0.0000      -0.107091        -2.9141
 253   0.0000      -0.094810        -2.5799
 254   0.0000      -0.071448        -1.9442
 255   0.0000      -0.058971        -1.6047
 256   0.0000      -0.051616        -1.4045

MULLIKEN ATOMIC CHARGES
-----------------------
   0 C :   -0.096130
   1 C :    0.305836
   2 F :   -0.187606
   3 C :   -0.031693
   4 C :   -0.008049
   5 C :    0.101788
   6 C :    0.101049
   7 C :   -0.083849
   8 C :    0.036486
   9 C :    0.010564
  10 C :   -0.078359
  11 C :    0.138588
  12 O :   -0.137183
  13 C :   -0.123906
  14 C :    0.268375
  15 C :   -0.330903
  16 C :   -0.193420
  17 N :    0.177252
  18 C :   -0.178349
  19 N :    0.158677
  20 C :    0.049645
  21 C :   -0.048962
  22 C :    0.079280
  23 N :   -0.051806
  24 C :   -0.048574
  25 N :   -0.067737
  26 C :    0.060118
  27 C :   -0.086212
  28 S :    0.231723
  29 C :   -0.124666
  30 C :    0.124178
  31 C :    0.092149
  32 C :   -0.012048
  33 C :   -0.060166
  34 S :   -0.022228
  35 C :   -0.099956
  36 C :    0.032628
  37 C :   -0.079042
  38 S :   -0.048098
  39 C :   -0.099186
  40 C :    0.014162
  41 C :   -0.028228
  42 C :    0.070980
  43 C :   -0.015050
  44 C :    0.038364
  45 C :    0.043315
  46 N :   -0.075575
  47 C :   -0.078631
  48 N :   -0.038835
  49 C :    0.038032
  50 C :    0.086742
  51 C :   -0.087026
  52 C :    0.139693
  53 O :   -0.132441
  54 C :   -0.000164
  55 C :   -0.074664
  56 C :    0.096469
  57 C :    0.102128
  58 C :   -0.095974
  59 C :    0.302672
  60 C :   -0.032968
  61 C :   -0.005842
  62 F :   -0.189978
  63 C :   -0.082885
  64 C :    0.044933
  65 C :    0.278664
  66 C :   -0.291048
  67 C :   -0.184312
  68 N :    0.160837
  69 C :   -0.192368
  70 N :    0.157176
  71 H :   -0.000891
  72 H :    0.007472
  73 H :   -0.007230
  74 H :   -0.002441
  75 H :   -0.009172
  76 H :    0.030464
  77 H :    0.010311
  78 H :    0.018731
  79 H :   -0.016072
  80 H :    0.055087
  81 H :    0.051904
  82 H :    0.021214
  83 H :    0.017267
  84 H :    0.017796
  85 H :    0.057703
  86 H :    0.046057
  87 H :    0.024614
  88 H :    0.029681
  89 H :    0.023524
  90 H :   -0.031250
  91 H :   -0.007071
  92 H :   -0.000313
  93 H :    0.009803
  94 H :    0.009438
  95 H :    0.024483
  96 H :   -0.010272
  97 H :   -0.001484
  98 H :    0.005253
  99 H :   -0.008840
 100 H :   -0.004156
Sum of atomic charges:   -0.0000000

LOEWDIN ATOMIC CHARGES
----------------------
   0 C :   -0.040954
   1 C :    0.094694
   2 F :   -0.062548
   3 C :   -0.034338
   4 C :    0.005712
   5 C :   -0.017469
   6 C :    0.004047
   7 C :    0.013484
   8 C :   -0.019040
   9 C :   -0.060989
  10 C :    0.037167
  11 C :    0.083574
  12 O :   -0.138946
  13 C :   -0.085556
  14 C :    0.066600
  15 C :   -0.131679
  16 C :   -0.018655
  17 N :   -0.041614
  18 C :   -0.018635
  19 N :   -0.045313
  20 C :    0.074392
  21 C :   -0.101035
  22 C :    0.078267
  23 N :   -0.070220
  24 C :    0.033875
  25 N :   -0.090901
  26 C :    0.068087
  27 C :   -0.201929
  28 S :    0.535911
  29 C :   -0.161906
  30 C :   -0.045568
  31 C :   -0.021639
  32 C :   -0.017358
  33 C :   -0.166080
  34 S :    0.277177
  35 C :   -0.124261
  36 C :   -0.073465
  37 C :   -0.169574
  38 S :    0.261958
  39 C :   -0.123731
  40 C :   -0.070230
  41 C :   -0.029493
  42 C :   -0.024196
  43 C :   -0.021565
  44 C :   -0.053202
  45 C :    0.057328
  46 N :   -0.058061
  47 C :    0.012527
  48 N :   -0.060308
  49 C :    0.056171
  50 C :    0.057207
  51 C :   -0.057292
  52 C :    0.084838
  53 O :   -0.133077
  54 C :   -0.061502
  55 C :    0.036289
  56 C :   -0.019068
  57 C :    0.004633
  58 C :   -0.042557
  59 C :    0.093701
  60 C :   -0.037208
  61 C :    0.005431
  62 F :   -0.064151
  63 C :    0.010215
  64 C :   -0.014596
  65 C :    0.069856
  66 C :   -0.112152
  67 C :   -0.016848
  68 N :   -0.054011
  69 C :   -0.017280
  70 N :   -0.048725
  71 H :    0.043868
  72 H :    0.043257
  73 H :    0.036572
  74 H :    0.039819
  75 H :    0.040796
  76 H :    0.049358
  77 H :    0.030370
  78 H :    0.028103
  79 H :    0.029396
  80 H :    0.022667
  81 H :    0.021043
  82 H :    0.016236
  83 H :    0.027659
  84 H :    0.022207
  85 H :    0.006096
  86 H :    0.019850
  87 H :    0.025358
  88 H :    0.033223
  89 H :    0.024731
  90 H :    0.025371
  91 H :    0.030098
  92 H :    0.033297
  93 H :    0.027832
  94 H :    0.025572
  95 H :    0.052342
  96 H :    0.040085
  97 H :    0.043302
  98 H :    0.042210
  99 H :    0.035894
 100 H :    0.039171

  Mayer bond orders larger than 0.100000
B(  0-C ,  1-C ) :   1.4418 B(  0-C ,  6-C ) :   1.2022 B(  0-C , 71-H ) :   1.0062
B(  1-C ,  2-F ) :   1.0917 B(  1-C ,  3-C ) :   1.2522 B(  3-C ,  4-C ) :   1.4636
B(  3-C , 72-H ) :   0.9936 B(  4-C ,  5-C ) :   1.2326 B(  4-C , 73-H ) :   0.9969
B(  5-C ,  6-C ) :   1.2512 B(  5-C , 10-C ) :   1.1963 B(  6-C ,  7-C ) :   1.2084
B(  7-C ,  8-C ) :   1.4577 B(  7-C , 74-H ) :   0.9937 B(  8-C ,  9-C ) :   1.2155
B(  8-C , 14-C ) :   1.0021 B(  9-C , 10-C ) :   1.4666 B(  9-C , 11-C ) :   0.9222
B( 10-C , 75-H ) :   1.0153 B( 11-C , 12-O ) :   2.2779 B( 11-C , 13-C ) :   0.9304
B( 13-C , 14-C ) :   1.0135 B( 13-C , 20-C ) :   1.7274 B( 14-C , 15-C ) :   1.6692
B( 15-C , 16-C ) :   1.1593 B( 15-C , 18-C ) :   1.1319 B( 16-C , 17-N ) :   3.0011
B( 18-C , 19-N ) :   2.9864 B( 20-C , 21-C ) :   1.0352 B( 20-C , 76-H ) :   0.9430
B( 21-C , 22-C ) :   1.2938 B( 21-C , 26-C ) :   1.2814 B( 22-C , 23-N ) :   1.5829
B( 22-C , 77-H ) :   0.9887 B( 23-N , 24-C ) :   1.5214 B( 24-C , 25-N ) :   1.5361
B( 24-C , 27-C ) :   1.0890 B( 25-N , 26-C ) :   1.6200 B( 26-C , 78-H ) :   0.9836
B( 27-C , 28-S ) :   1.1635 B( 27-C , 29-C ) :   0.1146 B( 27-C , 31-C ) :   1.3361
B( 28-S , 29-C ) :   1.1791 B( 29-C , 30-C ) :   1.3112 B( 29-C , 42-C ) :   1.1471
B( 30-C , 31-C ) :   1.2208 B( 30-C , 41-C ) :   1.1845 B( 31-C , 32-C ) :   1.2285
B( 32-C , 33-C ) :   1.5019 B( 32-C , 79-H ) :   0.9838 B( 33-C , 34-S ) :   1.0305
B( 33-C , 37-C ) :   1.2296 B( 34-S , 35-C ) :   0.9684 B( 35-C , 36-C ) :   1.0723
B( 35-C , 80-H ) :   0.9531 B( 35-C , 81-H ) :   0.9562 B( 36-C , 82-H ) :   0.9680
B( 36-C , 83-H ) :   0.9603 B( 36-C , 84-H ) :   0.9705 B( 37-C , 38-S ) :   1.0149
B( 37-C , 41-C ) :   1.5492 B( 38-S , 39-C ) :   0.9790 B( 39-C , 40-C ) :   1.0875
B( 39-C , 85-H ) :   0.9370 B( 39-C , 86-H ) :   0.9527 B( 40-C , 87-H ) :   0.9727
B( 40-C , 88-H ) :   0.9658 B( 40-C , 89-H ) :   0.9696 B( 41-C , 90-H ) :   0.9873
B( 42-C , 43-C ) :   1.6706 B( 42-C , 91-H ) :   0.9446 B( 43-C , 44-C ) :   1.0972
B( 43-C , 92-H ) :   0.9789 B( 44-C , 45-C ) :   1.2900 B( 44-C , 49-C ) :   1.2965
B( 45-C , 46-N ) :   1.5627 B( 45-C , 93-H ) :   0.9880 B( 46-N , 47-C ) :   1.4641
B( 47-C , 48-N ) :   1.5064 B( 47-C , 50-C ) :   1.0292 B( 48-N , 49-C ) :   1.5902
B( 49-C , 94-H ) :   0.9807 B( 50-C , 51-C ) :   1.6807 B( 50-C , 95-H ) :   0.9518
B( 51-C , 52-C ) :   0.9218 B( 51-C , 65-C ) :   1.0069 B( 52-C , 53-O ) :   2.2847
B( 52-C , 54-C ) :   0.9199 B( 54-C , 55-C ) :   1.4689 B( 54-C , 64-C ) :   1.2141
B( 55-C , 56-C ) :   1.1987 B( 55-C , 96-H ) :   1.0143 B( 56-C , 57-C ) :   1.2524
B( 56-C , 61-C ) :   1.2339 B( 57-C , 58-C ) :   1.2009 B( 57-C , 63-C ) :   1.2085
B( 58-C , 59-C ) :   1.4436 B( 58-C , 97-H ) :   1.0061 B( 59-C , 60-C ) :   1.2512
B( 59-C , 62-F ) :   1.0887 B( 60-C , 61-C ) :   1.4634 B( 60-C , 98-H ) :   0.9937
B( 61-C , 99-H ) :   0.9967 B( 63-C , 64-C ) :   1.4585 B( 63-C ,100-H ) :   0.9942
B( 64-C , 65-C ) :   1.0010 B( 65-C , 66-C ) :   1.7037 B( 66-C , 67-C ) :   1.1522
B( 66-C , 69-C ) :   1.1381 B( 67-C , 68-N ) :   2.9840 B( 69-C , 70-N ) :   2.9880

-----------------------------------------------------------------------------
         ABSORPTION SPECTRUM VIA TRANSITION ELECTRIC DIPOLE MOMENTS
-----------------------------------------------------------------------------
State   Energy  Wavelength   fosc         T2         TX        TY        TZ
        (cm-1)    (nm)                  (au**2)     (au)      (au)      (au)
-----------------------------------------------------------------------------
   0   16014.3    624.4   1.254403174  25.78721  -4.22865   1.60988   2.30522
   1   19964.4    500.9   0.294885563   4.86264   0.47291  -0.66281  -2.04931
   2   23509.8    425.4   0.073697453   1.03200   0.49296   0.45556   0.76253
   3   24388.4    410.0   0.146690952   1.98014   0.83634   0.09632  -1.12756
   4   25470.0    392.6   0.009583052   0.12387   0.06703   0.24813  -0.24043
   5   26502.3    377.3   0.035704417   0.44352   0.33523  -0.57342   0.04829
   6   26734.0    374.1   0.298411083   3.67474  -1.52224   0.49996   1.05241
   7   27134.3    368.5   0.033539575   0.40693   0.58839   0.06748  -0.23699
   8   27305.2    366.2   0.047307851   0.57038  -0.63741   0.32896  -0.23638
   9   27781.9    359.9   0.028201983   0.33419  -0.31079  -0.30382   0.38117
  10   28237.7    354.1   0.018391842   0.21442   0.28597  -0.05779   0.35959
  11   28649.1    349.1   0.077683089   0.89267  -0.24303   0.22367   0.88520
  12   29059.7    344.1   0.148485596   1.68216  -1.25921  -0.24453   0.19175
  13   29656.9    337.2   0.022102264   0.24535   0.47559   0.13310   0.03812
  14   29703.3    336.7   0.024328168   0.26964   0.20075   0.09373  -0.46963
  15   30315.2    329.9   0.055689928   0.60477  -0.66043  -0.33984   0.23048
  16   30654.7    326.2   0.229100958   2.46040  -0.42119   0.32681  -1.47519
  17   31460.5    317.9   0.008554862   0.08952   0.15267   0.23826   0.09718
  18   31763.1    314.8   0.219973327   2.27993   1.20853  -0.84470  -0.32539
  19   32004.8    312.5   0.022249980   0.22887  -0.01394   0.15811   0.45131
  20   32432.7    308.3   0.025313465   0.25695   0.09461   0.06429  -0.49383
  21   33266.3    300.6   0.004793709   0.04744  -0.04420   0.01373   0.21283
  22   33590.3    297.7   0.637129716   6.24438   2.40955   0.42262  -0.50976
  23   33741.1    296.4   0.184393018   1.79912   1.14858   0.10569   0.68463
  24   34196.9    292.4   0.326930100   3.14734   1.52660   0.14150  -0.89265
  25   34329.1    291.3   0.058811647   0.56400  -0.33765  -0.28830  -0.60570
  26   34604.1    289.0   0.046766115   0.44492  -0.06057   0.04676   0.66262
  27   34825.0    287.1   0.759942737   7.18398   2.67512  -0.12760   0.10680
  28   35062.6    285.2   0.052765333   0.49543  -0.54038  -0.02083  -0.45053
  29   35270.7    283.5   0.068797035   0.64214  -0.72640   0.09357   0.32517
  30   35445.5    282.1   0.050877100   0.47254  -0.60395   0.03487   0.32644
  31   35724.8    279.9   0.042122217   0.38817  -0.55664   0.27851   0.02747
  32   36453.0    274.3   0.038141468   0.34446  -0.31154   0.41160   0.27925
  33   36609.2    273.2   0.029609769   0.26627   0.08610   0.08443   0.50172
  34   36752.7    272.1   0.045084886   0.40385  -0.41289  -0.09180   0.47428
  35   37143.6    269.2   0.004302370   0.03813  -0.18112  -0.03171  -0.06575
  36   37519.8    266.5   0.036040940   0.31624  -0.41002  -0.08650   0.37501
  37   37918.8    263.7   0.426968639   3.70695  -1.73907  -0.27149   0.78031
  38   38164.7    262.0   0.051957732   0.44819   0.66730  -0.04220  -0.03339
  39   38533.6    259.5   0.018565792   0.15862  -0.34959  -0.14690   0.12175
  40   38763.1    258.0   0.021323411   0.18110   0.10306  -0.10083   0.40039
  41   38801.2    257.7   0.074212362   0.62966  -0.43298  -0.29305   0.59692
  42   39126.7    255.6   0.061364750   0.51632  -0.65539  -0.01458  -0.29425
  43   39360.0    254.1   0.018319700   0.15323  -0.16917  -0.26805   0.22969
  44   39475.8    253.3   0.102196747   0.85228  -0.78038   0.43975  -0.22339
  45   39623.6    252.4   0.056968428   0.47332   0.07756  -0.59940   0.32867
  46   39883.0    250.7   0.120387511   0.99373   0.04721   0.09370  -0.99132
  47   39904.1    250.6   0.081646590   0.67359  -0.69907   0.10547  -0.41684

FINAL SINGLE POINT ENERGY     -4130.619196560124

DIPOLE MOMENT
-------------
                                X             Y             Z
Electronic contribution:    -33.63461     -13.91418     -38.69973
Nuclear contribution   :     32.52674      14.64265      39.35708
                        -----------------------------------------
Total Dipole Moment    :     -1.10787       0.72847       0.65735
                        -----------------------------------------
Magnitude (a.u.)       :      1.47992
Magnitude (Debye)      :      3.76166

Rotational constants in cm-1:     0.001415     0.000243     0.000215
Rotational constants in MHz :    42.433930     7.292241     6.447056

                             ****ORCA TERMINATED NORMALLY****
TOTAL RUN TIME: 0 days 0 hours 9 minutes 19 seconds 591 msec
