                         Program Version 4.2.0 -  RELEASE  -
|  1> # ORCA input file
|  2> # SCF done       -208.719111147532          0.000432162741
|  3> ! CAM-B3LYP def2-SVP def2/J RIJCOSX Grid4 TightSCF
|  4> %maxcore 5000
|  5> %tddft
|  6>     Mode sTDDFT
|  7>     Ethresh 5.0
|  8>     maxcore 5000
|  9> end
| 10>
| 11> %pal
| 12>   nprocs 6
| 13>   end
| 14> * xyz 0 1
| 15>    C        9.94677        -4.27220        -9.55870
| 16>    C        9.59701        -5.25873       -10.43849
| 17>    F       10.49555        -5.68988       -11.34013
| 18>    C        8.32517        -5.84872       -10.43982
| 19>    C        7.39839        -5.42524        -9.52863
| 20>    C        7.70608        -4.41276        -8.59626
| 21>    C        9.00441        -3.82263        -8.61349
| 22>    C        9.33361        -2.79942        -7.69434
| 23>    C        8.39582        -2.38830        -6.78645
| 24>    C        7.10562        -2.99447        -6.76064
| 25>    C        6.75877        -3.97688        -7.64350
| 26>    C        6.30676        -2.40838        -5.66776
| 27>    O        5.15687        -2.62980        -5.37926
| 28>    C        7.26291        -1.52540        -4.92836
| 29>    C        8.43713        -1.35174        -5.76079
| 30>    C        9.26444        -0.26159        -5.76100
| 31>    C        9.06888         0.85316        -4.91797
| 32>    N        8.91113         1.79046        -4.27504
| 33>    C       10.33548        -0.09484        -6.66307
| 34>    N       11.22740         0.07066        -7.36545
| 35>    C        6.99021        -1.16726        -3.64923
| 36>    C        7.87315        -0.73077        -2.63024
| 37>    C        7.51647        -0.17152        -1.42476
| 38>    C        6.26363         0.27771        -0.78616
| 39>    O        5.12687         0.21014        -1.17409
| 40>    N        6.66735         0.80463         0.43442
| 41>    C        5.74781         1.37240         1.38972
| 42>    C        8.03571         0.72722         0.66359
| 43>    O        8.58556         1.10319         1.66811
| 44>    C        8.58652         0.09448        -0.54805
| 45>    C        9.81861        -0.27724        -1.04690
| 46>    S        9.61594        -0.96773        -2.64199
| 47>    C       11.10103        -0.17685        -0.45518
| 48>    C       11.39465         0.13694         0.86249
| 49>    C       12.76712         0.12822         1.09581
| 50>    C       13.52081        -0.16997        -0.05723
| 51>    S       12.54251        -0.46916        -1.41825
| 52>    C       14.89935        -0.13847         0.27349
| 53>    C       15.01403         0.16279         1.64563
| 54>    C       13.68230         0.32974         2.20853
| 55>    C       13.37303         0.58117         3.51151
| 56>    C       12.04815         0.67719         3.99240
| 57>    N       10.98745         0.73486         4.42168
| 58>    C       14.37708         0.72739         4.49390
| 59>    N       15.19239         0.83797         5.29222
| 60>    C       16.33611         0.20635         2.07128
| 61>    C       17.21853        -0.04632         1.03144
| 62>    S       16.40646        -0.34211        -0.49793
| 63>    C       18.62931        -0.07899         1.11439
| 64>    C       19.55561        -0.23231         0.10713
| 65>    C       19.54069        -0.39710        -1.34944
| 66>    O       18.60199        -0.48227        -2.10635
| 67>    N       20.87714        -0.46403        -1.71418
| 68>    C       21.31400        -0.61177        -3.08069
| 69>    C       21.76230        -0.38597        -0.64011
| 70>    O       22.95941        -0.46075        -0.72440
| 71>    C       20.89459        -0.22794         0.54333
| 72>    C       21.05520        -0.04583         1.89637
| 73>    S       19.46480         0.07935         2.64535
| 74>    C       22.27516        -0.06788         2.62107
| 75>    C       22.53633         0.40287         3.86426
| 76>    C       23.71144        -0.12592         4.62730
| 77>    O       24.64290        -0.74601         4.17707
| 78>    C       23.42894         0.21205         6.03418
| 79>    C       24.10783        -0.16309         7.15839
| 80>    C       23.63459         0.25674         8.42110
| 81>    C       22.45579         1.05636         8.49706
| 82>    C       21.98485         1.46117         9.76114
| 83>    C       22.66758         1.08363        10.88413
| 84>    C       23.82941         0.30050        10.83012
| 85>    C       24.29978        -0.10271         9.61171
| 86>    F       22.22070         1.46901        12.09124
| 87>    C       21.77671         1.43743         7.31650
| 88>    C       22.26114         1.02726         6.10402
| 89>    C       21.80046         1.28971         4.74534
| 90>    C       21.04154         2.35837         4.35292
| 91>    C       20.85064         2.71590         3.00138
| 92>    N       20.70509         3.05283         1.91406
| 93>    C       20.45632         3.27264         5.25428
| 94>    N       19.96071         4.03719         5.95098
| 95>    H       10.93378        -3.83792        -9.58956
| 96>    H        8.10655        -6.62270       -11.15826
| 97>    H        6.41248        -5.86455        -9.51003
| 98>    H       10.32441        -2.37369        -7.72133
| 99>    H        5.77355        -4.41744        -7.61427
|100>    H        5.96229        -1.30327        -3.32335
|101>    H        4.77541         0.90152         1.25574
|102>    H        5.65122         2.44860         1.23389
|103>    H        6.12959         1.18994         2.39311
|104>    H       10.63413         0.36528         1.58897
|105>    H       16.66621         0.41467         3.07338
|106>    H       20.60981        -1.25169        -3.61053
|107>    H       22.30803        -1.05565        -3.07632
|108>    H       21.35503         0.36049        -3.57555
|109>    H       23.08671        -0.59567         2.12734
|110>    H       24.99516        -0.77376         7.08500
|111>    H       21.09592         2.06717         9.84022
|112>    H       24.32532         0.03355        11.74982
|113>    H       25.19220        -0.70646         9.54484
|114>    H       20.88162         2.03369         7.39943
|115> *
|116>
|117>                          ****END OF INPUT****

CARTESIAN COORDINATES (ANGSTROEM)
---------------------------------
  C      9.946770   -4.272200   -9.558700
  C      9.597010   -5.258730  -10.438490
  F     10.495550   -5.689880  -11.340130
  C      8.325170   -5.848720  -10.439820
  C      7.398390   -5.425240   -9.528630
  C      7.706080   -4.412760   -8.596260
  C      9.004410   -3.822630   -8.613490
  C      9.333610   -2.799420   -7.694340
  C      8.395820   -2.388300   -6.786450
  C      7.105620   -2.994470   -6.760640
  C      6.758770   -3.976880   -7.643500
  C      6.306760   -2.408380   -5.667760
  O      5.156870   -2.629800   -5.379260
  C      7.262910   -1.525400   -4.928360
  C      8.437130   -1.351740   -5.760790
  C      9.264440   -0.261590   -5.761000
  C      9.068880    0.853160   -4.917970
  N      8.911130    1.790460   -4.275040
  C     10.335480   -0.094840   -6.663070
  N     11.227400    0.070660   -7.365450
  C      6.990210   -1.167260   -3.649230
  C      7.873150   -0.730770   -2.630240
  C      7.516470   -0.171520   -1.424760
  C      6.263630    0.277710   -0.786160
  O      5.126870    0.210140   -1.174090
  N      6.667350    0.804630    0.434420
  C      5.747810    1.372400    1.389720
  C      8.035710    0.727220    0.663590
  O      8.585560    1.103190    1.668110
  C      8.586520    0.094480   -0.548050
  C      9.818610   -0.277240   -1.046900
  S      9.615940   -0.967730   -2.641990
  C     11.101030   -0.176850   -0.455180
  C     11.394650    0.136940    0.862490
  C     12.767120    0.128220    1.095810
  C     13.520810   -0.169970   -0.057230
  S     12.542510   -0.469160   -1.418250
  C     14.899350   -0.138470    0.273490
  C     15.014030    0.162790    1.645630
  C     13.682300    0.329740    2.208530
  C     13.373030    0.581170    3.511510
  C     12.048150    0.677190    3.992400
  N     10.987450    0.734860    4.421680
  C     14.377080    0.727390    4.493900
  N     15.192390    0.837970    5.292220
  C     16.336110    0.206350    2.071280
  C     17.218530   -0.046320    1.031440
  S     16.406460   -0.342110   -0.497930
  C     18.629310   -0.078990    1.114390
  C     19.555610   -0.232310    0.107130
  C     19.540690   -0.397100   -1.349440
  O     18.601990   -0.482270   -2.106350
  N     20.877140   -0.464030   -1.714180
  C     21.314000   -0.611770   -3.080690
  C     21.762300   -0.385970   -0.640110
  O     22.959410   -0.460750   -0.724400
  C     20.894590   -0.227940    0.543330
  C     21.055200   -0.045830    1.896370
  S     19.464800    0.079350    2.645350
  C     22.275160   -0.067880    2.621070
  C     22.536330    0.402870    3.864260
  C     23.711440   -0.125920    4.627300
  O     24.642900   -0.746010    4.177070
  C     23.428940    0.212050    6.034180
  C     24.107830   -0.163090    7.158390
  C     23.634590    0.256740    8.421100
  C     22.455790    1.056360    8.497060
  C     21.984850    1.461170    9.761140
  C     22.667580    1.083630   10.884130
  C     23.829410    0.300500   10.830120
  C     24.299780   -0.102710    9.611710
  F     22.220700    1.469010   12.091240
  C     21.776710    1.437430    7.316500
  C     22.261140    1.027260    6.104020
  C     21.800460    1.289710    4.745340
  C     21.041540    2.358370    4.352920
  C     20.850640    2.715900    3.001380
  N     20.705090    3.052830    1.914060
  C     20.456320    3.272640    5.254280
  N     19.960710    4.037190    5.950980
  H     10.933780   -3.837920   -9.589560
  H      8.106550   -6.622700  -11.158260
  H      6.412480   -5.864550   -9.510030
  H     10.324410   -2.373690   -7.721330
  H      5.773550   -4.417440   -7.614270
  H      5.962290   -1.303270   -3.323350
  H      4.775410    0.901520    1.255740
  H      5.651220    2.448600    1.233890
  H      6.129590    1.189940    2.393110
  H     10.634130    0.365280    1.588970
  H     16.666210    0.414670    3.073380
  H     20.609810   -1.251690   -3.610530
  H     22.308030   -1.055650   -3.076320
  H     21.355030    0.360490   -3.575550
  H     23.086710   -0.595670    2.127340
  H     24.995160   -0.773760    7.085000
  H     21.095920    2.067170    9.840220
  H     24.325320    0.033550   11.749820
  H     25.192200   -0.706460    9.544840
  H     20.881620    2.033690    7.399430

 Total Charge           Charge          ....    0
 Multiplicity           Mult            ....    1
 Number of Electrons    NEL             ....  566
 Basis Dimension        Dim             .... 1236

ORBITAL ENERGIES
----------------

  NO   OCC          E(Eh)            E(eV)
   0   2.0000     -89.002648     -2421.8852
   1   2.0000     -88.998080     -2421.7609
   2   2.0000     -88.993680     -2421.6411
   3   2.0000     -88.993440     -2421.6346
   4   2.0000     -24.791858      -674.6207
   5   2.0000     -24.789756      -674.5636
   6   2.0000     -19.226033      -523.1670
   7   2.0000     -19.224389      -523.1222
   8   2.0000     -19.222623      -523.0742
   9   2.0000     -19.222435      -523.0690
  10   2.0000     -19.222400      -523.0681
  11   2.0000     -19.222201      -523.0627
  12   2.0000     -14.469361      -393.7313
  13   2.0000     -14.466559      -393.6551
  14   2.0000     -14.435841      -392.8192
  15   2.0000     -14.431434      -392.6993
  16   2.0000     -14.425685      -392.5428
  17   2.0000     -14.423230      -392.4760
  18   2.0000     -14.423117      -392.4730
  19   2.0000     -14.422946      -392.4683
  20   2.0000     -10.408398      -283.2269
  21   2.0000     -10.407422      -283.2004
  22   2.0000     -10.405816      -283.1567
  23   2.0000     -10.405205      -283.1400
  24   2.0000     -10.375949      -282.3439
  25   2.0000     -10.374261      -282.2980
  26   2.0000     -10.374220      -282.2969
  27   2.0000     -10.374171      -282.2955
  28   2.0000     -10.371521      -282.2234
  29   2.0000     -10.357994      -281.8554
  30   2.0000     -10.357973      -281.8548
  31   2.0000     -10.357211      -281.8340
  32   2.0000     -10.355634      -281.7911
  33   2.0000     -10.354821      -281.7690
  34   2.0000     -10.351731      -281.6849
  35   2.0000     -10.350600      -281.6542
  36   2.0000     -10.346236      -281.5354
  37   2.0000     -10.345299      -281.5099
  38   2.0000     -10.344182      -281.4795
  39   2.0000     -10.340353      -281.3753
  40   2.0000     -10.339974      -281.3650
  41   2.0000     -10.339573      -281.3541
  42   2.0000     -10.335800      -281.2514
  43   2.0000     -10.330296      -281.1017
  44   2.0000     -10.330279      -281.1012
  45   2.0000     -10.330259      -281.1006
  46   2.0000     -10.327416      -281.0233
  47   2.0000     -10.324832      -280.9530
  48   2.0000     -10.324610      -280.9469
  49   2.0000     -10.324457      -280.9427
  50   2.0000     -10.316500      -280.7262
  51   2.0000     -10.314876      -280.6820
  52   2.0000     -10.314653      -280.6760
  53   2.0000     -10.314583      -280.6741
  54   2.0000     -10.313910      -280.6558
  55   2.0000     -10.313876      -280.6548
  56   2.0000     -10.313352      -280.6406
  57   2.0000     -10.313059      -280.6326
  58   2.0000     -10.311891      -280.6008
  59   2.0000     -10.311741      -280.5967
  60   2.0000     -10.311595      -280.5928
  61   2.0000     -10.310679      -280.5678
  62   2.0000     -10.310563      -280.5647
  63   2.0000     -10.308243      -280.5016
  64   2.0000     -10.308147      -280.4989
  65   2.0000     -10.307830      -280.4903
  66   2.0000     -10.307197      -280.4731
  67   2.0000     -10.306864      -280.4640
  68   2.0000     -10.306742      -280.4607
  69   2.0000     -10.306298      -280.4486
  70   2.0000     -10.306228      -280.4467
  71   2.0000     -10.304657      -280.4040
  72   2.0000     -10.303780      -280.3801
  73   2.0000     -10.302261      -280.3388
  74   2.0000     -10.300598      -280.2935
  75   2.0000     -10.298926      -280.2480
  76   2.0000     -10.297931      -280.2209
  77   2.0000     -10.296934      -280.1938
  78   2.0000     -10.295263      -280.1484
  79   2.0000     -10.293316      -280.0954
  80   2.0000      -8.097433      -220.3423
  81   2.0000      -8.091612      -220.1840
  82   2.0000      -8.088413      -220.0969
  83   2.0000      -8.087821      -220.0808
  84   2.0000      -6.066676      -165.0826
  85   2.0000      -6.062437      -164.9673
  86   2.0000      -6.060941      -164.9266
  87   2.0000      -6.059798      -164.8955
  88   2.0000      -6.057986      -164.8462
  89   2.0000      -6.057438      -164.8313
  90   2.0000      -6.056463      -164.8047
  91   2.0000      -6.053967      -164.7368
  92   2.0000      -6.053577      -164.7262
  93   2.0000      -6.053044      -164.7117
  94   2.0000      -6.050234      -164.6352
  95   2.0000      -6.049565      -164.6170
  96   2.0000      -1.307145       -35.5692
  97   2.0000      -1.305225       -35.5170
  98   2.0000      -1.171663       -31.8826
  99   2.0000      -1.169357       -31.8198
 100   2.0000      -1.148581       -31.2545
 101   2.0000      -1.146117       -31.1874
 102   2.0000      -1.138715       -30.9860
 103   2.0000      -1.138604       -30.9830
 104   2.0000      -1.063816       -28.9479
 105   2.0000      -1.061418       -28.8826
 106   2.0000      -1.054734       -28.7008
 107   2.0000      -1.030853       -28.0509
 108   2.0000      -1.029731       -28.0204
 109   2.0000      -1.026976       -27.9454
 110   2.0000      -1.023566       -27.8526
 111   2.0000      -1.016971       -27.6732
 112   2.0000      -1.010371       -27.4936
 113   2.0000      -1.008528       -27.4434
 114   2.0000      -1.007222       -27.4079
 115   2.0000      -1.003515       -27.3070
 116   2.0000      -1.001471       -27.2514
 117   2.0000      -0.998939       -27.1825
 118   2.0000      -0.984121       -26.7793
 119   2.0000      -0.982900       -26.7461
 120   2.0000      -0.966436       -26.2981
 121   2.0000      -0.938229       -25.5305
 122   2.0000      -0.937005       -25.4972
 123   2.0000      -0.928826       -25.2747
 124   2.0000      -0.919898       -25.0317
 125   2.0000      -0.915508       -24.9123
 126   2.0000      -0.906376       -24.6638
 127   2.0000      -0.901821       -24.5398
 128   2.0000      -0.897817       -24.4308
 129   2.0000      -0.894133       -24.3306
 130   2.0000      -0.891241       -24.2519
 131   2.0000      -0.888589       -24.1797
 132   2.0000      -0.877463       -23.8770
 133   2.0000      -0.866536       -23.5796
 134   2.0000      -0.860220       -23.4078
 135   2.0000      -0.849258       -23.1095
 136   2.0000      -0.841239       -22.8913
 137   2.0000      -0.839738       -22.8504
 138   2.0000      -0.818816       -22.2811
 139   2.0000      -0.812164       -22.1001
 140   2.0000      -0.809307       -22.0224
 141   2.0000      -0.804634       -21.8952
 142   2.0000      -0.794042       -21.6070
 143   2.0000      -0.785716       -21.3804
 144   2.0000      -0.770833       -20.9754
 145   2.0000      -0.770474       -20.9657
 146   2.0000      -0.769514       -20.9395
 147   2.0000      -0.754536       -20.5320
 148   2.0000      -0.748723       -20.3738
 149   2.0000      -0.734374       -19.9833
 150   2.0000      -0.726225       -19.7616
 151   2.0000      -0.717866       -19.5341
 152   2.0000      -0.716424       -19.4949
 153   2.0000      -0.715059       -19.4577
 154   2.0000      -0.709440       -19.3048
 155   2.0000      -0.704611       -19.1734
 156   2.0000      -0.698899       -19.0180
 157   2.0000      -0.695300       -18.9201
 158   2.0000      -0.693828       -18.8800
 159   2.0000      -0.689348       -18.7581
 160   2.0000      -0.688347       -18.7309
 161   2.0000      -0.681789       -18.5524
 162   2.0000      -0.672323       -18.2948
 163   2.0000      -0.667061       -18.1517
 164   2.0000      -0.648197       -17.6383
 165   2.0000      -0.644528       -17.5385
 166   2.0000      -0.639757       -17.4087
 167   2.0000      -0.638253       -17.3678
 168   2.0000      -0.636042       -17.3076
 169   2.0000      -0.634697       -17.2710
 170   2.0000      -0.630113       -17.1462
 171   2.0000      -0.624794       -17.0015
 172   2.0000      -0.612862       -16.6768
 173   2.0000      -0.611652       -16.6439
 174   2.0000      -0.610270       -16.6063
 175   2.0000      -0.605661       -16.4809
 176   2.0000      -0.591431       -16.0937
 177   2.0000      -0.588945       -16.0260
 178   2.0000      -0.587733       -15.9930
 179   2.0000      -0.583038       -15.8653
 180   2.0000      -0.578897       -15.7526
 181   2.0000      -0.577549       -15.7159
 182   2.0000      -0.574685       -15.6380
 183   2.0000      -0.572607       -15.5814
 184   2.0000      -0.568856       -15.4794
 185   2.0000      -0.566084       -15.4039
 186   2.0000      -0.564436       -15.3591
 187   2.0000      -0.562443       -15.3048
 188   2.0000      -0.559795       -15.2328
 189   2.0000      -0.557098       -15.1594
 190   2.0000      -0.556551       -15.1445
 191   2.0000      -0.554861       -15.0985
 192   2.0000      -0.553106       -15.0508
 193   2.0000      -0.549796       -14.9607
 194   2.0000      -0.545272       -14.8376
 195   2.0000      -0.541755       -14.7419
 196   2.0000      -0.541445       -14.7335
 197   2.0000      -0.537193       -14.6178
 198   2.0000      -0.534747       -14.5512
 199   2.0000      -0.531216       -14.4551
 200   2.0000      -0.530413       -14.4333
 201   2.0000      -0.530037       -14.4230
 202   2.0000      -0.529680       -14.4133
 203   2.0000      -0.528524       -14.3819
 204   2.0000      -0.527148       -14.3444
 205   2.0000      -0.526259       -14.3202
 206   2.0000      -0.524153       -14.2629
 207   2.0000      -0.521605       -14.1936
 208   2.0000      -0.514967       -14.0130
 209   2.0000      -0.512593       -13.9484
 210   2.0000      -0.510027       -13.8785
 211   2.0000      -0.507881       -13.8201
 212   2.0000      -0.506980       -13.7956
 213   2.0000      -0.503257       -13.6943
 214   2.0000      -0.502821       -13.6824
 215   2.0000      -0.499259       -13.5855
 216   2.0000      -0.497900       -13.5485
 217   2.0000      -0.497018       -13.5245
 218   2.0000      -0.494718       -13.4620
 219   2.0000      -0.493829       -13.4378
 220   2.0000      -0.491069       -13.3627
 221   2.0000      -0.489331       -13.3154
 222   2.0000      -0.488500       -13.2928
 223   2.0000      -0.488098       -13.2818
 224   2.0000      -0.485605       -13.2140
 225   2.0000      -0.482903       -13.1404
 226   2.0000      -0.480314       -13.0700
 227   2.0000      -0.480268       -13.0687
 228   2.0000      -0.476338       -12.9618
 229   2.0000      -0.474175       -12.9029
 230   2.0000      -0.472115       -12.8469
 231   2.0000      -0.469045       -12.7634
 232   2.0000      -0.464969       -12.6525
 233   2.0000      -0.463760       -12.6195
 234   2.0000      -0.462524       -12.5859
 235   2.0000      -0.460773       -12.5383
 236   2.0000      -0.457734       -12.4556
 237   2.0000      -0.456856       -12.4317
 238   2.0000      -0.456008       -12.4086
 239   2.0000      -0.451495       -12.2858
 240   2.0000      -0.449851       -12.2411
 241   2.0000      -0.446408       -12.1474
 242   2.0000      -0.445912       -12.1339
 243   2.0000      -0.444354       -12.0915
 244   2.0000      -0.443632       -12.0719
 245   2.0000      -0.442983       -12.0542
 246   2.0000      -0.440913       -11.9979
 247   2.0000      -0.440209       -11.9787
 248   2.0000      -0.435949       -11.8628
 249   2.0000      -0.435026       -11.8377
 250   2.0000      -0.434715       -11.8292
 251   2.0000      -0.432929       -11.7806
 252   2.0000      -0.429811       -11.6958
 253   2.0000      -0.428493       -11.6599
 254   2.0000      -0.426508       -11.6059
 255   2.0000      -0.422571       -11.4987
 256   2.0000      -0.417354       -11.3568
 257   2.0000      -0.409619       -11.1463
 258   2.0000      -0.408411       -11.1134
 259   2.0000      -0.394153       -10.7254
 260   2.0000      -0.388435       -10.5699
 261   2.0000      -0.386012       -10.5039
 262   2.0000      -0.380568       -10.3558
 263   2.0000      -0.376634       -10.2487
 264   2.0000      -0.374475       -10.1900
 265   2.0000      -0.366660        -9.9773
 266   2.0000      -0.364390        -9.9156
 267   2.0000      -0.359875        -9.7927
 268   2.0000      -0.359786        -9.7903
 269   2.0000      -0.356767        -9.7081
 270   2.0000      -0.356331        -9.6963
 271   2.0000      -0.345501        -9.4015
 272   2.0000      -0.344419        -9.3721
 273   2.0000      -0.343525        -9.3478
 274   2.0000      -0.341823        -9.3015
 275   2.0000      -0.331764        -9.0278
 276   2.0000      -0.328625        -8.9423
 277   2.0000      -0.321280        -8.7425
 278   2.0000      -0.319116        -8.6836
 279   2.0000      -0.307765        -8.3747
 280   2.0000      -0.304212        -8.2780
 281   2.0000      -0.298549        -8.1239
 282   2.0000      -0.264093        -7.1863
 283   0.0000      -0.120827        -3.2879
 284   0.0000      -0.106882        -2.9084
 285   0.0000      -0.104214        -2.8358
 286   0.0000      -0.068895        -1.8747
 287   0.0000      -0.063997        -1.7414

MULLIKEN ATOMIC CHARGES
-----------------------
   0 C :   -0.093634
   1 C :    0.304159
   2 F :   -0.187878
   3 C :   -0.032094
   4 C :   -0.005865
   5 C :    0.097592
   6 C :    0.099830
   7 C :   -0.079768
   8 C :    0.042686
   9 C :    0.006145
  10 C :   -0.073894
  11 C :    0.142438
  12 O :   -0.128207
  13 C :   -0.120092
  14 C :    0.239889
  15 C :   -0.313666
  16 C :   -0.208627
  17 N :    0.181100
  18 C :   -0.173028
  19 N :    0.159612
  20 C :    0.029271
  21 C :   -0.166369
  22 C :    0.062552
  23 C :    0.193530
  24 O :   -0.147358
  25 N :   -0.311544
  26 C :    0.134346
  27 C :    0.197722
  28 O :   -0.155831
  29 C :   -0.002123
  30 C :   -0.086350
  31 S :    0.164852
  32 C :   -0.084291
  33 C :   -0.037085
  34 C :    0.011851
  35 C :   -0.092920
  36 S :    0.207379
  37 C :   -0.088582
  38 C :    0.026322
  39 C :    0.307294
  40 C :   -0.290417
  41 C :   -0.195901
  42 N :    0.197936
  43 C :   -0.192025
  44 N :    0.176237
  45 C :   -0.065436
  46 C :   -0.081175
  47 S :    0.253333
  48 C :   -0.074245
  49 C :   -0.026754
  50 C :    0.194298
  51 O :   -0.176585
  52 N :   -0.314614
  53 C :    0.136949
  54 C :    0.193218
  55 O :   -0.144376
  56 C :    0.076125
  57 C :   -0.182400
  58 S :    0.180501
  59 C :    0.034240
  60 C :   -0.122670
  61 C :    0.143836
  62 O :   -0.129789
  63 C :    0.006658
  64 C :   -0.073606
  65 C :    0.096624
  66 C :    0.098433
  67 C :   -0.094769
  68 C :    0.303294
  69 C :   -0.028968
  70 C :   -0.006698
  71 F :   -0.186804
  72 C :   -0.079165
  73 C :    0.042657
  74 C :    0.243472
  75 C :   -0.315191
  76 C :   -0.199357
  77 N :    0.177052
  78 C :   -0.178397
  79 N :    0.169004
  80 H :   -0.002364
  81 H :    0.006525
  82 H :   -0.006756
  83 H :   -0.003638
  84 H :   -0.007955
  85 H :    0.046088
  86 H :    0.049678
  87 H :    0.046609
  88 H :    0.052915
  89 H :    0.031916
  90 H :    0.017035
  91 H :    0.046889
  92 H :    0.051781
  93 H :    0.046496
  94 H :    0.046785
  95 H :   -0.008050
  96 H :    0.001300
  97 H :    0.006129
  98 H :   -0.006678
  99 H :    0.001399
Sum of atomic charges:   -0.0000000

LOEWDIN ATOMIC CHARGES
----------------------
   0 C :   -0.041874
   1 C :    0.094514
   2 F :   -0.062350
   3 C :   -0.034679
   4 C :    0.006090
   5 C :   -0.017709
   6 C :    0.004161
   7 C :    0.011868
   8 C :   -0.017952
   9 C :   -0.060327
  10 C :    0.037538
  11 C :    0.083792
  12 O :   -0.130528
  13 C :   -0.082388
  14 C :    0.059154
  15 C :   -0.135741
  16 C :   -0.038830
  17 N :   -0.041133
  18 C :   -0.019424
  19 N :   -0.043500
  20 C :    0.052255
  21 C :   -0.151100
  22 C :   -0.049827
  23 C :    0.089149
  24 O :   -0.147500
  25 N :   -0.034501
  26 C :    0.038849
  27 C :    0.093987
  28 O :   -0.148912
  29 C :   -0.098425
  30 C :   -0.127167
  31 S :    0.470304
  32 C :   -0.192703
  33 C :    0.003910
  34 C :   -0.065587
  35 C :   -0.168836
  36 S :    0.484300
  37 C :   -0.179574
  38 C :   -0.064015
  39 C :    0.075553
  40 C :   -0.091969
  41 C :   -0.024338
  42 N :   -0.011818
  43 C :   -0.014844
  44 N :   -0.029900
  45 C :   -0.017491
  46 C :   -0.189144
  47 S :    0.542591
  48 C :   -0.126189
  49 C :   -0.108008
  50 C :    0.086170
  51 O :   -0.173280
  52 N :   -0.035519
  53 C :    0.038624
  54 C :    0.091539
  55 O :   -0.145444
  56 C :   -0.053003
  57 C :   -0.146536
  58 S :    0.483999
  59 C :    0.049198
  60 C :   -0.077776
  61 C :    0.084096
  62 O :   -0.130967
  63 C :   -0.061206
  64 C :    0.037815
  65 C :   -0.017673
  66 C :    0.004700
  67 C :   -0.040828
  68 C :    0.094767
  69 C :   -0.034360
  70 C :    0.005687
  71 F :   -0.061426
  72 C :    0.014210
  73 C :   -0.018198
  74 C :    0.058388
  75 C :   -0.131125
  76 C :   -0.034825
  77 N :   -0.042986
  78 C :   -0.020206
  79 N :   -0.038426
  80 H :    0.043321
  81 H :    0.043057
  82 H :    0.036789
  83 H :    0.039330
  84 H :    0.041248
  85 H :    0.061011
  86 H :    0.037760
  87 H :    0.034148
  88 H :    0.038948
  89 H :    0.044801
  90 H :    0.038398
  91 H :    0.036552
  92 H :    0.038548
  93 H :    0.034242
  94 H :    0.060744
  95 H :    0.041078
  96 H :    0.044461
  97 H :    0.042956
  98 H :    0.036610
  99 H :    0.040854

  Mayer bond orders larger than 0.100000
B(  0-C ,  1-C ) :   1.4406 B(  0-C ,  6-C ) :   1.2039 B(  0-C , 80-H ) :   1.0059
B(  1-C ,  2-F ) :   1.0909 B(  1-C ,  3-C ) :   1.2540 B(  3-C ,  4-C ) :   1.4625
B(  3-C , 81-H ) :   0.9938 B(  4-C ,  5-C ) :   1.2327 B(  4-C , 82-H ) :   0.9972
B(  5-C ,  6-C ) :   1.2515 B(  5-C , 10-C ) :   1.1978 B(  6-C ,  7-C ) :   1.2056
B(  7-C ,  8-C ) :   1.4630 B(  7-C , 83-H ) :   0.9951 B(  8-C ,  9-C ) :   1.2146
B(  8-C , 14-C ) :   1.0024 B(  9-C , 10-C ) :   1.4711 B(  9-C , 11-C ) :   0.9195
B( 10-C , 84-H ) :   1.0146 B( 11-C , 12-O ) :   2.2859 B( 11-C , 13-C ) :   0.9265
B( 13-C , 14-C ) :   1.0238 B( 13-C , 20-C ) :   1.6610 B( 14-C , 15-C ) :   1.6703
B( 15-C , 16-C ) :   1.1494 B( 15-C , 18-C ) :   1.1311 B( 16-C , 17-N ) :   3.0273
B( 18-C , 19-N ) :   2.9940 B( 20-C , 21-C ) :   1.1342 B( 20-C , 85-H ) :   0.9421
B( 21-C , 22-C ) :   1.5187 B( 21-C , 31-S ) :   1.0916 B( 22-C , 23-C ) :   0.8830
B( 22-C , 29-C ) :   1.2823 B( 23-C , 24-O ) :   2.2050 B( 23-C , 25-N ) :   1.0745
B( 25-N , 26-C ) :   0.9351 B( 25-N , 27-C ) :   1.0837 B( 26-C , 86-H ) :   0.9647
B( 26-C , 87-H ) :   0.9815 B( 26-C , 88-H ) :   0.9661 B( 27-C , 28-O ) :   2.1364
B( 27-C , 29-C ) :   0.8919 B( 29-C , 30-C ) :   1.5194 B( 30-C , 31-S ) :   1.1458
B( 30-C , 32-C ) :   1.1607 B( 32-C , 33-C ) :   1.4622 B( 32-C , 36-S ) :   1.0824
B( 33-C , 34-C ) :   1.2938 B( 33-C , 89-H ) :   0.9732 B( 34-C , 35-C ) :   1.4172
B( 34-C , 39-C ) :   0.9917 B( 35-C , 36-S ) :   1.1445 B( 35-C , 37-C ) :   1.1938
B( 37-C , 38-C ) :   1.4071 B( 37-C , 47-S ) :   1.1186 B( 38-C , 39-C ) :   0.9926
B( 38-C , 45-C ) :   1.3276 B( 39-C , 40-C ) :   1.7198 B( 40-C , 41-C ) :   1.1330
B( 40-C , 43-C ) :   1.1360 B( 41-C , 42-N ) :   3.0020 B( 43-C , 44-N ) :   2.9896
B( 45-C , 46-C ) :   1.4081 B( 45-C , 90-H ) :   0.9901 B( 46-C , 47-S ) :   1.1181
B( 46-C , 48-C ) :   1.1974 B( 48-C , 49-C ) :   1.4858 B( 48-C , 58-S ) :   1.1520
B( 49-C , 50-C ) :   0.9007 B( 49-C , 56-C ) :   1.2715 B( 50-C , 51-O ) :   2.1504
B( 50-C , 52-N ) :   1.0894 B( 52-N , 53-C ) :   0.9360 B( 52-N , 54-C ) :   1.0664
B( 53-C , 91-H ) :   0.9671 B( 53-C , 92-H ) :   0.9636 B( 53-C , 93-H ) :   0.9812
B( 54-C , 55-O ) :   2.2126 B( 54-C , 56-C ) :   0.8844 B( 56-C , 57-C ) :   1.5275
B( 57-C , 58-S ) :   1.0991 B( 57-C , 59-C ) :   1.1149 B( 59-C , 60-C ) :   1.6785
B( 59-C , 94-H ) :   0.9428 B( 60-C , 61-C ) :   0.9246 B( 60-C , 74-C ) :   1.0210
B( 61-C , 62-O ) :   2.2851 B( 61-C , 63-C ) :   0.9200 B( 63-C , 64-C ) :   1.4700
B( 63-C , 73-C ) :   1.2160 B( 64-C , 65-C ) :   1.1974 B( 64-C , 95-H ) :   1.0148
B( 65-C , 66-C ) :   1.2526 B( 65-C , 70-C ) :   1.2343 B( 66-C , 67-C ) :   1.2029
B( 66-C , 72-C ) :   1.2081 B( 67-C , 68-C ) :   1.4418 B( 67-C , 96-H ) :   1.0061
B( 68-C , 69-C ) :   1.2526 B( 68-C , 71-F ) :   1.0923 B( 69-C , 70-C ) :   1.4622
B( 69-C , 97-H ) :   0.9930 B( 70-C , 98-H ) :   0.9970 B( 72-C , 73-C ) :   1.4601
B( 72-C , 99-H ) :   0.9956 B( 73-C , 74-C ) :   1.0013 B( 74-C , 75-C ) :   1.6744
B( 75-C , 76-C ) :   1.1508 B( 75-C , 78-C ) :   1.1345 B( 76-C , 77-N ) :   3.0232
B( 78-C , 79-N ) :   2.9970

-----------------------------------------------------------------------------
         ABSORPTION SPECTRUM VIA TRANSITION ELECTRIC DIPOLE MOMENTS
-----------------------------------------------------------------------------
State   Energy  Wavelength   fosc         T2         TX        TY        TZ
        (cm-1)    (nm)                  (au**2)     (au)      (au)      (au)
-----------------------------------------------------------------------------
   0   14070.1    710.7   0.457688245  10.70898  -2.80832  -0.36132  -1.64066
   1   18362.6    544.6   0.967510404  17.34594   2.84380   0.78821   2.93896
   2   19902.8    502.4   0.059239533   0.97988  -0.76681  -0.17614   0.60072
   3   24426.6    409.4   0.022173993   0.29885   0.16790   0.38363  -0.35141
   4   25408.1    393.6   0.005058073   0.06554  -0.17928   0.04638  -0.17677
   5   25737.5    388.5   0.009053362   0.11580  -0.11841   0.30601   0.09022
   6   26650.8    375.2   0.633552654   7.82616  -2.77553   0.20499   0.28388
   7   26914.8    371.5   0.199095386   2.43526  -1.47770   0.50133  -0.01791
   8   27047.3    369.7   0.087115021   1.06034   0.81379   0.61304  -0.14921
   9   28651.7    349.0   0.012968281   0.14901   0.22595  -0.22776   0.21466
  10   28729.5    348.1   0.014583820   0.16712   0.05069  -0.11474   0.38908
  11   28867.4    346.4   0.041011455   0.46771  -0.31210  -0.56667  -0.22178
  12   28937.3    345.6   0.177308954   2.01719  -0.40918  -0.44192  -1.28627
  13   29986.0    333.5   0.287457221   3.15595   0.53773   0.72427   1.53043
  14   30145.3    331.7   0.061489532   0.67152   0.46363  -0.63355  -0.23491
  15   30313.6    329.9   0.281402357   3.05609   0.06156  -0.27627   1.72510
  16   30588.2    326.9   0.072966437   0.78532  -0.86840   0.09286   0.15023
  17   30733.1    325.4   0.175927100   1.88452  -0.07921   0.84377   1.07996
  18   31778.4    314.7   0.013209243   0.13684   0.26863   0.24876  -0.05290
  19   32396.7    308.7   0.104371971   1.06062  -0.52541   0.40543  -0.78753
  20   32550.3    307.2   0.203184107   2.05499  -0.62984   0.54955   1.16460
  21   32819.4    304.7   0.312036206   3.13004   0.37664  -0.55635  -1.63666
  22   32847.4    304.4   0.209933866   2.10406  -0.42748   0.45369   1.30976
  23   33305.8    300.2   0.000809522   0.00800   0.01508   0.07872   0.03972
  24   33446.3    299.0   0.129084786   1.27058   0.41613  -1.01664   0.25270
  25   33537.1    298.2   0.393657650   3.86428  -1.16920  -0.59697  -1.46317
  26   34134.5    293.0   0.094007912   0.90667   0.20064   0.03132  -0.93028
  27   34300.5    291.5   0.042206166   0.40509   0.19354  -0.48969   0.35753
  28   34391.6    290.8   0.088005871   0.84243   0.37846  -0.70944  -0.44261
  29   34533.4    289.6   0.398646312   3.80035  -0.88053   0.30577   1.71217
  30   34832.2    287.1   0.010149326   0.09593  -0.29112  -0.00194  -0.10568
  31   34994.9    285.8   0.055427408   0.52143  -0.01085  -0.33252   0.64089
  32   35118.8    284.7   0.220692806   2.06883   0.31531  -0.24588   1.38165
  33   35192.2    284.2   0.047452579   0.44390   0.00593  -0.30743   0.59106
  34   35309.4    283.2   0.221644202   2.06653  -0.48297   0.78924   1.10017
  35   35590.5    281.0   0.017496073   0.16184  -0.07954  -0.29461  -0.26214
  36   35630.9    280.7   0.224769854   2.07676   0.04178  -0.80010  -1.19786
  37   35860.3    278.9   0.012145492   0.11150   0.18952   0.26708   0.06520
  38   36028.8    277.6   0.128585136   1.17494  -0.41865  -0.56860  -0.82242
  39   36185.5    276.4   0.020742691   0.18871  -0.02562   0.18667   0.39143
  40   36260.9    275.8   0.052196423   0.47389  -0.42385   0.53504   0.08926
  41   36558.4    273.5   0.049293973   0.44390  -0.60397  -0.13343  -0.24761
  42   36696.2    272.5   0.002231997   0.02002  -0.10269  -0.00855  -0.09698
  43   36944.6    270.7   0.036614785   0.32627  -0.55184   0.04812   0.13940
  44   37376.3    267.5   0.124676175   1.09815  -0.20671  -0.27125  -0.99088
  45   37457.2    267.0   0.043802777   0.38498   0.21162  -0.48314   0.32676
  46   38249.2    261.4   0.125099381   1.07673   0.75977  -0.09049   0.70092
  47   38327.3    260.9   0.040357168   0.34665  -0.37095  -0.40230  -0.21725
  48   38485.9    259.8   0.084085866   0.71928   0.32693  -0.77389   0.11611
  49   38989.1    256.5   0.028512105   0.24075   0.44237   0.10088  -0.18675
  50   39156.8    255.4   0.085506004   0.71889  -0.53161   0.54965   0.36629
  51   39228.6    254.9   0.079441749   0.66669   0.64563   0.47225  -0.16380
  52   39341.7    254.2   0.035754653   0.29920  -0.37137  -0.02343   0.40091
  53   39381.1    253.9   0.078723658   0.65810  -0.10466  -0.15768  -0.78885
  54   39654.9    252.2   0.026074165   0.21647  -0.42953   0.17873   0.00519
  55   39713.7    251.8   0.012518275   0.10377   0.28219   0.09189   0.12530
  56   39787.0    251.3   0.003921883   0.03245  -0.16500  -0.05335  -0.04877
  57   39850.3    250.9   0.013374465   0.11049   0.28829   0.08887   0.13958
  58   39973.7    250.2   0.097668883   0.80437  -0.69949   0.44156   0.34656
  59   40089.6    249.4   0.082736365   0.67942   0.75746   0.28661   0.15339
  60   40326.6    248.0   0.009337498   0.07623  -0.21601  -0.05253   0.16374

FINAL SINGLE POINT ENERGY     -4975.514531540599

DIPOLE MOMENT
-------------
                                X             Y             Z
Electronic contribution:      2.56414       4.34429       2.30475
Nuclear contribution   :     -2.01086      -7.79450      -2.65707
                        -----------------------------------------
Total Dipole Moment    :      0.55327      -3.45021      -0.35233
                        -----------------------------------------
Magnitude (a.u.)       :      3.51200
Magnitude (Debye)      :      8.92681

Rotational constants in cm-1:     0.001264     0.000247     0.000215
Rotational constants in MHz :    37.903289     7.404099     6.432109

                             ****ORCA TERMINATED NORMALLY****
TOTAL RUN TIME: 0 days 0 hours 11 minutes 29 seconds 88 msec
