                         Program Version 4.2.0 -  RELEASE  -
|  1> # ORCA input file
|  2> # SCF done       -198.337545449648          0.000697985620
|  3> ! CAM-B3LYP def2-SVP def2/J RIJCOSX Grid4 TightSCF
|  4> %maxcore 5000
|  5> %tddft
|  6>     Mode sTDDFT
|  7>     Ethresh 5.0
|  8>     maxcore 5000
|  9> end
| 10>
| 11> %pal
| 12>   nprocs 6
| 13>   end
| 14> * xyz 0 1
| 15>    C        4.31576         5.85466        -6.97370
| 16>    C        3.07810         6.13348        -7.48328
| 17>    F        2.97551         6.74669        -8.67629
| 18>    C        1.89513         5.80326        -6.80803
| 19>    C        1.97846         5.17807        -5.59512
| 20>    C        3.22881         4.86540        -5.02336
| 21>    C        4.42045         5.21305        -5.72439
| 22>    C        5.68699         4.91876        -5.16691
| 23>    C        5.75436         4.29370        -3.95181
| 24>    C        4.56034         3.92672        -3.26691
| 25>    C        3.32563         4.20773        -3.77661
| 26>    C        4.91305         3.21612        -2.02443
| 27>    O        4.17084         2.80082        -1.16387
| 28>    C        6.39412         3.05337        -2.07263
| 29>    C        6.89901         3.89375        -3.13564
| 30>    C        8.15234         4.44256        -3.22988
| 31>    C        9.17736         4.22003        -2.29109
| 32>    N       10.03196         4.07640        -1.53757
| 33>    C        8.52911         5.37129        -4.22252
| 34>    N        8.88394         6.13302        -5.00386
| 35>    C        6.97190         2.14506        -1.23456
| 36>    C        8.23191         1.52253        -1.32807
| 37>    C        9.09064         1.43227        -2.41589
| 38>    C       10.23132         0.69853        -2.12712
| 39>    C       10.25156         0.20597        -0.80427
| 40>    S        8.85749         0.64162         0.06587
| 41>    C       11.45837        -0.51196        -0.61427
| 42>    C       12.20151        -0.46217        -1.80730
| 43>    C       11.46012         0.30479        -2.79339
| 44>    C       11.84207         0.61305        -4.06640
| 45>    C       13.07032         0.18074        -4.60884
| 46>    N       14.06365        -0.17424        -5.05873
| 47>    C       11.01617         1.38085        -4.91427
| 48>    N       10.32743         1.99820        -5.59226
| 49>    C       13.41116        -1.14698        -1.72448
| 50>    C       13.59572        -1.72740        -0.48366
| 51>    S       12.25365        -1.40998         0.60238
| 52>    C       14.71543        -2.52128        -0.07865
| 53>    C       14.81520        -3.14020         1.15985
| 54>    C       15.89637        -3.94217         1.52225
| 55>    C       16.97395        -4.18070         0.68218
| 56>    C       16.92560        -3.52995        -0.57184
| 57>    C       15.80762        -2.72934        -0.95320
| 58>    N       16.04064        -2.28795        -2.19765
| 59>    N       17.19959        -2.79276        -2.51186
| 60>    N       17.77917        -3.53317        -1.60995
| 61>    C       17.79892        -2.52867        -3.78364
| 62>    C       18.09194        -5.04088         1.03230
| 63>    C       19.36411        -4.77507         0.55596
| 64>    C       20.45914        -5.55439         0.90762
| 65>    C       20.34296        -6.64161         1.75804
| 66>    C       19.03408        -7.00595         2.19272
| 67>    N       18.85531        -8.14930         2.87835
| 68>    C       17.65141        -8.44831         3.28769
| 69>    C       16.55590        -7.61471         3.00563
| 70>    N       16.68647        -6.53933         2.27723
| 71>    C       17.91455        -6.19331         1.85216
| 72>    C       21.49997        -7.40953         2.12178
| 73>    C       21.70601        -8.16119         3.22800
| 74>    C       22.77153        -9.20630         3.21411
| 75>    O       23.68614        -9.29723         2.42929
| 76>    C       22.42001       -10.12256         4.31516
| 77>    C       22.97737       -11.32544         4.64143
| 78>    C       22.44470       -12.06123         5.72321
| 79>    C       21.33614       -11.53361         6.44813
| 80>    C       20.80364       -12.27860         7.51853
| 81>    C       21.35997       -13.48541         7.83924
| 82>    C       22.45085       -14.02011         7.14004
| 83>    C       22.98019       -13.31070         6.09833
| 84>    F       20.85137       -14.19837         8.86046
| 85>    C       20.78497       -10.28027         6.09381
| 86>    C       21.32219        -9.58213         5.04614
| 87>    C       20.97678        -8.28411         4.47615
| 88>    C       20.29231        -7.29104         5.12389
| 89>    C       20.13961        -5.98701         4.61314
| 90>    N       20.00094        -4.90843         4.24500
| 91>    C       19.66420        -7.45888         6.37373
| 92>    N       19.11431        -7.55256         7.37720
| 93>    H        5.20554         6.12659        -7.51964
| 94>    H        0.94688         6.04848        -7.25947
| 95>    H        1.08125         4.91293        -5.05629
| 96>    H        6.57284         5.18256        -5.72264
| 97>    H        2.43281         3.92885        -3.23732
| 98>    H        6.33063         1.80603        -0.42620
| 99>    H        8.85936         1.84409        -3.38106
|100>    H       14.13901        -1.23921        -2.50903
|101>    H       14.01528        -3.00051         1.87309
|102>    H       15.89745        -4.38907         2.50234
|103>    H       17.07101        -1.99739        -4.39308
|104>    H       18.08255        -3.46781        -4.25767
|105>    H       18.69254        -1.91630        -3.65543
|106>    H       19.51017        -3.92282        -0.08781
|107>    H       21.43896        -5.27748         0.54725
|108>    H       17.53837        -9.37877         3.82781
|109>    H       15.55799        -7.85364         3.34670
|110>    H       22.29137        -7.45331         1.37952
|111>    H       23.81271       -11.71390         4.07823
|112>    H       19.96675       -11.89635         8.08190
|113>    H       22.84749       -14.97751         7.43853
|114>    H       23.82037       -13.70168         5.54444
|115>    H       19.94161        -9.90732         6.65345
|116> *
|117>
|118>                          ****END OF INPUT****

CARTESIAN COORDINATES (ANGSTROEM)
---------------------------------
  C      4.315760    5.854660   -6.973700
  C      3.078100    6.133480   -7.483280
  F      2.975510    6.746690   -8.676290
  C      1.895130    5.803260   -6.808030
  C      1.978460    5.178070   -5.595120
  C      3.228810    4.865400   -5.023360
  C      4.420450    5.213050   -5.724390
  C      5.686990    4.918760   -5.166910
  C      5.754360    4.293700   -3.951810
  C      4.560340    3.926720   -3.266910
  C      3.325630    4.207730   -3.776610
  C      4.913050    3.216120   -2.024430
  O      4.170840    2.800820   -1.163870
  C      6.394120    3.053370   -2.072630
  C      6.899010    3.893750   -3.135640
  C      8.152340    4.442560   -3.229880
  C      9.177360    4.220030   -2.291090
  N     10.031960    4.076400   -1.537570
  C      8.529110    5.371290   -4.222520
  N      8.883940    6.133020   -5.003860
  C      6.971900    2.145060   -1.234560
  C      8.231910    1.522530   -1.328070
  C      9.090640    1.432270   -2.415890
  C     10.231320    0.698530   -2.127120
  C     10.251560    0.205970   -0.804270
  S      8.857490    0.641620    0.065870
  C     11.458370   -0.511960   -0.614270
  C     12.201510   -0.462170   -1.807300
  C     11.460120    0.304790   -2.793390
  C     11.842070    0.613050   -4.066400
  C     13.070320    0.180740   -4.608840
  N     14.063650   -0.174240   -5.058730
  C     11.016170    1.380850   -4.914270
  N     10.327430    1.998200   -5.592260
  C     13.411160   -1.146980   -1.724480
  C     13.595720   -1.727400   -0.483660
  S     12.253650   -1.409980    0.602380
  C     14.715430   -2.521280   -0.078650
  C     14.815200   -3.140200    1.159850
  C     15.896370   -3.942170    1.522250
  C     16.973950   -4.180700    0.682180
  C     16.925600   -3.529950   -0.571840
  C     15.807620   -2.729340   -0.953200
  N     16.040640   -2.287950   -2.197650
  N     17.199590   -2.792760   -2.511860
  N     17.779170   -3.533170   -1.609950
  C     17.798920   -2.528670   -3.783640
  C     18.091940   -5.040880    1.032300
  C     19.364110   -4.775070    0.555960
  C     20.459140   -5.554390    0.907620
  C     20.342960   -6.641610    1.758040
  C     19.034080   -7.005950    2.192720
  N     18.855310   -8.149300    2.878350
  C     17.651410   -8.448310    3.287690
  C     16.555900   -7.614710    3.005630
  N     16.686470   -6.539330    2.277230
  C     17.914550   -6.193310    1.852160
  C     21.499970   -7.409530    2.121780
  C     21.706010   -8.161190    3.228000
  C     22.771530   -9.206300    3.214110
  O     23.686140   -9.297230    2.429290
  C     22.420010  -10.122560    4.315160
  C     22.977370  -11.325440    4.641430
  C     22.444700  -12.061230    5.723210
  C     21.336140  -11.533610    6.448130
  C     20.803640  -12.278600    7.518530
  C     21.359970  -13.485410    7.839240
  C     22.450850  -14.020110    7.140040
  C     22.980190  -13.310700    6.098330
  F     20.851370  -14.198370    8.860460
  C     20.784970  -10.280270    6.093810
  C     21.322190   -9.582130    5.046140
  C     20.976780   -8.284110    4.476150
  C     20.292310   -7.291040    5.123890
  C     20.139610   -5.987010    4.613140
  N     20.000940   -4.908430    4.245000
  C     19.664200   -7.458880    6.373730
  N     19.114310   -7.552560    7.377200
  H      5.205540    6.126590   -7.519640
  H      0.946880    6.048480   -7.259470
  H      1.081250    4.912930   -5.056290
  H      6.572840    5.182560   -5.722640
  H      2.432810    3.928850   -3.237320
  H      6.330630    1.806030   -0.426200
  H      8.859360    1.844090   -3.381060
  H     14.139010   -1.239210   -2.509030
  H     14.015280   -3.000510    1.873090
  H     15.897450   -4.389070    2.502340
  H     17.071010   -1.997390   -4.393080
  H     18.082550   -3.467810   -4.257670
  H     18.692540   -1.916300   -3.655430
  H     19.510170   -3.922820   -0.087810
  H     21.438960   -5.277480    0.547250
  H     17.538370   -9.378770    3.827810
  H     15.557990   -7.853640    3.346700
  H     22.291370   -7.453310    1.379520
  H     23.812710  -11.713900    4.078230
  H     19.966750  -11.896350    8.081900
  H     22.847490  -14.977510    7.438530
  H     23.820370  -13.701680    5.544440
  H     19.941610   -9.907320    6.653450

 Total Charge           Charge          ....    0
 Multiplicity           Mult            ....    1
 Number of Electrons    NEL             ....  532
 Basis Dimension        Dim             .... 1215

ORBITAL ENERGIES
----------------

  NO   OCC          E(Eh)            E(eV)
   0   2.0000     -88.994375     -2421.6601
   1   2.0000     -88.989840     -2421.5367
   2   2.0000     -24.787273      -674.4960
   3   2.0000     -24.783387      -674.3902
   4   2.0000     -19.214260      -522.8466
   5   2.0000     -19.211809      -522.7799
   6   2.0000     -14.549469      -395.9112
   7   2.0000     -14.450353      -393.2141
   8   2.0000     -14.448439      -393.1620
   9   2.0000     -14.434009      -392.7694
  10   2.0000     -14.431680      -392.7060
  11   2.0000     -14.431147      -392.6915
  12   2.0000     -14.430910      -392.6850
  13   2.0000     -14.415616      -392.2688
  14   2.0000     -14.415548      -392.2670
  15   2.0000     -14.414637      -392.2422
  16   2.0000     -14.410744      -392.1363
  17   2.0000     -10.370911      -282.2068
  18   2.0000     -10.366947      -282.0990
  19   2.0000     -10.365391      -282.0566
  20   2.0000     -10.364977      -282.0454
  21   2.0000     -10.363602      -282.0080
  22   2.0000     -10.352137      -281.6960
  23   2.0000     -10.343068      -281.4492
  24   2.0000     -10.341248      -281.3997
  25   2.0000     -10.340705      -281.3849
  26   2.0000     -10.340165      -281.3702
  27   2.0000     -10.339063      -281.3402
  28   2.0000     -10.332003      -281.1481
  29   2.0000     -10.331469      -281.1336
  30   2.0000     -10.331072      -281.1228
  31   2.0000     -10.328303      -281.0474
  32   2.0000     -10.328269      -281.0465
  33   2.0000     -10.326900      -281.0092
  34   2.0000     -10.326228      -280.9909
  35   2.0000     -10.325379      -280.9679
  36   2.0000     -10.324723      -280.9500
  37   2.0000     -10.324569      -280.9458
  38   2.0000     -10.323192      -280.9083
  39   2.0000     -10.318499      -280.7806
  40   2.0000     -10.316616      -280.7294
  41   2.0000     -10.316156      -280.7169
  42   2.0000     -10.313261      -280.6381
  43   2.0000     -10.312293      -280.6117
  44   2.0000     -10.311588      -280.5926
  45   2.0000     -10.310425      -280.5609
  46   2.0000     -10.309821      -280.5445
  47   2.0000     -10.307498      -280.4813
  48   2.0000     -10.306418      -280.4519
  49   2.0000     -10.306370      -280.4506
  50   2.0000     -10.305363      -280.4232
  51   2.0000     -10.304684      -280.4047
  52   2.0000     -10.303455      -280.3713
  53   2.0000     -10.303267      -280.3661
  54   2.0000     -10.302351      -280.3412
  55   2.0000     -10.302159      -280.3360
  56   2.0000     -10.300786      -280.2986
  57   2.0000     -10.299548      -280.2649
  58   2.0000     -10.299146      -280.2540
  59   2.0000     -10.298990      -280.2498
  60   2.0000     -10.298611      -280.2395
  61   2.0000     -10.297621      -280.2125
  62   2.0000     -10.297049      -280.1969
  63   2.0000     -10.296380      -280.1787
  64   2.0000     -10.296040      -280.1695
  65   2.0000     -10.296007      -280.1686
  66   2.0000     -10.295805      -280.1631
  67   2.0000     -10.295373      -280.1513
  68   2.0000     -10.295217      -280.1471
  69   2.0000     -10.292344      -280.0689
  70   2.0000     -10.292152      -280.0637
  71   2.0000     -10.290536      -280.0197
  72   2.0000     -10.290384      -280.0156
  73   2.0000     -10.288392      -279.9614
  74   2.0000     -10.287508      -279.9373
  75   2.0000     -10.286235      -279.9027
  76   2.0000     -10.286165      -279.9008
  77   2.0000     -10.282322      -279.7962
  78   2.0000      -8.089097      -220.1155
  79   2.0000      -8.084190      -219.9820
  80   2.0000      -6.058246      -164.8532
  81   2.0000      -6.054090      -164.7402
  82   2.0000      -6.053420      -164.7219
  83   2.0000      -6.051600      -164.6724
  84   2.0000      -6.049232      -164.6080
  85   2.0000      -6.046667      -164.5382
  86   2.0000      -1.302208       -35.4349
  87   2.0000      -1.298276       -35.3279
  88   2.0000      -1.227129       -33.3919
  89   2.0000      -1.129601       -30.7380
  90   2.0000      -1.127383       -30.6776
  91   2.0000      -1.091260       -29.6947
  92   2.0000      -1.047156       -28.4946
  93   2.0000      -1.022654       -27.8278
  94   2.0000      -1.021042       -27.7840
  95   2.0000      -1.017146       -27.6779
  96   2.0000      -1.011660       -27.5287
  97   2.0000      -1.008453       -27.4414
  98   2.0000      -1.004419       -27.3316
  99   2.0000      -1.000829       -27.2339
 100   2.0000      -0.998658       -27.1749
 101   2.0000      -0.998188       -27.1621
 102   2.0000      -0.993924       -27.0460
 103   2.0000      -0.990900       -26.9638
 104   2.0000      -0.986700       -26.8495
 105   2.0000      -0.976430       -26.5700
 106   2.0000      -0.973964       -26.5029
 107   2.0000      -0.965295       -26.2670
 108   2.0000      -0.959420       -26.1071
 109   2.0000      -0.930445       -25.3187
 110   2.0000      -0.928084       -25.2544
 111   2.0000      -0.925844       -25.1935
 112   2.0000      -0.917427       -24.9645
 113   2.0000      -0.907176       -24.6855
 114   2.0000      -0.897910       -24.4334
 115   2.0000      -0.891755       -24.2659
 116   2.0000      -0.885738       -24.1022
 117   2.0000      -0.884040       -24.0559
 118   2.0000      -0.875983       -23.8367
 119   2.0000      -0.872272       -23.7357
 120   2.0000      -0.866809       -23.5871
 121   2.0000      -0.858621       -23.3643
 122   2.0000      -0.856255       -23.2999
 123   2.0000      -0.838487       -22.8164
 124   2.0000      -0.833783       -22.6884
 125   2.0000      -0.831823       -22.6351
 126   2.0000      -0.819410       -22.2973
 127   2.0000      -0.812297       -22.1037
 128   2.0000      -0.795876       -21.6569
 129   2.0000      -0.780024       -21.2255
 130   2.0000      -0.776593       -21.1322
 131   2.0000      -0.765800       -20.8385
 132   2.0000      -0.761702       -20.7270
 133   2.0000      -0.759828       -20.6760
 134   2.0000      -0.756714       -20.5912
 135   2.0000      -0.743124       -20.2214
 136   2.0000      -0.733807       -19.9679
 137   2.0000      -0.728704       -19.8291
 138   2.0000      -0.723093       -19.6764
 139   2.0000      -0.713269       -19.4090
 140   2.0000      -0.710290       -19.3280
 141   2.0000      -0.709482       -19.3060
 142   2.0000      -0.706767       -19.2321
 143   2.0000      -0.703700       -19.1487
 144   2.0000      -0.687473       -18.7071
 145   2.0000      -0.682794       -18.5798
 146   2.0000      -0.679691       -18.4953
 147   2.0000      -0.676634       -18.4121
 148   2.0000      -0.674688       -18.3592
 149   2.0000      -0.657906       -17.9025
 150   2.0000      -0.648983       -17.6597
 151   2.0000      -0.641760       -17.4632
 152   2.0000      -0.638873       -17.3846
 153   2.0000      -0.636600       -17.3228
 154   2.0000      -0.634162       -17.2564
 155   2.0000      -0.633041       -17.2259
 156   2.0000      -0.631953       -17.1963
 157   2.0000      -0.627785       -17.0829
 158   2.0000      -0.626901       -17.0589
 159   2.0000      -0.622989       -16.9524
 160   2.0000      -0.615935       -16.7604
 161   2.0000      -0.611229       -16.6324
 162   2.0000      -0.608409       -16.5557
 163   2.0000      -0.600985       -16.3536
 164   2.0000      -0.598456       -16.2848
 165   2.0000      -0.596691       -16.2368
 166   2.0000      -0.593641       -16.1538
 167   2.0000      -0.575385       -15.6570
 168   2.0000      -0.574688       -15.6380
 169   2.0000      -0.573185       -15.5972
 170   2.0000      -0.565909       -15.3992
 171   2.0000      -0.563722       -15.3397
 172   2.0000      -0.561157       -15.2699
 173   2.0000      -0.559957       -15.2372
 174   2.0000      -0.559129       -15.2147
 175   2.0000      -0.555886       -15.1264
 176   2.0000      -0.552374       -15.0309
 177   2.0000      -0.549296       -14.9471
 178   2.0000      -0.548880       -14.9358
 179   2.0000      -0.547578       -14.9004
 180   2.0000      -0.545387       -14.8407
 181   2.0000      -0.543824       -14.7982
 182   2.0000      -0.535501       -14.5717
 183   2.0000      -0.532680       -14.4949
 184   2.0000      -0.531874       -14.4730
 185   2.0000      -0.529188       -14.3999
 186   2.0000      -0.525010       -14.2862
 187   2.0000      -0.524621       -14.2757
 188   2.0000      -0.523152       -14.2357
 189   2.0000      -0.520921       -14.1750
 190   2.0000      -0.519321       -14.1314
 191   2.0000      -0.515676       -14.0323
 192   2.0000      -0.514656       -14.0045
 193   2.0000      -0.510802       -13.8996
 194   2.0000      -0.508393       -13.8341
 195   2.0000      -0.507389       -13.8067
 196   2.0000      -0.504843       -13.7375
 197   2.0000      -0.503913       -13.7122
 198   2.0000      -0.501415       -13.6442
 199   2.0000      -0.496403       -13.5078
 200   2.0000      -0.494035       -13.4434
 201   2.0000      -0.491261       -13.3679
 202   2.0000      -0.489665       -13.3245
 203   2.0000      -0.487526       -13.2662
 204   2.0000      -0.485204       -13.2031
 205   2.0000      -0.483430       -13.1548
 206   2.0000      -0.481600       -13.1050
 207   2.0000      -0.478242       -13.0136
 208   2.0000      -0.475206       -12.9310
 209   2.0000      -0.470882       -12.8134
 210   2.0000      -0.466952       -12.7064
 211   2.0000      -0.465519       -12.6674
 212   2.0000      -0.463587       -12.6149
 213   2.0000      -0.462332       -12.5807
 214   2.0000      -0.459798       -12.5117
 215   2.0000      -0.459603       -12.5064
 216   2.0000      -0.458085       -12.4651
 217   2.0000      -0.455969       -12.4076
 218   2.0000      -0.454383       -12.3644
 219   2.0000      -0.451144       -12.2763
 220   2.0000      -0.450332       -12.2542
 221   2.0000      -0.448250       -12.1975
 222   2.0000      -0.446943       -12.1619
 223   2.0000      -0.442125       -12.0308
 224   2.0000      -0.441259       -12.0073
 225   2.0000      -0.441043       -12.0014
 226   2.0000      -0.438983       -11.9453
 227   2.0000      -0.438374       -11.9288
 228   2.0000      -0.438009       -11.9188
 229   2.0000      -0.436684       -11.8828
 230   2.0000      -0.434839       -11.8326
 231   2.0000      -0.430179       -11.7058
 232   2.0000      -0.428047       -11.6478
 233   2.0000      -0.427286       -11.6270
 234   2.0000      -0.426431       -11.6038
 235   2.0000      -0.423035       -11.5114
 236   2.0000      -0.422604       -11.4996
 237   2.0000      -0.419166       -11.4061
 238   2.0000      -0.416799       -11.3417
 239   2.0000      -0.409667       -11.1476
 240   2.0000      -0.408204       -11.1078
 241   2.0000      -0.406429       -11.0595
 242   2.0000      -0.399717       -10.8768
 243   2.0000      -0.398018       -10.8306
 244   2.0000      -0.397328       -10.8118
 245   2.0000      -0.384784       -10.4705
 246   2.0000      -0.380792       -10.3619
 247   2.0000      -0.379218       -10.3190
 248   2.0000      -0.377853       -10.2819
 249   2.0000      -0.369914       -10.0659
 250   2.0000      -0.355468        -9.6728
 251   2.0000      -0.348438        -9.4815
 252   2.0000      -0.345305        -9.3962
 253   2.0000      -0.337643        -9.1877
 254   2.0000      -0.336198        -9.1484
 255   2.0000      -0.334117        -9.0918
 256   2.0000      -0.332491        -9.0475
 257   2.0000      -0.326064        -8.8727
 258   2.0000      -0.321972        -8.7613
 259   2.0000      -0.315652        -8.5893
 260   2.0000      -0.310839        -8.4584
 261   2.0000      -0.309993        -8.4353
 262   2.0000      -0.298300        -8.1172
 263   2.0000      -0.296430        -8.0663
 264   2.0000      -0.285426        -7.7668
 265   2.0000      -0.251644        -6.8476
 266   0.0000      -0.111633        -3.0377
 267   0.0000      -0.093271        -2.5380
 268   0.0000      -0.087596        -2.3836
 269   0.0000      -0.062837        -1.7099
 270   0.0000      -0.053924        -1.4673

MULLIKEN ATOMIC CHARGES
-----------------------
   0 C :   -0.095242
   1 C :    0.303201
   2 F :   -0.189998
   3 C :   -0.029905
   4 C :   -0.008946
   5 C :    0.099430
   6 C :    0.098904
   7 C :   -0.080239
   8 C :    0.031530
   9 C :    0.015946
  10 C :   -0.079604
  11 C :    0.134027
  12 O :   -0.148173
  13 C :   -0.141502
  14 C :    0.269208
  15 C :   -0.326415
  16 C :   -0.204635
  17 N :    0.166609
  18 C :   -0.168429
  19 N :    0.155895
  20 C :    0.083700
  21 C :   -0.110943
  22 C :    0.002612
  23 C :   -0.008988
  24 C :   -0.073366
  25 S :    0.211221
  26 C :   -0.098685
  27 C :    0.039606
  28 C :    0.313792
  29 C :   -0.293726
  30 C :   -0.185775
  31 N :    0.177432
  32 C :   -0.187993
  33 N :    0.169672
  34 C :   -0.067997
  35 C :   -0.107476
  36 S :    0.180652
  37 C :    0.139924
  38 C :   -0.081067
  39 C :    0.008461
  40 C :    0.021819
  41 C :   -0.015909
  42 C :   -0.029393
  43 N :   -0.063473
  44 N :   -0.060958
  45 N :   -0.066388
  46 C :    0.137732
  47 C :    0.083904
  48 C :   -0.012188
  49 C :   -0.007285
  50 C :    0.104972
  51 C :   -0.076625
  52 N :   -0.026829
  53 C :    0.048261
  54 C :    0.029903
  55 N :   -0.013945
  56 C :   -0.024994
  57 C :   -0.000559
  58 C :   -0.098722
  59 C :    0.127854
  60 O :   -0.140670
  61 C :    0.018756
  62 C :   -0.081143
  63 C :    0.098750
  64 C :    0.100515
  65 C :   -0.098110
  66 C :    0.303211
  67 C :   -0.027757
  68 C :   -0.008934
  69 F :   -0.190561
  70 C :   -0.090826
  71 C :    0.034788
  72 C :    0.326358
  73 C :   -0.349340
  74 C :   -0.194518
  75 N :    0.172684
  76 C :   -0.190340
  77 N :    0.153363
  78 H :   -0.001840
  79 H :    0.002382
  80 H :   -0.010011
  81 H :    0.000732
  82 H :   -0.013069
  83 H :    0.019098
  84 H :    0.025676
  85 H :    0.019513
  86 H :   -0.016344
  87 H :   -0.011415
  88 H :    0.069282
  89 H :    0.053771
  90 H :    0.055618
  91 H :   -0.007426
  92 H :   -0.011209
  93 H :    0.013549
  94 H :    0.012884
  95 H :    0.021503
  96 H :   -0.011756
  97 H :   -0.003408
  98 H :    0.003369
  99 H :   -0.008718
 100 H :   -0.008302
Sum of atomic charges:   -0.0000000

LOEWDIN ATOMIC CHARGES
----------------------
   0 C :   -0.040984
   1 C :    0.092968
   2 F :   -0.064787
   3 C :   -0.037152
   4 C :    0.004266
   5 C :   -0.019009
   6 C :    0.003717
   7 C :    0.013363
   8 C :   -0.016670
   9 C :   -0.059976
  10 C :    0.034090
  11 C :    0.082503
  12 O :   -0.148337
  13 C :   -0.095478
  14 C :    0.065330
  15 C :   -0.137465
  16 C :   -0.015933
  17 N :   -0.046326
  18 C :   -0.018378
  19 N :   -0.047488
  20 C :    0.043523
  21 C :   -0.183371
  22 C :    0.013030
  23 C :   -0.068911
  24 C :   -0.153896
  25 S :    0.497327
  26 C :   -0.187855
  27 C :   -0.057653
  28 C :    0.083953
  29 C :   -0.099114
  30 C :   -0.013227
  31 N :   -0.034020
  32 C :   -0.013316
  33 N :   -0.033616
  34 C :   -0.023521
  35 C :   -0.148250
  36 S :    0.480612
  37 C :   -0.040472
  38 C :   -0.026666
  39 C :    0.008853
  40 C :   -0.022848
  41 C :   -0.038213
  42 C :   -0.044136
  43 N :   -0.082459
  44 N :    0.160486
  45 N :   -0.093561
  46 C :    0.033661
  47 C :    0.008243
  48 C :    0.005677
  49 C :    0.023828
  50 C :   -0.039218
  51 C :    0.000765
  52 N :   -0.031274
  53 C :    0.009102
  54 C :    0.006086
  55 N :   -0.027672
  56 C :    0.003691
  57 C :    0.072341
  58 C :   -0.073925
  59 C :    0.084720
  60 O :   -0.141629
  61 C :   -0.057849
  62 C :    0.034713
  63 C :   -0.018608
  64 C :    0.003366
  65 C :   -0.043102
  66 C :    0.093197
  67 C :   -0.036817
  68 C :    0.005007
  69 F :   -0.064920
  70 C :    0.008850
  71 C :   -0.013186
  72 C :    0.084247
  73 C :   -0.141286
  74 C :   -0.018875
  75 N :   -0.049589
  76 C :   -0.020018
  77 N :   -0.057859
  78 H :    0.043696
  79 H :    0.041536
  80 H :    0.035396
  81 H :    0.040833
  82 H :    0.039292
  83 H :    0.045284
  84 H :    0.042847
  85 H :    0.037968
  86 H :    0.023923
  87 H :    0.033642
  88 H :    0.048501
  89 H :    0.041766
  90 H :    0.041788
  91 H :    0.034226
  92 H :    0.036805
  93 H :    0.027184
  94 H :    0.027464
  95 H :    0.047170
  96 H :    0.039717
  97 H :    0.042626
  98 H :    0.041916
  99 H :    0.035900
 100 H :    0.037921

  Mayer bond orders larger than 0.100000
B(  0-C ,  1-C ) :   1.4396 B(  0-C ,  6-C ) :   1.2028 B(  0-C , 78-H ) :   1.0071
B(  1-C ,  2-F ) :   1.0896 B(  1-C ,  3-C ) :   1.2554 B(  3-C ,  4-C ) :   1.4599
B(  3-C , 79-H ) :   0.9932 B(  4-C ,  5-C ) :   1.2336 B(  4-C , 80-H ) :   0.9973
B(  5-C ,  6-C ) :   1.2580 B(  5-C , 10-C ) :   1.1903 B(  6-C ,  7-C ) :   1.2027
B(  7-C ,  8-C ) :   1.4646 B(  7-C , 81-H ) :   0.9950 B(  8-C ,  9-C ) :   1.2191
B(  8-C , 14-C ) :   0.9929 B(  9-C , 10-C ) :   1.4695 B(  9-C , 11-C ) :   0.9209
B( 10-C , 82-H ) :   1.0157 B( 11-C , 12-O ) :   2.2619 B( 11-C , 13-C ) :   0.9454
B( 13-C , 14-C ) :   1.0443 B( 13-C , 20-C ) :   1.6475 B( 14-C , 15-C ) :   1.6470
B( 15-C , 16-C ) :   1.1724 B( 15-C , 18-C ) :   1.1267 B( 16-C , 17-N ) :   2.9939
B( 18-C , 19-N ) :   2.9910 B( 20-C , 21-C ) :   1.1555 B( 20-C , 83-H ) :   0.9279
B( 21-C , 22-C ) :   1.3818 B( 21-C , 25-S ) :   1.0822 B( 22-C , 23-C ) :   1.3703
B( 22-C , 84-H ) :   0.9773 B( 23-C , 24-C ) :   1.4030 B( 23-C , 28-C ) :   0.9939
B( 24-C , 25-S ) :   1.1592 B( 24-C , 26-C ) :   1.1965 B( 26-C , 27-C ) :   1.4353
B( 26-C , 36-S ) :   1.1153 B( 27-C , 28-C ) :   0.9968 B( 27-C , 34-C ) :   1.2412
B( 28-C , 29-C ) :   1.7150 B( 29-C , 30-C ) :   1.1374 B( 29-C , 32-C ) :   1.1332
B( 30-C , 31-N ) :   2.9940 B( 32-C , 33-N ) :   2.9844 B( 34-C , 35-C ) :   1.4857
B( 34-C , 85-H ) :   0.9790 B( 35-C , 36-S ) :   1.1021 B( 35-C , 37-C ) :   1.1073
B( 37-C , 38-C ) :   1.4200 B( 37-C , 40-C ) :   0.1171 B( 37-C , 42-C ) :   1.1998
B( 38-C , 39-C ) :   1.2642 B( 38-C , 86-H ) :   0.9896 B( 39-C , 40-C ) :   1.4693
B( 39-C , 87-H ) :   0.9807 B( 40-C , 41-C ) :   1.2147 B( 40-C , 47-C ) :   0.9980
B( 41-C , 42-C ) :   1.2342 B( 41-C , 45-N ) :   1.4535 B( 42-C , 43-N ) :   1.4535
B( 43-N , 44-N ) :   1.2414 B( 43-N , 45-N ) :   0.1624 B( 44-N , 45-N ) :   1.2245
B( 44-N , 46-C ) :   0.9501 B( 46-C , 88-H ) :   0.9648 B( 46-C , 89-H ) :   0.9687
B( 46-C , 90-H ) :   0.9694 B( 47-C , 48-C ) :   1.4506 B( 47-C , 50-C ) :   0.1114
B( 47-C , 56-C ) :   1.2363 B( 48-C , 49-C ) :   1.2381 B( 48-C , 91-H ) :   0.9896
B( 49-C , 50-C ) :   1.3981 B( 49-C , 92-H ) :   1.0023 B( 50-C , 51-C ) :   1.1971
B( 50-C , 57-C ) :   1.0530 B( 51-C , 52-N ) :   1.4750 B( 51-C , 56-C ) :   1.2348
B( 52-N , 53-C ) :   1.6134 B( 53-C , 54-C ) :   1.2392 B( 53-C , 93-H ) :   0.9732
B( 54-C , 55-N ) :   1.6392 B( 54-C , 94-H ) :   0.9754 B( 55-N , 56-C ) :   1.4739
B( 57-C , 58-C ) :   1.7160 B( 57-C , 95-H ) :   0.9438 B( 58-C , 59-C ) :   0.9392
B( 58-C , 72-C ) :   1.0104 B( 59-C , 60-O ) :   2.2739 B( 59-C , 61-C ) :   0.9182
B( 61-C , 62-C ) :   1.4650 B( 61-C , 71-C ) :   1.2200 B( 62-C , 63-C ) :   1.1940
B( 62-C , 96-H ) :   1.0158 B( 63-C , 64-C ) :   1.2570 B( 63-C , 68-C ) :   1.2323
B( 64-C , 65-C ) :   1.2015 B( 64-C , 70-C ) :   1.2029 B( 65-C , 66-C ) :   1.4419
B( 65-C , 97-H ) :   1.0071 B( 66-C , 67-C ) :   1.2538 B( 66-C , 69-F ) :   1.0883
B( 67-C , 68-C ) :   1.4626 B( 67-C , 98-H ) :   0.9925 B( 68-C , 99-H ) :   0.9974
B( 70-C , 71-C ) :   1.4587 B( 70-C ,100-H ) :   0.9965 B( 71-C , 72-C ) :   1.0052
B( 72-C , 73-C ) :   1.6530 B( 73-C , 74-C ) :   1.1612 B( 73-C , 76-C ) :   1.1431
B( 74-C , 75-N ) :   3.0084 B( 76-C , 77-N ) :   2.9870

-----------------------------------------------------------------------------
         ABSORPTION SPECTRUM VIA TRANSITION ELECTRIC DIPOLE MOMENTS
-----------------------------------------------------------------------------
State   Energy  Wavelength   fosc         T2         TX        TY        TZ
        (cm-1)    (nm)                  (au**2)     (au)      (au)      (au)
-----------------------------------------------------------------------------
   0   12866.9    777.2   0.350443673   8.96641   2.25281  -1.79633   0.81514
   1   19008.0    526.1   1.469471851  25.45071   3.43429  -3.25104   1.75702
   2   21109.9    473.7   0.166380888   2.59473  -0.91586   0.67554  -1.13999
   3   23288.1    429.4   0.007516822   0.10626  -0.12229  -0.26944   0.13677
   4   26023.7    384.3   0.017481654   0.22115  -0.35780  -0.15775   0.26125
   5   26258.2    380.8   0.029082580   0.36462   0.25748  -0.54326  -0.05650
   6   26718.7    374.3   0.268531071   3.30869  -1.47375   1.06317  -0.08013
   7   27644.0    361.7   0.016037880   0.19100   0.08169  -0.23883   0.35677
   8   27942.6    357.9   0.033019808   0.38903  -0.53183   0.02820  -0.32463
   9   28581.4    349.9   0.020454634   0.23560   0.22053   0.01941  -0.43197
  10   28777.0    347.5   0.316154894   3.61685  -1.77825   0.51880  -0.43072
  11   28857.1    346.5   0.047139764   0.53779   0.25571  -0.56686   0.38868
  12   29387.5    340.3   0.138402892   1.55045  -0.82609   0.84916  -0.38335
  13   29886.5    334.6   0.070934628   0.78137   0.86089  -0.06643   0.18926
  14   30060.8    332.7   0.472138379   5.17064  -0.29571   1.02212  -2.00959
  15   30301.3    330.0   0.113412090   1.23218   0.75670  -0.77095  -0.25537
  16   30502.5    327.8   0.049020953   0.52908  -0.35193   0.56620   0.29094
  17   31125.9    321.3   0.184188529   1.94812   1.19218  -0.30213   0.65996
  18   31501.1    317.4   0.004279187   0.04472  -0.03263  -0.18096   0.10445
  19   31837.7    314.1   0.072624576   0.75096   0.70404  -0.41526   0.28785
  20   32310.4    309.5   0.101325246   1.03241  -0.70548   0.60223  -0.41476
  21   32463.2    308.0   0.019379031   0.19652   0.19465  -0.05678   0.39423
  22   32588.4    306.9   0.151929713   1.53481   0.29636   0.59080  -1.04783
  23   32733.1    305.5   0.034441842   0.34640  -0.49567  -0.12989  -0.28955
  24   33310.3    300.2   0.082040006   0.81082  -0.25749   0.85156   0.13916
  25   33841.3    295.5   0.176128377   1.71340  -0.27426   1.26481  -0.19602
  26   34096.6    293.3   0.104480801   1.00879  -0.83251   0.55164  -0.10682
  27   34149.0    292.8   0.239809046   2.31187   1.25897   0.24278   0.81727
  28   34538.5    289.5   0.179577751   1.71169   0.17637  -1.18106   0.53449
  29   34817.2    287.2   0.268241010   2.53634   0.99965  -0.37794  -1.18076
  30   35000.6    285.7   0.098747174   0.92881  -0.61860   0.59771  -0.43461
  31   35140.7    284.6   0.361023483   3.38221   1.25968  -0.77154   1.09551
  32   35388.4    282.6   0.142782819   1.32828  -0.90041   0.59832  -0.39945
  33   35639.6    280.6   0.163750441   1.51260   0.60171   0.90172  -0.58091
  34   35996.4    277.8   0.140561044   1.28553  -0.05465   0.65120  -0.92654
  35   36478.2    274.1   0.033506675   0.30239  -0.39416   0.34426  -0.16887
  36   36747.3    272.1   0.015897700   0.14242   0.07173   0.15401   0.33699
  37   36771.6    271.9   0.089595401   0.80214  -0.54670   0.63635  -0.31356
  38   36876.4    271.2   0.079855807   0.71291  -0.10397   0.69872   0.46248
  39   37657.8    265.5   0.022059984   0.19285   0.24848   0.35548  -0.06890
  40   37814.0    264.5   0.054841565   0.47746  -0.07336   0.47997  -0.49164
  41   37982.6    263.3   0.043131418   0.37384  -0.24000   0.53121  -0.18454
  42   38408.5    260.4   0.031369395   0.26888   0.47723   0.19738   0.04661
  43   38628.8    258.9   0.179662725   1.53117   1.04376  -0.52300  -0.41012
  44   38747.8    258.1   0.046853996   0.39808  -0.61761   0.09888  -0.08290
  45   38878.5    257.2   0.029334367   0.24839  -0.03325   0.03681   0.49592
  46   39265.9    254.7   0.019604745   0.16437  -0.38304   0.12940   0.03005
  47   39379.9    253.9   0.082412566   0.68896  -0.30570  -0.50228   0.58585
  48   39489.7    253.2   0.028543900   0.23796   0.24106   0.28502  -0.31403
  49   39731.2    251.7   0.017670696   0.14642   0.26472  -0.25748   0.10025
  50   40104.2    249.4   0.025862829   0.21231   0.22649   0.39235  -0.08408
  51   40231.5    248.6   0.049790039   0.40743  -0.03777  -0.33653   0.54106

FINAL SINGLE POINT ENERGY     -4082.632171549682

DIPOLE MOMENT
-------------
                                X             Y             Z
Electronic contribution:    -19.32698      16.36850       1.92147
Nuclear contribution   :     18.94585     -19.66291      -1.99249
                        -----------------------------------------
Total Dipole Moment    :     -0.38113      -3.29440      -0.07102
                        -----------------------------------------
Magnitude (a.u.)       :      3.31714
Magnitude (Debye)      :      8.43149

Rotational constants in cm-1:     0.002878     0.000181     0.000174
Rotational constants in MHz :    86.293861     5.432969     5.228405

                             ****ORCA TERMINATED NORMALLY****
TOTAL RUN TIME: 0 days 0 hours 10 minutes 49 seconds 881 msec
