                         Program Version 4.2.0 -  RELEASE  -
|  1> # ORCA input file
|  2> # SCF done       -198.701684621863          0.000865516564
|  3> ! CAM-B3LYP def2-SVP def2/J RIJCOSX Grid4 TightSCF
|  4> %maxcore 5000
|  5> %tddft
|  6>     Mode sTDDFT
|  7>     Ethresh 5.0
|  8>     maxcore 5000
|  9> end
| 10>
| 11> %pal
| 12>   nprocs 6
| 13>   end
| 14> * xyz 0 1
| 15>    C        0.37502        -0.99273        -4.63477
| 16>    C       -0.95870        -1.27798        -4.73101
| 17>    F       -1.59694        -1.07439        -5.89695
| 18>    C       -1.69974        -1.78085        -3.65268
| 19>    C       -1.06854        -1.99596        -2.45930
| 20>    C        0.30572        -1.72087        -2.30460
| 21>    C        1.04112        -1.20674        -3.41262
| 22>    C        2.41918        -0.91577        -3.28018
| 23>    C        3.03764        -1.13792        -2.08014
| 24>    C        2.30302        -1.67286        -0.98271
| 25>    C        0.97040        -1.95296        -1.07980
| 26>    C        3.21239        -1.87119         0.15951
| 27>    O        2.94318        -2.25368         1.27471
| 28>    C        4.57443        -1.56217        -0.36677
| 29>    C        4.41749        -0.91801        -1.65263
| 30>    C        5.29039        -0.04525        -2.24944
| 31>    C        6.53283         0.32078        -1.69794
| 32>    N        7.54385         0.65683        -1.26952
| 33>    C        5.00392         0.66052        -3.43712
| 34>    N        4.81835         1.26266        -4.39590
| 35>    C        5.65403        -1.98508         0.34919
| 36>    C        6.98614        -2.17313        -0.07381
| 37>    C        7.49289        -2.28015        -1.36203
| 38>    C        8.86203        -2.50608        -1.37142
| 39>    C        9.41575        -2.58312        -0.07618
| 40>    S        8.24419        -2.38968         1.14057
| 41>    C       10.80788        -2.80749        -0.20036
| 42>    C       11.13816        -2.86186        -1.56687
| 43>    C        9.92603        -2.66251        -2.34719
| 44>    C        9.80620        -2.60526        -3.70454
| 45>    C       10.91541        -2.75774        -4.56234
| 46>    N       11.82124        -2.88855        -5.25294
| 47>    C        8.55584        -2.39255        -4.32332
| 48>    N        7.53143        -2.22721        -4.81094
| 49>    C       12.49280        -3.09794        -1.79280
| 50>    C       13.19930        -3.23182        -0.60834
| 51>    S       12.16997        -3.04696         0.80097
| 52>    C       14.57965        -3.51665        -0.44045
| 53>    C       15.52544        -3.67289        -1.43777
| 54>    C       16.80988        -3.98924        -0.99896
| 55>    C       16.96210        -4.10388         0.36977
| 56>   Se       15.33711        -3.77320         1.26158
| 57>    C       18.14003        -4.44621         1.07839
| 58>    C       18.27435        -4.57676         2.45152
| 59>    C       19.56032        -4.95940         2.81952
| 60>    C       20.41905        -5.12111         1.71744
| 61>    S       19.63776        -4.79695         0.23075
| 62>    C       21.68580        -5.53437         2.19038
| 63>    C       21.63439        -5.62729         3.59745
| 64>    C       20.29831        -5.26734         4.03715
| 65>    C       19.82534        -5.22770         5.31522
| 66>    C       20.63572        -5.53823         6.42832
| 67>    N       21.29233        -5.78029         7.33612
| 68>    C       18.49312        -4.86448         5.60646
| 69>    N       17.41109        -4.56502         5.83848
| 70>    C       22.84148        -6.03367         4.15373
| 71>    C       23.80571        -6.29508         3.19123
| 72>    S       23.20848        -5.96113         1.56440
| 73>    C       25.13662        -6.69038         3.45206
| 74>    C       26.06542        -7.23323         2.61838
| 75>    C       27.51045        -7.12573         2.96978
| 76>    O       27.97106        -6.81141         4.04237
| 77>    C       28.23243        -7.41839         1.71701
| 78>    C       29.57032        -7.33881         1.45782
| 79>    C       30.04025        -7.64337         0.16070
| 80>    C       29.10808        -8.01936        -0.85049
| 81>    C       29.58340        -8.31126        -2.14362
| 82>    C       30.92421        -8.23296        -2.39949
| 83>    C       31.85674        -7.86923        -1.41828
| 84>    C       31.41233        -7.58018        -0.15818
| 85>    F       31.37971        -8.51184        -3.63362
| 86>    C       27.72808        -8.10278        -0.55135
| 87>    C       27.29897        -7.81417         0.71529
| 88>    C       25.96975        -7.85867         1.31752
| 89>    C       24.92043        -8.61231         0.85861
| 90>    C       23.76472        -8.87276         1.62241
| 91>    N       22.83377        -9.13653         2.24037
| 92>    C       24.92107        -9.28428        -0.38001
| 93>    N       24.86542        -9.82889        -1.38888
| 94>    H        0.91332        -0.60352        -5.48474
| 95>    H       -2.74952        -1.98738        -3.78805
| 96>    H       -1.61795        -2.38323        -1.61448
| 97>    H        2.95513        -0.53906        -4.13695
| 98>    H        0.43000        -2.34970        -0.23347
| 99>    H        5.43043        -2.28539         1.36875
|100>    H        6.87441        -2.24407        -2.24000
|101>    H       12.94620        -3.17884        -2.76318
|102>    H       15.28430        -3.56017        -2.48034
|103>    H       17.63519        -4.14234        -1.67458
|104>    H       17.45451        -4.40170         3.12921
|105>    H       23.02370        -6.17302         5.20408
|106>    H       25.49782        -6.45683         4.44982
|107>    H       30.26282        -7.04775         2.23331
|108>    H       28.89473        -8.59933        -2.92243
|109>    H       32.90239        -7.82535        -1.67846
|110>    H       32.11140        -7.29744         0.61436
|111>    H       27.04223        -8.38350        -1.33518
|112> *
|113>
|114>                          ****END OF INPUT****

CARTESIAN COORDINATES (ANGSTROEM)
---------------------------------
  C      0.375020   -0.992730   -4.634770
  C     -0.958700   -1.277980   -4.731010
  F     -1.596940   -1.074390   -5.896950
  C     -1.699740   -1.780850   -3.652680
  C     -1.068540   -1.995960   -2.459300
  C      0.305720   -1.720870   -2.304600
  C      1.041120   -1.206740   -3.412620
  C      2.419180   -0.915770   -3.280180
  C      3.037640   -1.137920   -2.080140
  C      2.303020   -1.672860   -0.982710
  C      0.970400   -1.952960   -1.079800
  C      3.212390   -1.871190    0.159510
  O      2.943180   -2.253680    1.274710
  C      4.574430   -1.562170   -0.366770
  C      4.417490   -0.918010   -1.652630
  C      5.290390   -0.045250   -2.249440
  C      6.532830    0.320780   -1.697940
  N      7.543850    0.656830   -1.269520
  C      5.003920    0.660520   -3.437120
  N      4.818350    1.262660   -4.395900
  C      5.654030   -1.985080    0.349190
  C      6.986140   -2.173130   -0.073810
  C      7.492890   -2.280150   -1.362030
  C      8.862030   -2.506080   -1.371420
  C      9.415750   -2.583120   -0.076180
  S      8.244190   -2.389680    1.140570
  C     10.807880   -2.807490   -0.200360
  C     11.138160   -2.861860   -1.566870
  C      9.926030   -2.662510   -2.347190
  C      9.806200   -2.605260   -3.704540
  C     10.915410   -2.757740   -4.562340
  N     11.821240   -2.888550   -5.252940
  C      8.555840   -2.392550   -4.323320
  N      7.531430   -2.227210   -4.810940
  C     12.492800   -3.097940   -1.792800
  C     13.199300   -3.231820   -0.608340
  S     12.169970   -3.046960    0.800970
  C     14.579650   -3.516650   -0.440450
  C     15.525440   -3.672890   -1.437770
  C     16.809880   -3.989240   -0.998960
  C     16.962100   -4.103880    0.369770
  Se    15.337110   -3.773200    1.261580
  C     18.140030   -4.446210    1.078390
  C     18.274350   -4.576760    2.451520
  C     19.560320   -4.959400    2.819520
  C     20.419050   -5.121110    1.717440
  S     19.637760   -4.796950    0.230750
  C     21.685800   -5.534370    2.190380
  C     21.634390   -5.627290    3.597450
  C     20.298310   -5.267340    4.037150
  C     19.825340   -5.227700    5.315220
  C     20.635720   -5.538230    6.428320
  N     21.292330   -5.780290    7.336120
  C     18.493120   -4.864480    5.606460
  N     17.411090   -4.565020    5.838480
  C     22.841480   -6.033670    4.153730
  C     23.805710   -6.295080    3.191230
  S     23.208480   -5.961130    1.564400
  C     25.136620   -6.690380    3.452060
  C     26.065420   -7.233230    2.618380
  C     27.510450   -7.125730    2.969780
  O     27.971060   -6.811410    4.042370
  C     28.232430   -7.418390    1.717010
  C     29.570320   -7.338810    1.457820
  C     30.040250   -7.643370    0.160700
  C     29.108080   -8.019360   -0.850490
  C     29.583400   -8.311260   -2.143620
  C     30.924210   -8.232960   -2.399490
  C     31.856740   -7.869230   -1.418280
  C     31.412330   -7.580180   -0.158180
  F     31.379710   -8.511840   -3.633620
  C     27.728080   -8.102780   -0.551350
  C     27.298970   -7.814170    0.715290
  C     25.969750   -7.858670    1.317520
  C     24.920430   -8.612310    0.858610
  C     23.764720   -8.872760    1.622410
  N     22.833770   -9.136530    2.240370
  C     24.921070   -9.284280   -0.380010
  N     24.865420   -9.828890   -1.388880
  H      0.913320   -0.603520   -5.484740
  H     -2.749520   -1.987380   -3.788050
  H     -1.617950   -2.383230   -1.614480
  H      2.955130   -0.539060   -4.136950
  H      0.430000   -2.349700   -0.233470
  H      5.430430   -2.285390    1.368750
  H      6.874410   -2.244070   -2.240000
  H     12.946200   -3.178840   -2.763180
  H     15.284300   -3.560170   -2.480340
  H     17.635190   -4.142340   -1.674580
  H     17.454510   -4.401700    3.129210
  H     23.023700   -6.173020    5.204080
  H     25.497820   -6.456830    4.449820
  H     30.262820   -7.047750    2.233310
  H     28.894730   -8.599330   -2.922430
  H     32.902390   -7.825350   -1.678460
  H     32.111400   -7.297440    0.614360
  H     27.042230   -8.383500   -1.335180

 Total Charge           Charge          ....    0
 Multiplicity           Mult            ....    1
 Number of Electrons    NEL             ....  578
 Basis Dimension        Dim             .... 1230

ORBITAL ENERGIES
----------------

  NO   OCC          E(Eh)            E(eV)
   0   2.0000    -453.951853    -12352.6579
   1   2.0000     -89.001835     -2421.8631
   2   2.0000     -89.001017     -2421.8408
   3   2.0000     -89.000932     -2421.8385
   4   2.0000     -88.999759     -2421.8066
   5   2.0000     -58.167095     -1582.8071
   6   2.0000     -52.237062     -1421.4427
   7   2.0000     -52.236243     -1421.4204
   8   2.0000     -52.235226     -1421.3928
   9   2.0000     -24.789150      -674.5471
  10   2.0000     -24.785785      -674.4555
  11   2.0000     -19.217654      -522.9389
  12   2.0000     -19.215803      -522.8886
  13   2.0000     -14.438873      -392.9017
  14   2.0000     -14.437677      -392.8692
  15   2.0000     -14.437536      -392.8653
  16   2.0000     -14.437298      -392.8589
  17   2.0000     -14.421153      -392.4195
  18   2.0000     -14.420347      -392.3976
  19   2.0000     -14.419898      -392.3854
  20   2.0000     -14.414508      -392.2387
  21   2.0000     -10.374379      -282.3012
  22   2.0000     -10.373217      -282.2696
  23   2.0000     -10.372695      -282.2554
  24   2.0000     -10.369799      -282.1766
  25   2.0000     -10.369707      -282.1741
  26   2.0000     -10.367442      -282.1124
  27   2.0000     -10.361431      -281.9489
  28   2.0000     -10.359859      -281.9061
  29   2.0000     -10.350906      -281.6625
  30   2.0000     -10.349314      -281.6192
  31   2.0000     -10.348079      -281.5855
  32   2.0000     -10.348021      -281.5840
  33   2.0000     -10.345490      -281.5151
  34   2.0000     -10.344199      -281.4800
  35   2.0000     -10.343186      -281.4524
  36   2.0000     -10.341417      -281.4043
  37   2.0000     -10.341392      -281.4036
  38   2.0000     -10.341025      -281.3936
  39   2.0000     -10.339026      -281.3392
  40   2.0000     -10.337715      -281.3035
  41   2.0000     -10.337426      -281.2957
  42   2.0000     -10.337327      -281.2930
  43   2.0000     -10.332760      -281.1687
  44   2.0000     -10.332385      -281.1585
  45   2.0000     -10.332221      -281.1540
  46   2.0000     -10.330716      -281.1131
  47   2.0000     -10.329212      -281.0722
  48   2.0000     -10.327142      -281.0158
  49   2.0000     -10.323578      -280.9188
  50   2.0000     -10.322245      -280.8826
  51   2.0000     -10.320881      -280.8455
  52   2.0000     -10.319002      -280.7943
  53   2.0000     -10.318658      -280.7849
  54   2.0000     -10.316880      -280.7366
  55   2.0000     -10.316687      -280.7313
  56   2.0000     -10.316476      -280.7256
  57   2.0000     -10.312861      -280.6272
  58   2.0000     -10.312799      -280.6255
  59   2.0000     -10.311390      -280.5872
  60   2.0000     -10.311352      -280.5861
  61   2.0000     -10.310761      -280.5701
  62   2.0000     -10.310266      -280.5566
  63   2.0000     -10.306691      -280.4593
  64   2.0000     -10.306470      -280.4533
  65   2.0000     -10.305106      -280.4162
  66   2.0000     -10.303934      -280.3843
  67   2.0000     -10.302989      -280.3586
  68   2.0000     -10.302841      -280.3545
  69   2.0000     -10.301848      -280.3275
  70   2.0000     -10.301814      -280.3266
  71   2.0000     -10.301609      -280.3210
  72   2.0000     -10.301178      -280.3093
  73   2.0000     -10.300853      -280.3004
  74   2.0000     -10.300498      -280.2908
  75   2.0000     -10.298598      -280.2391
  76   2.0000     -10.297987      -280.2225
  77   2.0000     -10.297936      -280.2211
  78   2.0000     -10.294696      -280.1329
  79   2.0000     -10.294326      -280.1228
  80   2.0000     -10.292634      -280.0768
  81   2.0000     -10.290912      -280.0300
  82   2.0000     -10.288948      -279.9765
  83   2.0000      -8.096280      -220.3110
  84   2.0000      -8.095675      -220.2945
  85   2.0000      -8.095131      -220.2797
  86   2.0000      -8.094407      -220.2600
  87   2.0000      -7.940994      -216.0854
  88   2.0000      -6.065587      -165.0530
  89   2.0000      -6.064940      -165.0354
  90   2.0000      -6.064410      -165.0210
  91   2.0000      -6.063568      -164.9981
  92   2.0000      -6.061394      -164.9389
  93   2.0000      -6.060742      -164.9212
  94   2.0000      -6.060141      -164.9048
  95   2.0000      -6.059404      -164.8848
  96   2.0000      -6.058545      -164.8614
  97   2.0000      -6.058001      -164.8466
  98   2.0000      -6.057569      -164.8348
  99   2.0000      -6.056924      -164.8173
 100   2.0000      -5.890138      -160.2788
 101   2.0000      -5.886125      -160.1696
 102   2.0000      -5.880469      -160.0157
 103   2.0000      -2.244878       -61.0862
 104   2.0000      -2.244416       -61.0737
 105   2.0000      -2.239145       -60.9302
 106   2.0000      -2.235869       -60.8411
 107   2.0000      -2.235287       -60.8253
 108   2.0000      -1.304260       -35.4907
 109   2.0000      -1.300922       -35.3999
 110   2.0000      -1.133416       -30.8418
 111   2.0000      -1.131497       -30.7896
 112   2.0000      -1.056401       -28.7461
 113   2.0000      -1.055107       -28.7109
 114   2.0000      -1.030728       -28.0475
 115   2.0000      -1.029472       -28.0133
 116   2.0000      -1.025118       -27.8949
 117   2.0000      -1.021632       -27.8000
 118   2.0000      -1.016034       -27.6477
 119   2.0000      -1.015141       -27.6234
 120   2.0000      -1.012689       -27.5567
 121   2.0000      -1.009193       -27.4615
 122   2.0000      -1.005123       -27.3508
 123   2.0000      -1.002210       -27.2715
 124   2.0000      -0.998989       -27.1839
 125   2.0000      -0.994706       -27.0673
 126   2.0000      -0.985650       -26.8209
 127   2.0000      -0.980609       -26.6837
 128   2.0000      -0.977217       -26.5914
 129   2.0000      -0.969445       -26.3800
 130   2.0000      -0.962708       -26.1966
 131   2.0000      -0.935374       -25.4528
 132   2.0000      -0.932525       -25.3753
 133   2.0000      -0.926343       -25.2071
 134   2.0000      -0.921838       -25.0845
 135   2.0000      -0.906235       -24.6599
 136   2.0000      -0.902400       -24.5555
 137   2.0000      -0.891492       -24.2587
 138   2.0000      -0.887961       -24.1627
 139   2.0000      -0.885155       -24.0863
 140   2.0000      -0.883476       -24.0406
 141   2.0000      -0.881116       -23.9764
 142   2.0000      -0.872126       -23.7318
 143   2.0000      -0.868535       -23.6340
 144   2.0000      -0.866761       -23.5858
 145   2.0000      -0.855409       -23.2769
 146   2.0000      -0.841352       -22.8944
 147   2.0000      -0.838399       -22.8140
 148   2.0000      -0.835452       -22.7338
 149   2.0000      -0.822774       -22.3888
 150   2.0000      -0.815000       -22.1773
 151   2.0000      -0.797047       -21.6888
 152   2.0000      -0.786442       -21.4002
 153   2.0000      -0.785281       -21.3686
 154   2.0000      -0.775927       -21.1141
 155   2.0000      -0.766274       -20.8514
 156   2.0000      -0.761800       -20.7296
 157   2.0000      -0.747367       -20.3369
 158   2.0000      -0.735045       -20.0016
 159   2.0000      -0.725894       -19.7526
 160   2.0000      -0.718630       -19.5549
 161   2.0000      -0.713671       -19.4200
 162   2.0000      -0.713606       -19.4182
 163   2.0000      -0.711393       -19.3580
 164   2.0000      -0.709778       -19.3140
 165   2.0000      -0.697003       -18.9664
 166   2.0000      -0.694357       -18.8944
 167   2.0000      -0.690867       -18.7994
 168   2.0000      -0.687772       -18.7152
 169   2.0000      -0.685184       -18.6448
 170   2.0000      -0.679445       -18.4886
 171   2.0000      -0.665871       -18.1193
 172   2.0000      -0.664071       -18.0703
 173   2.0000      -0.644879       -17.5481
 174   2.0000      -0.641444       -17.4546
 175   2.0000      -0.640982       -17.4420
 176   2.0000      -0.638744       -17.3811
 177   2.0000      -0.634627       -17.2691
 178   2.0000      -0.633417       -17.2362
 179   2.0000      -0.630292       -17.1511
 180   2.0000      -0.629014       -17.1163
 181   2.0000      -0.628340       -17.0980
 182   2.0000      -0.627440       -17.0735
 183   2.0000      -0.618089       -16.8191
 184   2.0000      -0.612395       -16.6641
 185   2.0000      -0.606295       -16.4981
 186   2.0000      -0.602847       -16.4043
 187   2.0000      -0.595734       -16.2107
 188   2.0000      -0.583197       -15.8696
 189   2.0000      -0.577812       -15.7231
 190   2.0000      -0.573766       -15.6130
 191   2.0000      -0.568871       -15.4798
 192   2.0000      -0.565492       -15.3878
 193   2.0000      -0.562519       -15.3069
 194   2.0000      -0.561670       -15.2838
 195   2.0000      -0.558362       -15.1938
 196   2.0000      -0.558274       -15.1914
 197   2.0000      -0.557074       -15.1588
 198   2.0000      -0.553124       -15.0513
 199   2.0000      -0.549576       -14.9547
 200   2.0000      -0.546802       -14.8792
 201   2.0000      -0.545133       -14.8338
 202   2.0000      -0.540772       -14.7152
 203   2.0000      -0.539331       -14.6759
 204   2.0000      -0.536420       -14.5967
 205   2.0000      -0.533146       -14.5076
 206   2.0000      -0.527400       -14.3513
 207   2.0000      -0.525244       -14.2926
 208   2.0000      -0.523788       -14.2530
 209   2.0000      -0.522484       -14.2175
 210   2.0000      -0.518046       -14.0968
 211   2.0000      -0.517126       -14.0717
 212   2.0000      -0.516443       -14.0531
 213   2.0000      -0.514683       -14.0052
 214   2.0000      -0.514030       -13.9875
 215   2.0000      -0.513345       -13.9688
 216   2.0000      -0.512029       -13.9330
 217   2.0000      -0.507677       -13.8146
 218   2.0000      -0.506779       -13.7901
 219   2.0000      -0.505010       -13.7420
 220   2.0000      -0.498121       -13.5546
 221   2.0000      -0.497135       -13.5277
 222   2.0000      -0.495499       -13.4832
 223   2.0000      -0.493997       -13.4423
 224   2.0000      -0.492830       -13.4106
 225   2.0000      -0.488098       -13.2818
 226   2.0000      -0.487166       -13.2565
 227   2.0000      -0.485736       -13.2176
 228   2.0000      -0.482628       -13.1330
 229   2.0000      -0.479754       -13.0548
 230   2.0000      -0.475361       -12.9352
 231   2.0000      -0.473485       -12.8842
 232   2.0000      -0.469231       -12.7684
 233   2.0000      -0.468949       -12.7608
 234   2.0000      -0.468071       -12.7369
 235   2.0000      -0.467764       -12.7285
 236   2.0000      -0.466418       -12.6919
 237   2.0000      -0.464155       -12.6303
 238   2.0000      -0.461493       -12.5579
 239   2.0000      -0.460891       -12.5415
 240   2.0000      -0.457421       -12.4471
 241   2.0000      -0.455242       -12.3878
 242   2.0000      -0.452812       -12.3216
 243   2.0000      -0.452408       -12.3107
 244   2.0000      -0.452090       -12.3020
 245   2.0000      -0.448928       -12.2160
 246   2.0000      -0.447984       -12.1903
 247   2.0000      -0.447759       -12.1842
 248   2.0000      -0.447381       -12.1739
 249   2.0000      -0.447296       -12.1715
 250   2.0000      -0.445848       -12.1321
 251   2.0000      -0.443878       -12.0785
 252   2.0000      -0.443108       -12.0576
 253   2.0000      -0.441107       -12.0031
 254   2.0000      -0.438198       -11.9240
 255   2.0000      -0.435066       -11.8387
 256   2.0000      -0.434199       -11.8151
 257   2.0000      -0.433556       -11.7977
 258   2.0000      -0.431904       -11.7527
 259   2.0000      -0.431445       -11.7402
 260   2.0000      -0.429385       -11.6842
 261   2.0000      -0.426917       -11.6170
 262   2.0000      -0.423410       -11.5216
 263   2.0000      -0.422489       -11.4965
 264   2.0000      -0.421149       -11.4600
 265   2.0000      -0.413213       -11.2441
 266   2.0000      -0.412497       -11.2246
 267   2.0000      -0.405049       -11.0220
 268   2.0000      -0.403717       -10.9857
 269   2.0000      -0.395125       -10.7519
 270   2.0000      -0.385515       -10.4904
 271   2.0000      -0.382392       -10.4054
 272   2.0000      -0.377920       -10.2837
 273   2.0000      -0.366120        -9.9626
 274   2.0000      -0.358802        -9.7635
 275   2.0000      -0.357643        -9.7320
 276   2.0000      -0.348136        -9.4733
 277   2.0000      -0.339648        -9.2423
 278   2.0000      -0.337556        -9.1854
 279   2.0000      -0.335503        -9.1295
 280   2.0000      -0.331333        -9.0160
 281   2.0000      -0.328200        -8.9308
 282   2.0000      -0.319565        -8.6958
 283   2.0000      -0.315837        -8.5944
 284   2.0000      -0.310975        -8.4620
 285   2.0000      -0.302346        -8.2273
 286   2.0000      -0.298713        -8.1284
 287   2.0000      -0.279206        -7.5976
 288   2.0000      -0.249993        -6.8026
 289   0.0000      -0.123376        -3.3572
 290   0.0000      -0.114442        -3.1141
 291   0.0000      -0.095106        -2.5880
 292   0.0000      -0.092634        -2.5207
 293   0.0000      -0.065937        -1.7942

MULLIKEN ATOMIC CHARGES
-----------------------
   0 C :   -0.095346
   1 C :    0.302515
   2 F :   -0.189225
   3 C :   -0.030521
   4 C :   -0.008890
   5 C :    0.099656
   6 C :    0.100473
   7 C :   -0.082552
   8 C :    0.034309
   9 C :    0.016077
  10 C :   -0.081478
  11 C :    0.135238
  12 O :   -0.144298
  13 C :   -0.142981
  14 C :    0.267114
  15 C :   -0.330412
  16 C :   -0.203288
  17 N :    0.171997
  18 C :   -0.171371
  19 N :    0.158887
  20 C :    0.088042
  21 C :   -0.110945
  22 C :    0.001023
  23 C :   -0.007279
  24 C :   -0.070777
  25 S :    0.216083
  26 C :   -0.106560
  27 C :    0.019673
  28 C :    0.301057
  29 C :   -0.281964
  30 C :   -0.187500
  31 N :    0.173077
  32 C :   -0.182607
  33 N :    0.172159
  34 C :   -0.039701
  35 C :   -0.024458
  36 S :    0.186774
  37 C :   -0.076673
  38 C :   -0.009726
  39 C :   -0.014920
  40 C :   -0.083973
  41 Se:    0.207069
  42 C :   -0.022578
  43 C :   -0.066002
  44 C :    0.026665
  45 C :   -0.107434
  46 S :    0.201119
  47 C :   -0.076922
  48 C :    0.026228
  49 C :    0.298983
  50 C :   -0.289549
  51 C :   -0.190360
  52 N :    0.180790
  53 C :   -0.184691
  54 N :    0.174123
  55 C :    0.000751
  56 C :   -0.087603
  57 S :    0.207329
  58 C :    0.041568
  59 C :   -0.140705
  60 C :    0.141365
  61 O :   -0.140754
  62 C :    0.008315
  63 C :   -0.074736
  64 C :    0.096061
  65 C :    0.098803
  66 C :   -0.094086
  67 C :    0.302248
  68 C :   -0.031676
  69 C :   -0.006552
  70 F :   -0.188949
  71 C :   -0.080220
  72 C :    0.039430
  73 C :    0.250128
  74 C :   -0.327677
  75 C :   -0.209819
  76 N :    0.172935
  77 C :   -0.171986
  78 N :    0.155194
  79 H :    0.000156
  80 H :    0.004742
  81 H :   -0.009280
  82 H :    0.001294
  83 H :   -0.011287
  84 H :    0.020471
  85 H :    0.025721
  86 H :    0.006406
  87 H :    0.003649
  88 H :    0.001438
  89 H :    0.017182
  90 H :    0.019998
  91 H :    0.034164
  92 H :   -0.009920
  93 H :   -0.001935
  94 H :    0.005804
  95 H :   -0.007560
  96 H :   -0.004556
Sum of atomic charges:   -0.0000000

LOEWDIN ATOMIC CHARGES
----------------------
   0 C :   -0.041021
   1 C :    0.093565
   2 F :   -0.063712
   3 C :   -0.036420
   4 C :    0.004660
   5 C :   -0.018602
   6 C :    0.004013
   7 C :    0.014013
   8 C :   -0.017229
   9 C :   -0.060440
  10 C :    0.034976
  11 C :    0.082621
  12 O :   -0.145556
  13 C :   -0.092209
  14 C :    0.065260
  15 C :   -0.136364
  16 C :   -0.015770
  17 N :   -0.046226
  18 C :   -0.018811
  19 N :   -0.045573
  20 C :    0.042259
  21 C :   -0.181409
  22 C :    0.011952
  23 C :   -0.068254
  24 C :   -0.157417
  25 S :    0.500889
  26 C :   -0.187872
  27 C :   -0.053585
  28 C :    0.082386
  29 C :   -0.095897
  30 C :   -0.015712
  31 N :   -0.030429
  32 C :   -0.013291
  33 N :   -0.029011
  34 C :   -0.026162
  35 C :   -0.165415
  36 S :    0.477204
  37 C :   -0.163717
  38 C :   -0.039293
  39 C :   -0.049048
  40 C :   -0.163206
  41 Se:    0.395403
  42 C :   -0.161316
  43 C :   -0.039804
  44 C :   -0.050595
  45 C :   -0.190013
  46 S :    0.485300
  47 C :   -0.148304
  48 C :   -0.075492
  49 C :    0.080338
  50 C :   -0.095315
  51 C :   -0.017576
  52 N :   -0.024468
  53 C :   -0.015229
  54 N :   -0.030460
  55 C :    0.016143
  56 C :   -0.179536
  57 S :    0.510677
  58 C :    0.051764
  59 C :   -0.102429
  60 C :    0.082728
  61 O :   -0.142810
  62 C :   -0.059655
  63 C :    0.035736
  64 C :   -0.018395
  65 C :    0.003564
  66 C :   -0.042256
  67 C :    0.093788
  68 C :   -0.035893
  69 C :    0.005406
  70 F :   -0.063578
  71 C :    0.010829
  72 C :   -0.017685
  73 C :    0.061148
  74 C :   -0.144883
  75 C :   -0.037502
  76 N :   -0.048484
  77 C :   -0.020388
  78 N :   -0.049816
  79 H :    0.044077
  80 H :    0.042185
  81 H :    0.035712
  82 H :    0.040992
  83 H :    0.039806
  84 H :    0.045732
  85 H :    0.042983
  86 H :    0.041049
  87 H :    0.037163
  88 H :    0.030577
  89 H :    0.037467
  90 H :    0.047766
  91 H :    0.055488
  92 H :    0.040529
  93 H :    0.043288
  94 H :    0.042643
  95 H :    0.036377
  96 H :    0.039077

  Mayer bond orders larger than 0.100000
B(  0-C ,  1-C ) :   1.4406 B(  0-C ,  6-C ) :   1.2033 B(  0-C , 79-H ) :   1.0060
B(  1-C ,  2-F ) :   1.0901 B(  1-C ,  3-C ) :   1.2557 B(  3-C ,  4-C ) :   1.4615
B(  3-C , 80-H ) :   0.9925 B(  4-C ,  5-C ) :   1.2356 B(  4-C , 81-H ) :   0.9963
B(  5-C ,  6-C ) :   1.2560 B(  5-C , 10-C ) :   1.1916 B(  6-C ,  7-C ) :   1.2054
B(  7-C ,  8-C ) :   1.4641 B(  7-C , 82-H ) :   0.9947 B(  8-C ,  9-C ) :   1.2186
B(  8-C , 14-C ) :   0.9930 B(  9-C , 10-C ) :   1.4711 B(  9-C , 11-C ) :   0.9210
B( 10-C , 83-H ) :   1.0149 B( 11-C , 12-O ) :   2.2659 B( 11-C , 13-C ) :   0.9418
B( 13-C , 14-C ) :   1.0411 B( 13-C , 20-C ) :   1.6609 B( 14-C , 15-C ) :   1.6490
B( 15-C , 16-C ) :   1.1728 B( 15-C , 18-C ) :   1.1291 B( 16-C , 17-N ) :   2.9958
B( 18-C , 19-N ) :   2.9917 B( 20-C , 21-C ) :   1.1460 B( 20-C , 84-H ) :   0.9258
B( 21-C , 22-C ) :   1.3913 B( 21-C , 25-S ) :   1.0853 B( 22-C , 23-C ) :   1.3618
B( 22-C , 85-H ) :   0.9786 B( 23-C , 24-C ) :   1.4042 B( 23-C , 28-C ) :   1.0013
B( 24-C , 25-S ) :   1.1579 B( 24-C , 26-C ) :   1.2015 B( 26-C , 27-C ) :   1.4345
B( 26-C , 36-S ) :   1.1159 B( 27-C , 28-C ) :   0.9924 B( 27-C , 34-C ) :   1.3035
B( 28-C , 29-C ) :   1.7198 B( 29-C , 30-C ) :   1.1324 B( 29-C , 32-C ) :   1.1320
B( 30-C , 31-N ) :   2.9896 B( 32-C , 33-N ) :   2.9830 B( 34-C , 35-C ) :   1.4640
B( 34-C , 86-H ) :   0.9944 B( 35-C , 36-S ) :   1.1132 B( 35-C , 37-C ) :   1.1325
B( 37-C , 38-C ) :   1.5311 B( 37-C , 41-Se) :   1.0769 B( 38-C , 39-C ) :   1.2755
B( 38-C , 87-H ) :   0.9966 B( 39-C , 40-C ) :   1.4979 B( 39-C , 88-H ) :   0.9930
B( 40-C , 41-Se) :   1.0890 B( 40-C , 42-C ) :   1.1782 B( 42-C , 43-C ) :   1.4391
B( 42-C , 46-S ) :   1.1152 B( 43-C , 44-C ) :   1.3157 B( 43-C , 89-H ) :   0.9826
B( 44-C , 45-C ) :   1.4341 B( 44-C , 49-C ) :   0.9937 B( 45-C , 46-S ) :   1.1067
B( 45-C , 47-C ) :   1.2180 B( 47-C , 48-C ) :   1.3910 B( 47-C , 57-S ) :   1.1606
B( 48-C , 49-C ) :   0.9938 B( 48-C , 55-C ) :   1.3055 B( 49-C , 50-C ) :   1.7202
B( 50-C , 51-C ) :   1.1329 B( 50-C , 53-C ) :   1.1336 B( 51-C , 52-N ) :   2.9941
B( 53-C , 54-N ) :   2.9873 B( 55-C , 56-C ) :   1.3929 B( 55-C , 90-H ) :   1.0027
B( 56-C , 57-S ) :   1.0788 B( 56-C , 58-C ) :   1.1525 B( 58-C , 59-C ) :   1.6287
B( 58-C , 91-H ) :   0.9449 B( 59-C , 60-C ) :   0.9386 B( 59-C , 73-C ) :   1.0384
B( 60-C , 61-O ) :   2.2727 B( 60-C , 62-C ) :   0.9212 B( 62-C , 63-C ) :   1.4753
B( 62-C , 72-C ) :   1.2188 B( 63-C , 64-C ) :   1.1922 B( 63-C , 92-H ) :   1.0139
B( 64-C , 65-C ) :   1.2560 B( 64-C , 69-C ) :   1.2360 B( 65-C , 66-C ) :   1.2025
B( 65-C , 71-C ) :   1.2060 B( 66-C , 67-C ) :   1.4422 B( 66-C , 93-H ) :   1.0052
B( 67-C , 68-C ) :   1.2548 B( 67-C , 70-F ) :   1.0904 B( 68-C , 69-C ) :   1.4608
B( 68-C , 94-H ) :   0.9934 B( 69-C , 95-H ) :   0.9960 B( 71-C , 72-C ) :   1.4619
B( 71-C , 96-H ) :   0.9938 B( 72-C , 73-C ) :   1.0003 B( 73-C , 74-C ) :   1.6502
B( 74-C , 75-C ) :   1.1541 B( 74-C , 77-C ) :   1.1353 B( 75-C , 76-N ) :   3.0209
B( 77-C , 78-N ) :   2.9886

-----------------------------------------------------------------------------
         ABSORPTION SPECTRUM VIA TRANSITION ELECTRIC DIPOLE MOMENTS
-----------------------------------------------------------------------------
State   Energy  Wavelength   fosc         T2         TX        TY        TZ
        (cm-1)    (nm)                  (au**2)     (au)      (au)      (au)
-----------------------------------------------------------------------------
   0   11528.3    867.4   0.723170231  20.65154  -4.29015   1.30186  -0.74249
   1   12755.6    784.0   0.012124099   0.31291  -0.55738  -0.03088   0.03597
   2   18505.3    540.4   1.580818149  28.12303   4.97011  -1.80164   0.41848
   3   19864.1    503.4   0.053161126   0.88105   0.45586   0.20629   0.79416
   4   20697.4    483.2   0.009435269   0.15008  -0.08716  -0.21924  -0.30727
   5   22232.1    449.8   0.032615651   0.48297   0.07761  -0.53977  -0.43081
   6   25082.2    398.7   0.293189670   3.84821  -1.58507   0.28639  -1.11971
   7   25612.3    390.4   0.064449084   0.82841  -0.89736   0.00069  -0.15214
   8   25953.5    385.3   0.262161545   3.32543   1.66910   0.14088   0.72088
   9   27066.1    369.5   0.111182077   1.35234  -0.98937  -0.27948  -0.54348
  10   27335.2    365.8   0.036636057   0.44123  -0.55278  -0.35166  -0.10952
  11   27679.8    361.3   0.044697122   0.53161  -0.71306   0.14776   0.03631
  12   28102.5    355.8   0.008525668   0.09988   0.12807  -0.28845   0.01649
  13   28355.6    352.7   0.049010204   0.56901   0.33445  -0.15270  -0.65866
  14   28690.2    348.6   0.117030309   1.34289  -0.92749   0.59895  -0.35200
  15   29119.9    343.4   0.009161228   0.10357  -0.31755  -0.04809   0.02058
  16   29296.6    341.3   0.043647425   0.49048  -0.26831   0.21623  -0.60969
  17   29560.9    338.3   0.194975481   2.17139  -0.73420   0.13932   1.27001
  18   29782.2    335.8   0.266357415   2.94432  -0.56382  -0.00676   1.62061
  19   30190.6    331.2   0.053202410   0.58014  -0.25902   0.07101   0.71275
  20   30400.7    328.9   0.477399052   5.16980   2.11589  -0.25403  -0.79265
  21   30524.9    327.6   0.233260263   2.51572  -1.53311  -0.37978  -0.14510
  22   30948.0    323.1   0.276314649   2.93932   1.05462  -0.20947  -1.33538
  23   31301.2    319.5   0.100977958   1.06204   0.96807   0.25129   0.24846
  24   31521.6    317.2   0.074899789   0.78225  -0.09403  -0.02461   0.87909
  25   31843.5    314.0   0.013530979   0.13989   0.01930  -0.07844   0.36519
  26   32209.2    310.5   0.001301425   0.01330   0.08942   0.02989  -0.06642
  27   32300.0    309.6   0.080073898   0.81614   0.08005  -0.10581   0.89361
  28   32966.5    303.3   0.104311885   1.04168  -0.94584   0.25235   0.28876
  29   33012.4    302.9   0.268337817   2.67596  -1.25202   0.30630  -1.00727
  30   33282.7    300.5   0.010894983   0.10777  -0.19815  -0.21945   0.14264
  31   33814.2    295.7   0.033379103   0.32498  -0.52433   0.00144  -0.22373
  32   34072.2    293.5   0.330483822   3.19319   1.66881   0.60126   0.21623
  33   34203.1    292.4   0.147697238   1.42162  -0.36115  -0.29518  -1.09729
  34   34356.6    291.1   0.442557325   4.24068  -1.47807  -0.05622   1.43277
  35   34575.4    289.2   0.231016754   2.19964   0.55297   0.11181  -1.37163
  36   34736.2    287.9   0.019704430   0.18675   0.22227   0.11020  -0.35384
  37   35158.7    284.4   0.373971768   3.50172   1.84595   0.30420   0.04056
  38   35367.4    282.7   0.035926532   0.33442   0.11857   0.07591   0.56089
  39   35475.9    281.9   0.117820793   1.09336  -0.92318  -0.04999   0.48846
  40   35824.7    279.1   0.306836612   2.81968  -1.64061  -0.33347  -0.12998
  41   36070.8    277.2   0.005703928   0.05206   0.16780  -0.07906   0.13286
  42   36460.1    274.3   0.080437385   0.72630   0.71362   0.07203   0.46028
  43   36527.8    273.8   0.130907593   1.17982   1.00330   0.09422  -0.40538
  44   36628.6    273.0   0.008692000   0.07812  -0.03694  -0.11767   0.25082
  45   36823.2    271.6   0.016629203   0.14867   0.23701   0.02912   0.30273
  46   36951.6    270.6   0.035393416   0.31533   0.21900   0.31056   0.41342
  47   37049.9    269.9   0.106838414   0.94933  -0.47156  -0.13013   0.84263
  48   37232.6    268.6   0.018140266   0.16040   0.27955   0.08948   0.27247
  49   37388.3    267.5   0.014288890   0.12582  -0.14433   0.25635  -0.19817
  50   37543.3    266.4   0.032582391   0.28571   0.45688  -0.26861   0.06947
  51   38052.7    262.8   0.017297922   0.14965  -0.31257  -0.19752  -0.11373
  52   38319.8    261.0   0.012391617   0.10646   0.25111  -0.20832   0.00227
  53   38866.4    257.3   0.056884543   0.48183   0.21271  -0.16018   0.64104
  54   39088.9    255.8   0.094329930   0.79446  -0.61780  -0.40004   0.50274
  55   39349.3    254.1   0.043488523   0.36384   0.31711   0.51274   0.01964
  56   39661.2    252.1   0.002086968   0.01732  -0.10514   0.06267  -0.04838
  57   39785.8    251.3   0.015947388   0.13196   0.10155   0.34794   0.02424
  58   40060.8    249.6   0.251857536   2.06971  -0.28881  -0.08577  -1.40675

FINAL SINGLE POINT ENERGY     -7151.072331014304

DIPOLE MOMENT
-------------
                                X             Y             Z
Electronic contribution:      0.53004       6.73700      16.58681
Nuclear contribution   :      0.40023      -6.84533     -16.55352
                        -----------------------------------------
Total Dipole Moment    :      0.93027      -0.10834       0.03329
                        -----------------------------------------
Magnitude (a.u.)       :      0.93715
Magnitude (Debye)      :      2.38205

Rotational constants in cm-1:     0.002140     0.000145     0.000138
Rotational constants in MHz :    64.165855     4.335002     4.136524

                             ****ORCA TERMINATED NORMALLY****
TOTAL RUN TIME: 0 days 0 hours 10 minutes 59 seconds 140 msec
