                         Program Version 4.2.0 -  RELEASE  -
|  1> # ORCA input file
|  2> # SCF done       -186.628832919360          0.000881347369
|  3> ! CAM-B3LYP def2-SVP def2/J RIJCOSX Grid4 TightSCF
|  4> %maxcore 5000
|  5> %tddft
|  6>     Mode sTDDFT
|  7>     Ethresh 5.0
|  8>     maxcore 5000
|  9> end
| 10>
| 11> %pal
| 12>   nprocs 6
| 13>   end
| 14> * xyz 0 1
| 15>    C        4.14742        -1.34795        -8.79176
| 16>    C        3.39182        -0.81889        -9.80086
| 17>    F        3.50388        -1.31928       -11.04432
| 18>    C        2.49378         0.23696        -9.59301
| 19>    C        2.36699         0.76001        -8.33628
| 20>    C        3.12290         0.25409        -7.25887
| 21>    C        4.02828        -0.82255        -7.49058
| 22>    C        4.78982        -1.35423        -6.42378
| 23>    C        4.65181        -0.82000        -5.17205
| 24>    C        3.76034         0.26933        -4.94901
| 25>    C        3.00621         0.79445        -5.95840
| 26>    C        3.83706         0.68185        -3.53376
| 27>    O        3.19162         1.53364        -2.96807
| 28>    C        4.94163        -0.13237        -2.95360
| 29>    C        5.26678        -1.17865        -3.89781
| 30>    C        5.79118        -2.40821        -3.59260
| 31>    C        6.10739        -2.80825        -2.27842
| 32>    N        6.33649        -3.17205        -1.21373
| 33>    C        5.98315        -3.43414        -4.53922
| 34>    N        6.17097        -4.29499        -5.27481
| 35>    C        5.50816         0.24464        -1.77385
| 36>    C        6.78443        -0.06967        -1.25741
| 37>    C        7.19306         0.08995         0.05869
| 38>    C        8.52445        -0.26277         0.24666
| 39>    C        9.15719        -0.65859        -0.95195
| 40>    S        8.10992        -0.61219        -2.29055
| 41>    C       10.49970        -0.98924        -0.66834
| 42>    C       10.72442        -0.81307         0.70979
| 43>    C        9.48872        -0.34993         1.32784
| 44>    C        9.28752        -0.06523         2.64662
| 45>    C       10.31404        -0.19880         3.60498
| 46>    N       11.14825        -0.30074         4.38521
| 47>    C        8.04465         0.38697         3.13853
| 48>    N        7.04101         0.76395         3.54443
| 49>    C       12.02465        -1.12775         1.09155
| 50>    C       12.79352        -1.54444         0.01515
| 51>    S       11.89179        -1.54312        -1.49237
| 52>    C       14.14666        -1.95460         0.02952
| 53>    C       14.90400        -2.39294        -1.04329
| 54>    C       16.19909        -2.73441        -0.66506
| 55>    C       16.43490        -2.55147         0.71587
| 56>    S       15.05745        -1.95896         1.53721
| 57>    C       17.75984        -2.93177         1.00332
| 58>    C       18.37250        -3.36424        -0.19472
| 59>    C       17.40752        -3.24531        -1.28077
| 60>    C       17.60856        -3.54906        -2.59571
| 61>    C       18.84193        -4.04462        -3.06918
| 62>    N       19.84434        -4.44757        -3.45315
| 63>    C       16.59476        -3.38063        -3.56235
| 64>    N       15.77095        -3.23379        -4.34614
| 65>    C       19.68210        -3.77589        -0.02714
| 66>    C       20.10620        -3.66675         1.29959
| 67>    S       18.82409        -3.03042         2.33682
| 68>    C       21.33916        -3.97805         1.88295
| 69>    C       22.44715        -4.53193         1.28119
| 70>    C       23.66822        -4.81762         1.94022
| 71>    C       24.61879        -5.38449         1.14505
| 72>    C       24.19985        -5.58110        -0.18842
| 73>    S       22.56275        -5.01239        -0.40006
| 74>    C       24.90923        -6.14340        -1.23622
| 75>    C       26.22939        -6.64617        -1.21655
| 76>    C       26.64007        -7.15180        -2.41276
| 77>    C       25.66717        -7.07608        -3.44038
| 78>    S       24.20588        -6.32785        -2.82494
| 79>    C       25.81433        -7.52112        -4.73357
| 80>    C       24.81361        -7.42449        -5.70785
| 81>    C       24.91345        -7.86905        -7.00483
| 82>    C       26.10294        -8.52823        -7.57668
| 83>    O       27.13733        -8.76369        -6.99459
| 84>    O       25.89543        -8.84815        -8.86274
| 85>    C       26.96779        -9.49284        -9.52821
| 86>    C       23.81750        -7.70140        -7.87128
| 87>    N       22.91222        -7.55454        -8.56223
| 88>    H        4.82581        -2.16369        -8.98708
| 89>    H        1.92375         0.61313       -10.42764
| 90>    H        1.68196         1.57380        -8.15184
| 91>    H        5.47334        -2.16399        -6.62537
| 92>    H        2.32874         1.61339        -5.76837
| 93>    H        4.92986         0.95206        -1.18669
| 94>    H        6.52386         0.41889         0.83324
| 95>    H       12.41159        -1.06813         2.09311
| 96>    H       14.51250        -2.45729        -2.04279
| 97>    H       20.31056        -4.13369        -0.82012
| 98>    H       21.43185        -3.76607         2.94064
| 99>    H       23.80408        -4.59544         2.98389
|100>    H       25.59935        -5.66665         1.48279
|101>    H       26.83486        -6.62226        -0.32849
|102>    H       27.60943        -7.57988        -2.59536
|103>    H       26.75596        -7.97424        -5.00846
|104>    H       23.87638        -6.96028        -5.41670
|105>    H       26.63084        -9.66360       -10.54709
|106>    H       27.20525       -10.43967        -9.03782
|107>    H       27.85776        -8.85946        -9.51795
|108> *
|109>
|110>                          ****END OF INPUT****

CARTESIAN COORDINATES (ANGSTROEM)
---------------------------------
  C      4.147420   -1.347950   -8.791760
  C      3.391820   -0.818890   -9.800860
  F      3.503880   -1.319280  -11.044320
  C      2.493780    0.236960   -9.593010
  C      2.366990    0.760010   -8.336280
  C      3.122900    0.254090   -7.258870
  C      4.028280   -0.822550   -7.490580
  C      4.789820   -1.354230   -6.423780
  C      4.651810   -0.820000   -5.172050
  C      3.760340    0.269330   -4.949010
  C      3.006210    0.794450   -5.958400
  C      3.837060    0.681850   -3.533760
  O      3.191620    1.533640   -2.968070
  C      4.941630   -0.132370   -2.953600
  C      5.266780   -1.178650   -3.897810
  C      5.791180   -2.408210   -3.592600
  C      6.107390   -2.808250   -2.278420
  N      6.336490   -3.172050   -1.213730
  C      5.983150   -3.434140   -4.539220
  N      6.170970   -4.294990   -5.274810
  C      5.508160    0.244640   -1.773850
  C      6.784430   -0.069670   -1.257410
  C      7.193060    0.089950    0.058690
  C      8.524450   -0.262770    0.246660
  C      9.157190   -0.658590   -0.951950
  S      8.109920   -0.612190   -2.290550
  C     10.499700   -0.989240   -0.668340
  C     10.724420   -0.813070    0.709790
  C      9.488720   -0.349930    1.327840
  C      9.287520   -0.065230    2.646620
  C     10.314040   -0.198800    3.604980
  N     11.148250   -0.300740    4.385210
  C      8.044650    0.386970    3.138530
  N      7.041010    0.763950    3.544430
  C     12.024650   -1.127750    1.091550
  C     12.793520   -1.544440    0.015150
  S     11.891790   -1.543120   -1.492370
  C     14.146660   -1.954600    0.029520
  C     14.904000   -2.392940   -1.043290
  C     16.199090   -2.734410   -0.665060
  C     16.434900   -2.551470    0.715870
  S     15.057450   -1.958960    1.537210
  C     17.759840   -2.931770    1.003320
  C     18.372500   -3.364240   -0.194720
  C     17.407520   -3.245310   -1.280770
  C     17.608560   -3.549060   -2.595710
  C     18.841930   -4.044620   -3.069180
  N     19.844340   -4.447570   -3.453150
  C     16.594760   -3.380630   -3.562350
  N     15.770950   -3.233790   -4.346140
  C     19.682100   -3.775890   -0.027140
  C     20.106200   -3.666750    1.299590
  S     18.824090   -3.030420    2.336820
  C     21.339160   -3.978050    1.882950
  C     22.447150   -4.531930    1.281190
  C     23.668220   -4.817620    1.940220
  C     24.618790   -5.384490    1.145050
  C     24.199850   -5.581100   -0.188420
  S     22.562750   -5.012390   -0.400060
  C     24.909230   -6.143400   -1.236220
  C     26.229390   -6.646170   -1.216550
  C     26.640070   -7.151800   -2.412760
  C     25.667170   -7.076080   -3.440380
  S     24.205880   -6.327850   -2.824940
  C     25.814330   -7.521120   -4.733570
  C     24.813610   -7.424490   -5.707850
  C     24.913450   -7.869050   -7.004830
  C     26.102940   -8.528230   -7.576680
  O     27.137330   -8.763690   -6.994590
  O     25.895430   -8.848150   -8.862740
  C     26.967790   -9.492840   -9.528210
  C     23.817500   -7.701400   -7.871280
  N     22.912220   -7.554540   -8.562230
  H      4.825810   -2.163690   -8.987080
  H      1.923750    0.613130  -10.427640
  H      1.681960    1.573800   -8.151840
  H      5.473340   -2.163990   -6.625370
  H      2.328740    1.613390   -5.768370
  H      4.929860    0.952060   -1.186690
  H      6.523860    0.418890    0.833240
  H     12.411590   -1.068130    2.093110
  H     14.512500   -2.457290   -2.042790
  H     20.310560   -4.133690   -0.820120
  H     21.431850   -3.766070    2.940640
  H     23.804080   -4.595440    2.983890
  H     25.599350   -5.666650    1.482790
  H     26.834860   -6.622260   -0.328490
  H     27.609430   -7.579880   -2.595360
  H     26.755960   -7.974240   -5.008460
  H     23.876380   -6.960280   -5.416700
  H     26.630840   -9.663600  -10.547090
  H     27.205250  -10.439670   -9.037820
  H     27.857760   -8.859460   -9.517950

 Total Charge           Charge          ....    0
 Multiplicity           Mult            ....    1
 Number of Electrons    NEL             ....  534
 Basis Dimension        Dim             .... 1146

ORBITAL ENERGIES
----------------

  NO   OCC          E(Eh)            E(eV)
   0   2.0000     -89.000401     -2421.8240
   1   2.0000     -88.999494     -2421.7993
   2   2.0000     -88.998397     -2421.7695
   3   2.0000     -88.994284     -2421.6576
   4   2.0000     -88.966017     -2420.8884
   5   2.0000     -88.959649     -2420.7151
   6   2.0000     -24.786585      -674.4773
   7   2.0000     -19.253839      -523.9236
   8   2.0000     -19.215106      -522.8696
   9   2.0000     -19.200316      -522.4672
  10   2.0000     -14.437604      -392.8672
  11   2.0000     -14.436080      -392.8257
  12   2.0000     -14.435877      -392.8202
  13   2.0000     -14.434756      -392.7897
  14   2.0000     -14.417850      -392.3296
  15   2.0000     -14.417630      -392.3237
  16   2.0000     -14.381729      -391.3468
  17   2.0000     -10.399295      -282.9792
  18   2.0000     -10.372569      -282.2519
  19   2.0000     -10.371433      -282.2210
  20   2.0000     -10.370558      -282.1972
  21   2.0000     -10.367478      -282.1134
  22   2.0000     -10.359963      -281.9089
  23   2.0000     -10.357599      -281.8446
  24   2.0000     -10.348652      -281.6011
  25   2.0000     -10.346275      -281.5365
  26   2.0000     -10.344927      -281.4998
  27   2.0000     -10.343261      -281.4544
  28   2.0000     -10.342500      -281.4337
  29   2.0000     -10.338977      -281.3379
  30   2.0000     -10.337765      -281.3049
  31   2.0000     -10.337600      -281.3004
  32   2.0000     -10.337072      -281.2860
  33   2.0000     -10.335820      -281.2520
  34   2.0000     -10.335815      -281.2518
  35   2.0000     -10.334494      -281.2159
  36   2.0000     -10.332121      -281.1513
  37   2.0000     -10.331643      -281.1383
  38   2.0000     -10.330229      -281.0998
  39   2.0000     -10.328298      -281.0473
  40   2.0000     -10.327329      -281.0209
  41   2.0000     -10.327075      -281.0140
  42   2.0000     -10.326889      -281.0089
  43   2.0000     -10.320186      -280.8265
  44   2.0000     -10.319478      -280.8073
  45   2.0000     -10.317405      -280.7509
  46   2.0000     -10.317010      -280.7401
  47   2.0000     -10.316041      -280.7137
  48   2.0000     -10.312177      -280.6086
  49   2.0000     -10.311856      -280.5999
  50   2.0000     -10.311277      -280.5841
  51   2.0000     -10.311155      -280.5808
  52   2.0000     -10.310721      -280.5690
  53   2.0000     -10.309306      -280.5305
  54   2.0000     -10.307987      -280.4946
  55   2.0000     -10.307578      -280.4834
  56   2.0000     -10.307574      -280.4833
  57   2.0000     -10.306184      -280.4455
  58   2.0000     -10.306167      -280.4451
  59   2.0000     -10.304672      -280.4044
  60   2.0000     -10.304048      -280.3874
  61   2.0000     -10.302559      -280.3469
  62   2.0000     -10.302322      -280.3404
  63   2.0000     -10.301510      -280.3183
  64   2.0000     -10.300390      -280.2879
  65   2.0000     -10.300174      -280.2820
  66   2.0000     -10.298803      -280.2447
  67   2.0000     -10.297335      -280.2047
  68   2.0000     -10.295471      -280.1540
  69   2.0000     -10.291755      -280.0529
  70   2.0000     -10.290066      -280.0069
  71   2.0000     -10.283947      -279.8404
  72   2.0000     -10.279678      -279.7243
  73   2.0000      -8.094782      -220.2702
  74   2.0000      -8.093857      -220.2450
  75   2.0000      -8.092530      -220.2089
  76   2.0000      -8.088886      -220.1098
  77   2.0000      -8.061797      -219.3726
  78   2.0000      -8.056045      -219.2161
  79   2.0000      -6.064122      -165.0131
  80   2.0000      -6.063197      -164.9880
  81   2.0000      -6.061814      -164.9503
  82   2.0000      -6.059909      -164.8985
  83   2.0000      -6.059010      -164.8740
  84   2.0000      -6.058149      -164.8506
  85   2.0000      -6.057544      -164.8342
  86   2.0000      -6.056992      -164.8191
  87   2.0000      -6.056064      -164.7939
  88   2.0000      -6.054940      -164.7633
  89   2.0000      -6.054055      -164.7392
  90   2.0000      -6.051163      -164.6605
  91   2.0000      -6.031525      -164.1261
  92   2.0000      -6.027392      -164.0137
  93   2.0000      -6.025711      -163.9679
  94   2.0000      -6.022839      -163.8898
  95   2.0000      -6.021684      -163.8584
  96   2.0000      -6.017012      -163.7312
  97   2.0000      -1.301559       -35.4172
  98   2.0000      -1.186980       -32.2994
  99   2.0000      -1.130673       -30.7672
 100   2.0000      -1.092157       -29.7191
 101   2.0000      -1.055391       -28.7187
 102   2.0000      -1.050790       -28.5935
 103   2.0000      -1.029305       -28.0088
 104   2.0000      -1.027180       -27.9510
 105   2.0000      -1.022505       -27.8238
 106   2.0000      -1.015390       -27.6302
 107   2.0000      -1.014158       -27.5966
 108   2.0000      -1.012768       -27.5588
 109   2.0000      -1.011273       -27.5181
 110   2.0000      -1.002377       -27.2761
 111   2.0000      -1.000041       -27.2125
 112   2.0000      -0.995410       -27.0865
 113   2.0000      -0.990190       -26.9444
 114   2.0000      -0.978763       -26.6335
 115   2.0000      -0.969968       -26.3942
 116   2.0000      -0.969536       -26.3824
 117   2.0000      -0.961648       -26.1678
 118   2.0000      -0.933660       -25.4062
 119   2.0000      -0.928319       -25.2608
 120   2.0000      -0.923118       -25.1193
 121   2.0000      -0.918133       -24.9837
 122   2.0000      -0.903275       -24.5794
 123   2.0000      -0.897349       -24.4181
 124   2.0000      -0.888821       -24.1860
 125   2.0000      -0.882617       -24.0172
 126   2.0000      -0.878833       -23.9142
 127   2.0000      -0.875720       -23.8295
 128   2.0000      -0.869056       -23.6482
 129   2.0000      -0.865600       -23.5542
 130   2.0000      -0.862762       -23.4769
 131   2.0000      -0.859412       -23.3858
 132   2.0000      -0.840553       -22.8726
 133   2.0000      -0.837647       -22.7935
 134   2.0000      -0.834984       -22.7211
 135   2.0000      -0.825933       -22.4748
 136   2.0000      -0.811109       -22.0714
 137   2.0000      -0.801216       -21.8022
 138   2.0000      -0.787707       -21.4346
 139   2.0000      -0.781712       -21.2715
 140   2.0000      -0.776106       -21.1189
 141   2.0000      -0.765517       -20.8308
 142   2.0000      -0.757455       -20.6114
 143   2.0000      -0.739287       -20.1170
 144   2.0000      -0.725671       -19.7465
 145   2.0000      -0.717353       -19.5202
 146   2.0000      -0.712710       -19.3938
 147   2.0000      -0.710369       -19.3301
 148   2.0000      -0.703502       -19.1433
 149   2.0000      -0.696429       -18.9508
 150   2.0000      -0.694044       -18.8859
 151   2.0000      -0.690442       -18.7879
 152   2.0000      -0.684766       -18.6334
 153   2.0000      -0.682656       -18.5760
 154   2.0000      -0.675399       -18.3785
 155   2.0000      -0.665284       -18.1033
 156   2.0000      -0.658911       -17.9299
 157   2.0000      -0.644903       -17.5487
 158   2.0000      -0.642737       -17.4898
 159   2.0000      -0.639525       -17.4023
 160   2.0000      -0.638646       -17.3785
 161   2.0000      -0.636602       -17.3228
 162   2.0000      -0.632680       -17.2161
 163   2.0000      -0.630895       -17.1675
 164   2.0000      -0.630215       -17.1490
 165   2.0000      -0.626965       -17.0606
 166   2.0000      -0.623572       -16.9682
 167   2.0000      -0.616611       -16.7789
 168   2.0000      -0.608075       -16.5466
 169   2.0000      -0.603278       -16.4160
 170   2.0000      -0.599219       -16.3056
 171   2.0000      -0.585919       -15.9437
 172   2.0000      -0.578710       -15.7475
 173   2.0000      -0.572823       -15.5873
 174   2.0000      -0.569146       -15.4873
 175   2.0000      -0.565814       -15.3966
 176   2.0000      -0.564004       -15.3473
 177   2.0000      -0.561716       -15.2851
 178   2.0000      -0.559132       -15.2148
 179   2.0000      -0.557797       -15.1784
 180   2.0000      -0.553006       -15.0481
 181   2.0000      -0.550663       -14.9843
 182   2.0000      -0.547886       -14.9087
 183   2.0000      -0.544176       -14.8078
 184   2.0000      -0.540970       -14.7205
 185   2.0000      -0.537095       -14.6151
 186   2.0000      -0.532656       -14.4943
 187   2.0000      -0.528612       -14.3843
 188   2.0000      -0.524849       -14.2819
 189   2.0000      -0.519304       -14.1310
 190   2.0000      -0.518286       -14.1033
 191   2.0000      -0.516275       -14.0486
 192   2.0000      -0.515713       -14.0333
 193   2.0000      -0.514443       -13.9987
 194   2.0000      -0.512963       -13.9584
 195   2.0000      -0.511543       -13.9198
 196   2.0000      -0.510062       -13.8795
 197   2.0000      -0.507013       -13.7965
 198   2.0000      -0.506074       -13.7710
 199   2.0000      -0.501485       -13.6461
 200   2.0000      -0.500033       -13.6066
 201   2.0000      -0.496917       -13.5218
 202   2.0000      -0.494653       -13.4602
 203   2.0000      -0.492674       -13.4064
 204   2.0000      -0.491698       -13.3798
 205   2.0000      -0.490007       -13.3338
 206   2.0000      -0.487566       -13.2674
 207   2.0000      -0.485362       -13.2074
 208   2.0000      -0.483869       -13.1667
 209   2.0000      -0.480887       -13.0856
 210   2.0000      -0.478736       -13.0271
 211   2.0000      -0.474010       -12.8985
 212   2.0000      -0.472097       -12.8464
 213   2.0000      -0.469133       -12.7657
 214   2.0000      -0.467675       -12.7261
 215   2.0000      -0.465830       -12.6759
 216   2.0000      -0.463717       -12.6184
 217   2.0000      -0.462261       -12.5788
 218   2.0000      -0.459509       -12.5039
 219   2.0000      -0.458246       -12.4695
 220   2.0000      -0.452448       -12.3117
 221   2.0000      -0.451235       -12.2787
 222   2.0000      -0.450187       -12.2502
 223   2.0000      -0.448154       -12.1949
 224   2.0000      -0.447548       -12.1784
 225   2.0000      -0.447001       -12.1635
 226   2.0000      -0.446222       -12.1423
 227   2.0000      -0.445088       -12.1115
 228   2.0000      -0.444496       -12.0953
 229   2.0000      -0.442731       -12.0473
 230   2.0000      -0.442157       -12.0317
 231   2.0000      -0.438972       -11.9450
 232   2.0000      -0.437936       -11.9169
 233   2.0000      -0.433722       -11.8022
 234   2.0000      -0.432745       -11.7756
 235   2.0000      -0.430842       -11.7238
 236   2.0000      -0.430372       -11.7110
 237   2.0000      -0.429312       -11.6822
 238   2.0000      -0.428501       -11.6601
 239   2.0000      -0.424677       -11.5561
 240   2.0000      -0.419519       -11.4157
 241   2.0000      -0.414186       -11.2706
 242   2.0000      -0.413569       -11.2538
 243   2.0000      -0.410495       -11.1701
 244   2.0000      -0.409811       -11.1515
 245   2.0000      -0.402559       -10.9542
 246   2.0000      -0.394887       -10.7454
 247   2.0000      -0.393901       -10.7186
 248   2.0000      -0.384398       -10.4600
 249   2.0000      -0.379881       -10.3371
 250   2.0000      -0.372778       -10.1438
 251   2.0000      -0.364888        -9.9291
 252   2.0000      -0.359685        -9.7875
 253   2.0000      -0.356404        -9.6983
 254   2.0000      -0.353027        -9.6063
 255   2.0000      -0.345563        -9.4033
 256   2.0000      -0.343988        -9.3604
 257   2.0000      -0.339938        -9.2502
 258   2.0000      -0.335997        -9.1429
 259   2.0000      -0.331213        -9.0128
 260   2.0000      -0.328692        -8.9442
 261   2.0000      -0.318375        -8.6634
 262   2.0000      -0.313012        -8.5175
 263   2.0000      -0.300526        -8.1777
 264   2.0000      -0.288860        -7.8603
 265   2.0000      -0.259934        -7.0732
 266   2.0000      -0.224940        -6.1209
 267   0.0000      -0.123000        -3.3470
 268   0.0000      -0.113023        -3.0755
 269   0.0000      -0.097680        -2.6580
 270   0.0000      -0.092710        -2.5228
 271   0.0000      -0.058497        -1.5918

MULLIKEN ATOMIC CHARGES
-----------------------
   0 C :   -0.098857
   1 C :    0.304206
   2 F :   -0.189467
   3 C :   -0.027670
   4 C :   -0.011415
   5 C :    0.100726
   6 C :    0.101269
   7 C :   -0.084119
   8 C :    0.041068
   9 C :    0.008390
  10 C :   -0.080771
  11 C :    0.143960
  12 O :   -0.141774
  13 C :   -0.143663
  14 C :    0.247027
  15 C :   -0.325642
  16 C :   -0.206958
  17 N :    0.171912
  18 C :   -0.174457
  19 N :    0.158319
  20 C :    0.046333
  21 C :   -0.095708
  22 C :    0.010630
  23 C :    0.021719
  24 C :   -0.075498
  25 S :    0.207780
  26 C :   -0.104845
  27 C :    0.030867
  28 C :    0.298459
  29 C :   -0.291829
  30 C :   -0.188729
  31 N :    0.174132
  32 C :   -0.190197
  33 N :    0.183724
  34 C :   -0.072912
  35 C :   -0.042254
  36 S :    0.206361
  37 C :   -0.055082
  38 C :   -0.062591
  39 C :    0.015912
  40 C :   -0.096149
  41 S :    0.197890
  42 C :   -0.099847
  43 C :    0.000589
  44 C :    0.305393
  45 C :   -0.292718
  46 C :   -0.180251
  47 N :    0.177551
  48 C :   -0.189073
  49 N :    0.175839
  50 C :   -0.041093
  51 C :   -0.092070
  52 S :    0.187786
  53 C :    0.031979
  54 C :   -0.033245
  55 C :    0.039372
  56 C :    0.029841
  57 C :   -0.027092
  58 S :    0.074835
  59 C :   -0.046735
  60 C :    0.034181
  61 C :    0.035712
  62 C :    0.006976
  63 S :    0.108784
  64 C :   -0.039263
  65 C :    0.042920
  66 C :   -0.208478
  67 C :    0.219937
  68 O :   -0.223481
  69 O :   -0.287571
  70 C :    0.189797
  71 C :   -0.113991
  72 N :    0.092387
  73 H :   -0.000658
  74 H :    0.004660
  75 H :   -0.007616
  76 H :   -0.002568
  77 H :   -0.009855
  78 H :    0.034207
  79 H :    0.018680
  80 H :    0.012929
  81 H :    0.014192
  82 H :    0.027775
  83 H :   -0.011804
  84 H :   -0.005562
  85 H :   -0.008335
  86 H :   -0.004903
  87 H :    0.000894
  88 H :    0.024671
  89 H :    0.022926
  90 H :    0.040225
  91 H :    0.030268
  92 H :    0.030810
Sum of atomic charges:   -0.0000000

LOEWDIN ATOMIC CHARGES
----------------------
   0 C :   -0.041937
   1 C :    0.093839
   2 F :   -0.063913
   3 C :   -0.035891
   4 C :    0.004886
   5 C :   -0.018411
   6 C :    0.003532
   7 C :    0.011136
   8 C :   -0.017731
   9 C :   -0.059676
  10 C :    0.035075
  11 C :    0.082778
  12 O :   -0.143827
  13 C :   -0.102443
  14 C :    0.059554
  15 C :   -0.144891
  16 C :   -0.036461
  17 N :   -0.048817
  18 C :   -0.020791
  19 N :   -0.048762
  20 C :    0.051448
  21 C :   -0.179337
  22 C :    0.017038
  23 C :   -0.076449
  24 C :   -0.147504
  25 S :    0.511164
  26 C :   -0.190965
  27 C :   -0.049646
  28 C :    0.080564
  29 C :   -0.096234
  30 C :   -0.015462
  31 N :   -0.031329
  32 C :   -0.017564
  33 N :   -0.024889
  34 C :   -0.042196
  35 C :   -0.165777
  36 S :    0.491682
  37 C :   -0.185135
  38 C :   -0.030946
  39 C :   -0.069283
  40 C :   -0.171051
  41 S :    0.483473
  42 C :   -0.189187
  43 C :   -0.059689
  44 C :    0.079520
  45 C :   -0.095528
  46 C :   -0.016915
  47 N :   -0.024791
  48 C :   -0.015987
  49 N :   -0.028459
  50 C :   -0.036535
  51 C :   -0.160430
  52 S :    0.472000
  53 C :   -0.071392
  54 C :   -0.145881
  55 C :   -0.022518
  56 C :   -0.034665
  57 C :   -0.165206
  58 S :    0.407401
  59 C :   -0.178874
  60 C :   -0.016013
  61 C :   -0.030129
  62 C :   -0.113096
  63 S :    0.395090
  64 C :   -0.068822
  65 C :    0.055282
  66 C :   -0.133115
  67 C :    0.097404
  68 O :   -0.185132
  69 O :   -0.078689
  70 C :    0.082338
  71 C :   -0.038115
  72 N :   -0.068777
  73 H :    0.043604
  74 H :    0.042406
  75 H :    0.036133
  76 H :    0.039441
  77 H :    0.040294
  78 H :    0.055172
  79 H :    0.047649
  80 H :    0.036289
  81 H :    0.036817
  82 H :    0.026018
  83 H :    0.036031
  84 H :    0.036259
  85 H :    0.034310
  86 H :    0.035270
  87 H :    0.039412
  88 H :    0.040464
  89 H :    0.040354
  90 H :    0.028604
  91 H :    0.022772
  92 H :    0.022759

  Mayer bond orders larger than 0.100000
B(  0-C ,  1-C ) :   1.4401 B(  0-C ,  6-C ) :   1.2032 B(  0-C , 73-H ) :   1.0074
B(  1-C ,  2-F ) :   1.0898 B(  1-C ,  3-C ) :   1.2528 B(  3-C ,  4-C ) :   1.4612
B(  3-C , 74-H ) :   0.9932 B(  4-C ,  5-C ) :   1.2331 B(  4-C , 75-H ) :   0.9981
B(  5-C ,  6-C ) :   1.2553 B(  5-C , 10-C ) :   1.1927 B(  6-C ,  7-C ) :   1.2014
B(  7-C ,  8-C ) :   1.4626 B(  7-C , 76-H ) :   0.9964 B(  8-C ,  9-C ) :   1.2176
B(  8-C , 14-C ) :   1.0002 B(  9-C , 10-C ) :   1.4707 B(  9-C , 11-C ) :   0.9210
B( 10-C , 77-H ) :   1.0164 B( 11-C , 12-O ) :   2.2738 B( 11-C , 13-C ) :   0.9390
B( 13-C , 14-C ) :   1.0412 B( 13-C , 20-C ) :   1.6253 B( 14-C , 15-C ) :   1.6508
B( 15-C , 16-C ) :   1.1534 B( 15-C , 18-C ) :   1.1362 B( 16-C , 17-N ) :   3.0205
B( 18-C , 19-N ) :   2.9912 B( 20-C , 21-C ) :   1.1536 B( 20-C , 78-H ) :   0.9471
B( 21-C , 22-C ) :   1.3965 B( 21-C , 25-S ) :   1.0781 B( 22-C , 23-C ) :   1.3092
B( 22-C , 79-H ) :   0.9998 B( 23-C , 24-C ) :   1.3873 B( 23-C , 28-C ) :   0.9979
B( 24-C , 25-S ) :   1.1616 B( 24-C , 26-C ) :   1.2191 B( 26-C , 27-C ) :   1.4324
B( 26-C , 36-S ) :   1.1044 B( 27-C , 28-C ) :   0.9914 B( 27-C , 34-C ) :   1.3156
B( 28-C , 29-C ) :   1.7154 B( 29-C , 30-C ) :   1.1367 B( 29-C , 32-C ) :   1.1351
B( 30-C , 31-N ) :   2.9892 B( 32-C , 33-N ) :   2.9959 B( 34-C , 35-C ) :   1.4343
B( 34-C , 80-H ) :   0.9874 B( 35-C , 36-S ) :   1.1236 B( 35-C , 37-C ) :   1.1846
B( 37-C , 38-C ) :   1.4457 B( 37-C , 41-S ) :   1.0981 B( 38-C , 39-C ) :   1.3098
B( 38-C , 81-H ) :   0.9861 B( 39-C , 40-C ) :   1.4206 B( 39-C , 44-C ) :   1.0005
B( 40-C , 41-S ) :   1.1226 B( 40-C , 42-C ) :   1.2186 B( 42-C , 43-C ) :   1.4109
B( 42-C , 52-S ) :   1.1144 B( 43-C , 44-C ) :   0.9941 B( 43-C , 50-C ) :   1.3617
B( 44-C , 45-C ) :   1.7111 B( 45-C , 46-C ) :   1.1363 B( 45-C , 48-C ) :   1.1349
B( 46-C , 47-N ) :   2.9802 B( 48-C , 49-N ) :   2.9905 B( 50-C , 51-C ) :   1.3895
B( 50-C , 82-H ) :   0.9671 B( 51-C , 52-S ) :   1.0946 B( 51-C , 53-C ) :   1.1891
B( 53-C , 54-C ) :   1.5784 B( 53-C , 83-H ) :   0.9516 B( 54-C , 55-C ) :   1.1543
B( 54-C , 58-S ) :   1.0447 B( 55-C , 56-C ) :   1.5826 B( 55-C , 84-H ) :   0.9994
B( 56-C , 57-C ) :   1.1946 B( 56-C , 85-H ) :   0.9925 B( 57-C , 58-S ) :   1.0577
B( 57-C , 59-C ) :   1.4886 B( 59-C , 60-C ) :   1.1938 B( 59-C , 63-S ) :   1.0509
B( 60-C , 61-C ) :   1.5742 B( 60-C , 86-H ) :   0.9950 B( 61-C , 62-C ) :   1.1530
B( 61-C , 87-H ) :   1.0012 B( 62-C , 63-S ) :   1.0540 B( 62-C , 64-C ) :   1.5081
B( 64-C , 65-C ) :   1.1897 B( 64-C , 88-H ) :   0.9684 B( 65-C , 66-C ) :   1.6513
B( 65-C , 89-H ) :   0.9673 B( 66-C , 67-C ) :   0.9718 B( 66-C , 71-C ) :   1.0692
B( 67-C , 68-O ) :   2.0314 B( 67-C , 69-O ) :   1.2485 B( 69-O , 70-C ) :   0.9232
B( 70-C , 90-H ) :   0.9813 B( 70-C , 91-H ) :   0.9762 B( 70-C , 92-H ) :   0.9757
B( 71-C , 72-N ) :   3.0236

-----------------------------------------------------------------------------
         ABSORPTION SPECTRUM VIA TRANSITION ELECTRIC DIPOLE MOMENTS
-----------------------------------------------------------------------------
State   Energy  Wavelength   fosc         T2         TX        TY        TZ
        (cm-1)    (nm)                  (au**2)     (au)      (au)      (au)
-----------------------------------------------------------------------------
   0    8248.2   1212.4   0.426632104  17.02830  -3.78657   1.47919   0.70867
   1   11043.4    905.5   0.332883326   9.92349  -3.03950   0.82307  -0.08649
   2   14087.7    709.8   1.003358419  23.44720   3.16016  -2.07995  -3.02231
   3   16000.4    625.0   0.037631235   0.77427   0.66951   0.04610   0.56913
   4   17410.8    574.4   0.160036428   3.02604  -0.95317  -0.19279  -1.44234
   5   18723.9    534.1   0.536015621   9.42447  -2.34566  -0.34604  -1.95003
   6   22641.9    441.7   0.087182842   1.26763  -0.42748  -0.13805  -1.03239
   7   23211.8    430.8   0.186550039   2.64583  -1.27656  -0.15851  -0.99554
   8   23751.8    421.0   0.016663997   0.23097  -0.29923   0.23666  -0.29227
   9   24250.7    412.4   0.347641460   4.71936  -1.84750   0.82667  -0.78912
  10   25249.3    396.1   0.291175242   3.79647   1.75766  -0.24818   0.80343
  11   25929.1    385.7   0.136182866   1.72906   0.70430   0.07789   1.10768
  12   26884.4    372.0   0.035586841   0.43578   0.34476  -0.08208  -0.55694
  13   27676.7    361.3   0.217274521   2.58446  -1.34576   0.82607  -0.30166
  14   28527.1    350.5   0.023346811   0.26943  -0.51696   0.03772   0.02754
  15   28901.7    346.0   0.020167221   0.22972  -0.22918  -0.00257  -0.42094
  16   29518.1    338.8   0.118434670   1.32089   0.30919  -0.20282   1.08819
  17   29784.7    335.7   0.146980524   1.62459  -0.13100  -0.29152  -1.23387
  18   29965.7    333.7   0.164531659   1.80759   0.05258   0.03473   1.34299
  19   30645.4    326.3   0.424223688   4.55728  -0.04242  -0.21097  -2.12390
  20   30841.5    324.2   0.036825056   0.39308  -0.22846   0.38202   0.44153
  21   31048.8    322.1   0.341722042   3.62329  -0.26985   0.87437   1.66912
  22   31429.3    318.2   0.227439327   2.38235  -0.12719   0.29382   1.50992
  23   31683.3    315.6   0.241473294   2.50908   0.70196   0.06131   1.41865
  24   31885.2    313.6   0.470425398   4.85711  -1.74720   0.49524  -1.24866
  25   32313.8    309.5   0.203835519   2.07667  -1.08319   0.44544   0.83962
  26   32580.0    306.9   0.034002693   0.34359  -0.31674   0.26931   0.41321
  27   32793.3    304.9   0.000253625   0.00255  -0.00031  -0.04712   0.01805
  28   32813.0    304.8   0.007648029   0.07673  -0.17809   0.20488  -0.05515
  29   33049.2    302.6   0.277523561   2.76448   0.91878  -0.47245  -1.30273
  30   33451.1    298.9   0.022870748   0.22508  -0.07166   0.09247  -0.45978
  31   33589.6    297.7   0.150013681   1.47029  -0.91344   0.26177  -0.75325
  32   33957.0    294.5   0.260313454   2.52373   0.87169  -0.61561   1.17683
  33   34092.6    293.3   0.048443355   0.46779  -0.11079  -0.39031   0.55061
  34   34516.2    289.7   0.047193264   0.45012   0.60068  -0.01982   0.29819
  35   34702.6    288.2   0.183405519   1.73991  -0.18549   0.05216  -1.30491
  36   34992.1    285.8   0.052707668   0.49588   0.27854  -0.32037   0.56184
  37   35333.0    283.0   0.029295849   0.27296  -0.05261   0.17342  -0.49002
  38   35459.9    282.0   0.119425132   1.10875  -0.28022   0.06785  -1.01273
  39   35480.5    281.8   0.000883975   0.00820  -0.06674   0.05612   0.02449
  40   35939.5    278.2   0.008548106   0.07830  -0.27756   0.01713   0.03113
  41   35977.8    277.9   0.045063760   0.41235   0.23197  -0.39963  -0.44591
  42   36219.4    276.1   0.241608769   2.19607   0.50891  -0.50676   1.29626
  43   36460.8    274.3   0.045154029   0.40770  -0.19136   0.06636  -0.60554
  44   36941.6    270.7   0.001695668   0.01511  -0.11853   0.02089   0.02502
  45   37261.6    268.4   0.000660745   0.00584   0.02679  -0.06563   0.02850
  46   37857.9    264.1   0.020974847   0.18240  -0.42317  -0.02018  -0.05404
  47   37860.9    264.1   0.000130421   0.00113  -0.00265   0.03296  -0.00639
  48   38438.2    260.2   0.012081658   0.10348   0.02850   0.03953  -0.31796
  49   38593.4    259.1   0.005834359   0.04977   0.16199   0.01404   0.15274
  50   38750.7    258.1   0.013584312   0.11541  -0.14738   0.17523  -0.25096
  51   38771.1    257.9   0.021228588   0.18026   0.20945  -0.16547   0.33016
  52   38941.3    256.8   0.013129245   0.11100  -0.21898   0.20590  -0.14369
  53   39263.4    254.7   0.016819570   0.14103  -0.16015  -0.22715  -0.25255
  54   39497.8    253.2   0.084004520   0.70017  -0.51309   0.54351   0.37617
  55   39736.8    251.7   0.018858156   0.15624   0.20485  -0.00561   0.33799
  56   39743.7    251.6   0.021735042   0.18004  -0.02352   0.40908   0.11017
  57   40294.0    248.2   0.203642087   1.66381  -0.43774   0.87098   0.84474

FINAL SINGLE POINT ENERGY     -5239.404086052311

DIPOLE MOMENT
-------------
                                X             Y             Z
Electronic contribution:    -51.04148      21.31835      19.87832
Nuclear contribution   :     53.56957     -19.82735     -17.79306
                        -----------------------------------------
Total Dipole Moment    :      2.52808       1.49100       2.08526
                        -----------------------------------------
Magnitude (a.u.)       :      3.60036
Magnitude (Debye)      :      9.15139

Rotational constants in cm-1:     0.001041     0.000220     0.000184
Rotational constants in MHz :    31.202410     6.589920     5.508034

                             ****ORCA TERMINATED NORMALLY****
TOTAL RUN TIME: 0 days 0 hours 10 minutes 36 seconds 842 msec
