                         Program Version 4.2.0 -  RELEASE  -
|  1> # ORCA input file
|  2> # SCF done       -203.206334292065          0.000612302516
|  3> ! CAM-B3LYP def2-SVP def2/J RIJCOSX Grid4 TightSCF
|  4> %maxcore 5000
|  5> %tddft
|  6>     Mode sTDDFT
|  7>     Ethresh 5.0
|  8>     maxcore 5000
|  9> end
| 10>
| 11> %pal
| 12>   nprocs 6
| 13>   end
| 14> * xyz 0 1
| 15>    C        5.82405        -3.97923        -9.23990
| 16>    C        5.17016        -3.74351       -10.41727
| 17>    F        5.55985        -4.38852       -11.53136
| 18>    C        4.09829        -2.84579       -10.51519
| 19>    C        3.68900        -2.17973        -9.39365
| 20>    C        4.32839        -2.38340        -8.15355
| 21>    C        5.41556        -3.30229        -8.07447
| 22>    C        6.06844        -3.52855        -6.83999
| 23>    C        5.64919        -2.85193        -5.72744
| 24>    C        4.57211        -1.92281        -5.81500
| 25>    C        3.91845        -1.69287        -6.99094
| 26>    C        4.35225        -1.30360        -4.49355
| 27>    O        3.49623        -0.51226        -4.17264
| 28>    C        5.46629        -1.80691        -3.64130
| 29>    C        6.09992        -2.90217        -4.33943
| 30>    C        6.76039        -3.95431        -3.75871
| 31>    C        6.90237        -4.09284        -2.36331
| 32>    N        6.99335        -4.24713        -1.22916
| 33>    C        7.27942        -5.04744        -4.47993
| 34>    N        7.73707        -5.94690        -5.02681
| 35>    C        5.76940        -1.14105        -2.49180
| 36>    C        6.97104        -1.08945        -1.75540
| 37>    C        7.11771        -0.50081        -0.50610
| 38>    C        8.43500        -0.50769        -0.06543
| 39>    C        9.31913        -1.08667        -1.00170
| 40>    S        8.52340        -1.62509        -2.40469
| 41>    C       10.63114        -1.01913        -0.48219
| 42>    C       10.58866        -0.39801         0.77726
| 43>    C        9.20357        -0.06164         1.08261
| 44>    C        8.73746         0.55325         2.20673
| 45>    C        9.59651         0.94970         3.25350
| 46>    N       10.29749         1.27567         4.10023
| 47>    C        7.36911         0.84436         2.39377
| 48>    N        6.26038         1.09110         2.54743
| 49>    C       11.84448        -0.26488         1.36546
| 50>    C       12.84898        -0.78485         0.56650
| 51>    S       12.22227        -1.45334        -0.93427
| 52>    C       14.24238        -0.78347         0.83566
| 53>    N       15.16377        -1.38240         0.02862
| 54>    C       16.41804        -1.16682         0.52017
| 55>    C       16.29224        -0.40596         1.68265
| 56>    C       14.93864        -0.17295         1.88224
| 57>    C       17.56663        -1.64409        -0.09465
| 58>    C       18.57040        -2.06447        -0.63479
| 59>    C       19.72965        -2.49658        -1.25385
| 60>    C       19.87722        -3.59570        -2.08141
| 61>    C       21.18650        -3.71867        -2.54439
| 62>    C       22.03368        -2.70074        -2.07150
| 63>    S       21.22892        -1.60021        -1.04124
| 64>    C       23.32599        -2.90181        -2.61268
| 65>    C       23.30096        -4.05464        -3.42479
| 66>    C       21.95743        -4.60822        -3.40150
| 67>    C       21.50886        -5.72168        -4.04823
| 68>    C       22.35078        -6.50860        -4.86307
| 69>    N       23.02764        -7.14772        -5.53177
| 70>    C       20.16896        -6.15325        -3.95153
| 71>    N       19.07827        -6.49874        -3.87809
| 72>    C       24.52594        -4.31240        -4.02746
| 73>    C       25.49811        -3.38635        -3.67175
| 74>    S       24.85160        -2.15224        -2.58908
| 75>    C       26.80311        -3.33668        -4.20646
| 76>    C       27.87467        -2.57470        -3.85187
| 77>    C       28.93697        -2.31130        -4.86443
| 78>    O       29.11045        -2.90659        -5.90210
| 79>    C       29.66463        -1.13256        -4.35607
| 80>    C       30.63986        -0.39678        -4.96495
| 81>    C       31.17385         0.72723        -4.29578
| 82>    C       30.68190         1.07025        -3.00230
| 83>    C       31.21229         2.19815        -2.34669
| 84>    C       32.18584         2.93576        -2.96111
| 85>    C       32.68411         2.61373        -4.23098
| 86>    C       32.18002         1.52239        -4.88196
| 87>    F       32.69266         4.01359        -2.33656
| 88>    C       29.67768         0.28368        -2.39065
| 89>    C       29.18098        -0.80323        -3.05651
| 90>    C       28.18419        -1.79845        -2.67218
| 91>    C       27.83583        -2.11536        -1.38473
| 92>    C       27.10859        -3.27660        -1.05368
| 93>    N       26.55072        -4.23443        -0.75473
| 94>    C       28.24492        -1.37521        -0.25791
| 95>    N       28.53551        -0.79058         0.68611
| 96>    H        6.64283        -4.68058        -9.20096
| 97>    H        3.62088        -2.70034       -11.47120
| 98>    H        2.86565        -1.48324        -9.44396
| 99>    H        6.89308        -4.22325        -6.80734
|100>    H        3.09876        -0.99153        -7.03501
|101>    H        4.99422        -0.46498        -2.14146
|102>    H        6.28277        -0.10745         0.04534
|103>    H       12.03327         0.18142         2.32364
|104>    H       14.95296        -1.90617        -0.80577
|105>    H       17.10324        -0.07469         2.29940
|106>    H       14.49985         0.38176         2.68654
|107>    H       19.06485        -4.25884        -2.31670
|108>    H       24.73088        -5.13690        -4.68634
|109>    H       26.94485        -3.92632        -5.10813
|110>    H       30.99952        -0.66771        -5.94623
|111>    H       30.85553         2.47341        -1.36650
|112>    H       33.45255         3.23283        -4.66598
|113>    H       32.54762         1.25441        -5.86101
|114>    H       29.31644         0.56794        -1.41473
|115> *
|116>
|117>                          ****END OF INPUT****

CARTESIAN COORDINATES (ANGSTROEM)
---------------------------------
  C      5.824050   -3.979230   -9.239900
  C      5.170160   -3.743510  -10.417270
  F      5.559850   -4.388520  -11.531360
  C      4.098290   -2.845790  -10.515190
  C      3.689000   -2.179730   -9.393650
  C      4.328390   -2.383400   -8.153550
  C      5.415560   -3.302290   -8.074470
  C      6.068440   -3.528550   -6.839990
  C      5.649190   -2.851930   -5.727440
  C      4.572110   -1.922810   -5.815000
  C      3.918450   -1.692870   -6.990940
  C      4.352250   -1.303600   -4.493550
  O      3.496230   -0.512260   -4.172640
  C      5.466290   -1.806910   -3.641300
  C      6.099920   -2.902170   -4.339430
  C      6.760390   -3.954310   -3.758710
  C      6.902370   -4.092840   -2.363310
  N      6.993350   -4.247130   -1.229160
  C      7.279420   -5.047440   -4.479930
  N      7.737070   -5.946900   -5.026810
  C      5.769400   -1.141050   -2.491800
  C      6.971040   -1.089450   -1.755400
  C      7.117710   -0.500810   -0.506100
  C      8.435000   -0.507690   -0.065430
  C      9.319130   -1.086670   -1.001700
  S      8.523400   -1.625090   -2.404690
  C     10.631140   -1.019130   -0.482190
  C     10.588660   -0.398010    0.777260
  C      9.203570   -0.061640    1.082610
  C      8.737460    0.553250    2.206730
  C      9.596510    0.949700    3.253500
  N     10.297490    1.275670    4.100230
  C      7.369110    0.844360    2.393770
  N      6.260380    1.091100    2.547430
  C     11.844480   -0.264880    1.365460
  C     12.848980   -0.784850    0.566500
  S     12.222270   -1.453340   -0.934270
  C     14.242380   -0.783470    0.835660
  N     15.163770   -1.382400    0.028620
  C     16.418040   -1.166820    0.520170
  C     16.292240   -0.405960    1.682650
  C     14.938640   -0.172950    1.882240
  C     17.566630   -1.644090   -0.094650
  C     18.570400   -2.064470   -0.634790
  C     19.729650   -2.496580   -1.253850
  C     19.877220   -3.595700   -2.081410
  C     21.186500   -3.718670   -2.544390
  C     22.033680   -2.700740   -2.071500
  S     21.228920   -1.600210   -1.041240
  C     23.325990   -2.901810   -2.612680
  C     23.300960   -4.054640   -3.424790
  C     21.957430   -4.608220   -3.401500
  C     21.508860   -5.721680   -4.048230
  C     22.350780   -6.508600   -4.863070
  N     23.027640   -7.147720   -5.531770
  C     20.168960   -6.153250   -3.951530
  N     19.078270   -6.498740   -3.878090
  C     24.525940   -4.312400   -4.027460
  C     25.498110   -3.386350   -3.671750
  S     24.851600   -2.152240   -2.589080
  C     26.803110   -3.336680   -4.206460
  C     27.874670   -2.574700   -3.851870
  C     28.936970   -2.311300   -4.864430
  O     29.110450   -2.906590   -5.902100
  C     29.664630   -1.132560   -4.356070
  C     30.639860   -0.396780   -4.964950
  C     31.173850    0.727230   -4.295780
  C     30.681900    1.070250   -3.002300
  C     31.212290    2.198150   -2.346690
  C     32.185840    2.935760   -2.961110
  C     32.684110    2.613730   -4.230980
  C     32.180020    1.522390   -4.881960
  F     32.692660    4.013590   -2.336560
  C     29.677680    0.283680   -2.390650
  C     29.180980   -0.803230   -3.056510
  C     28.184190   -1.798450   -2.672180
  C     27.835830   -2.115360   -1.384730
  C     27.108590   -3.276600   -1.053680
  N     26.550720   -4.234430   -0.754730
  C     28.244920   -1.375210   -0.257910
  N     28.535510   -0.790580    0.686110
  H      6.642830   -4.680580   -9.200960
  H      3.620880   -2.700340  -11.471200
  H      2.865650   -1.483240   -9.443960
  H      6.893080   -4.223250   -6.807340
  H      3.098760   -0.991530   -7.035010
  H      4.994220   -0.464980   -2.141460
  H      6.282770   -0.107450    0.045340
  H     12.033270    0.181420    2.323640
  H     14.952960   -1.906170   -0.805770
  H     17.103240   -0.074690    2.299400
  H     14.499850    0.381760    2.686540
  H     19.064850   -4.258840   -2.316700
  H     24.730880   -5.136900   -4.686340
  H     26.944850   -3.926320   -5.108130
  H     30.999520   -0.667710   -5.946230
  H     30.855530    2.473410   -1.366500
  H     33.452550    3.232830   -4.665980
  H     32.547620    1.254410   -5.861010
  H     29.316440    0.567940   -1.414730

 Total Charge           Charge          ....    0
 Multiplicity           Mult            ....    1
 Number of Electrons    NEL             ....  564
 Basis Dimension        Dim             .... 1245

ORBITAL ENERGIES
----------------

  NO   OCC          E(Eh)            E(eV)
   0   2.0000     -89.004292     -2421.9299
   1   2.0000     -89.002719     -2421.8871
   2   2.0000     -89.002139     -2421.8713
   3   2.0000     -89.000252     -2421.8200
   4   2.0000     -24.789538      -674.5576
   5   2.0000     -24.788064      -674.5175
   6   2.0000     -19.217935      -522.9466
   7   2.0000     -19.215577      -522.8824
   8   2.0000     -14.491963      -394.3464
   9   2.0000     -14.438649      -392.8956
  10   2.0000     -14.438441      -392.8900
  11   2.0000     -14.437941      -392.8764
  12   2.0000     -14.437467      -392.8634
  13   2.0000     -14.421747      -392.4357
  14   2.0000     -14.420812      -392.4103
  15   2.0000     -14.419494      -392.3744
  16   2.0000     -14.418589      -392.3497
  17   2.0000     -10.374573      -282.3065
  18   2.0000     -10.374059      -282.2925
  19   2.0000     -10.373530      -282.2781
  20   2.0000     -10.371970      -282.2357
  21   2.0000     -10.370363      -282.1919
  22   2.0000     -10.368056      -282.1291
  23   2.0000     -10.362072      -281.9663
  24   2.0000     -10.361218      -281.9431
  25   2.0000     -10.351643      -281.6825
  26   2.0000     -10.351391      -281.6757
  27   2.0000     -10.349989      -281.6375
  28   2.0000     -10.349013      -281.6110
  29   2.0000     -10.348333      -281.5925
  30   2.0000     -10.347402      -281.5671
  31   2.0000     -10.346137      -281.5327
  32   2.0000     -10.344398      -281.4854
  33   2.0000     -10.343267      -281.4546
  34   2.0000     -10.340774      -281.3868
  35   2.0000     -10.338626      -281.3283
  36   2.0000     -10.338523      -281.3255
  37   2.0000     -10.338439      -281.3232
  38   2.0000     -10.337679      -281.3025
  39   2.0000     -10.337138      -281.2878
  40   2.0000     -10.335810      -281.2517
  41   2.0000     -10.334566      -281.2178
  42   2.0000     -10.331656      -281.1386
  43   2.0000     -10.330116      -281.0967
  44   2.0000     -10.327821      -281.0343
  45   2.0000     -10.324082      -280.9325
  46   2.0000     -10.322356      -280.8856
  47   2.0000     -10.321984      -280.8755
  48   2.0000     -10.320498      -280.8350
  49   2.0000     -10.320342      -280.8308
  50   2.0000     -10.319479      -280.8073
  51   2.0000     -10.318987      -280.7939
  52   2.0000     -10.318715      -280.7865
  53   2.0000     -10.314878      -280.6821
  54   2.0000     -10.314608      -280.6748
  55   2.0000     -10.312073      -280.6058
  56   2.0000     -10.311250      -280.5834
  57   2.0000     -10.311187      -280.5817
  58   2.0000     -10.310673      -280.5677
  59   2.0000     -10.309236      -280.5286
  60   2.0000     -10.308907      -280.5196
  61   2.0000     -10.305504      -280.4270
  62   2.0000     -10.305023      -280.4139
  63   2.0000     -10.304456      -280.3985
  64   2.0000     -10.303749      -280.3793
  65   2.0000     -10.303433      -280.3707
  66   2.0000     -10.303400      -280.3698
  67   2.0000     -10.302584      -280.3476
  68   2.0000     -10.302273      -280.3391
  69   2.0000     -10.301679      -280.3229
  70   2.0000     -10.301542      -280.3192
  71   2.0000     -10.300461      -280.2898
  72   2.0000     -10.300129      -280.2807
  73   2.0000     -10.298333      -280.2319
  74   2.0000     -10.296757      -280.1890
  75   2.0000     -10.294747      -280.1343
  76   2.0000     -10.293156      -280.0910
  77   2.0000     -10.292823      -280.0820
  78   2.0000     -10.291581      -280.0482
  79   2.0000     -10.285863      -279.8926
  80   2.0000     -10.284851      -279.8650
  81   2.0000      -8.098843      -220.3807
  82   2.0000      -8.097267      -220.3378
  83   2.0000      -8.096378      -220.3136
  84   2.0000      -8.094380      -220.2593
  85   2.0000      -6.068112      -165.1217
  86   2.0000      -6.066592      -165.0804
  87   2.0000      -6.065611      -165.0537
  88   2.0000      -6.064051      -165.0112
  89   2.0000      -6.063634      -164.9999
  90   2.0000      -6.062288      -164.9632
  91   2.0000      -6.061372      -164.9383
  92   2.0000      -6.061141      -164.9320
  93   2.0000      -6.059550      -164.8887
  94   2.0000      -6.059403      -164.8847
  95   2.0000      -6.058809      -164.8686
  96   2.0000      -6.056804      -164.8140
  97   2.0000      -1.304637       -35.5010
  98   2.0000      -1.303094       -35.4590
  99   2.0000      -1.133864       -30.8540
 100   2.0000      -1.131417       -30.7874
 101   2.0000      -1.110682       -30.2232
 102   2.0000      -1.057124       -28.7658
 103   2.0000      -1.055908       -28.7327
 104   2.0000      -1.030780       -28.0490
 105   2.0000      -1.030242       -28.0343
 106   2.0000      -1.025419       -27.9031
 107   2.0000      -1.023339       -27.8465
 108   2.0000      -1.015902       -27.6441
 109   2.0000      -1.015456       -27.6320
 110   2.0000      -1.010202       -27.4890
 111   2.0000      -1.008469       -27.4418
 112   2.0000      -1.005528       -27.3618
 113   2.0000      -1.003544       -27.3078
 114   2.0000      -0.999314       -27.1927
 115   2.0000      -0.997179       -27.1346
 116   2.0000      -0.981761       -26.7151
 117   2.0000      -0.979863       -26.6634
 118   2.0000      -0.970034       -26.3960
 119   2.0000      -0.968840       -26.3635
 120   2.0000      -0.936203       -25.4754
 121   2.0000      -0.934576       -25.4311
 122   2.0000      -0.927946       -25.2507
 123   2.0000      -0.925825       -25.1930
 124   2.0000      -0.909414       -24.7464
 125   2.0000      -0.905666       -24.6444
 126   2.0000      -0.900682       -24.5088
 127   2.0000      -0.897848       -24.4317
 128   2.0000      -0.891813       -24.2675
 129   2.0000      -0.890000       -24.2181
 130   2.0000      -0.884548       -24.0698
 131   2.0000      -0.882707       -24.0197
 132   2.0000      -0.879835       -23.9415
 133   2.0000      -0.870082       -23.6761
 134   2.0000      -0.867534       -23.6068
 135   2.0000      -0.866058       -23.5666
 136   2.0000      -0.852513       -23.1981
 137   2.0000      -0.839421       -22.8418
 138   2.0000      -0.837586       -22.7919
 139   2.0000      -0.826573       -22.4922
 140   2.0000      -0.816172       -22.2092
 141   2.0000      -0.799554       -21.7570
 142   2.0000      -0.787843       -21.4383
 143   2.0000      -0.787055       -21.4169
 144   2.0000      -0.780453       -21.2372
 145   2.0000      -0.767745       -20.8914
 146   2.0000      -0.764084       -20.7918
 147   2.0000      -0.751901       -20.4603
 148   2.0000      -0.739947       -20.1350
 149   2.0000      -0.726663       -19.7735
 150   2.0000      -0.721797       -19.6411
 151   2.0000      -0.715296       -19.4642
 152   2.0000      -0.714656       -19.4468
 153   2.0000      -0.713189       -19.4069
 154   2.0000      -0.711903       -19.3719
 155   2.0000      -0.710679       -19.3386
 156   2.0000      -0.701997       -19.1023
 157   2.0000      -0.696507       -18.9529
 158   2.0000      -0.694794       -18.9063
 159   2.0000      -0.688376       -18.7317
 160   2.0000      -0.687145       -18.6982
 161   2.0000      -0.686346       -18.6764
 162   2.0000      -0.682802       -18.5800
 163   2.0000      -0.667834       -18.1727
 164   2.0000      -0.662425       -18.0255
 165   2.0000      -0.643337       -17.5061
 166   2.0000      -0.641752       -17.4630
 167   2.0000      -0.639819       -17.4103
 168   2.0000      -0.638978       -17.3875
 169   2.0000      -0.634050       -17.2534
 170   2.0000      -0.632700       -17.2166
 171   2.0000      -0.631359       -17.1801
 172   2.0000      -0.629265       -17.1232
 173   2.0000      -0.628068       -17.0906
 174   2.0000      -0.624875       -17.0037
 175   2.0000      -0.619414       -16.8551
 176   2.0000      -0.606315       -16.4987
 177   2.0000      -0.600921       -16.3519
 178   2.0000      -0.597523       -16.2594
 179   2.0000      -0.588181       -16.0052
 180   2.0000      -0.577391       -15.7116
 181   2.0000      -0.572499       -15.5785
 182   2.0000      -0.571794       -15.5593
 183   2.0000      -0.567435       -15.4407
 184   2.0000      -0.564334       -15.3563
 185   2.0000      -0.562184       -15.2978
 186   2.0000      -0.561457       -15.2780
 187   2.0000      -0.560630       -15.2555
 188   2.0000      -0.559739       -15.2313
 189   2.0000      -0.558558       -15.1991
 190   2.0000      -0.553635       -15.0652
 191   2.0000      -0.552397       -15.0315
 192   2.0000      -0.550649       -14.9839
 193   2.0000      -0.546669       -14.8756
 194   2.0000      -0.545352       -14.8398
 195   2.0000      -0.542170       -14.7532
 196   2.0000      -0.540052       -14.6956
 197   2.0000      -0.537214       -14.6183
 198   2.0000      -0.532368       -14.4865
 199   2.0000      -0.530429       -14.4337
 200   2.0000      -0.527831       -14.3630
 201   2.0000      -0.526268       -14.3205
 202   2.0000      -0.521460       -14.1897
 203   2.0000      -0.517956       -14.0943
 204   2.0000      -0.516829       -14.0636
 205   2.0000      -0.515745       -14.0341
 206   2.0000      -0.514902       -14.0112
 207   2.0000      -0.514476       -13.9996
 208   2.0000      -0.511281       -13.9127
 209   2.0000      -0.509960       -13.8767
 210   2.0000      -0.507358       -13.8059
 211   2.0000      -0.506823       -13.7914
 212   2.0000      -0.505299       -13.7499
 213   2.0000      -0.503518       -13.7014
 214   2.0000      -0.500806       -13.6276
 215   2.0000      -0.497535       -13.5386
 216   2.0000      -0.496742       -13.5170
 217   2.0000      -0.494790       -13.4639
 218   2.0000      -0.492767       -13.4089
 219   2.0000      -0.490150       -13.3377
 220   2.0000      -0.486399       -13.2356
 221   2.0000      -0.484296       -13.1784
 222   2.0000      -0.482094       -13.1185
 223   2.0000      -0.478512       -13.0210
 224   2.0000      -0.473840       -12.8938
 225   2.0000      -0.470174       -12.7941
 226   2.0000      -0.468743       -12.7551
 227   2.0000      -0.468440       -12.7469
 228   2.0000      -0.466437       -12.6924
 229   2.0000      -0.465431       -12.6650
 230   2.0000      -0.461966       -12.5707
 231   2.0000      -0.461025       -12.5451
 232   2.0000      -0.459788       -12.5115
 233   2.0000      -0.457440       -12.4476
 234   2.0000      -0.456131       -12.4119
 235   2.0000      -0.453696       -12.3457
 236   2.0000      -0.452029       -12.3003
 237   2.0000      -0.451829       -12.2949
 238   2.0000      -0.450435       -12.2570
 239   2.0000      -0.448218       -12.1966
 240   2.0000      -0.447902       -12.1880
 241   2.0000      -0.447504       -12.1772
 242   2.0000      -0.447013       -12.1638
 243   2.0000      -0.446694       -12.1552
 244   2.0000      -0.446105       -12.1391
 245   2.0000      -0.443034       -12.0556
 246   2.0000      -0.441794       -12.0218
 247   2.0000      -0.438756       -11.9392
 248   2.0000      -0.435008       -11.8372
 249   2.0000      -0.434000       -11.8097
 250   2.0000      -0.433538       -11.7972
 251   2.0000      -0.431755       -11.7487
 252   2.0000      -0.431337       -11.7373
 253   2.0000      -0.429826       -11.6962
 254   2.0000      -0.425807       -11.5868
 255   2.0000      -0.422656       -11.5011
 256   2.0000      -0.418237       -11.3808
 257   2.0000      -0.413384       -11.2487
 258   2.0000      -0.410718       -11.1762
 259   2.0000      -0.405263       -11.0278
 260   2.0000      -0.403485       -10.9794
 261   2.0000      -0.392827       -10.6894
 262   2.0000      -0.386151       -10.5077
 263   2.0000      -0.384123       -10.4525
 264   2.0000      -0.379795       -10.3347
 265   2.0000      -0.376292       -10.2394
 266   2.0000      -0.362905        -9.8752
 267   2.0000      -0.358751        -9.7621
 268   2.0000      -0.355773        -9.6811
 269   2.0000      -0.353606        -9.6221
 270   2.0000      -0.344364        -9.3706
 271   2.0000      -0.338858        -9.2208
 272   2.0000      -0.335599        -9.1321
 273   2.0000      -0.331691        -9.0258
 274   2.0000      -0.329363        -8.9624
 275   2.0000      -0.318893        -8.6775
 276   2.0000      -0.317115        -8.6291
 277   2.0000      -0.306687        -8.3454
 278   2.0000      -0.302888        -8.2420
 279   2.0000      -0.298293        -8.1170
 280   2.0000      -0.277015        -7.5380
 281   2.0000      -0.248849        -6.7715
 282   0.0000      -0.122683        -3.3384
 283   0.0000      -0.117347        -3.1932
 284   0.0000      -0.095339        -2.5943
 285   0.0000      -0.093999        -2.5579
 286   0.0000      -0.061747        -1.6802

MULLIKEN ATOMIC CHARGES
-----------------------
   0 C :   -0.101987
   1 C :    0.304759
   2 F :   -0.189486
   3 C :   -0.029043
   4 C :   -0.011252
   5 C :    0.101901
   6 C :    0.104493
   7 C :   -0.088218
   8 C :    0.041858
   9 C :    0.010497
  10 C :   -0.082818
  11 C :    0.144645
  12 O :   -0.143882
  13 C :   -0.143754
  14 C :    0.250145
  15 C :   -0.324952
  16 C :   -0.215632
  17 N :    0.174140
  18 C :   -0.174348
  19 N :    0.157598
  20 C :    0.038421
  21 C :   -0.079693
  22 C :    0.001222
  23 C :    0.017526
  24 C :   -0.071587
  25 S :    0.205237
  26 C :   -0.109277
  27 C :    0.031850
  28 C :    0.299094
  29 C :   -0.288966
  30 C :   -0.187284
  31 N :    0.173658
  32 C :   -0.189378
  33 N :    0.182531
  34 C :   -0.058542
  35 C :   -0.037660
  36 S :    0.174708
  37 C :    0.071066
  38 N :   -0.051782
  39 C :   -0.001079
  40 C :    0.013321
  41 C :   -0.038848
  42 C :    0.048448
  43 C :   -0.029492
  44 C :   -0.146215
  45 C :    0.003092
  46 C :    0.011479
  47 C :   -0.107440
  48 S :    0.234268
  49 C :   -0.073629
  50 C :    0.024668
  51 C :    0.297078
  52 C :   -0.287500
  53 C :   -0.190874
  54 N :    0.182828
  55 C :   -0.189601
  56 N :    0.176912
  57 C :   -0.005536
  58 C :   -0.077741
  59 S :    0.209194
  60 C :    0.038945
  61 C :   -0.139152
  62 C :    0.144213
  63 O :   -0.140930
  64 C :    0.006808
  65 C :   -0.073970
  66 C :    0.097020
  67 C :    0.098867
  68 C :   -0.094336
  69 C :    0.304062
  70 C :   -0.033022
  71 C :   -0.006348
  72 F :   -0.189155
  73 C :   -0.080805
  74 C :    0.040767
  75 C :    0.244683
  76 C :   -0.319408
  77 C :   -0.215996
  78 N :    0.175720
  79 C :   -0.172036
  80 N :    0.155168
  81 H :   -0.001499
  82 H :    0.004342
  83 H :   -0.006874
  84 H :   -0.003096
  85 H :   -0.009239
  86 H :    0.032585
  87 H :    0.019595
  88 H :    0.008950
  89 H :    0.131374
  90 H :   -0.015559
  91 H :   -0.010163
  92 H :    0.015010
  93 H :    0.021873
  94 H :    0.032549
  95 H :   -0.010107
  96 H :   -0.002984
  97 H :    0.005673
  98 H :   -0.007898
  99 H :   -0.004771
Sum of atomic charges:    0.0000000

LOEWDIN ATOMIC CHARGES
----------------------
   0 C :   -0.042530
   1 C :    0.093562
   2 F :   -0.064141
   3 C :   -0.036333
   4 C :    0.005038
   5 C :   -0.018521
   6 C :    0.003390
   7 C :    0.010119
   8 C :   -0.017543
   9 C :   -0.059076
  10 C :    0.034825
  11 C :    0.083081
  12 O :   -0.144774
  13 C :   -0.105368
  14 C :    0.060899
  15 C :   -0.147186
  16 C :   -0.039466
  17 N :   -0.047777
  18 C :   -0.020806
  19 N :   -0.050211
  20 C :    0.052127
  21 C :   -0.179996
  22 C :    0.017656
  23 C :   -0.079754
  24 C :   -0.146408
  25 S :    0.511932
  26 C :   -0.196588
  27 C :   -0.046894
  28 C :    0.079815
  29 C :   -0.095291
  30 C :   -0.015743
  31 N :   -0.029379
  32 C :   -0.017744
  33 N :   -0.024184
  34 C :   -0.029923
  35 C :   -0.150699
  36 S :    0.461261
  37 C :   -0.028692
  38 N :    0.102024
  39 C :   -0.030694
  40 C :   -0.030574
  41 C :   -0.047375
  42 C :   -0.024840
  43 C :   -0.059999
  44 C :   -0.170626
  45 C :   -0.013256
  46 C :   -0.056381
  47 C :   -0.188339
  48 S :    0.499391
  49 C :   -0.150843
  50 C :   -0.074916
  51 C :    0.079214
  52 C :   -0.095607
  53 C :   -0.017866
  54 N :   -0.024551
  55 C :   -0.016304
  56 N :   -0.028230
  57 C :    0.015471
  58 C :   -0.177361
  59 S :    0.516136
  60 C :    0.051838
  61 C :   -0.102164
  62 C :    0.083163
  63 O :   -0.143015
  64 C :   -0.059497
  65 C :    0.035873
  66 C :   -0.018460
  67 C :    0.003459
  68 C :   -0.042048
  69 C :    0.093878
  70 C :   -0.035999
  71 C :    0.005575
  72 F :   -0.063752
  73 C :    0.010887
  74 C :   -0.017650
  75 C :    0.060703
  76 C :   -0.145272
  77 C :   -0.039842
  78 N :   -0.045764
  79 C :   -0.020331
  80 N :   -0.048852
  81 H :    0.043143
  82 H :    0.042301
  83 H :    0.036258
  84 H :    0.039058
  85 H :    0.040361
  86 H :    0.055507
  87 H :    0.047642
  88 H :    0.042431
  89 H :    0.089640
  90 H :    0.034476
  91 H :    0.032317
  92 H :    0.046072
  93 H :    0.047969
  94 H :    0.055726
  95 H :    0.040407
  96 H :    0.042988
  97 H :    0.042620
  98 H :    0.036255
  99 H :    0.038954

  Mayer bond orders larger than 0.100000
B(  0-C ,  1-C ) :   1.4412 B(  0-C ,  6-C ) :   1.2020 B(  0-C , 81-H ) :   1.0073
B(  1-C ,  2-F ) :   1.0898 B(  1-C ,  3-C ) :   1.2543 B(  3-C ,  4-C ) :   1.4601
B(  3-C , 82-H ) :   0.9930 B(  4-C ,  5-C ) :   1.2349 B(  4-C , 83-H ) :   0.9978
B(  5-C ,  6-C ) :   1.2554 B(  5-C , 10-C ) :   1.1900 B(  6-C ,  7-C ) :   1.2022
B(  7-C ,  8-C ) :   1.4629 B(  7-C , 84-H ) :   0.9961 B(  8-C ,  9-C ) :   1.2175
B(  8-C , 14-C ) :   0.9999 B(  9-C , 10-C ) :   1.4740 B(  9-C , 11-C ) :   0.9208
B( 10-C , 85-H ) :   1.0163 B( 11-C , 12-O ) :   2.2671 B( 11-C , 13-C ) :   0.9428
B( 13-C , 14-C ) :   1.0443 B( 13-C , 20-C ) :   1.6073 B( 14-C , 15-C ) :   1.6461
B( 15-C , 16-C ) :   1.1528 B( 15-C , 18-C ) :   1.1363 B( 16-C , 17-N ) :   3.0235
B( 18-C , 19-N ) :   2.9908 B( 20-C , 21-C ) :   1.1771 B( 20-C , 86-H ) :   0.9446
B( 21-C , 22-C ) :   1.3863 B( 21-C , 25-S ) :   1.0713 B( 22-C , 23-C ) :   1.3111
B( 22-C , 87-H ) :   1.0022 B( 23-C , 24-C ) :   1.3807 B( 23-C , 28-C ) :   0.9965
B( 24-C , 25-S ) :   1.1670 B( 24-C , 26-C ) :   1.2209 B( 26-C , 27-C ) :   1.4323
B( 26-C , 36-S ) :   1.1023 B( 27-C , 28-C ) :   0.9864 B( 27-C , 34-C ) :   1.3016
B( 28-C , 29-C ) :   1.7212 B( 29-C , 30-C ) :   1.1345 B( 29-C , 32-C ) :   1.1310
B( 30-C , 31-N ) :   2.9878 B( 32-C , 33-N ) :   2.9954 B( 34-C , 35-C ) :   1.4761
B( 34-C , 88-H ) :   0.9930 B( 35-C , 36-S ) :   1.1009 B( 35-C , 37-C ) :   1.0760
B( 37-C , 38-N ) :   1.2370 B( 37-C , 39-C ) :   0.1339 B( 37-C , 41-C ) :   1.4216
B( 38-N , 39-C ) :   1.2290 B( 38-N , 89-H ) :   0.9308 B( 39-C , 40-C ) :   1.4258
B( 39-C , 42-C ) :   0.8335 B( 40-C , 41-C ) :   1.3333 B( 40-C , 90-H ) :   1.0132
B( 41-C , 91-H ) :   1.0038 B( 42-C , 43-C ) :   2.2837 B( 43-C , 44-C ) :   0.9802
B( 44-C , 45-C ) :   1.4561 B( 44-C , 48-S ) :   1.0965 B( 45-C , 46-C ) :   1.2958
B( 45-C , 92-H ) :   1.0018 B( 46-C , 47-C ) :   1.4283 B( 46-C , 51-C ) :   0.9899
B( 47-C , 48-S ) :   1.1167 B( 47-C , 49-C ) :   1.2138 B( 49-C , 50-C ) :   1.3910
B( 49-C , 59-S ) :   1.1674 B( 50-C , 51-C ) :   0.9954 B( 50-C , 57-C ) :   1.3066
B( 51-C , 52-C ) :   1.7211 B( 52-C , 53-C ) :   1.1327 B( 52-C , 55-C ) :   1.1352
B( 53-C , 54-N ) :   2.9946 B( 55-C , 56-N ) :   2.9915 B( 57-C , 58-C ) :   1.3897
B( 57-C , 93-H ) :   1.0026 B( 58-C , 59-S ) :   1.0781 B( 58-C , 60-C ) :   1.1698
B( 60-C , 61-C ) :   1.6180 B( 60-C , 94-H ) :   0.9449 B( 61-C , 62-C ) :   0.9399
B( 61-C , 75-C ) :   1.0396 B( 62-C , 63-O ) :   2.2702 B( 62-C , 64-C ) :   0.9215
B( 64-C , 65-C ) :   1.4759 B( 64-C , 74-C ) :   1.2171 B( 65-C , 66-C ) :   1.1942
B( 65-C , 95-H ) :   1.0140 B( 66-C , 67-C ) :   1.2544 B( 66-C , 71-C ) :   1.2345
B( 67-C , 68-C ) :   1.2043 B( 67-C , 73-C ) :   1.2038 B( 68-C , 69-C ) :   1.4416
B( 68-C , 96-H ) :   1.0057 B( 69-C , 70-C ) :   1.2546 B( 69-C , 72-F ) :   1.0899
B( 70-C , 71-C ) :   1.4616 B( 70-C , 97-H ) :   0.9935 B( 71-C , 98-H ) :   0.9967
B( 73-C , 74-C ) :   1.4646 B( 73-C , 99-H ) :   0.9949 B( 74-C , 75-C ) :   1.0002
B( 75-C , 76-C ) :   1.6497 B( 76-C , 77-C ) :   1.1533 B( 76-C , 79-C ) :   1.1339
B( 77-C , 78-N ) :   3.0233 B( 79-C , 80-N ) :   2.9898

-----------------------------------------------------------------------------
         ABSORPTION SPECTRUM VIA TRANSITION ELECTRIC DIPOLE MOMENTS
-----------------------------------------------------------------------------
State   Energy  Wavelength   fosc         T2         TX        TY        TZ
        (cm-1)    (nm)                  (au**2)     (au)      (au)      (au)
-----------------------------------------------------------------------------
   0   11559.4    865.1   0.538990800  15.35043  -3.87454  -0.14804  -0.56252
   1   12937.1    773.0   0.151364319   3.85177   1.77511  -0.19796  -0.81337
   2   18805.2    531.8   1.024919797  17.94266   3.89386   0.87898   1.41700
   3   19854.7    503.7   0.205881251   3.41372   1.28050  -0.37907  -1.27685
   4   20349.8    491.4   0.220853864   3.57290   1.86484   0.26566  -0.15720
   5   21519.2    464.7   0.105529490   1.61445  -0.08661  -0.94903  -0.84041
   6   25429.5    393.2   0.027432959   0.35515   0.35184  -0.46239  -0.13247
   7   25556.6    391.3   0.046531109   0.59940  -0.42967  -0.16235   0.62324
   8   26573.8    376.3   0.221305448   2.74166  -1.29092   0.80835   0.64943
   9   26830.3    372.7   0.012303566   0.15097  -0.29471  -0.24395  -0.06786
  10   27038.6    369.8   0.060610392   0.73797   0.38549  -0.19095  -0.74358
  11   27500.0    363.6   0.226891532   2.71620  -1.09263   1.02648   0.68463
  12   27723.7    360.7   0.313697598   3.72508   1.88989  -0.37370   0.11727
  13   28292.1    353.5   0.062725942   0.72989   0.25514   0.04313   0.81421
  14   28464.4    351.3   0.466234157   5.39235   2.30790  -0.15441  -0.20522
  15   29134.3    343.2   0.022811880   0.25777   0.12131  -0.01099  -0.49288
  16   29311.0    341.2   0.001228478   0.01380   0.09045  -0.07415   0.01092
  17   29495.4    339.0   0.304862601   3.40272  -0.89860  -0.18612   1.60018
  18   30056.7    332.7   0.209632529   2.29611   0.43923  -1.37307  -0.46676
  19   30233.7    330.8   0.494305805   5.38245   1.78693   1.45625  -0.26203
  20   30422.3    328.7   1.074022417  11.62243  -0.52066  -1.70018  -2.90873
  21   31026.8    322.3   0.199465668   2.11644  -0.32198   0.50761  -1.32480
  22   31461.7    317.8   0.044367816   0.46426   0.35027   0.56922   0.13254
  23   31839.6    314.1   0.060077047   0.62118   0.58521   0.46084  -0.25756
  24   31995.5    312.5   0.028609597   0.29437  -0.19995   0.32971   0.38169
  25   33037.2    302.7   0.041282628   0.41138   0.62764  -0.02572  -0.12953
  26   33134.0    301.8   0.110048228   1.09341   0.88963   0.28020  -0.47272
  27   33274.1    300.5   0.195310412   1.93239   1.19899   0.34828   0.61116
  28   33620.2    297.4   0.036861811   0.36095   0.42874   0.09170   0.41077
  29   33991.3    294.2   0.180964682   1.75268   0.26393  -0.21864   1.27875
  30   34027.1    293.9   0.087203342   0.84369  -0.60033   0.42185   0.55257
  31   34114.1    293.1   0.233282840   2.25125  -0.61305  -0.94475   0.99139
  32   34157.0    292.8   0.454743802   4.38291   0.84360   1.40360   1.30428
  33   34362.3    291.0   0.088949467   0.85219   0.26391  -0.71111  -0.52617
  34   34669.0    288.4   0.127706882   1.21269  -0.93459  -0.56952   0.12197
  35   34954.1    286.1   0.273086976   2.57204  -0.35549  -0.27428   1.53962
  36   35215.8    284.0   0.266391978   2.49034   1.37065   0.77767   0.08306
  37   35288.0    283.4   0.192635669   1.79715  -0.25571   0.07788  -1.31366
  38   35868.3    278.8   0.076900992   0.70582   0.30927  -0.78064  -0.02790
  39   36155.3    276.6   0.137963488   1.25623  -0.68983   0.07456  -0.88023
  40   36213.9    276.1   0.030946960   0.28133  -0.27206   0.31049  -0.33303
  41   36403.3    274.7   0.002051330   0.01855  -0.00869  -0.13262   0.02980
  42   36463.5    274.2   0.024484663   0.22106  -0.37556   0.17477  -0.22242
  43   36598.7    273.2   0.030673418   0.27591  -0.26525  -0.25848   0.37248
  44   36634.6    273.0   0.007967178   0.07160  -0.19776  -0.17596   0.03903
  45   36759.4    272.0   0.152130014   1.36245  -0.57732  -0.83181   0.58073
  46   37056.6    269.9   0.017796601   0.15811   0.02717  -0.28175   0.27926
  47   37466.2    266.9   0.011719379   0.10298   0.10301  -0.26698   0.14523
  48   37506.6    266.6   0.017564009   0.15417  -0.03362  -0.20348   0.33411
  49   37567.7    266.2   0.019277912   0.16894  -0.39551   0.06009   0.09434
  50   37938.1    263.6   0.001589433   0.01379  -0.05488   0.06151  -0.08365
  51   38345.7    260.8   0.019038912   0.16346   0.11900   0.06413   0.38103
  52   38594.7    259.1   0.002595626   0.02214  -0.10686  -0.00036   0.10354
  53   39120.6    255.6   0.014648327   0.12327  -0.04635  -0.29413   0.18604
  54   39278.9    254.6   0.013091172   0.10972  -0.00149   0.31783  -0.09329
  55   39372.9    254.0   0.050771497   0.42452  -0.32886   0.55118   0.11211
  56   39587.9    252.6   0.017994987   0.14965   0.21485  -0.14576   0.28678
  57   39982.4    250.1   0.167659505   1.38049   0.29382  -0.70321  -0.89424
  58   40098.6    249.4   0.110273069   0.90535   0.44113   0.13476   0.83222
  59   40162.0    249.0   0.012460438   0.10214   0.18313  -0.07335  -0.25144

FINAL SINGLE POINT ENERGY     -4881.055338254060

DIPOLE MOMENT
-------------
                                X             Y             Z
Electronic contribution:      2.51142      -5.98446       6.78583
Nuclear contribution   :     -1.54951       9.14858      -9.29316
                        -----------------------------------------
Total Dipole Moment    :      0.96191       3.16411      -2.50733
                        -----------------------------------------
Magnitude (a.u.)       :      4.15013
Magnitude (Debye)      :     10.54879

Rotational constants in cm-1:     0.001033     0.000157     0.000145
Rotational constants in MHz :    30.954707     4.705118     4.350886

                             ****ORCA TERMINATED NORMALLY****
TOTAL RUN TIME: 0 days 0 hours 16 minutes 28 seconds 7 msec
