                         Program Version 4.2.0 -  RELEASE  -
|  1> # ORCA input file
|  2> # SCF done       -191.886819480187          0.000400423668
|  3> ! CAM-B3LYP def2-SVP def2/J RIJCOSX Grid4 TightSCF
|  4> %maxcore 5000
|  5> %tddft
|  6>     Mode sTDDFT
|  7>     Ethresh 5.0
|  8>     maxcore 5000
|  9> end
| 10>
| 11> %pal
| 12>   nprocs 6
| 13>   end
| 14> * xyz 0 1
| 15>    C        2.01690         5.42357         0.67660
| 16>    C        1.09676         6.42141         0.51379
| 17>    F        0.21785         6.68013         1.49931
| 18>    C        1.02817         7.19776        -0.65110
| 19>    C        1.91364         6.95105        -1.66310
| 20>    C        2.88445         5.93471        -1.54896
| 21>    C        2.93482         5.15344        -0.35697
| 22>    C        3.88702         4.11602        -0.22729
| 23>    C        4.76160         3.88201        -1.25247
| 24>    C        4.72467         4.67987        -2.43424
| 25>    C        3.80469         5.67596        -2.58984
| 26>    C        5.77803         4.23032        -3.36378
| 27>    O        6.00206         4.60776        -4.49047
| 28>    C        6.55725         3.21685        -2.59826
| 29>    C        5.77147         2.85162        -1.43786
| 30>    C        5.76463         1.60664        -0.86273
| 31>    C        6.49032         0.55793        -1.45141
| 32>    N        7.01328        -0.29816        -2.01437
| 33>    C        4.93316         1.23076         0.20870
| 34>    N        4.29550         0.88911         1.09945
| 35>    C        7.79169         2.82096        -3.00189
| 36>    C        8.76057         2.14369        -2.21776
| 37>    C        8.91349         2.14757        -0.84026
| 38>    C        9.99753         1.38129        -0.42436
| 39>    C       10.67225         0.76563        -1.50308
| 40>    S        9.99828         1.17655        -3.01344
| 41>    C       11.71698        -0.01988        -0.98755
| 42>    C       11.73804         0.10523         0.42092
| 43>    C       10.64967         0.99597         0.81258
| 44>    C       10.30153         1.37463         2.07736
| 45>    C       11.01674         0.94230         3.21255
| 46>    N       11.60440         0.59227         4.13302
| 47>    C        9.20218         2.22588         2.31450
| 48>    N        8.30641         2.91960         2.49230
| 49>    C       12.73040        -0.65686         1.01389
| 50>    C       13.46078        -1.40803         0.08235
| 51>    S       12.90410        -1.09962        -1.56381
| 52>    C       14.47434        -2.33457         0.36217
| 53>    C       15.01590        -3.22339        -0.54362
| 54>    C       15.97966        -4.23987        -0.33562
| 55>    C       16.20090        -5.04879        -1.41972
| 56>    C       15.41486        -4.71865        -2.53732
| 57>    S       14.45589        -3.29761        -2.19403
| 58>    C       15.17300        -5.29806        -3.77815
| 59>    C       15.76722        -6.31761        -4.54159
| 60>    C       15.15525        -6.52585        -5.75060
| 61>    C       14.03363        -5.69786        -5.99598
| 62>    S       13.79909        -4.63748        -4.63189
| 63>    C       13.20234        -5.64748        -7.09716
| 64>    C       12.06848        -4.83334        -7.21641
| 65>    C       11.26396        -4.66575        -8.35303
| 66>    C       10.21813        -3.78290        -8.14065
| 67>    C       10.19135        -3.27894        -6.82056
| 68>    S       11.47146        -3.87016        -5.86325
| 69>    C        9.10452        -2.40396        -6.68488
| 70>    C        8.43124        -2.31164        -7.92735
| 71>    C        9.09965        -3.19121        -8.87292
| 72>    C        8.75697        -3.44527       -10.16781
| 73>    C        7.63158        -2.87626       -10.80388
| 74>    N        6.71655        -2.45506       -11.34979
| 75>    C        9.50611        -4.33409       -10.96821
| 76>    N       10.11655        -5.05521       -11.61824
| 77>    C        7.35764        -1.42833        -7.88609
| 78>    C        7.19207        -0.87862        -6.61983
| 79>    S        8.39473        -1.44884        -5.46649
| 80>    C        6.20332         0.04445        -6.21982
| 81>    C        5.30900         0.75154        -7.00086
| 82>    C        4.51161         1.57966        -6.13683
| 83>    C        4.93804         1.32600        -4.76619
| 84>    O        4.54589         1.75769        -3.70507
| 85>    N        5.97751         0.40987        -4.90584
| 86>    C        3.68294         2.29252        -6.93707
| 87>    O        3.87655         1.98587        -8.23306
| 88>    C        4.89219         1.01968        -8.35069
| 89>    O        5.24317         0.58925        -9.41659
| 90>    H        2.03800         4.84299         1.58555
| 91>    H        0.27982         7.97099        -0.72348
| 92>    H        1.88006         7.53628        -2.56979
| 93>    H        3.90922         3.53492         0.68178
| 94>    H        3.77590         6.26045        -3.49730
| 95>    H        8.08128         3.09945        -4.00959
| 96>    H        8.27729         2.71642        -0.18608
| 97>    H       12.92382        -0.70904         2.07030
| 98>    H       14.81589        -2.38602         1.38723
| 99>    H       16.46839        -4.36197         0.61511
|100>    H       16.87629        -5.88601        -1.42060
|101>    H       16.63182        -6.85970        -4.20140
|102>    H       15.47733        -7.25970        -6.46857
|103>    H       13.43879        -6.28052        -7.94163
|104>    H       11.47122        -5.17180        -9.27864
|105>    H        6.71331        -1.17194        -8.70961
|106>    H        6.45811         0.01014        -4.10652
|107>    H        2.93431         3.03154        -6.72095
|108> *
|109>
|110>                          ****END OF INPUT****

CARTESIAN COORDINATES (ANGSTROEM)
---------------------------------
  C      2.016900    5.423570    0.676600
  C      1.096760    6.421410    0.513790
  F      0.217850    6.680130    1.499310
  C      1.028170    7.197760   -0.651100
  C      1.913640    6.951050   -1.663100
  C      2.884450    5.934710   -1.548960
  C      2.934820    5.153440   -0.356970
  C      3.887020    4.116020   -0.227290
  C      4.761600    3.882010   -1.252470
  C      4.724670    4.679870   -2.434240
  C      3.804690    5.675960   -2.589840
  C      5.778030    4.230320   -3.363780
  O      6.002060    4.607760   -4.490470
  C      6.557250    3.216850   -2.598260
  C      5.771470    2.851620   -1.437860
  C      5.764630    1.606640   -0.862730
  C      6.490320    0.557930   -1.451410
  N      7.013280   -0.298160   -2.014370
  C      4.933160    1.230760    0.208700
  N      4.295500    0.889110    1.099450
  C      7.791690    2.820960   -3.001890
  C      8.760570    2.143690   -2.217760
  C      8.913490    2.147570   -0.840260
  C      9.997530    1.381290   -0.424360
  C     10.672250    0.765630   -1.503080
  S      9.998280    1.176550   -3.013440
  C     11.716980   -0.019880   -0.987550
  C     11.738040    0.105230    0.420920
  C     10.649670    0.995970    0.812580
  C     10.301530    1.374630    2.077360
  C     11.016740    0.942300    3.212550
  N     11.604400    0.592270    4.133020
  C      9.202180    2.225880    2.314500
  N      8.306410    2.919600    2.492300
  C     12.730400   -0.656860    1.013890
  C     13.460780   -1.408030    0.082350
  S     12.904100   -1.099620   -1.563810
  C     14.474340   -2.334570    0.362170
  C     15.015900   -3.223390   -0.543620
  C     15.979660   -4.239870   -0.335620
  C     16.200900   -5.048790   -1.419720
  C     15.414860   -4.718650   -2.537320
  S     14.455890   -3.297610   -2.194030
  C     15.173000   -5.298060   -3.778150
  C     15.767220   -6.317610   -4.541590
  C     15.155250   -6.525850   -5.750600
  C     14.033630   -5.697860   -5.995980
  S     13.799090   -4.637480   -4.631890
  C     13.202340   -5.647480   -7.097160
  C     12.068480   -4.833340   -7.216410
  C     11.263960   -4.665750   -8.353030
  C     10.218130   -3.782900   -8.140650
  C     10.191350   -3.278940   -6.820560
  S     11.471460   -3.870160   -5.863250
  C      9.104520   -2.403960   -6.684880
  C      8.431240   -2.311640   -7.927350
  C      9.099650   -3.191210   -8.872920
  C      8.756970   -3.445270  -10.167810
  C      7.631580   -2.876260  -10.803880
  N      6.716550   -2.455060  -11.349790
  C      9.506110   -4.334090  -10.968210
  N     10.116550   -5.055210  -11.618240
  C      7.357640   -1.428330   -7.886090
  C      7.192070   -0.878620   -6.619830
  S      8.394730   -1.448840   -5.466490
  C      6.203320    0.044450   -6.219820
  C      5.309000    0.751540   -7.000860
  C      4.511610    1.579660   -6.136830
  C      4.938040    1.326000   -4.766190
  O      4.545890    1.757690   -3.705070
  N      5.977510    0.409870   -4.905840
  C      3.682940    2.292520   -6.937070
  O      3.876550    1.985870   -8.233060
  C      4.892190    1.019680   -8.350690
  O      5.243170    0.589250   -9.416590
  H      2.038000    4.842990    1.585550
  H      0.279820    7.970990   -0.723480
  H      1.880060    7.536280   -2.569790
  H      3.909220    3.534920    0.681780
  H      3.775900    6.260450   -3.497300
  H      8.081280    3.099450   -4.009590
  H      8.277290    2.716420   -0.186080
  H     12.923820   -0.709040    2.070300
  H     14.815890   -2.386020    1.387230
  H     16.468390   -4.361970    0.615110
  H     16.876290   -5.886010   -1.420600
  H     16.631820   -6.859700   -4.201400
  H     15.477330   -7.259700   -6.468570
  H     13.438790   -6.280520   -7.941630
  H     11.471220   -5.171800   -9.278640
  H      6.713310   -1.171940   -8.709610
  H      6.458110    0.010140   -4.106520
  H      2.934310    3.031540   -6.720950

 Total Charge           Charge          ....    0
 Multiplicity           Mult            ....    1
 Number of Electrons    NEL             ....  546
 Basis Dimension        Dim             .... 1164

ORBITAL ENERGIES
----------------

  NO   OCC          E(Eh)            E(eV)
   0   2.0000     -88.996922     -2421.7294
   1   2.0000     -88.995859     -2421.7004
   2   2.0000     -88.993665     -2421.6407
   3   2.0000     -88.991731     -2421.5881
   4   2.0000     -88.965787     -2420.8821
   5   2.0000     -88.965424     -2420.8723
   6   2.0000     -24.782193      -674.3578
   7   2.0000     -19.276891      -524.5509
   8   2.0000     -19.211805      -522.7798
   9   2.0000     -19.203982      -522.5669
  10   2.0000     -19.203291      -522.5481
  11   2.0000     -14.464266      -393.5927
  12   2.0000     -14.433597      -392.7581
  13   2.0000     -14.433538      -392.7565
  14   2.0000     -14.431127      -392.6909
  15   2.0000     -14.425545      -392.5390
  16   2.0000     -14.424788      -392.5184
  17   2.0000     -14.411647      -392.1609
  18   2.0000     -10.400457      -283.0108
  19   2.0000     -10.393536      -282.8225
  20   2.0000     -10.367974      -282.1269
  21   2.0000     -10.365776      -282.0671
  22   2.0000     -10.365693      -282.0648
  23   2.0000     -10.363838      -282.0144
  24   2.0000     -10.360397      -281.9207
  25   2.0000     -10.356957      -281.8271
  26   2.0000     -10.356645      -281.8186
  27   2.0000     -10.353635      -281.7367
  28   2.0000     -10.342219      -281.4261
  29   2.0000     -10.341739      -281.4130
  30   2.0000     -10.340192      -281.3709
  31   2.0000     -10.338538      -281.3259
  32   2.0000     -10.333838      -281.1980
  33   2.0000     -10.333764      -281.1960
  34   2.0000     -10.333700      -281.1943
  35   2.0000     -10.332876      -281.1718
  36   2.0000     -10.332302      -281.1562
  37   2.0000     -10.331846      -281.1438
  38   2.0000     -10.331225      -281.1269
  39   2.0000     -10.330855      -281.1169
  40   2.0000     -10.330806      -281.1155
  41   2.0000     -10.329465      -281.0790
  42   2.0000     -10.329116      -281.0695
  43   2.0000     -10.328654      -281.0570
  44   2.0000     -10.328466      -281.0518
  45   2.0000     -10.327583      -281.0278
  46   2.0000     -10.324154      -280.9345
  47   2.0000     -10.320185      -280.8265
  48   2.0000     -10.314251      -280.6651
  49   2.0000     -10.311387      -280.5871
  50   2.0000     -10.310544      -280.5642
  51   2.0000     -10.310368      -280.5594
  52   2.0000     -10.310242      -280.5560
  53   2.0000     -10.310112      -280.5524
  54   2.0000     -10.309146      -280.5261
  55   2.0000     -10.308536      -280.5095
  56   2.0000     -10.308210      -280.5007
  57   2.0000     -10.308176      -280.4997
  58   2.0000     -10.307925      -280.4929
  59   2.0000     -10.307663      -280.4858
  60   2.0000     -10.307158      -280.4720
  61   2.0000     -10.306887      -280.4647
  62   2.0000     -10.306770      -280.4615
  63   2.0000     -10.302344      -280.3410
  64   2.0000     -10.301726      -280.3242
  65   2.0000     -10.297778      -280.2168
  66   2.0000     -10.297692      -280.2145
  67   2.0000     -10.295763      -280.1620
  68   2.0000     -10.294738      -280.1341
  69   2.0000     -10.294222      -280.1200
  70   2.0000     -10.291204      -280.0379
  71   2.0000     -10.286598      -279.9126
  72   2.0000     -10.285271      -279.8764
  73   2.0000     -10.276522      -279.6384
  74   2.0000     -10.274177      -279.5746
  75   2.0000      -8.091380      -220.1776
  76   2.0000      -8.090448      -220.1523
  77   2.0000      -8.088062      -220.0874
  78   2.0000      -8.086185      -220.0363
  79   2.0000      -8.062720      -219.3978
  80   2.0000      -8.062462      -219.3907
  81   2.0000      -6.060609      -164.9176
  82   2.0000      -6.059631      -164.8909
  83   2.0000      -6.057326      -164.8282
  84   2.0000      -6.056443      -164.8042
  85   2.0000      -6.055504      -164.7786
  86   2.0000      -6.055484      -164.7781
  87   2.0000      -6.053760      -164.7312
  88   2.0000      -6.052997      -164.7104
  89   2.0000      -6.052905      -164.7079
  90   2.0000      -6.051128      -164.6596
  91   2.0000      -6.050435      -164.6407
  92   2.0000      -6.048484      -164.5876
  93   2.0000      -6.032372      -164.1492
  94   2.0000      -6.032109      -164.1420
  95   2.0000      -6.028124      -164.0336
  96   2.0000      -6.027844      -164.0260
  97   2.0000      -6.023720      -163.9138
  98   2.0000      -6.023449      -163.9064
  99   2.0000      -1.296974       -35.2925
 100   2.0000      -1.205762       -32.8104
 101   2.0000      -1.143023       -31.1032
 102   2.0000      -1.126401       -30.6509
 103   2.0000      -1.111772       -30.2528
 104   2.0000      -1.070087       -29.1185
 105   2.0000      -1.049640       -28.5622
 106   2.0000      -1.047015       -28.4907
 107   2.0000      -1.025724       -27.9114
 108   2.0000      -1.022993       -27.8371
 109   2.0000      -1.021604       -27.7993
 110   2.0000      -1.020422       -27.7671
 111   2.0000      -1.011146       -27.5147
 112   2.0000      -1.006587       -27.3906
 113   2.0000      -1.004652       -27.3380
 114   2.0000      -1.001437       -27.2505
 115   2.0000      -1.000278       -27.2189
 116   2.0000      -0.993426       -27.0325
 117   2.0000      -0.991195       -26.9718
 118   2.0000      -0.974311       -26.5124
 119   2.0000      -0.963800       -26.2263
 120   2.0000      -0.960692       -26.1418
 121   2.0000      -0.930568       -25.3220
 122   2.0000      -0.924898       -25.1678
 123   2.0000      -0.921010       -25.0620
 124   2.0000      -0.911536       -24.8042
 125   2.0000      -0.906407       -24.6646
 126   2.0000      -0.897312       -24.4171
 127   2.0000      -0.886434       -24.1211
 128   2.0000      -0.883083       -24.0299
 129   2.0000      -0.878334       -23.9007
 130   2.0000      -0.877430       -23.8761
 131   2.0000      -0.874038       -23.7838
 132   2.0000      -0.864631       -23.5278
 133   2.0000      -0.861291       -23.4369
 134   2.0000      -0.858188       -23.3525
 135   2.0000      -0.849908       -23.1272
 136   2.0000      -0.837377       -22.7862
 137   2.0000      -0.831844       -22.6356
 138   2.0000      -0.827039       -22.5049
 139   2.0000      -0.813471       -22.1357
 140   2.0000      -0.806673       -21.9507
 141   2.0000      -0.790825       -21.5194
 142   2.0000      -0.781965       -21.2783
 143   2.0000      -0.779843       -21.2206
 144   2.0000      -0.766351       -20.8535
 145   2.0000      -0.758714       -20.6457
 146   2.0000      -0.756483       -20.5850
 147   2.0000      -0.746813       -20.3218
 148   2.0000      -0.729459       -19.8496
 149   2.0000      -0.718527       -19.5521
 150   2.0000      -0.709742       -19.3131
 151   2.0000      -0.708969       -19.2920
 152   2.0000      -0.705725       -19.2037
 153   2.0000      -0.699826       -19.0432
 154   2.0000      -0.694802       -18.9065
 155   2.0000      -0.691572       -18.8186
 156   2.0000      -0.687762       -18.7149
 157   2.0000      -0.681487       -18.5442
 158   2.0000      -0.679907       -18.5012
 159   2.0000      -0.676459       -18.4074
 160   2.0000      -0.658639       -17.9225
 161   2.0000      -0.652440       -17.7538
 162   2.0000      -0.648708       -17.6522
 163   2.0000      -0.646237       -17.5850
 164   2.0000      -0.636039       -17.3075
 165   2.0000      -0.632277       -17.2051
 166   2.0000      -0.627626       -17.0786
 167   2.0000      -0.626930       -17.0596
 168   2.0000      -0.622437       -16.9374
 169   2.0000      -0.620666       -16.8892
 170   2.0000      -0.617763       -16.8102
 171   2.0000      -0.613839       -16.7034
 172   2.0000      -0.611325       -16.6350
 173   2.0000      -0.605437       -16.4748
 174   2.0000      -0.600297       -16.3349
 175   2.0000      -0.595587       -16.2067
 176   2.0000      -0.588105       -16.0031
 177   2.0000      -0.582619       -15.8539
 178   2.0000      -0.576103       -15.6766
 179   2.0000      -0.574284       -15.6271
 180   2.0000      -0.572248       -15.5717
 181   2.0000      -0.564789       -15.3687
 182   2.0000      -0.562759       -15.3134
 183   2.0000      -0.557015       -15.1571
 184   2.0000      -0.554692       -15.0939
 185   2.0000      -0.552818       -15.0429
 186   2.0000      -0.550000       -14.9663
 187   2.0000      -0.549194       -14.9443
 188   2.0000      -0.546140       -14.8612
 189   2.0000      -0.544167       -14.8075
 190   2.0000      -0.538221       -14.6457
 191   2.0000      -0.535224       -14.5642
 192   2.0000      -0.532030       -14.4773
 193   2.0000      -0.527323       -14.3492
 194   2.0000      -0.525440       -14.2979
 195   2.0000      -0.521694       -14.1960
 196   2.0000      -0.519988       -14.1496
 197   2.0000      -0.518536       -14.1101
 198   2.0000      -0.514322       -13.9954
 199   2.0000      -0.512819       -13.9545
 200   2.0000      -0.511814       -13.9272
 201   2.0000      -0.510185       -13.8828
 202   2.0000      -0.509871       -13.8743
 203   2.0000      -0.508242       -13.8300
 204   2.0000      -0.505172       -13.7464
 205   2.0000      -0.503604       -13.7038
 206   2.0000      -0.501369       -13.6429
 207   2.0000      -0.500096       -13.6083
 208   2.0000      -0.496370       -13.5069
 209   2.0000      -0.495629       -13.4868
 210   2.0000      -0.491203       -13.3663
 211   2.0000      -0.488634       -13.2964
 212   2.0000      -0.487414       -13.2632
 213   2.0000      -0.484464       -13.1829
 214   2.0000      -0.483415       -13.1544
 215   2.0000      -0.477821       -13.0022
 216   2.0000      -0.476658       -12.9705
 217   2.0000      -0.474400       -12.9091
 218   2.0000      -0.471475       -12.8295
 219   2.0000      -0.470688       -12.8081
 220   2.0000      -0.468079       -12.7371
 221   2.0000      -0.465394       -12.6640
 222   2.0000      -0.464428       -12.6377
 223   2.0000      -0.462280       -12.5793
 224   2.0000      -0.460728       -12.5370
 225   2.0000      -0.460227       -12.5234
 226   2.0000      -0.458780       -12.4840
 227   2.0000      -0.454784       -12.3753
 228   2.0000      -0.453748       -12.3471
 229   2.0000      -0.451624       -12.2893
 230   2.0000      -0.449986       -12.2448
 231   2.0000      -0.446137       -12.1400
 232   2.0000      -0.445789       -12.1305
 233   2.0000      -0.443524       -12.0689
 234   2.0000      -0.441595       -12.0164
 235   2.0000      -0.439525       -11.9601
 236   2.0000      -0.437732       -11.9113
 237   2.0000      -0.437597       -11.9076
 238   2.0000      -0.437074       -11.8934
 239   2.0000      -0.435320       -11.8457
 240   2.0000      -0.432535       -11.7699
 241   2.0000      -0.431043       -11.7293
 242   2.0000      -0.429435       -11.6855
 243   2.0000      -0.425488       -11.5781
 244   2.0000      -0.422195       -11.4885
 245   2.0000      -0.420851       -11.4519
 246   2.0000      -0.419971       -11.4280
 247   2.0000      -0.415271       -11.3001
 248   2.0000      -0.411743       -11.2041
 249   2.0000      -0.406002       -11.0479
 250   2.0000      -0.399543       -10.8721
 251   2.0000      -0.391550       -10.6546
 252   2.0000      -0.388135       -10.5617
 253   2.0000      -0.378024       -10.2866
 254   2.0000      -0.372832       -10.1453
 255   2.0000      -0.364125        -9.9084
 256   2.0000      -0.362744        -9.8708
 257   2.0000      -0.360048        -9.7974
 258   2.0000      -0.358618        -9.7585
 259   2.0000      -0.354986        -9.6597
 260   2.0000      -0.348795        -9.4912
 261   2.0000      -0.344083        -9.3630
 262   2.0000      -0.341128        -9.2826
 263   2.0000      -0.334089        -9.0910
 264   2.0000      -0.327265        -8.9053
 265   2.0000      -0.323817        -8.8115
 266   2.0000      -0.322283        -8.7698
 267   2.0000      -0.309605        -8.4248
 268   2.0000      -0.305332        -8.3085
 269   2.0000      -0.294131        -8.0037
 270   2.0000      -0.275222        -7.4892
 271   2.0000      -0.259323        -7.0565
 272   2.0000      -0.222480        -6.0540
 273   0.0000      -0.124892        -3.3985
 274   0.0000      -0.106935        -2.9099
 275   0.0000      -0.092985        -2.5302
 276   0.0000      -0.087693        -2.3863
 277   0.0000      -0.066901        -1.8205

MULLIKEN ATOMIC CHARGES
-----------------------
   0 C :   -0.092697
   1 C :    0.302180
   2 F :   -0.191201
   3 C :   -0.032190
   4 C :   -0.009986
   5 C :    0.100880
   6 C :    0.096812
   7 C :   -0.078963
   8 C :    0.044642
   9 C :    0.037864
  10 C :   -0.090281
  11 C :    0.149977
  12 O :   -0.149367
  13 C :   -0.123630
  14 C :    0.264584
  15 C :   -0.314321
  16 C :   -0.117135
  17 N :    0.079590
  18 C :   -0.167924
  19 N :    0.157515
  20 C :    0.046382
  21 C :   -0.140874
  22 C :    0.015640
  23 C :   -0.014133
  24 C :   -0.063158
  25 S :    0.204364
  26 C :   -0.099159
  27 C :    0.042031
  28 C :    0.296334
  29 C :   -0.288593
  30 C :   -0.188895
  31 N :    0.174892
  32 C :   -0.185193
  33 N :    0.170566
  34 C :   -0.042359
  35 C :   -0.062173
  36 S :    0.154066
  37 C :    0.025258
  38 C :   -0.034950
  39 C :    0.038318
  40 C :    0.039263
  41 C :   -0.017688
  42 S :    0.020306
  43 C :   -0.013019
  44 C :    0.040794
  45 C :    0.036866
  46 C :   -0.030676
  47 S :    0.017871
  48 C :    0.024269
  49 C :   -0.058982
  50 C :   -0.044048
  51 C :    0.043852
  52 C :   -0.094198
  53 S :    0.149091
  54 C :   -0.076333
  55 C :    0.024487
  56 C :    0.295197
  57 C :   -0.294157
  58 C :   -0.200637
  59 N :    0.209268
  60 C :   -0.188772
  61 N :    0.168939
  62 C :   -0.045768
  63 C :   -0.116789
  64 S :    0.193914
  65 C :    0.140904
  66 C :   -0.157985
  67 C :    0.005112
  68 C :    0.194589
  69 O :   -0.199757
  70 N :   -0.142115
  71 C :    0.097364
  72 O :   -0.237307
  73 C :    0.223233
  74 O :   -0.142672
  75 H :   -0.002129
  76 H :    0.003877
  77 H :   -0.010002
  78 H :    0.001343
  79 H :   -0.014362
  80 H :    0.017801
  81 H :    0.024047
  82 H :    0.009304
  83 H :    0.001158
  84 H :   -0.002860
  85 H :   -0.005308
  86 H :   -0.006631
  87 H :   -0.002737
  88 H :    0.001463
  89 H :    0.008190
  90 H :    0.030682
  91 H :    0.135853
  92 H :    0.031184
Sum of atomic charges:   -0.0000000

LOEWDIN ATOMIC CHARGES
----------------------
   0 C :   -0.040836
   1 C :    0.092790
   2 F :   -0.065531
   3 C :   -0.037107
   4 C :    0.003301
   5 C :   -0.017224
   6 C :    0.003860
   7 C :    0.016155
   8 C :   -0.009898
   9 C :   -0.049582
  10 C :    0.031666
  11 C :    0.085710
  12 O :   -0.148471
  13 C :   -0.077167
  14 C :    0.085389
  15 C :   -0.138369
  16 C :    0.020905
  17 N :   -0.091972
  18 C :   -0.020611
  19 N :   -0.048445
  20 C :    0.022555
  21 C :   -0.182427
  22 C :   -0.004238
  23 C :   -0.070758
  24 C :   -0.159181
  25 S :    0.486976
  26 C :   -0.201447
  27 C :   -0.057473
  28 C :    0.081601
  29 C :   -0.100655
  30 C :   -0.016633
  31 N :   -0.031825
  32 C :   -0.015011
  33 N :   -0.031172
  34 C :   -0.023525
  35 C :   -0.157098
  36 S :    0.471564
  37 C :   -0.062252
  38 C :   -0.156085
  39 C :   -0.026305
  40 C :   -0.033614
  41 C :   -0.173320
  42 S :    0.376434
  43 C :   -0.171957
  44 C :   -0.035117
  45 C :   -0.024367
  46 C :   -0.157480
  47 S :    0.378169
  48 C :   -0.061066
  49 C :   -0.156791
  50 C :   -0.024178
  51 C :   -0.055266
  52 C :   -0.203878
  53 S :    0.467810
  54 C :   -0.161732
  55 C :   -0.072749
  56 C :    0.075952
  57 C :   -0.093476
  58 C :   -0.026693
  59 N :   -0.008466
  60 C :   -0.013739
  61 N :   -0.033985
  62 C :    0.015476
  63 C :   -0.192393
  64 S :    0.480789
  65 C :    0.064231
  66 C :   -0.142147
  67 C :   -0.119560
  68 C :    0.094541
  69 O :   -0.182493
  70 N :    0.024905
  71 C :    0.129713
  72 O :   -0.045294
  73 C :    0.100699
  74 O :   -0.144209
  75 H :    0.043469
  76 H :    0.041710
  77 H :    0.035151
  78 H :    0.041107
  79 H :    0.038347
  80 H :    0.043121
  81 H :    0.042355
  82 H :    0.042353
  83 H :    0.045763
  84 H :    0.036747
  85 H :    0.036516
  86 H :    0.036285
  87 H :    0.036933
  88 H :    0.045901
  89 H :    0.042021
  90 H :    0.048947
  91 H :    0.071477
  92 H :    0.035869

  Mayer bond orders larger than 0.100000
B(  0-C ,  1-C ) :   1.4416 B(  0-C ,  6-C ) :   1.2044 B(  0-C , 75-H ) :   1.0059
B(  1-C ,  2-F ) :   1.0873 B(  1-C ,  3-C ) :   1.2553 B(  3-C ,  4-C ) :   1.4616
B(  3-C , 76-H ) :   0.9931 B(  4-C ,  5-C ) :   1.2341 B(  4-C , 77-H ) :   0.9965
B(  5-C ,  6-C ) :   1.2548 B(  5-C , 10-C ) :   1.1934 B(  6-C ,  7-C ) :   1.2026
B(  7-C ,  8-C ) :   1.4600 B(  7-C , 78-H ) :   0.9967 B(  8-C ,  9-C ) :   1.2207
B(  8-C , 14-C ) :   1.0158 B(  9-C , 10-C ) :   1.4681 B(  9-C , 11-C ) :   0.9199
B( 10-C , 79-H ) :   1.0157 B( 11-C , 12-O ) :   2.2740 B( 11-C , 13-C ) :   0.9302
B( 13-C , 14-C ) :   1.0226 B( 13-C , 20-C ) :   1.6913 B( 14-C , 15-C ) :   1.6543
B( 15-C , 16-C ) :   1.1819 B( 15-C , 18-C ) :   1.1229 B( 16-C , 17-N ) :   2.8756
B( 18-C , 19-N ) :   2.9977 B( 20-C , 21-C ) :   1.0888 B( 20-C , 80-H ) :   0.9386
B( 21-C , 22-C ) :   1.4325 B( 21-C , 25-S ) :   1.0846 B( 22-C , 23-C ) :   1.3296
B( 22-C , 81-H ) :   0.9916 B( 23-C , 24-C ) :   1.3892 B( 23-C , 28-C ) :   1.0086
B( 24-C , 25-S ) :   1.1460 B( 24-C , 26-C ) :   1.2280 B( 26-C , 27-C ) :   1.3800
B( 26-C , 36-S ) :   1.1149 B( 27-C , 28-C ) :   0.9823 B( 27-C , 34-C ) :   1.3494
B( 28-C , 29-C ) :   1.7143 B( 29-C , 30-C ) :   1.1330 B( 29-C , 32-C ) :   1.1349
B( 30-C , 31-N ) :   2.9938 B( 32-C , 33-N ) :   2.9836 B( 34-C , 35-C ) :   1.3511
B( 34-C , 82-H ) :   1.0037 B( 35-C , 36-S ) :   1.0899 B( 35-C , 37-C ) :   1.2225
B( 37-C , 38-C ) :   1.5166 B( 37-C , 83-H ) :   0.9740 B( 38-C , 39-C ) :   1.1679
B( 38-C , 42-S ) :   1.0406 B( 39-C , 40-C ) :   1.5646 B( 39-C , 84-H ) :   0.9976
B( 40-C , 41-C ) :   1.2156 B( 40-C , 85-H ) :   0.9971 B( 41-C , 42-S ) :   1.0463
B( 41-C , 43-C ) :   1.4506 B( 43-C , 44-C ) :   1.2148 B( 43-C , 47-S ) :   1.0470
B( 44-C , 45-C ) :   1.5598 B( 44-C , 86-H ) :   0.9981 B( 45-C , 46-C ) :   1.1699
B( 45-C , 87-H ) :   0.9985 B( 46-C , 47-S ) :   1.0399 B( 46-C , 48-C ) :   1.5113
B( 48-C , 49-C ) :   1.2258 B( 48-C , 88-H ) :   0.9747 B( 49-C , 50-C ) :   1.3501
B( 49-C , 53-S ) :   1.0860 B( 50-C , 51-C ) :   1.3475 B( 50-C , 89-H ) :   1.0030
B( 51-C , 52-C ) :   1.3780 B( 51-C , 56-C ) :   0.9806 B( 52-C , 53-S ) :   1.1114
B( 52-C , 54-C ) :   1.2320 B( 54-C , 55-C ) :   1.3742 B( 54-C , 64-S ) :   1.1448
B( 55-C , 56-C ) :   0.9975 B( 55-C , 62-C ) :   1.2966 B( 56-C , 57-C ) :   1.7195
B( 57-C , 58-C ) :   1.1343 B( 57-C , 60-C ) :   1.1363 B( 58-C , 59-N ) :   3.0090
B( 60-C , 61-N ) :   2.9896 B( 62-C , 63-C ) :   1.4429 B( 62-C , 90-H ) :   0.9801
B( 63-C , 64-S ) :   1.0531 B( 63-C , 65-C ) :   1.1631 B( 65-C , 66-C ) :   1.4373
B( 65-C , 70-N ) :   1.2089 B( 66-C , 67-C ) :   1.1550 B( 66-C , 73-C ) :   1.0079
B( 67-C , 68-C ) :   0.9340 B( 67-C , 71-C ) :   1.5313 B( 68-C , 69-O ) :   2.0925
B( 68-C , 70-N ) :   1.0870 B( 70-N , 91-H ) :   0.8861 B( 71-C , 72-O ) :   1.1523
B( 71-C , 92-H ) :   1.0022 B( 72-O , 73-C ) :   1.0016 B( 73-C , 74-O ) :   2.1673

-----------------------------------------------------------------------------
         ABSORPTION SPECTRUM VIA TRANSITION ELECTRIC DIPOLE MOMENTS
-----------------------------------------------------------------------------
State   Energy  Wavelength   fosc         T2         TX        TY        TZ
        (cm-1)    (nm)                  (au**2)     (au)      (au)      (au)
-----------------------------------------------------------------------------
   0    6787.5   1473.3   0.179698538   8.71584  -0.36644  -1.35179  -2.59889
   1   10128.0    987.4   0.204483293   6.64677   2.10466  -1.40794   0.48463
   2   13704.7    729.7   0.126239438   3.03251   0.16075  -0.83703  -1.51857
   3   14494.9    689.9   0.166095458   3.77240   0.73626  -1.36799  -1.16573
   4   16519.3    605.4   0.798987028  15.92298  -3.39815   1.31077  -1.63017
   5   17612.8    567.8   0.054421026   1.01722  -0.72711  -0.06752  -0.69568
   6   19023.7    525.7   0.039119925   0.67699   0.24872  -0.52902  -0.57902
   7   21118.7    473.5   0.072950642   1.13720  -0.02874  -0.86758  -0.61942
   8   21273.3    470.1   0.984220022  15.23118  -2.90328   2.58670   0.33336
   9   22610.7    442.3   0.044243616   0.64419   0.25683   0.62353   0.43524
  10   23096.0    433.0   0.300470040   4.28291  -1.64533   1.22933  -0.25406
  11   23887.8    418.6   0.047137878   0.64964   0.54008  -0.57286   0.17257
  12   24787.1    403.4   0.072114377   0.95779  -0.33053  -0.67487  -0.62697
  13   25052.0    399.2   0.005390378   0.07084  -0.06566   0.21831  -0.13735
  14   25608.0    390.5   0.255802570   3.28856   1.22582  -0.51961   1.23123
  15   26410.9    378.6   0.047897482   0.59704  -0.37944   0.28091   0.61168
  16   26675.9    374.9   0.038303269   0.47271   0.37525  -0.56913  -0.08933
  17   27266.6    366.7   0.030165157   0.36421   0.38769  -0.46200  -0.02141
  18   27548.6    363.0   0.130628990   1.56104  -0.92670   0.83785   0.01657
  19   27764.4    360.2   0.249123737   2.95394   1.22114  -1.13029  -0.43035
  20   27871.9    358.8   0.046427441   0.54838  -0.56579   0.22313  -0.42246
  21   28154.1    355.2   0.036770478   0.42997   0.32628  -0.49637   0.27772
  22   28636.1    349.2   0.128067337   1.47232  -1.01195   0.63840  -0.20179
  23   28808.4    347.1   0.177320020   2.02635   0.14173   0.30392   1.38344
  24   29109.2    343.5   0.112632358   1.27382   0.54813  -0.41317   0.89591
  25   29539.1    338.5   0.123664449   1.37823   0.09688  -0.26759  -1.13897
  26   29929.7    334.1   0.175490011   1.93030  -0.87668   1.07459   0.08354
  27   30461.0    328.3   0.020795090   0.22475   0.01314   0.37755   0.28640
  28   30697.2    325.8   0.010516484   0.11278  -0.23921   0.20214   0.12124
  29   30923.1    323.4   0.132618353   1.41188  -0.11394  -0.04138  -1.18202
  30   31014.8    322.4   0.065422402   0.69444   0.38653  -0.63897   0.36979
  31   31787.3    314.6   0.221459123   2.29359   1.27458  -0.58087   0.57587
  32   31886.3    313.6   0.013038326   0.13461   0.30286  -0.11265   0.17378
  33   31952.8    313.0   0.023847205   0.24570  -0.48516   0.08293  -0.05870
  34   32421.2    308.4   0.042590741   0.43248  -0.05681   0.21583   0.61860
  35   32576.9    307.0   0.468715736   4.73669  -0.08991   0.39520   2.13832
  36   33001.9    303.0   0.105435922   1.05178   0.24112  -0.55566  -0.82758
  37   33070.6    302.4   0.048539479   0.48320  -0.59343   0.29255  -0.21322
  38   33293.5    300.4   0.133205028   1.31715  -0.51069   0.88309  -0.52584
  39   33416.3    299.3   0.063613929   0.62671   0.54635  -0.55731   0.13276
  40   33539.7    298.2   0.487701113   4.78708   0.77173  -1.17155  -1.67898
  41   33940.9    294.6   0.217078315   2.10557  -0.99363   1.05442   0.08039
  42   33982.2    294.3   0.092951800   0.90050  -0.62495   0.43307  -0.56779
  43   34265.8    291.8   0.041407333   0.39782  -0.32933   0.52673  -0.10917
  44   34368.5    291.0   0.174844097   1.67481  -1.02111   0.67332  -0.42283
  45   34519.1    289.7   0.057711232   0.55040  -0.00438  -0.11414  -0.73304
  46   34604.1    289.0   0.063722768   0.60624  -0.06192  -0.15313  -0.76089
  47   34854.9    286.9   0.370370733   3.49823   1.09530  -1.27463  -0.82088
  48   35351.9    282.9   0.003461271   0.03223   0.15743  -0.08493  -0.01537
  49   35503.2    281.7   0.020970089   0.19445  -0.41337   0.15338   0.00723
  50   35729.7    279.9   0.068100849   0.62748   0.18256  -0.40265  -0.65729
  51   36079.4    277.2   0.072551068   0.66200   0.47082  -0.52529  -0.40546
  52   36127.2    276.8   0.026189999   0.23866  -0.21710   0.05123  -0.43463
  53   36414.2    274.6   0.058676941   0.53048   0.13493   0.04796   0.71413
  54   36571.9    273.4   0.031945954   0.28757  -0.25148   0.01350  -0.47344
  55   36616.7    273.1   0.024917625   0.22403   0.04265   0.19029   0.43127
  56   36745.2    272.1   0.000525497   0.00471   0.03113  -0.02111   0.05739
  57   36791.5    271.8   0.007054504   0.06312   0.08827  -0.01572  -0.23470
  58   36988.9    270.4   0.016906853   0.15048   0.26607  -0.21796  -0.17938
  59   37023.1    270.1   0.044427834   0.39506   0.36012  -0.35296  -0.37522
  60   37342.8    267.8   0.037442461   0.33009  -0.14467   0.28406   0.47799
  61   37468.8    266.9   0.009277610   0.08152  -0.11064   0.25984  -0.04195
  62   37868.7    264.1   0.045320544   0.39399   0.14478  -0.10674  -0.60137
  63   37993.7    263.2   0.036564088   0.31682   0.24891  -0.50453   0.01772
  64   38039.0    262.9   0.030014797   0.25977   0.00027   0.13074  -0.49262
  65   38182.9    261.9   0.010706861   0.09231  -0.20780  -0.18991   0.11431
  66   38459.8    260.0   0.032604713   0.27909   0.11112   0.26305  -0.44447
  67   38591.2    259.1   0.073784139   0.62943   0.12225  -0.53460   0.57332
  68   38786.2    257.8   0.025632210   0.21756  -0.30855  -0.03163  -0.34837
  69   39023.1    256.3   0.066230552   0.55874   0.13528   0.23033  -0.69813
  70   39110.5    255.7   0.027701161   0.23317   0.20127  -0.37381  -0.23006
  71   39290.9    254.5   0.017479513   0.14646   0.29860   0.13053   0.20064
  72   39365.7    254.0   0.010830635   0.09058  -0.11978   0.11052   0.25301
  73   39606.1    252.5   0.062974250   0.52345  -0.30093   0.02736  -0.65738
  74   39816.7    251.2   0.003978945   0.03290   0.08326  -0.08889  -0.13441
  75   39937.1    250.4   0.063093846   0.52010  -0.51723   0.49368   0.09411
  76   40235.5    248.5   0.008673732   0.07097  -0.17549   0.09058  -0.17880
  77   40279.2    248.3   0.019306101   0.15779   0.27070  -0.07021  -0.28211
  78   40321.4    248.0   0.027783306   0.22684  -0.35275   0.08812   0.30764

FINAL SINGLE POINT ENERGY     -5351.411952791333

DIPOLE MOMENT
-------------
                                X             Y             Z
Electronic contribution:     -7.61325       3.17868      -2.98048
Nuclear contribution   :     11.59734      -4.26137       4.00800
                        -----------------------------------------
Total Dipole Moment    :      3.98409      -1.08268       1.02752
                        -----------------------------------------
Magnitude (a.u.)       :      4.25452
Magnitude (Debye)      :     10.81414

Rotational constants in cm-1:     0.001040     0.000541     0.000369
Rotational constants in MHz :    31.178058    16.229475    11.067699

                             ****ORCA TERMINATED NORMALLY****
TOTAL RUN TIME: 0 days 0 hours 12 minutes 9 seconds 332 msec
