                         Program Version 4.2.0 -  RELEASE  -
|  1> # ORCA input file
|  2> # SCF done       -171.352915374787          0.000384248449
|  3> ! CAM-B3LYP def2-SVP def2/J RIJCOSX Grid4 TightSCF
|  4> %maxcore 5000
|  5> %tddft
|  6>     Mode sTDDFT
|  7>     Ethresh 5.0
|  8>     maxcore 5000
|  9> end
| 10>
| 11> %pal
| 12>   nprocs 6
| 13>   end
| 14> * xyz 0 1
| 15>    C        7.16359         7.79076         0.96033
| 16>    C        6.52031         8.98940         0.82009
| 17>    F        7.19253        10.13161         1.03379
| 18>    C        5.16872         9.08058         0.45654
| 19>    C        4.46331         7.93146         0.23271
| 20>    C        5.07608         6.66762         0.36045
| 21>    C        6.45167         6.59642         0.73294
| 22>    C        7.08415         5.33999         0.87365
| 23>    C        6.36629         4.19540         0.64655
| 24>    C        4.99441         4.27366         0.26134
| 25>    C        4.35805         5.47485         0.12417
| 26>    C        4.46261         2.91661         0.04458
| 27>    O        3.33416         2.58421        -0.22543
| 28>    C        5.65433         2.01907         0.16256
| 29>    C        6.73874         2.79135         0.75296
| 30>    C        7.79080         2.29489         1.46901
| 31>    C        7.96323         0.92509         1.76287
| 32>    N        8.12108        -0.16902         2.07117
| 33>    C        8.81011         3.08781         2.02726
| 34>    N        9.69038         3.67446         2.47375
| 35>    C        5.65787         0.79654        -0.40625
| 36>    C        6.84767         0.01638        -0.67082
| 37>    N        7.94859         0.71105        -0.97601
| 38>    N        9.08257         0.12699        -1.10638
| 39>    C        9.20310        -1.19250        -0.97838
| 40>    C        8.07734        -2.01335        -0.81303
| 41>    C        6.86377        -1.38819        -0.64391
| 42>    C       10.56723        -1.71083        -0.99550
| 43>    N       10.74942        -3.01550        -1.17829
| 44>    N       11.93623        -3.51388        -1.17214
| 45>    C       13.01809        -2.75583        -0.97187
| 46>    C       12.90967        -1.36929        -0.75529
| 47>    C       11.64605        -0.83696        -0.77608
| 48>    C       14.26857        -3.48468        -0.98287
| 49>    C       15.49536        -2.89346        -0.83544
| 50>    C       16.70970        -3.58070        -0.82125
| 51>    C       16.74494        -5.01748        -1.10040
| 52>    C       15.63773        -5.78476        -1.26609
| 53>    S       14.03100        -5.20016        -1.19762
| 54>    C       18.12308        -5.36287        -1.15289
| 55>    C       18.90150        -4.22799        -0.92049
| 56>    C       20.28381        -4.51210        -0.95622
| 57>    C       20.51433        -5.82621        -1.21433
| 58>    S       19.07592        -6.76851        -1.41705
| 59>    C       18.03590        -3.10252        -0.67801
| 60>    C       18.49279        -1.80584        -0.36902
| 61>    C       17.72355        -0.80974         0.16869
| 62>    C       18.14806         0.51543         0.33806
| 63>    C       17.29128         1.53378         0.69600
| 64>    C       17.61863         2.92634         0.91082
| 65>    C       18.87302         3.48459         0.94239
| 66>    C       19.12248         4.85244         1.17198
| 67>    N       19.38927         5.95505         1.35104
| 68>    C       20.08169         2.78061         0.77132
| 69>    N       21.10734         2.27769         0.64729
| 70>    C       16.36879         3.65175         1.13155
| 71>    C       15.30081         2.72249         1.10814
| 72>    C       15.83150         1.37942         0.82582
| 73>    O       15.15796         0.37126         0.68076
| 74>    C       13.99036         3.08646         1.29555
| 75>    C       13.71549         4.44140         1.49975
| 76>    C       14.78369         5.36929         1.49986
| 77>    C       16.11238         4.99609         1.32699
| 78>    S       14.21153         6.99503         1.72948
| 79>    C       12.57097         6.40414         1.82230
| 80>    C       12.45280         5.06365         1.69425
| 81>   Br       11.15731         7.60777         2.05443
| 82>    H        8.20351         7.76185         1.24684
| 83>    H        4.71594        10.05482         0.36158
| 84>    H        3.42178         7.97692        -0.04764
| 85>    H        8.12709         5.31560         1.14698
| 86>    H        3.31766         5.51410        -0.16198
| 87>    H        4.70941         0.40138        -0.74976
| 88>    H        8.19554        -3.08465        -0.79516
| 89>    H        5.95651        -1.94177        -0.45714
| 90>    H       13.76606        -0.75036        -0.54637
| 91>    H       11.45501         0.21187        -0.61713
| 92>    H       15.50848        -1.81943        -0.74701
| 93>    H       15.70877        -6.84562        -1.45008
| 94>    H       21.06665        -3.79194        -0.80275
| 95>    H       21.46174        -6.32122        -1.30142
| 96>    H       19.53763        -1.60212        -0.57413
| 97>    H       16.72287        -1.03837         0.49044
| 98>    H       19.18571         0.74456         0.13328
| 99>    H       13.19883         2.35350         1.28302
|100>    H       16.89033         5.74115         1.33973
|101>    H       11.51935         4.53150         1.75304
|102> *
|103>
|104>                          ****END OF INPUT****

CARTESIAN COORDINATES (ANGSTROEM)
---------------------------------
  C      7.163590    7.790760    0.960330
  C      6.520310    8.989400    0.820090
  F      7.192530   10.131610    1.033790
  C      5.168720    9.080580    0.456540
  C      4.463310    7.931460    0.232710
  C      5.076080    6.667620    0.360450
  C      6.451670    6.596420    0.732940
  C      7.084150    5.339990    0.873650
  C      6.366290    4.195400    0.646550
  C      4.994410    4.273660    0.261340
  C      4.358050    5.474850    0.124170
  C      4.462610    2.916610    0.044580
  O      3.334160    2.584210   -0.225430
  C      5.654330    2.019070    0.162560
  C      6.738740    2.791350    0.752960
  C      7.790800    2.294890    1.469010
  C      7.963230    0.925090    1.762870
  N      8.121080   -0.169020    2.071170
  C      8.810110    3.087810    2.027260
  N      9.690380    3.674460    2.473750
  C      5.657870    0.796540   -0.406250
  C      6.847670    0.016380   -0.670820
  N      7.948590    0.711050   -0.976010
  N      9.082570    0.126990   -1.106380
  C      9.203100   -1.192500   -0.978380
  C      8.077340   -2.013350   -0.813030
  C      6.863770   -1.388190   -0.643910
  C     10.567230   -1.710830   -0.995500
  N     10.749420   -3.015500   -1.178290
  N     11.936230   -3.513880   -1.172140
  C     13.018090   -2.755830   -0.971870
  C     12.909670   -1.369290   -0.755290
  C     11.646050   -0.836960   -0.776080
  C     14.268570   -3.484680   -0.982870
  C     15.495360   -2.893460   -0.835440
  C     16.709700   -3.580700   -0.821250
  C     16.744940   -5.017480   -1.100400
  C     15.637730   -5.784760   -1.266090
  S     14.031000   -5.200160   -1.197620
  C     18.123080   -5.362870   -1.152890
  C     18.901500   -4.227990   -0.920490
  C     20.283810   -4.512100   -0.956220
  C     20.514330   -5.826210   -1.214330
  S     19.075920   -6.768510   -1.417050
  C     18.035900   -3.102520   -0.678010
  C     18.492790   -1.805840   -0.369020
  C     17.723550   -0.809740    0.168690
  C     18.148060    0.515430    0.338060
  C     17.291280    1.533780    0.696000
  C     17.618630    2.926340    0.910820
  C     18.873020    3.484590    0.942390
  C     19.122480    4.852440    1.171980
  N     19.389270    5.955050    1.351040
  C     20.081690    2.780610    0.771320
  N     21.107340    2.277690    0.647290
  C     16.368790    3.651750    1.131550
  C     15.300810    2.722490    1.108140
  C     15.831500    1.379420    0.825820
  O     15.157960    0.371260    0.680760
  C     13.990360    3.086460    1.295550
  C     13.715490    4.441400    1.499750
  C     14.783690    5.369290    1.499860
  C     16.112380    4.996090    1.326990
  S     14.211530    6.995030    1.729480
  C     12.570970    6.404140    1.822300
  C     12.452800    5.063650    1.694250
  Br    11.157310    7.607770    2.054430
  H      8.203510    7.761850    1.246840
  H      4.715940   10.054820    0.361580
  H      3.421780    7.976920   -0.047640
  H      8.127090    5.315600    1.146980
  H      3.317660    5.514100   -0.161980
  H      4.709410    0.401380   -0.749760
  H      8.195540   -3.084650   -0.795160
  H      5.956510   -1.941770   -0.457140
  H     13.766060   -0.750360   -0.546370
  H     11.455010    0.211870   -0.617130
  H     15.508480   -1.819430   -0.747010
  H     15.708770   -6.845620   -1.450080
  H     21.066650   -3.791940   -0.802750
  H     21.461740   -6.321220   -1.301420
  H     19.537630   -1.602120   -0.574130
  H     16.722870   -1.038370    0.490440
  H     19.185710    0.744560    0.133280
  H     13.198830    2.353500    1.283020
  H     16.890330    5.741150    1.339730
  H     11.519350    4.531500    1.753040

 Total Charge           Charge          ....    0
 Multiplicity           Mult            ....    1
 Number of Electrons    NEL             ....  496
 Basis Dimension        Dim             .... 1068

ORBITAL ENERGIES
----------------

  NO   OCC          E(Eh)            E(eV)
   0   2.0000    -482.880960    -13139.8590
   1   2.0000     -88.984427     -2421.3894
   2   2.0000     -88.965808     -2420.8827
   3   2.0000     -88.959990     -2420.7244
   4   2.0000     -62.558258     -1702.2967
   5   2.0000     -56.392156     -1534.5086
   6   2.0000     -56.389576     -1534.4384
   7   2.0000     -56.389506     -1534.4365
   8   2.0000     -24.793184      -674.6568
   9   2.0000     -19.227633      -523.2105
  10   2.0000     -19.213379      -522.8226
  11   2.0000     -14.456319      -393.3764
  12   2.0000     -14.455580      -393.3563
  13   2.0000     -14.453147      -393.2901
  14   2.0000     -14.451101      -393.2344
  15   2.0000     -14.432508      -392.7285
  16   2.0000     -14.425511      -392.5381
  17   2.0000     -14.405840      -392.0028
  18   2.0000     -14.403996      -391.9526
  19   2.0000     -10.378840      -282.4226
  20   2.0000     -10.377287      -282.3803
  21   2.0000     -10.362512      -281.9783
  22   2.0000     -10.354400      -281.7575
  23   2.0000     -10.353259      -281.7265
  24   2.0000     -10.347025      -281.5569
  25   2.0000     -10.339517      -281.3526
  26   2.0000     -10.337385      -281.2946
  27   2.0000     -10.336957      -281.2829
  28   2.0000     -10.335801      -281.2515
  29   2.0000     -10.332846      -281.1710
  30   2.0000     -10.330685      -281.1122
  31   2.0000     -10.330463      -281.1062
  32   2.0000     -10.329131      -281.0699
  33   2.0000     -10.328930      -281.0645
  34   2.0000     -10.327978      -281.0386
  35   2.0000     -10.327220      -281.0179
  36   2.0000     -10.317917      -280.7648
  37   2.0000     -10.316419      -280.7240
  38   2.0000     -10.316169      -280.7172
  39   2.0000     -10.315492      -280.6988
  40   2.0000     -10.315199      -280.6908
  41   2.0000     -10.312321      -280.6125
  42   2.0000     -10.310290      -280.5573
  43   2.0000     -10.309845      -280.5451
  44   2.0000     -10.309294      -280.5302
  45   2.0000     -10.308112      -280.4980
  46   2.0000     -10.307655      -280.4856
  47   2.0000     -10.305612      -280.4299
  48   2.0000     -10.305299      -280.4214
  49   2.0000     -10.304926      -280.4113
  50   2.0000     -10.304236      -280.3925
  51   2.0000     -10.303918      -280.3839
  52   2.0000     -10.302922      -280.3567
  53   2.0000     -10.301971      -280.3309
  54   2.0000     -10.301379      -280.3148
  55   2.0000     -10.300744      -280.2975
  56   2.0000     -10.300364      -280.2872
  57   2.0000     -10.300224      -280.2834
  58   2.0000     -10.298738      -280.2429
  59   2.0000     -10.296447      -280.1806
  60   2.0000     -10.296152      -280.1725
  61   2.0000     -10.296067      -280.1702
  62   2.0000     -10.292351      -280.0691
  63   2.0000     -10.291293      -280.0403
  64   2.0000     -10.283480      -279.8277
  65   2.0000     -10.282773      -279.8085
  66   2.0000     -10.282683      -279.8060
  67   2.0000     -10.278849      -279.7017
  68   2.0000     -10.278604      -279.6950
  69   2.0000     -10.278149      -279.6826
  70   2.0000     -10.269571      -279.4492
  71   2.0000      -8.787531      -239.1209
  72   2.0000      -8.078610      -219.8301
  73   2.0000      -8.061801      -219.3728
  74   2.0000      -8.055422      -219.1992
  75   2.0000      -6.623558      -180.2362
  76   2.0000      -6.609416      -179.8513
  77   2.0000      -6.609224      -179.8461
  78   2.0000      -6.047998      -164.5744
  79   2.0000      -6.043238      -164.4449
  80   2.0000      -6.041077      -164.3861
  81   2.0000      -6.031495      -164.1253
  82   2.0000      -6.027249      -164.0098
  83   2.0000      -6.024890      -163.9456
  84   2.0000      -6.022988      -163.8938
  85   2.0000      -6.020626      -163.8296
  86   2.0000      -6.017401      -163.7418
  87   2.0000      -2.739541       -74.5467
  88   2.0000      -2.735495       -74.4366
  89   2.0000      -2.735384       -74.4336
  90   2.0000      -2.724123       -74.1272
  91   2.0000      -2.724107       -74.1267
  92   2.0000      -1.309046       -35.6209
  93   2.0000      -1.143643       -31.1201
  94   2.0000      -1.142564       -31.0907
  95   2.0000      -1.133818       -30.8527
  96   2.0000      -1.126272       -30.6474
  97   2.0000      -1.031866       -28.0785
  98   2.0000      -1.013258       -27.5721
  99   2.0000      -1.012710       -27.5572
 100   2.0000      -1.012368       -27.5479
 101   2.0000      -1.007635       -27.4191
 102   2.0000      -1.002861       -27.2892
 103   2.0000      -0.988329       -26.8938
 104   2.0000      -0.985794       -26.8248
 105   2.0000      -0.983864       -26.7723
 106   2.0000      -0.979532       -26.6544
 107   2.0000      -0.967272       -26.3208
 108   2.0000      -0.949011       -25.8239
 109   2.0000      -0.939319       -25.5602
 110   2.0000      -0.934810       -25.4375
 111   2.0000      -0.933690       -25.4070
 112   2.0000      -0.926690       -25.2165
 113   2.0000      -0.912745       -24.8370
 114   2.0000      -0.906722       -24.6732
 115   2.0000      -0.902590       -24.5607
 116   2.0000      -0.899975       -24.4896
 117   2.0000      -0.894915       -24.3519
 118   2.0000      -0.882687       -24.0191
 119   2.0000      -0.875610       -23.8266
 120   2.0000      -0.872579       -23.7441
 121   2.0000      -0.868443       -23.6315
 122   2.0000      -0.853568       -23.2268
 123   2.0000      -0.843508       -22.9530
 124   2.0000      -0.828758       -22.5517
 125   2.0000      -0.819579       -22.3019
 126   2.0000      -0.818005       -22.2590
 127   2.0000      -0.811712       -22.0878
 128   2.0000      -0.790858       -21.5203
 129   2.0000      -0.781449       -21.2643
 130   2.0000      -0.774986       -21.0884
 131   2.0000      -0.769037       -20.9266
 132   2.0000      -0.761410       -20.7190
 133   2.0000      -0.750044       -20.4097
 134   2.0000      -0.741081       -20.1658
 135   2.0000      -0.740167       -20.1410
 136   2.0000      -0.729914       -19.8620
 137   2.0000      -0.720687       -19.6109
 138   2.0000      -0.717875       -19.5344
 139   2.0000      -0.705759       -19.2047
 140   2.0000      -0.698785       -19.0149
 141   2.0000      -0.691532       -18.8175
 142   2.0000      -0.688474       -18.7343
 143   2.0000      -0.682317       -18.5668
 144   2.0000      -0.667881       -18.1740
 145   2.0000      -0.663460       -18.0537
 146   2.0000      -0.657249       -17.8846
 147   2.0000      -0.647207       -17.6114
 148   2.0000      -0.644560       -17.5394
 149   2.0000      -0.639377       -17.3983
 150   2.0000      -0.637562       -17.3489
 151   2.0000      -0.636005       -17.3066
 152   2.0000      -0.633552       -17.2398
 153   2.0000      -0.625460       -17.0196
 154   2.0000      -0.616024       -16.7629
 155   2.0000      -0.612610       -16.6700
 156   2.0000      -0.607273       -16.5247
 157   2.0000      -0.602489       -16.3946
 158   2.0000      -0.599503       -16.3133
 159   2.0000      -0.594039       -16.1646
 160   2.0000      -0.586948       -15.9717
 161   2.0000      -0.577095       -15.7036
 162   2.0000      -0.574787       -15.6408
 163   2.0000      -0.570254       -15.5174
 164   2.0000      -0.568472       -15.4689
 165   2.0000      -0.565946       -15.4002
 166   2.0000      -0.564255       -15.3542
 167   2.0000      -0.557521       -15.1709
 168   2.0000      -0.553985       -15.0747
 169   2.0000      -0.551125       -14.9969
 170   2.0000      -0.548272       -14.9192
 171   2.0000      -0.544938       -14.8285
 172   2.0000      -0.541658       -14.7393
 173   2.0000      -0.539344       -14.6763
 174   2.0000      -0.536933       -14.6107
 175   2.0000      -0.533212       -14.5094
 176   2.0000      -0.532096       -14.4791
 177   2.0000      -0.531826       -14.4717
 178   2.0000      -0.529108       -14.3978
 179   2.0000      -0.526144       -14.3171
 180   2.0000      -0.521655       -14.1950
 181   2.0000      -0.518175       -14.1003
 182   2.0000      -0.515812       -14.0359
 183   2.0000      -0.514355       -13.9963
 184   2.0000      -0.510564       -13.8931
 185   2.0000      -0.508503       -13.8371
 186   2.0000      -0.504353       -13.7241
 187   2.0000      -0.502257       -13.6671
 188   2.0000      -0.498748       -13.5716
 189   2.0000      -0.497640       -13.5415
 190   2.0000      -0.492292       -13.3959
 191   2.0000      -0.491844       -13.3838
 192   2.0000      -0.490516       -13.3476
 193   2.0000      -0.485921       -13.2226
 194   2.0000      -0.483993       -13.1701
 195   2.0000      -0.479123       -13.0376
 196   2.0000      -0.477729       -12.9997
 197   2.0000      -0.471814       -12.8387
 198   2.0000      -0.470124       -12.7927
 199   2.0000      -0.466764       -12.7013
 200   2.0000      -0.464777       -12.6472
 201   2.0000      -0.459319       -12.4987
 202   2.0000      -0.457844       -12.4586
 203   2.0000      -0.452364       -12.3095
 204   2.0000      -0.451301       -12.2805
 205   2.0000      -0.444653       -12.0996
 206   2.0000      -0.443273       -12.0621
 207   2.0000      -0.440872       -11.9967
 208   2.0000      -0.439920       -11.9708
 209   2.0000      -0.439667       -11.9640
 210   2.0000      -0.437967       -11.9177
 211   2.0000      -0.435923       -11.8621
 212   2.0000      -0.433974       -11.8090
 213   2.0000      -0.433346       -11.7920
 214   2.0000      -0.431849       -11.7512
 215   2.0000      -0.429579       -11.6894
 216   2.0000      -0.427882       -11.6433
 217   2.0000      -0.424186       -11.5427
 218   2.0000      -0.419813       -11.4237
 219   2.0000      -0.417362       -11.3570
 220   2.0000      -0.417016       -11.3476
 221   2.0000      -0.413800       -11.2601
 222   2.0000      -0.410338       -11.1659
 223   2.0000      -0.407908       -11.0998
 224   2.0000      -0.405526       -11.0349
 225   2.0000      -0.398146       -10.8341
 226   2.0000      -0.395511       -10.7624
 227   2.0000      -0.392166       -10.6714
 228   2.0000      -0.388987       -10.5849
 229   2.0000      -0.387073       -10.5328
 230   2.0000      -0.379014       -10.3135
 231   2.0000      -0.376779       -10.2527
 232   2.0000      -0.369379       -10.0513
 233   2.0000      -0.357281        -9.7221
 234   2.0000      -0.354140        -9.6366
 235   2.0000      -0.345823        -9.4103
 236   2.0000      -0.338916        -9.2224
 237   2.0000      -0.333018        -9.0619
 238   2.0000      -0.326753        -8.8914
 239   2.0000      -0.323571        -8.8048
 240   2.0000      -0.313945        -8.5429
 241   2.0000      -0.309311        -8.4168
 242   2.0000      -0.307053        -8.3553
 243   2.0000      -0.306646        -8.3443
 244   2.0000      -0.302263        -8.2250
 245   2.0000      -0.284356        -7.7377
 246   2.0000      -0.281183        -7.6514
 247   2.0000      -0.240993        -6.5578
 248   0.0000      -0.105810        -2.8792
 249   0.0000      -0.094175        -2.5626
 250   0.0000      -0.066465        -1.8086
 251   0.0000      -0.061029        -1.6607
 252   0.0000      -0.048947        -1.3319

MULLIKEN ATOMIC CHARGES
-----------------------
   0 C :   -0.082230
   1 C :    0.306294
   2 F :   -0.185115
   3 C :   -0.032105
   4 C :   -0.003449
   5 C :    0.092405
   6 C :    0.103744
   7 C :   -0.076701
   8 C :    0.048254
   9 C :   -0.004049
  10 C :   -0.069413
  11 C :    0.135721
  12 O :   -0.130973
  13 C :   -0.097399
  14 C :    0.299375
  15 C :   -0.319857
  16 C :   -0.189223
  17 N :    0.165368
  18 C :   -0.142687
  19 N :    0.148909
  20 C :    0.067321
  21 C :   -0.028713
  22 N :   -0.072276
  23 N :   -0.059285
  24 C :    0.033405
  25 C :    0.023109
  26 C :    0.075394
  27 C :    0.006125
  28 N :   -0.040261
  29 N :   -0.097839
  30 C :    0.064255
  31 C :    0.019756
  32 C :    0.023378
  33 C :   -0.048972
  34 C :   -0.061005
  35 C :    0.062890
  36 C :    0.049739
  37 C :   -0.125954
  38 S :    0.225924
  39 C :   -0.109198
  40 C :    0.061013
  41 C :    0.008886
  42 C :   -0.067210
  43 S :    0.130935
  44 C :    0.071920
  45 C :    0.009305
  46 C :   -0.034706
  47 C :   -0.015013
  48 C :   -0.091600
  49 C :    0.324016
  50 C :   -0.354832
  51 C :   -0.186902
  52 N :    0.145044
  53 C :   -0.195769
  54 N :    0.140305
  55 C :    0.016014
  56 C :   -0.002975
  57 C :    0.156078
  58 O :   -0.192993
  59 C :   -0.078971
  60 C :    0.116489
  61 C :   -0.092489
  62 C :   -0.024219
  63 S :    0.175379
  64 C :   -0.124530
  65 C :    0.081444
  66 Br:    0.009179
  67 H :   -0.023815
  68 H :    0.007119
  69 H :   -0.006167
  70 H :   -0.004934
  71 H :   -0.007987
  72 H :    0.027294
  73 H :    0.019654
  74 H :    0.002589
  75 H :    0.002269
  76 H :    0.012485
  77 H :   -0.005429
  78 H :    0.039935
  79 H :   -0.011234
  80 H :    0.029925
  81 H :   -0.003917
  82 H :    0.025884
  83 H :    0.010171
  84 H :   -0.016685
  85 H :   -0.007956
  86 H :   -0.047662
Sum of atomic charges:   -0.0000000

LOEWDIN ATOMIC CHARGES
----------------------
   0 C :   -0.041841
   1 C :    0.094657
   2 F :   -0.060324
   3 C :   -0.033171
   4 C :    0.006124
   5 C :   -0.016768
   6 C :    0.005697
   7 C :    0.015932
   8 C :   -0.016334
   9 C :   -0.061356
  10 C :    0.038772
  11 C :    0.085101
  12 O :   -0.132296
  13 C :   -0.053085
  14 C :    0.085870
  15 C :   -0.124305
  16 C :   -0.019513
  17 N :   -0.050923
  18 C :    0.005489
  19 N :   -0.048109
  20 C :    0.061034
  21 C :   -0.025856
  22 N :   -0.037662
  23 N :   -0.036705
  24 C :   -0.002916
  25 C :    0.028720
  26 C :    0.017773
  27 C :   -0.023549
  28 N :   -0.037099
  29 N :   -0.066034
  30 C :   -0.022357
  31 C :    0.011117
  32 C :    0.023979
  33 C :   -0.167798
  34 C :   -0.008420
  35 C :    0.007893
  36 C :   -0.049423
  37 C :   -0.138365
  38 S :    0.529428
  39 C :   -0.205445
  40 C :   -0.037620
  41 C :   -0.062570
  42 C :   -0.161052
  43 S :    0.422898
  44 C :   -0.064379
  45 C :    0.047844
  46 C :   -0.059479
  47 C :    0.071097
  48 C :   -0.114240
  49 C :    0.076485
  50 C :   -0.149781
  51 C :   -0.018661
  52 N :   -0.061802
  53 C :   -0.019927
  54 N :   -0.061603
  55 C :   -0.019408
  56 C :   -0.053136
  57 C :    0.095459
  58 O :   -0.177065
  59 C :    0.020374
  60 C :   -0.033770
  61 C :   -0.143728
  62 C :   -0.011144
  63 S :    0.423913
  64 C :   -0.277790
  65 C :   -0.062199
  66 Br:    0.132908
  67 H :    0.034280
  68 H :    0.043403
  69 H :    0.036934
  70 H :    0.039220
  71 H :    0.041217
  72 H :    0.048876
  73 H :    0.046212
  74 H :    0.041725
  75 H :    0.036797
  76 H :    0.041852
  77 H :    0.042196
  78 H :    0.037778
  79 H :    0.032636
  80 H :    0.024909
  81 H :    0.035732
  82 H :    0.028197
  83 H :    0.040937
  84 H :    0.038290
  85 H :    0.040423
  86 H :    0.028833

  Mayer bond orders larger than 0.100000
B(  0-C ,  1-C ) :   1.4437 B(  0-C ,  6-C ) :   1.2074 B(  0-C , 67-H ) :   0.9999
B(  1-C ,  2-F ) :   1.0947 B(  1-C ,  3-C ) :   1.2470 B(  3-C ,  4-C ) :   1.4635
B(  3-C , 68-H ) :   0.9937 B(  4-C ,  5-C ) :   1.2328 B(  4-C , 69-H ) :   0.9969
B(  5-C ,  6-C ) :   1.2450 B(  5-C , 10-C ) :   1.2039 B(  6-C ,  7-C ) :   1.2142
B(  7-C ,  8-C ) :   1.4501 B(  7-C , 70-H ) :   0.9937 B(  8-C ,  9-C ) :   1.2080
B(  8-C , 14-C ) :   1.0153 B(  9-C , 10-C ) :   1.4668 B(  9-C , 11-C ) :   0.9225
B( 10-C , 71-H ) :   1.0134 B( 11-C , 12-O ) :   2.2904 B( 11-C , 13-C ) :   0.9187
B( 13-C , 14-C ) :   0.9956 B( 13-C , 20-C ) :   1.7814 B( 14-C , 15-C ) :   1.6862
B( 15-C , 16-C ) :   1.1482 B( 15-C , 18-C ) :   1.1554 B( 16-C , 17-N ) :   2.9978
B( 18-C , 19-N ) :   2.8898 B( 19-N , 86-H ) :   0.1054 B( 20-C , 21-C ) :   1.0056
B( 20-C , 72-H ) :   0.9497 B( 21-C , 22-N ) :   1.4779 B( 21-C , 26-C ) :   1.2899
B( 22-N , 23-N ) :   1.3444 B( 23-N , 24-C ) :   1.5598 B( 24-C , 25-C ) :   1.3271
B( 24-C , 27-C ) :   0.9870 B( 25-C , 26-C ) :   1.3876 B( 25-C , 73-H ) :   0.9883
B( 26-C , 74-H ) :   0.9926 B( 27-C , 28-N ) :   1.5981 B( 27-C , 32-C ) :   1.3078
B( 28-N , 29-N ) :   1.3455 B( 29-N , 30-C ) :   1.5411 B( 30-C , 31-C ) :   1.2871
B( 30-C , 33-C ) :   1.0492 B( 31-C , 32-C ) :   1.4193 B( 31-C , 75-H ) :   0.9671
B( 32-C , 76-H ) :   0.9822 B( 33-C , 34-C ) :   1.5482 B( 33-C , 38-S ) :   1.0935
B( 34-C , 35-C ) :   1.2523 B( 34-C , 77-H ) :   0.9601 B( 35-C , 36-C ) :   1.0909
B( 35-C , 44-C ) :   1.3240 B( 36-C , 37-C ) :   1.5583 B( 36-C , 39-C ) :   1.1807
B( 37-C , 38-S ) :   1.1655 B( 37-C , 78-H ) :   0.9408 B( 39-C , 40-C ) :   1.4415
B( 39-C , 43-S ) :   1.0745 B( 40-C , 41-C ) :   1.2255 B( 40-C , 44-C ) :   1.0956
B( 41-C , 42-C ) :   1.5848 B( 41-C , 79-H ) :   0.9988 B( 42-C , 43-S ) :   1.1555
B( 42-C , 80-H ) :   0.9664 B( 44-C , 45-C ) :   1.1926 B( 45-C , 46-C ) :   1.4709
B( 45-C , 81-H ) :   0.9754 B( 46-C , 47-C ) :   1.2328 B( 46-C , 82-H ) :   0.9765
B( 47-C , 48-C ) :   1.4551 B( 47-C , 83-H ) :   0.9652 B( 48-C , 49-C ) :   1.0806
B( 48-C , 57-C ) :   0.9950 B( 49-C , 50-C ) :   1.6150 B( 49-C , 55-C ) :   0.9959
B( 50-C , 51-C ) :   1.1446 B( 50-C , 53-C ) :   1.1501 B( 51-C , 52-N ) :   2.9678
B( 53-C , 54-N ) :   2.9659 B( 55-C , 56-C ) :   1.2740 B( 55-C , 62-C ) :   1.4167
B( 56-C , 57-C ) :   0.9587 B( 56-C , 59-C ) :   1.4113 B( 57-C , 58-O ) :   2.0533
B( 59-C , 60-C ) :   1.2480 B( 59-C , 84-H ) :   1.0196 B( 60-C , 61-C ) :   1.3014
B( 60-C , 65-C ) :   1.1665 B( 61-C , 62-C ) :   1.3210 B( 61-C , 63-S ) :   1.0872
B( 62-C , 85-H ) :   0.9817 B( 63-S , 64-C ) :   1.0741 B( 64-C , 65-C ) :   1.6156
B( 64-C , 66-Br) :   1.0109 B( 65-C , 86-H ) :   0.9743

-----------------------------------------------------------------------------
         ABSORPTION SPECTRUM VIA TRANSITION ELECTRIC DIPOLE MOMENTS
-----------------------------------------------------------------------------
State   Energy  Wavelength   fosc         T2         TX        TY        TZ
        (cm-1)    (nm)                  (au**2)     (au)      (au)      (au)
-----------------------------------------------------------------------------
   0   15525.7    644.1   0.625089785  13.25460   1.91881   2.95019   0.93228
   1   19574.7    510.9   0.166710436   2.80378  -0.63336   1.48823   0.43335
   2   20768.6    481.5   0.006203120   0.09833  -0.06150   0.11099   0.28675
   3   22981.9    435.1   0.062481076   0.89503  -0.13790   0.93128   0.09342
   4   24063.7    415.6   0.004912565   0.06721  -0.23975   0.08194  -0.05490
   5   24318.6    411.2   0.377226213   5.10667   0.73538  -2.08089  -0.48560
   6   25051.5    399.2   0.020259096   0.26623   0.20063  -0.45598  -0.13438
   7   25941.6    385.5   0.029777423   0.37789   0.51419  -0.32486  -0.08927
   8   26141.7    382.5   0.284810607   3.58672  -1.18247   1.47723   0.07921
   9   26411.3    378.6   0.104738247   1.30554  -0.83620   0.57764   0.52215
  10   26999.1    370.4   0.154198906   1.88022   1.13878  -0.75372  -0.12373
  11   27501.8    363.6   0.151521236   1.81380  -0.71301   0.97324   0.59850
  12   28203.4    354.6   0.176275665   2.05763  -0.97434   1.05164  -0.04842
  13   28844.6    346.7   0.013976535   0.15952  -0.25389   0.30806  -0.01261
  14   28960.9    345.3   0.000575381   0.00654  -0.01928   0.07567  -0.02103
  15   29255.0    341.8   0.005931206   0.06674   0.12850  -0.09974  -0.20071
  16   29357.9    340.6   0.049980977   0.56047   0.47843  -0.53156  -0.22140
  17   29600.4    337.8   0.073311213   0.81536   0.36404  -0.82118   0.09221
  18   29972.8    333.6   0.016384490   0.17996  -0.22587   0.34330  -0.10530
  19   30943.9    323.2   0.139569143   1.48487  -0.85804   0.85831   0.10932
  20   31014.8    322.4   0.147943922   1.57037   0.13996   1.02522   0.70691
  21   31636.7    316.1   0.135056782   1.40540  -1.09202   0.39211   0.24321
  22   31682.2    315.6   0.230591616   2.39610   1.07445  -1.08295   0.26245
  23   31884.8    313.6   0.005508635   0.05688   0.19208   0.12014  -0.07449
  24   32354.9    309.1   0.478777197   4.87157   2.05107  -0.77993  -0.23743
  25   33364.2    299.7   0.033385736   0.32942  -0.39944   0.40743   0.06222
  26   33504.5    298.5   0.198561221   1.95104   0.81146  -1.08348   0.34445
  27   33869.2    295.3   1.143625271  11.11616  -2.16345   2.53685   0.00674
  28   33999.7    294.1   0.068681004   0.66502  -0.35246   0.69213  -0.24851
  29   34102.1    293.2   0.060316661   0.58228   0.49870   0.56953  -0.09597
  30   34525.2    289.6   0.038876804   0.37071  -0.47981   0.37372   0.02873
  31   34675.8    288.4   0.087223690   0.82810  -0.47627   0.77077   0.08472
  32   34925.0    286.3   0.066917897   0.63079   0.09547  -0.78431   0.08078
  33   35204.2    284.1   0.020407950   0.19084  -0.15931  -0.40619  -0.02174
  34   35598.1    280.9   0.088687720   0.82018  -0.63846  -0.63640  -0.08691
  35   35708.5    280.0   0.287493208   2.65052  -1.60275   0.28051   0.05494
  36   35829.5    279.1   0.021130206   0.19415  -0.41075  -0.15790  -0.02239
  37   36091.8    277.1   0.022254954   0.20300   0.42629   0.14248  -0.03117
  38   36398.8    274.7   0.022976081   0.20781  -0.44200  -0.09511   0.05831
  39   36954.3    270.6   0.376023736   3.34985  -1.60157  -0.87921  -0.10867
  40   36998.3    270.3   0.074239202   0.66058  -0.80548   0.10327   0.03356
  41   37620.5    265.8   0.022263165   0.19482  -0.07584  -0.42289  -0.10117
  42   37660.1    265.5   0.030007511   0.26232   0.03663   0.50573   0.07215
  43   37792.3    264.6   0.018547331   0.16157  -0.26832   0.29889   0.01547
  44   37981.6    263.3   0.208583132   1.80793  -1.28359  -0.39290  -0.07709
  45   38239.1    261.5   0.048011767   0.41335   0.37328   0.46808   0.23433
  46   38454.6    260.0   0.141455462   1.21101  -0.16552  -1.06815  -0.20654
  47   38479.5    259.9   0.151439726   1.29565  -0.71196   0.88308  -0.09452
  48   38567.7    259.3   0.058601871   0.50022   0.56934   0.41314  -0.07339
  49   39568.5    252.7   0.151704455   1.26219   0.98994   0.20318   0.49084
  50   40135.1    249.2   0.108551371   0.89040   0.25768   0.86085   0.28800

FINAL SINGLE POINT ENERGY     -6446.531206055161

DIPOLE MOMENT
-------------
                                X             Y             Z
Electronic contribution:    -15.07580      71.30765      22.01852
Nuclear contribution   :     11.74719     -72.74993     -23.32594
                        -----------------------------------------
Total Dipole Moment    :     -3.32861      -1.44228      -1.30742
                        -----------------------------------------
Magnitude (a.u.)       :      3.85606
Magnitude (Debye)      :      9.80132

Rotational constants in cm-1:     0.001248     0.000510     0.000368
Rotational constants in MHz :    37.426767    15.279716    11.023117

                             ****ORCA TERMINATED NORMALLY****
TOTAL RUN TIME: 0 days 0 hours 8 minutes 39 seconds 674 msec
