                         Program Version 4.2.0 -  RELEASE  -
|  1> # ORCA input file
|  2> # SCF done       -217.842636788789          0.000835034123
|  3> ! CAM-B3LYP def2-SVP def2/J RIJCOSX Grid4 TightSCF
|  4> %maxcore 5000
|  5> %tddft
|  6>     Mode sTDDFT
|  7>     Ethresh 5.0
|  8>     maxcore 5000
|  9> end
| 10>
| 11> %pal
| 12>   nprocs 6
| 13>   end
| 14> * xyz 0 1
| 15>    C        2.32677         4.72709        -5.88723
| 16>    C        1.11367         4.88756        -6.49714
| 17>    F        0.88129         5.99162        -7.22917
| 18>    C        0.08756         3.93857        -6.39128
| 19>    C        0.30487         2.80889        -5.65266
| 20>    C        1.53734         2.59172        -5.00304
| 21>    C        2.56687         3.57101        -5.11969
| 22>    C        3.80709         3.38268        -4.46588
| 23>    C        4.00758         2.25111        -3.72323
| 24>    C        2.98471         1.26354        -3.63159
| 25>    C        1.77584         1.42338        -4.24540
| 26>    C        3.47534         0.13028        -2.82765
| 27>    O        2.87633        -0.86651        -2.49469
| 28>    C        4.90766         0.43784        -2.54678
| 29>    C        5.14840         1.81463        -2.92082
| 30>    C        6.10748         2.65376        -2.41426
| 31>    C        7.05735         2.27548        -1.44674
| 32>    N        7.83308         2.01995        -0.63931
| 33>    C        6.19353         4.02700        -2.72646
| 34>    N        6.31135         5.14749        -2.94376
| 35>    C        5.70821        -0.56602        -2.08923
| 36>    C        7.11596        -0.64853        -2.08504
| 37>    C        8.04041         0.07086        -2.82980
| 38>    C        9.34767        -0.29689        -2.54304
| 39>    C        9.43133        -1.31621        -1.57077
| 40>    S        7.90018        -1.83330        -1.04210
| 41>    C       10.79829        -1.57280        -1.31079
| 42>    C       11.57929        -0.71748        -2.11034
| 43>    C       10.69085         0.11175        -2.91132
| 44>    C       11.03524         1.09209        -3.79505
| 45>    C       12.38005         1.41175        -4.07485
| 46>    N       13.47554         1.66051        -4.30407
| 47>    C       10.05556         1.84017        -4.48164
| 48>    N        9.24795         2.43732        -5.03479
| 49>    C       12.94674        -0.87005        -1.89719
| 50>    C       13.21633        -1.83666        -0.94027
| 51>    S       11.75316        -2.56857        -0.30443
| 52>    C       14.48553        -2.22918        -0.44501
| 53>    C       15.72373        -1.71256        -0.78148
| 54>    C       16.76944        -2.31376        -0.07549
| 55>    C       16.33058        -3.29459         0.81414
| 56>    S       14.61693        -3.48485         0.75695
| 57>    C       17.26629        -3.89799         1.68027
| 58>    C       18.61482        -3.60867         1.52005
| 59>    C       19.05927        -2.79840         0.33844
| 60>    O       18.05716        -1.92956        -0.18547
| 61>    C       19.40860        -4.18642         2.50676
| 62>    C       18.68138        -4.92739         3.42183
| 63>    S       16.97420        -4.90396         3.05035
| 64>    C       19.14785        -5.62260         4.56254
| 65>    C       18.39311        -6.38796         5.43691
| 66>    C       19.15947        -6.89130         6.48348
| 67>    C       20.51165        -6.50869         6.41174
| 68>    S       20.83589        -5.53709         5.04053
| 69>    C       21.19400        -7.03805         7.53223
| 70>    C       20.26574        -7.75694         8.31677
| 71>    C       18.96663        -7.70597         7.67372
| 72>    C       17.82199        -8.32056         8.08882
| 73>    C       17.79281        -9.09927         9.26528
| 74>    N       17.78211        -9.72098        10.22871
| 75>    C       16.61070        -8.21749         7.37352
| 76>    N       15.62479        -8.12540         6.79559
| 77>    C       20.83238        -8.31516         9.45262
| 78>    C       22.18955        -8.04086         9.55506
| 79>    S       22.75386        -7.04748         8.21222
| 80>    C       23.08431        -8.38300        10.58877
| 81>    C       22.92699        -9.30740        11.57922
| 82>    C       23.74423        -9.16962        12.81899
| 83>    O       24.71991        -8.46947        12.96417
| 84>    C       23.06649       -10.01067        13.82259
| 85>    C       23.31298       -10.12241        15.16062
| 86>    C       22.48867       -10.96015        15.94507
| 87>    C       21.41758       -11.66730        15.32432
| 88>    C       20.59128       -12.48861        16.11544
| 89>    C       20.83413       -12.59127        17.45701
| 90>    C       21.88249       -11.90559        18.08574
| 91>    C       22.69443       -11.10404        17.33256
| 92>    F       20.04579       -13.37427        18.21499
| 93>    C       21.19208       -11.54105        13.93347
| 94>    C       22.00885       -10.72959        13.19461
| 95>    C       22.01736       -10.41586        11.76782
| 96>    C       21.46414       -11.20266        10.79045
| 97>    C       21.66174       -10.99264         9.41249
| 98>    N       21.81055       -10.86033         8.28142
| 99>    C       20.71191       -12.36661        11.05352
|100>    N       20.10377       -13.32617        11.21452
|101>    H        3.09254         5.48032        -5.98705
|102>    H       -0.84904         4.11980        -6.89426
|103>    H       -0.47006         2.06333        -5.55687
|104>    H        4.57241         4.13402        -4.57908
|105>    H        1.01042         0.66730        -4.15489
|106>    H        5.17544        -1.44296        -1.73318
|107>    H        7.75729         0.79656        -3.57030
|108>    H       13.71320        -0.31123        -2.40066
|109>    H       15.87440        -0.92501        -1.49458
|110>    H       19.38532        -3.47806        -0.46800
|111>    H       19.90059        -2.15069         0.60021
|112>    H       20.47722        -4.08075         2.56459
|113>    H       17.33928        -6.55351         5.30174
|114>    H       20.28497        -8.85188        10.20546
|115>    H       23.98333        -7.77921        10.66682
|116>    H       24.12320        -9.57414        15.61744
|117>    H       19.77661       -13.03306        15.66420
|118>    H       22.02488       -12.02441        19.14814
|119>    H       23.50803       -10.56535        17.79459
|120>    H       20.36734       -12.07597        13.48972
|121> *
|122>
|123>                          ****END OF INPUT****

CARTESIAN COORDINATES (ANGSTROEM)
---------------------------------
  C      2.326770    4.727090   -5.887230
  C      1.113670    4.887560   -6.497140
  F      0.881290    5.991620   -7.229170
  C      0.087560    3.938570   -6.391280
  C      0.304870    2.808890   -5.652660
  C      1.537340    2.591720   -5.003040
  C      2.566870    3.571010   -5.119690
  C      3.807090    3.382680   -4.465880
  C      4.007580    2.251110   -3.723230
  C      2.984710    1.263540   -3.631590
  C      1.775840    1.423380   -4.245400
  C      3.475340    0.130280   -2.827650
  O      2.876330   -0.866510   -2.494690
  C      4.907660    0.437840   -2.546780
  C      5.148400    1.814630   -2.920820
  C      6.107480    2.653760   -2.414260
  C      7.057350    2.275480   -1.446740
  N      7.833080    2.019950   -0.639310
  C      6.193530    4.027000   -2.726460
  N      6.311350    5.147490   -2.943760
  C      5.708210   -0.566020   -2.089230
  C      7.115960   -0.648530   -2.085040
  C      8.040410    0.070860   -2.829800
  C      9.347670   -0.296890   -2.543040
  C      9.431330   -1.316210   -1.570770
  S      7.900180   -1.833300   -1.042100
  C     10.798290   -1.572800   -1.310790
  C     11.579290   -0.717480   -2.110340
  C     10.690850    0.111750   -2.911320
  C     11.035240    1.092090   -3.795050
  C     12.380050    1.411750   -4.074850
  N     13.475540    1.660510   -4.304070
  C     10.055560    1.840170   -4.481640
  N      9.247950    2.437320   -5.034790
  C     12.946740   -0.870050   -1.897190
  C     13.216330   -1.836660   -0.940270
  S     11.753160   -2.568570   -0.304430
  C     14.485530   -2.229180   -0.445010
  C     15.723730   -1.712560   -0.781480
  C     16.769440   -2.313760   -0.075490
  C     16.330580   -3.294590    0.814140
  S     14.616930   -3.484850    0.756950
  C     17.266290   -3.897990    1.680270
  C     18.614820   -3.608670    1.520050
  C     19.059270   -2.798400    0.338440
  O     18.057160   -1.929560   -0.185470
  C     19.408600   -4.186420    2.506760
  C     18.681380   -4.927390    3.421830
  S     16.974200   -4.903960    3.050350
  C     19.147850   -5.622600    4.562540
  C     18.393110   -6.387960    5.436910
  C     19.159470   -6.891300    6.483480
  C     20.511650   -6.508690    6.411740
  S     20.835890   -5.537090    5.040530
  C     21.194000   -7.038050    7.532230
  C     20.265740   -7.756940    8.316770
  C     18.966630   -7.705970    7.673720
  C     17.821990   -8.320560    8.088820
  C     17.792810   -9.099270    9.265280
  N     17.782110   -9.720980   10.228710
  C     16.610700   -8.217490    7.373520
  N     15.624790   -8.125400    6.795590
  C     20.832380   -8.315160    9.452620
  C     22.189550   -8.040860    9.555060
  S     22.753860   -7.047480    8.212220
  C     23.084310   -8.383000   10.588770
  C     22.926990   -9.307400   11.579220
  C     23.744230   -9.169620   12.818990
  O     24.719910   -8.469470   12.964170
  C     23.066490  -10.010670   13.822590
  C     23.312980  -10.122410   15.160620
  C     22.488670  -10.960150   15.945070
  C     21.417580  -11.667300   15.324320
  C     20.591280  -12.488610   16.115440
  C     20.834130  -12.591270   17.457010
  C     21.882490  -11.905590   18.085740
  C     22.694430  -11.104040   17.332560
  F     20.045790  -13.374270   18.214990
  C     21.192080  -11.541050   13.933470
  C     22.008850  -10.729590   13.194610
  C     22.017360  -10.415860   11.767820
  C     21.464140  -11.202660   10.790450
  C     21.661740  -10.992640    9.412490
  N     21.810550  -10.860330    8.281420
  C     20.711910  -12.366610   11.053520
  N     20.103770  -13.326170   11.214520
  H      3.092540    5.480320   -5.987050
  H     -0.849040    4.119800   -6.894260
  H     -0.470060    2.063330   -5.556870
  H      4.572410    4.134020   -4.579080
  H      1.010420    0.667300   -4.154890
  H      5.175440   -1.442960   -1.733180
  H      7.757290    0.796560   -3.570300
  H     13.713200   -0.311230   -2.400660
  H     15.874400   -0.925010   -1.494580
  H     19.385320   -3.478060   -0.468000
  H     19.900590   -2.150690    0.600210
  H     20.477220   -4.080750    2.564590
  H     17.339280   -6.553510    5.301740
  H     20.284970   -8.851880   10.205460
  H     23.983330   -7.779210   10.666820
  H     24.123200   -9.574140   15.617440
  H     19.776610  -13.033060   15.664200
  H     22.024880  -12.024410   19.148140
  H     23.508030  -10.565350   17.794590
  H     20.367340  -12.075970   13.489720

 Total Charge           Charge          ....    0
 Multiplicity           Mult            ....    1
 Number of Electrons    NEL             ....  616
 Basis Dimension        Dim             .... 1328

ORBITAL ENERGIES
----------------

  NO   OCC          E(Eh)            E(eV)
   0   2.0000     -88.998632     -2421.7759
   1   2.0000     -88.998086     -2421.7610
   2   2.0000     -88.997996     -2421.7586
   3   2.0000     -88.997560     -2421.7467
   4   2.0000     -88.981380     -2421.3064
   5   2.0000     -88.980455     -2421.2813
   6   2.0000     -24.785060      -674.4358
   7   2.0000     -24.784417      -674.4183
   8   2.0000     -19.267960      -524.3079
   9   2.0000     -19.214639      -522.8569
  10   2.0000     -19.213749      -522.8327
  11   2.0000     -14.435872      -392.8200
  12   2.0000     -14.435542      -392.8111
  13   2.0000     -14.435513      -392.8103
  14   2.0000     -14.435373      -392.8065
  15   2.0000     -14.418999      -392.3609
  16   2.0000     -14.417734      -392.3265
  17   2.0000     -14.413787      -392.2191
  18   2.0000     -14.412400      -392.1813
  19   2.0000     -10.370970      -282.2084
  20   2.0000     -10.370541      -282.1968
  21   2.0000     -10.368922      -282.1527
  22   2.0000     -10.368276      -282.1351
  23   2.0000     -10.366249      -282.0800
  24   2.0000     -10.365738      -282.0661
  25   2.0000     -10.357817      -281.8505
  26   2.0000     -10.357652      -281.8460
  27   2.0000     -10.355179      -281.7787
  28   2.0000     -10.353289      -281.7273
  29   2.0000     -10.346792      -281.5505
  30   2.0000     -10.346291      -281.5369
  31   2.0000     -10.344395      -281.4853
  32   2.0000     -10.343431      -281.4591
  33   2.0000     -10.343036      -281.4483
  34   2.0000     -10.341892      -281.4172
  35   2.0000     -10.339834      -281.3612
  36   2.0000     -10.339483      -281.3516
  37   2.0000     -10.337954      -281.3100
  38   2.0000     -10.337336      -281.2932
  39   2.0000     -10.335952      -281.2555
  40   2.0000     -10.335644      -281.2472
  41   2.0000     -10.335609      -281.2462
  42   2.0000     -10.335530      -281.2441
  43   2.0000     -10.332774      -281.1691
  44   2.0000     -10.328848      -281.0622
  45   2.0000     -10.328473      -281.0520
  46   2.0000     -10.328398      -281.0500
  47   2.0000     -10.328129      -281.0427
  48   2.0000     -10.326170      -280.9894
  49   2.0000     -10.325375      -280.9677
  50   2.0000     -10.320267      -280.8287
  51   2.0000     -10.318764      -280.7879
  52   2.0000     -10.318486      -280.7803
  53   2.0000     -10.316282      -280.7203
  54   2.0000     -10.314932      -280.6836
  55   2.0000     -10.314817      -280.6804
  56   2.0000     -10.314619      -280.6751
  57   2.0000     -10.314293      -280.6662
  58   2.0000     -10.314246      -280.6649
  59   2.0000     -10.309110      -280.5251
  60   2.0000     -10.308867      -280.5185
  61   2.0000     -10.308733      -280.5149
  62   2.0000     -10.307731      -280.4876
  63   2.0000     -10.305809      -280.4353
  64   2.0000     -10.305677      -280.4317
  65   2.0000     -10.304931      -280.4114
  66   2.0000     -10.304797      -280.4078
  67   2.0000     -10.301598      -280.3207
  68   2.0000     -10.300851      -280.3004
  69   2.0000     -10.300635      -280.2945
  70   2.0000     -10.300153      -280.2814
  71   2.0000     -10.300065      -280.2790
  72   2.0000     -10.300056      -280.2788
  73   2.0000     -10.299290      -280.2579
  74   2.0000     -10.299216      -280.2559
  75   2.0000     -10.297758      -280.2163
  76   2.0000     -10.297357      -280.2053
  77   2.0000     -10.296866      -280.1920
  78   2.0000     -10.296686      -280.1871
  79   2.0000     -10.295372      -280.1513
  80   2.0000     -10.293983      -280.1135
  81   2.0000     -10.293393      -280.0975
  82   2.0000     -10.289985      -280.0047
  83   2.0000     -10.289330      -279.9869
  84   2.0000     -10.288326      -279.9596
  85   2.0000     -10.287595      -279.9397
  86   2.0000      -8.093243      -220.2283
  87   2.0000      -8.092653      -220.2123
  88   2.0000      -8.092598      -220.2108
  89   2.0000      -8.092339      -220.2037
  90   2.0000      -8.076650      -219.7768
  91   2.0000      -8.075821      -219.7543
  92   2.0000      -6.062572      -164.9710
  93   2.0000      -6.061983      -164.9549
  94   2.0000      -6.061791      -164.9497
  95   2.0000      -6.061509      -164.9420
  96   2.0000      -6.058298      -164.8547
  97   2.0000      -6.057824      -164.8418
  98   2.0000      -6.057592      -164.8355
  99   2.0000      -6.057356      -164.8290
 100   2.0000      -6.055561      -164.7802
 101   2.0000      -6.055118      -164.7681
 102   2.0000      -6.054817      -164.7599
 103   2.0000      -6.054784      -164.7590
 104   2.0000      -6.046033      -164.5209
 105   2.0000      -6.045286      -164.5006
 106   2.0000      -6.041966      -164.4103
 107   2.0000      -6.041261      -164.3911
 108   2.0000      -6.038508      -164.3161
 109   2.0000      -6.037515      -164.2891
 110   2.0000      -1.300100       -35.3775
 111   2.0000      -1.299460       -35.3601
 112   2.0000      -1.175368       -31.9834
 113   2.0000      -1.130236       -30.7553
 114   2.0000      -1.129369       -30.7317
 115   2.0000      -1.053066       -28.6554
 116   2.0000      -1.052829       -28.6489
 117   2.0000      -1.027826       -27.9686
 118   2.0000      -1.027648       -27.9637
 119   2.0000      -1.021417       -27.7942
 120   2.0000      -1.020296       -27.7637
 121   2.0000      -1.017599       -27.6903
 122   2.0000      -1.013538       -27.5798
 123   2.0000      -1.013070       -27.5670
 124   2.0000      -1.011593       -27.5268
 125   2.0000      -1.001837       -27.2614
 126   2.0000      -1.001281       -27.2462
 127   2.0000      -1.000250       -27.2182
 128   2.0000      -0.994683       -27.0667
 129   2.0000      -0.992726       -27.0135
 130   2.0000      -0.991534       -26.9810
 131   2.0000      -0.976648       -26.5760
 132   2.0000      -0.975905       -26.5557
 133   2.0000      -0.965785       -26.2804
 134   2.0000      -0.964049       -26.2331
 135   2.0000      -0.931804       -25.3557
 136   2.0000      -0.931040       -25.3349
 137   2.0000      -0.923213       -25.1219
 138   2.0000      -0.921275       -25.0692
 139   2.0000      -0.904492       -24.6125
 140   2.0000      -0.901676       -24.5359
 141   2.0000      -0.893808       -24.3218
 142   2.0000      -0.887467       -24.1492
 143   2.0000      -0.886177       -24.1141
 144   2.0000      -0.884477       -24.0678
 145   2.0000      -0.880462       -23.9586
 146   2.0000      -0.879599       -23.9351
 147   2.0000      -0.869380       -23.6570
 148   2.0000      -0.867424       -23.6038
 149   2.0000      -0.863895       -23.5078
 150   2.0000      -0.862873       -23.4800
 151   2.0000      -0.852956       -23.2101
 152   2.0000      -0.839155       -22.8346
 153   2.0000      -0.834449       -22.7065
 154   2.0000      -0.833594       -22.6832
 155   2.0000      -0.819193       -22.2914
 156   2.0000      -0.813922       -22.1479
 157   2.0000      -0.796710       -21.6796
 158   2.0000      -0.793410       -21.5898
 159   2.0000      -0.783325       -21.3154
 160   2.0000      -0.781746       -21.2724
 161   2.0000      -0.766407       -20.8550
 162   2.0000      -0.763520       -20.7764
 163   2.0000      -0.754604       -20.5338
 164   2.0000      -0.746175       -20.3045
 165   2.0000      -0.731410       -19.9027
 166   2.0000      -0.726312       -19.7639
 167   2.0000      -0.713363       -19.4116
 168   2.0000      -0.712026       -19.3752
 169   2.0000      -0.709091       -19.2953
 170   2.0000      -0.708313       -19.2742
 171   2.0000      -0.707728       -19.2583
 172   2.0000      -0.702903       -19.1270
 173   2.0000      -0.694793       -18.9063
 174   2.0000      -0.690022       -18.7765
 175   2.0000      -0.686665       -18.6851
 176   2.0000      -0.684340       -18.6218
 177   2.0000      -0.679221       -18.4825
 178   2.0000      -0.677404       -18.4331
 179   2.0000      -0.668189       -18.1823
 180   2.0000      -0.660992       -17.9865
 181   2.0000      -0.657024       -17.8785
 182   2.0000      -0.640273       -17.4227
 183   2.0000      -0.639452       -17.4004
 184   2.0000      -0.636673       -17.3247
 185   2.0000      -0.634771       -17.2730
 186   2.0000      -0.631218       -17.1763
 187   2.0000      -0.629389       -17.1266
 188   2.0000      -0.628823       -17.1111
 189   2.0000      -0.628155       -17.0930
 190   2.0000      -0.624739       -17.0000
 191   2.0000      -0.621833       -16.9209
 192   2.0000      -0.616610       -16.7788
 193   2.0000      -0.611908       -16.6509
 194   2.0000      -0.602995       -16.4083
 195   2.0000      -0.600063       -16.3286
 196   2.0000      -0.595860       -16.2142
 197   2.0000      -0.586041       -15.9470
 198   2.0000      -0.579957       -15.7814
 199   2.0000      -0.579598       -15.7717
 200   2.0000      -0.574609       -15.6359
 201   2.0000      -0.568340       -15.4653
 202   2.0000      -0.565113       -15.3775
 203   2.0000      -0.563201       -15.3255
 204   2.0000      -0.560168       -15.2429
 205   2.0000      -0.557709       -15.1760
 206   2.0000      -0.556967       -15.1558
 207   2.0000      -0.556260       -15.1366
 208   2.0000      -0.554969       -15.1015
 209   2.0000      -0.554219       -15.0811
 210   2.0000      -0.550433       -14.9781
 211   2.0000      -0.547617       -14.9014
 212   2.0000      -0.546041       -14.8585
 213   2.0000      -0.541418       -14.7327
 214   2.0000      -0.535465       -14.5707
 215   2.0000      -0.534618       -14.5477
 216   2.0000      -0.533905       -14.5283
 217   2.0000      -0.528155       -14.3718
 218   2.0000      -0.525335       -14.2951
 219   2.0000      -0.523176       -14.2363
 220   2.0000      -0.522415       -14.2156
 221   2.0000      -0.521477       -14.1901
 222   2.0000      -0.517622       -14.0852
 223   2.0000      -0.515102       -14.0166
 224   2.0000      -0.514222       -13.9927
 225   2.0000      -0.513008       -13.9596
 226   2.0000      -0.512794       -13.9538
 227   2.0000      -0.512465       -13.9449
 228   2.0000      -0.509904       -13.8752
 229   2.0000      -0.508624       -13.8404
 230   2.0000      -0.507136       -13.7999
 231   2.0000      -0.502259       -13.6672
 232   2.0000      -0.498214       -13.5571
 233   2.0000      -0.497537       -13.5387
 234   2.0000      -0.495112       -13.4727
 235   2.0000      -0.494703       -13.4616
 236   2.0000      -0.492433       -13.3998
 237   2.0000      -0.489480       -13.3194
 238   2.0000      -0.486633       -13.2420
 239   2.0000      -0.485841       -13.2204
 240   2.0000      -0.484657       -13.1882
 241   2.0000      -0.482737       -13.1359
 242   2.0000      -0.481123       -13.0920
 243   2.0000      -0.479918       -13.0592
 244   2.0000      -0.478563       -13.0224
 245   2.0000      -0.475506       -12.9392
 246   2.0000      -0.468233       -12.7413
 247   2.0000      -0.466918       -12.7055
 248   2.0000      -0.466563       -12.6958
 249   2.0000      -0.466256       -12.6875
 250   2.0000      -0.465955       -12.6793
 251   2.0000      -0.463607       -12.6154
 252   2.0000      -0.461716       -12.5639
 253   2.0000      -0.460936       -12.5427
 254   2.0000      -0.456821       -12.4307
 255   2.0000      -0.455869       -12.4048
 256   2.0000      -0.452702       -12.3186
 257   2.0000      -0.451727       -12.2921
 258   2.0000      -0.450651       -12.2628
 259   2.0000      -0.450331       -12.2541
 260   2.0000      -0.447049       -12.1648
 261   2.0000      -0.445558       -12.1242
 262   2.0000      -0.445518       -12.1232
 263   2.0000      -0.444560       -12.0971
 264   2.0000      -0.444333       -12.0909
 265   2.0000      -0.443451       -12.0669
 266   2.0000      -0.442588       -12.0434
 267   2.0000      -0.440988       -11.9999
 268   2.0000      -0.440014       -11.9734
 269   2.0000      -0.438163       -11.9230
 270   2.0000      -0.436932       -11.8895
 271   2.0000      -0.434376       -11.8200
 272   2.0000      -0.431538       -11.7427
 273   2.0000      -0.431183       -11.7331
 274   2.0000      -0.430838       -11.7237
 275   2.0000      -0.429532       -11.6882
 276   2.0000      -0.426028       -11.5928
 277   2.0000      -0.424913       -11.5625
 278   2.0000      -0.423574       -11.5260
 279   2.0000      -0.420538       -11.4434
 280   2.0000      -0.417556       -11.3623
 281   2.0000      -0.411578       -11.1996
 282   2.0000      -0.410722       -11.1763
 283   2.0000      -0.409918       -11.1544
 284   2.0000      -0.402819       -10.9613
 285   2.0000      -0.401889       -10.9360
 286   2.0000      -0.394903       -10.7459
 287   2.0000      -0.382166       -10.3993
 288   2.0000      -0.380414       -10.3516
 289   2.0000      -0.375860       -10.2277
 290   2.0000      -0.367527       -10.0009
 291   2.0000      -0.356421        -9.6987
 292   2.0000      -0.355822        -9.6824
 293   2.0000      -0.351070        -9.5531
 294   2.0000      -0.344757        -9.3813
 295   2.0000      -0.338323        -9.2062
 296   2.0000      -0.336357        -9.1528
 297   2.0000      -0.331021        -9.0076
 298   2.0000      -0.328468        -8.9381
 299   2.0000      -0.325783        -8.8650
 300   2.0000      -0.321842        -8.7578
 301   2.0000      -0.314028        -8.5451
 302   2.0000      -0.312877        -8.5138
 303   2.0000      -0.299687        -8.1549
 304   2.0000      -0.298038        -8.1100
 305   2.0000      -0.288983        -7.8636
 306   2.0000      -0.268827        -7.3151
 307   2.0000      -0.237243        -6.4557
 308   0.0000      -0.118096        -3.2136
 309   0.0000      -0.112997        -3.0748
 310   0.0000      -0.092205        -2.5090
 311   0.0000      -0.090945        -2.4747
 312   0.0000      -0.064874        -1.7653

MULLIKEN ATOMIC CHARGES
-----------------------
   0 C :   -0.099018
   1 C :    0.303131
   2 F :   -0.189431
   3 C :   -0.026975
   4 C :   -0.013095
   5 C :    0.104138
   6 C :    0.102517
   7 C :   -0.085042
   8 C :    0.032349
   9 C :    0.019375
  10 C :   -0.085970
  11 C :    0.133930
  12 O :   -0.145583
  13 C :   -0.140128
  14 C :    0.272497
  15 C :   -0.330044
  16 C :   -0.202363
  17 N :    0.164625
  18 C :   -0.169209
  19 N :    0.158727
  20 C :    0.081818
  21 C :   -0.111782
  22 C :   -0.001396
  23 C :   -0.006919
  24 C :   -0.069191
  25 S :    0.213837
  26 C :   -0.108157
  27 C :    0.024139
  28 C :    0.304408
  29 C :   -0.287263
  30 C :   -0.184954
  31 N :    0.172648
  32 C :   -0.185845
  33 N :    0.174858
  34 C :   -0.053586
  35 C :   -0.031527
  36 S :    0.198307
  37 C :   -0.037954
  38 C :   -0.065468
  39 C :    0.211401
  40 C :   -0.168156
  41 S :    0.151371
  42 C :   -0.048745
  43 C :   -0.128389
  44 C :    0.358272
  45 O :   -0.296815
  46 C :   -0.048584
  47 C :   -0.058197
  48 S :    0.161884
  49 C :   -0.024758
  50 C :   -0.072742
  51 C :    0.026876
  52 C :   -0.111785
  53 S :    0.190345
  54 C :   -0.066224
  55 C :   -0.012058
  56 C :    0.305078
  57 C :   -0.285201
  58 C :   -0.185068
  59 N :    0.173203
  60 C :   -0.187506
  61 N :    0.175326
  62 C :    0.003526
  63 C :   -0.112493
  64 S :    0.210966
  65 C :    0.084653
  66 C :   -0.143985
  67 C :    0.136837
  68 O :   -0.146395
  69 C :    0.013431
  70 C :   -0.080747
  71 C :    0.100234
  72 C :    0.098391
  73 C :   -0.096202
  74 C :    0.303062
  75 C :   -0.031597
  76 C :   -0.009217
  77 F :   -0.189630
  78 C :   -0.080366
  79 C :    0.033539
  80 C :    0.266334
  81 C :   -0.329708
  82 C :   -0.200273
  83 N :    0.163082
  84 C :   -0.170681
  85 N :    0.159237
  86 H :    0.000206
  87 H :    0.003263
  88 H :   -0.007882
  89 H :    0.002465
  90 H :   -0.010777
  91 H :    0.021497
  92 H :    0.024997
  93 H :    0.008948
  94 H :   -0.004732
  95 H :    0.030908
  96 H :    0.025943
  97 H :   -0.013581
  98 H :    0.016436
  99 H :    0.025582
 100 H :    0.019521
 101 H :   -0.011811
 102 H :   -0.000686
 103 H :    0.004344
 104 H :   -0.009121
 105 H :    0.002550
Sum of atomic charges:   -0.0000000

LOEWDIN ATOMIC CHARGES
----------------------
   0 C :   -0.040990
   1 C :    0.093401
   2 F :   -0.064163
   3 C :   -0.036338
   4 C :    0.004339
   5 C :   -0.018510
   6 C :    0.004047
   7 C :    0.013681
   8 C :   -0.017141
   9 C :   -0.060258
  10 C :    0.034704
  11 C :    0.082403
  12 O :   -0.146514
  13 C :   -0.093699
  14 C :    0.066036
  15 C :   -0.136994
  16 C :   -0.015172
  17 N :   -0.047823
  18 C :   -0.018784
  19 N :   -0.046657
  20 C :    0.043389
  21 C :   -0.182818
  22 C :    0.011261
  23 C :   -0.069118
  24 C :   -0.155430
  25 S :    0.499078
  26 C :   -0.189536
  27 C :   -0.053071
  28 C :    0.083094
  29 C :   -0.096656
  30 C :   -0.015752
  31 N :   -0.030535
  32 C :   -0.013558
  33 N :   -0.029949
  34 C :   -0.026842
  35 C :   -0.169248
  36 S :    0.477778
  37 C :   -0.177086
  38 C :   -0.059187
  39 C :    0.035944
  40 C :   -0.244152
  41 S :    0.432471
  42 C :   -0.181345
  43 C :   -0.081319
  44 C :    0.109022
  45 O :   -0.092636
  46 C :   -0.052039
  47 C :   -0.188189
  48 S :    0.455499
  49 C :   -0.164100
  50 C :   -0.042783
  51 C :   -0.051365
  52 C :   -0.192315
  53 S :    0.476587
  54 C :   -0.154392
  55 C :   -0.070851
  56 C :    0.082274
  57 C :   -0.095978
  58 C :   -0.013103
  59 N :   -0.029692
  60 C :   -0.016448
  61 N :   -0.029098
  62 C :    0.012523
  63 C :   -0.183495
  64 S :    0.496043
  65 C :    0.042993
  66 C :   -0.094277
  67 C :    0.082610
  68 O :   -0.147572
  69 C :   -0.060112
  70 C :    0.034102
  71 C :   -0.018858
  72 C :    0.003728
  73 C :   -0.041016
  74 C :    0.093327
  75 C :   -0.037103
  76 C :    0.004316
  77 F :   -0.064306
  78 C :    0.014006
  79 C :   -0.017085
  80 C :    0.064663
  81 C :   -0.137710
  82 C :   -0.015741
  83 N :   -0.047740
  84 C :   -0.018910
  85 N :   -0.046955
  86 H :    0.044052
  87 H :    0.041960
  88 H :    0.035823
  89 H :    0.041006
  90 H :    0.039799
  91 H :    0.045874
  92 H :    0.043037
  93 H :    0.041445
  94 H :    0.040591
  95 H :    0.025385
  96 H :    0.034417
  97 H :    0.028498
  98 H :    0.036863
  99 H :    0.042806
 100 H :    0.045379
 101 H :    0.039515
 102 H :    0.043920
 103 H :    0.042000
 104 H :    0.035602
 105 H :    0.041222

  Mayer bond orders larger than 0.100000
B(  0-C ,  1-C ) :   1.4416 B(  0-C ,  6-C ) :   1.2039 B(  0-C , 86-H ) :   1.0062
B(  1-C ,  2-F ) :   1.0898 B(  1-C ,  3-C ) :   1.2544 B(  3-C ,  4-C ) :   1.4619
B(  3-C , 87-H ) :   0.9922 B(  4-C ,  5-C ) :   1.2345 B(  4-C , 88-H ) :   0.9966
B(  5-C ,  6-C ) :   1.2540 B(  5-C , 10-C ) :   1.1921 B(  6-C ,  7-C ) :   1.2041
B(  7-C ,  8-C ) :   1.4636 B(  7-C , 89-H ) :   0.9945 B(  8-C ,  9-C ) :   1.2180
B(  8-C , 14-C ) :   0.9939 B(  9-C , 10-C ) :   1.4695 B(  9-C , 11-C ) :   0.9210
B( 10-C , 90-H ) :   1.0155 B( 11-C , 12-O ) :   2.2656 B( 11-C , 13-C ) :   0.9436
B( 13-C , 14-C ) :   1.0410 B( 13-C , 20-C ) :   1.6611 B( 14-C , 15-C ) :   1.6460
B( 15-C , 16-C ) :   1.1728 B( 15-C , 18-C ) :   1.1274 B( 16-C , 17-N ) :   2.9937
B( 18-C , 19-N ) :   2.9905 B( 20-C , 21-C ) :   1.1438 B( 20-C , 91-H ) :   0.9265
B( 21-C , 22-C ) :   1.3897 B( 21-C , 25-S ) :   1.0825 B( 22-C , 23-C ) :   1.3623
B( 22-C , 92-H ) :   0.9809 B( 23-C , 24-C ) :   1.4039 B( 23-C , 28-C ) :   1.0026
B( 24-C , 25-S ) :   1.1577 B( 24-C , 26-C ) :   1.2044 B( 26-C , 27-C ) :   1.4337
B( 26-C , 36-S ) :   1.1133 B( 27-C , 28-C ) :   0.9930 B( 27-C , 34-C ) :   1.3026
B( 28-C , 29-C ) :   1.7180 B( 29-C , 30-C ) :   1.1333 B( 29-C , 32-C ) :   1.1348
B( 30-C , 31-N ) :   2.9894 B( 32-C , 33-N ) :   2.9842 B( 34-C , 35-C ) :   1.4703
B( 34-C , 93-H ) :   0.9945 B( 35-C , 36-S ) :   1.1113 B( 35-C , 37-C ) :   1.1354
B( 37-C , 38-C ) :   1.4682 B( 37-C , 40-C ) :   0.1067 B( 37-C , 41-S ) :   1.1099
B( 38-C , 39-C ) :   1.2652 B( 38-C , 94-H ) :   1.0121 B( 39-C , 40-C ) :   1.4443
B( 39-C , 45-O ) :   1.1681 B( 40-C , 41-S ) :   1.0787 B( 40-C , 42-C ) :   1.1575
B( 42-C , 43-C ) :   1.5293 B( 42-C , 48-S ) :   1.1183 B( 43-C , 44-C ) :   1.0233
B( 43-C , 46-C ) :   1.2998 B( 44-C , 45-O ) :   0.9446 B( 44-C , 95-H ) :   0.9335
B( 44-C , 96-H ) :   0.9371 B( 46-C , 47-C ) :   1.4651 B( 46-C , 97-H ) :   0.9974
B( 47-C , 48-S ) :   1.1163 B( 47-C , 49-C ) :   1.1763 B( 49-C , 50-C ) :   1.4383
B( 49-C , 53-S ) :   1.1173 B( 50-C , 51-C ) :   1.3118 B( 50-C , 98-H ) :   0.9876
B( 51-C , 52-C ) :   1.4372 B( 51-C , 56-C ) :   0.9899 B( 52-C , 53-S ) :   1.1013
B( 52-C , 54-C ) :   1.2074 B( 54-C , 55-C ) :   1.3955 B( 54-C , 64-S ) :   1.1581
B( 55-C , 56-C ) :   1.0035 B( 55-C , 62-C ) :   1.3665 B( 56-C , 57-C ) :   1.7185
B( 57-C , 58-C ) :   1.1343 B( 57-C , 60-C ) :   1.1325 B( 58-C , 59-N ) :   2.9828
B( 60-C , 61-N ) :   2.9917 B( 62-C , 63-C ) :   1.3866 B( 62-C , 99-H ) :   0.9780
B( 63-C , 64-S ) :   1.0807 B( 63-C , 65-C ) :   1.1551 B( 65-C , 66-C ) :   1.6485
B( 65-C ,100-H ) :   0.9299 B( 66-C , 67-C ) :   0.9438 B( 66-C , 80-C ) :   1.0448
B( 67-C , 68-O ) :   2.2654 B( 67-C , 69-C ) :   0.9208 B( 69-C , 70-C ) :   1.4708
B( 69-C , 79-C ) :   1.2171 B( 70-C , 71-C ) :   1.1920 B( 70-C ,101-H ) :   1.0156
B( 71-C , 72-C ) :   1.2555 B( 71-C , 76-C ) :   1.2342 B( 72-C , 73-C ) :   1.2035
B( 72-C , 78-C ) :   1.2031 B( 73-C , 74-C ) :   1.4406 B( 73-C ,102-H ) :   1.0070
B( 74-C , 75-C ) :   1.2558 B( 74-C , 77-F ) :   1.0892 B( 75-C , 76-C ) :   1.4609
B( 75-C ,103-H ) :   0.9924 B( 76-C ,104-H ) :   0.9972 B( 78-C , 79-C ) :   1.4671
B( 78-C ,105-H ) :   0.9952 B( 79-C , 80-C ) :   0.9925 B( 80-C , 81-C ) :   1.6475
B( 81-C , 82-C ) :   1.1697 B( 81-C , 84-C ) :   1.1297 B( 82-C , 83-N ) :   2.9953
B( 84-C , 85-N ) :   2.9921

-----------------------------------------------------------------------------
         ABSORPTION SPECTRUM VIA TRANSITION ELECTRIC DIPOLE MOMENTS
-----------------------------------------------------------------------------
State   Energy  Wavelength   fosc         T2         TX        TY        TZ
        (cm-1)    (nm)                  (au**2)     (au)      (au)      (au)
-----------------------------------------------------------------------------
   0   10808.3    925.2   0.730418023  22.24786  -2.95945   2.16775  -2.96486
   1   11827.9    845.5   0.085143840   2.36986   1.50875  -0.24908  -0.17746
   2   17367.3    575.8   1.485621750  28.16123  -3.34134   2.71309  -3.10416
   3   18692.7    535.0   0.135220976   2.38148   1.03992   0.25545  -1.11121
   4   19529.6    512.0   0.099740396   1.68133   0.95193   0.10911  -0.87364
   5   20150.6    496.3   0.154683737   2.52715  -0.95416   1.14353  -0.55594
   6   23321.6    428.8   0.518519274   7.31950  -1.56492   0.88352  -2.02235
   7   25502.1    392.1   0.023412132   0.30223  -0.39657   0.14497   0.35207
   8   25640.9    390.0   0.019075009   0.24491   0.28203   0.22312   0.33998
   9   25847.2    386.9   0.011503222   0.14651   0.22996  -0.14501  -0.26945
  10   26459.7    377.9   0.201401812   2.50585   0.95969  -0.99205   0.77504
  11   26715.9    374.3   0.069790054   0.86000   0.40556  -0.68044   0.48220
  12   27177.3    368.0   0.020208945   0.24480  -0.27366  -0.08191   0.40398
  13   27421.8    364.7   0.028437228   0.34140  -0.35986  -0.12356   0.44343
  14   27669.1    361.4   0.023832304   0.28356  -0.24091  -0.12442  -0.45831
  15   28339.0    352.9   0.122321840   1.42100   1.11152   0.22911   0.36473
  16   28545.8    350.3   0.049605581   0.57209   0.25384  -0.00416  -0.71249
  17   29028.1    344.5   0.137489134   1.55928  -1.01748  -0.38940   0.61024
  18   29268.6    341.7   0.060410017   0.67949   0.45478  -0.04970   0.68571
  19   29332.6    340.9   0.071744432   0.80522  -0.58534  -0.54961   0.40066
  20   29986.8    333.5   0.070516984   0.77417   0.39125   0.29357   0.73138
  21   30387.6    329.1   0.426390152   4.61941   1.57908  -0.44123   1.38969
  22   30532.6    327.5   0.230370188   2.48392   1.14208   0.32049  -1.03771
  23   30879.7    323.8   0.025450547   0.27133  -0.51621  -0.04336  -0.05459
  24   31140.2    321.1   0.231690784   2.44942   1.00957   0.86600  -0.82476
  25   31493.2    317.5   0.039502622   0.41294  -0.16763  -0.41563   0.46053
  26   31571.9    316.7   0.211406573   2.20441  -1.26872  -0.56675   0.52304
  27   31720.1    315.3   0.041167585   0.42726  -0.60096  -0.15863   0.20236
  28   32228.9    310.3   0.196026573   2.00238  -0.09872   1.14380  -0.82725
  29   32495.3    307.7   0.122074623   1.23674   0.57470  -0.75467   0.58046
  30   33301.3    300.3   0.065334761   0.64589  -0.74426  -0.03788  -0.30088
  31   33590.0    297.7   0.226343185   2.21837  -0.45548  -0.55877   1.30333
  32   33714.6    296.6   0.124387272   1.21460   0.20487  -0.46672   0.97714
  33   33959.5    294.5   0.243069684   2.35638  -0.76742  -0.14604  -1.32141
  34   34128.6    293.0   0.490400331   4.73050  -1.64623   0.04696  -1.42064
  35   34406.4    290.6   0.096975324   0.92789  -0.69734   0.09676  -0.65745
  36   34441.7    290.3   0.023426867   0.22393  -0.41259   0.07039   0.22076
  37   34444.2    290.3   0.089985174   0.86006   0.34372   0.07652  -0.85794
  38   34701.2    288.2   0.107873724   1.02340  -0.62489   0.43535  -0.66587
  39   34906.5    286.5   0.117036818   1.10380  -0.99457  -0.28122  -0.18856
  40   35127.6    284.7   0.152997626   1.43388   0.91436   0.54615  -0.54732
  41   35200.7    284.1   0.070706044   0.66127   0.48787   0.49831   0.41826
  42   35319.6    283.1   0.022909459   0.21354   0.41333   0.17163   0.11507
  43   35494.1    281.7   0.267822206   2.48408   1.40630  -0.38069   0.60123
  44   35572.3    281.1   0.080815834   0.74793  -0.42286   0.32994  -0.67843
  45   35812.2    279.2   0.407907095   3.74978   0.62042   0.68809  -1.70041
  46   35926.4    278.3   0.047561710   0.43583  -0.16539  -0.12877   0.62602
  47   36163.9    276.5   0.021108339   0.19216  -0.34740   0.02358  -0.26629
  48   36309.1    275.4   0.079771613   0.72328  -0.51557   0.38441  -0.55651
  49   36507.8    273.9   0.026262699   0.23683   0.22779  -0.40582  -0.14229
  50   36906.6    271.0   0.002181979   0.01946   0.13926   0.00742  -0.00384
  51   37056.3    269.9   0.061306800   0.54466  -0.56718  -0.42516   0.20543
  52   37670.3    265.5   0.006669700   0.05829   0.09608   0.21892  -0.03364
  53   37791.6    264.6   0.001855404   0.01616   0.04045   0.11934   0.01685
  54   38046.9    262.8   0.051134966   0.44246   0.28167   0.18713  -0.57280
  55   38231.0    261.6   0.041674560   0.35886  -0.23398   0.39048  -0.38941
  56   38550.0    259.4   0.018869129   0.16114   0.32745  -0.01946   0.23138
  57   38642.6    258.8   0.012776706   0.10885   0.27778   0.07250   0.16258
  58   38770.2    257.9   0.034174369   0.29019  -0.23685  -0.15815  -0.45725
  59   39197.0    255.1   0.058085987   0.48786  -0.46865  -0.30963  -0.41516
  60   39282.1    254.6   0.174010116   1.45833   0.70893   0.97669  -0.04273
  61   39507.3    253.1   0.012901969   0.10751  -0.08596  -0.28837  -0.13025
  62   39752.1    251.6   0.066008949   0.54666  -0.55350  -0.07124  -0.48500
  63   40148.7    249.1   0.001529687   0.01254  -0.06711  -0.00984   0.08912
  64   40255.2    248.4   0.042096908   0.34427  -0.04743  -0.52398   0.25975

FINAL SINGLE POINT ENERGY     -5812.473335238618

DIPOLE MOMENT
-------------
                                X             Y             Z
Electronic contribution:     -0.45132      -2.98369      -2.52515
Nuclear contribution   :      1.46075       3.10449       2.38119
                        -----------------------------------------
Total Dipole Moment    :      1.00943       0.12080      -0.14396
                        -----------------------------------------
Magnitude (a.u.)       :      1.02678
Magnitude (Debye)      :      2.60987

Rotational constants in cm-1:     0.001500     0.000114     0.000108
Rotational constants in MHz :    44.979576     3.403680     3.230663

                             ****ORCA TERMINATED NORMALLY****
TOTAL RUN TIME: 0 days 0 hours 11 minutes 41 seconds 91 msec
