                         Program Version 4.2.0 -  RELEASE  -
|  1> # ORCA input file
|  2> # SCF done       -168.414553157891          0.000387200425
|  3> ! CAM-B3LYP def2-SVP def2/J RIJCOSX Grid4 TightSCF
|  4> %maxcore 5000
|  5> %tddft
|  6>     Mode sTDDFT
|  7>     Ethresh 5.0
|  8>     maxcore 5000
|  9> end
| 10>
| 11> %pal
| 12>   nprocs 6
| 13>   end
| 14> * xyz 0 1
| 15>    C        1.63334         5.27655         0.34257
| 16>    C        0.87030         6.41070         0.31838
| 17>    F       -0.11082         6.56803         1.22367
| 18>    C        1.07014         7.43125        -0.62198
| 19>    C        2.06412         7.29108        -1.54979
| 20>    C        2.88333         6.14317        -1.56925
| 21>    C        2.66194         5.11499        -0.60599
| 22>    C        3.46754         3.95306        -0.60687
| 23>    C        4.46480         3.83000        -1.53639
| 24>    C        4.69435         4.86871        -2.48487
| 25>    C        3.92366         5.99611        -2.51314
| 26>    C        5.85437         4.51795        -3.32252
| 27>    O        6.30420         5.11478        -4.27024
| 28>    C        6.41832         3.27488        -2.70296
| 29>    C        5.43022         2.76244        -1.77028
| 30>    C        5.29558         1.46622        -1.35610
| 31>    C        6.15921         0.42393        -1.74699
| 32>    N        6.83567        -0.45294        -2.04914
| 33>    C        4.23811         1.01027        -0.53951
| 34>    N        3.40020         0.59010         0.12162
| 35>    C        7.68801         2.91665        -2.99767
| 36>    C        8.57146         2.01603        -2.30882
| 37>    C        8.56930         1.78511        -0.94406
| 38>    F        7.70275         2.44118        -0.15377
| 39>    C        9.47021         0.91467        -0.30691
| 40>    F        9.35922         0.82093         1.02859
| 41>    C       10.44898         0.20621        -0.97683
| 42>    C       10.51079         0.44358        -2.37220
| 43>    C        9.59203         1.33854        -3.02449
| 44>    N        9.80645         1.40859        -4.33526
| 45>    S       11.03358         0.44468        -4.71103
| 46>    N       11.35942        -0.10532        -3.24133
| 47>    C       11.36331        -0.70903        -0.29357
| 48>    C       12.72265        -0.73095        -0.65607
| 49>    C       13.63971        -1.53043        -0.01398
| 50>    C       13.17315        -2.34460         1.01325
| 51>    C       11.79964        -2.34376         1.34885
| 52>    C       10.87959        -1.53388         0.71981
| 53>    O       11.62689        -3.23077         2.35564
| 54>    C       12.87413        -3.71577         2.60300
| 55>    N       13.80704        -3.22694         1.84245
| 56>    C       13.06340        -4.68779         3.65471
| 57>    C       14.38103        -5.05130         4.00556
| 58>    C       14.63980        -5.95318         5.00661
| 59>    C       13.54204        -6.51196         5.66357
| 60>    C       12.21963        -6.15186         5.29321
| 61>    C       11.95561        -5.23439         4.29733
| 62>    O       11.37585        -6.85121         6.07277
| 63>    C       12.17865        -7.59325         6.87751
| 64>    N       13.45724        -7.41867         6.67116
| 65>    C       11.58323        -8.48275         7.82466
| 66>    N       10.27737        -8.66585         7.83557
| 67>    C       10.04781        -9.56724         8.81615
| 68>    C       11.30598        -9.96752         9.47594
| 69>    C       11.03223       -10.95248        10.53712
| 70>    O       11.80794       -11.49525        11.29118
| 71>    C        9.56614       -11.11890        10.45460
| 72>    C        9.01014       -10.24954         9.39111
| 73>    N        7.66265       -10.40169         9.30682
| 74>    C        7.36036       -11.28407        10.22190
| 75>    C        8.50322       -11.77649        10.97634
| 76>    C       12.30610        -9.27849         8.84447
| 77>    C       13.72687        -9.25445         9.05310
| 78>    C       14.33563        -9.96444        10.00450
| 79>    H        1.44974         4.51010         1.07916
| 80>    H        0.43684         8.30362        -0.59174
| 81>    H        2.23745         8.06403        -2.28323
| 82>    H        3.28866         3.19579         0.13987
| 83>    H        4.11029         6.77002        -3.24249
| 84>    H        8.12882         3.40946        -3.85867
| 85>    H       13.04763        -0.08410        -1.45486
| 86>    H       14.68215        -1.53091        -0.28531
| 87>    H        9.83748        -1.55820         0.99130
| 88>    H       15.18350        -4.58601         3.45602
| 89>    H       15.64313        -6.22980         5.28442
| 90>    H       10.95005        -4.95892         4.02595
| 91>    H        6.33851       -11.59008        10.36613
| 92>    H        8.46240       -12.50183        11.76459
| 93>    H       14.28102        -8.61469         8.38142
| 94>    H       13.78699       -10.60505        10.67550
| 95>    H       15.40356        -9.92104        10.13382
| 96> *
| 97>
| 98>                          ****END OF INPUT****

CARTESIAN COORDINATES (ANGSTROEM)
---------------------------------
  C      1.633340    5.276550    0.342570
  C      0.870300    6.410700    0.318380
  F     -0.110820    6.568030    1.223670
  C      1.070140    7.431250   -0.621980
  C      2.064120    7.291080   -1.549790
  C      2.883330    6.143170   -1.569250
  C      2.661940    5.114990   -0.605990
  C      3.467540    3.953060   -0.606870
  C      4.464800    3.830000   -1.536390
  C      4.694350    4.868710   -2.484870
  C      3.923660    5.996110   -2.513140
  C      5.854370    4.517950   -3.322520
  O      6.304200    5.114780   -4.270240
  C      6.418320    3.274880   -2.702960
  C      5.430220    2.762440   -1.770280
  C      5.295580    1.466220   -1.356100
  C      6.159210    0.423930   -1.746990
  N      6.835670   -0.452940   -2.049140
  C      4.238110    1.010270   -0.539510
  N      3.400200    0.590100    0.121620
  C      7.688010    2.916650   -2.997670
  C      8.571460    2.016030   -2.308820
  C      8.569300    1.785110   -0.944060
  F      7.702750    2.441180   -0.153770
  C      9.470210    0.914670   -0.306910
  F      9.359220    0.820930    1.028590
  C     10.448980    0.206210   -0.976830
  C     10.510790    0.443580   -2.372200
  C      9.592030    1.338540   -3.024490
  N      9.806450    1.408590   -4.335260
  S     11.033580    0.444680   -4.711030
  N     11.359420   -0.105320   -3.241330
  C     11.363310   -0.709030   -0.293570
  C     12.722650   -0.730950   -0.656070
  C     13.639710   -1.530430   -0.013980
  C     13.173150   -2.344600    1.013250
  C     11.799640   -2.343760    1.348850
  C     10.879590   -1.533880    0.719810
  O     11.626890   -3.230770    2.355640
  C     12.874130   -3.715770    2.603000
  N     13.807040   -3.226940    1.842450
  C     13.063400   -4.687790    3.654710
  C     14.381030   -5.051300    4.005560
  C     14.639800   -5.953180    5.006610
  C     13.542040   -6.511960    5.663570
  C     12.219630   -6.151860    5.293210
  C     11.955610   -5.234390    4.297330
  O     11.375850   -6.851210    6.072770
  C     12.178650   -7.593250    6.877510
  N     13.457240   -7.418670    6.671160
  C     11.583230   -8.482750    7.824660
  N     10.277370   -8.665850    7.835570
  C     10.047810   -9.567240    8.816150
  C     11.305980   -9.967520    9.475940
  C     11.032230  -10.952480   10.537120
  O     11.807940  -11.495250   11.291180
  C      9.566140  -11.118900   10.454600
  C      9.010140  -10.249540    9.391110
  N      7.662650  -10.401690    9.306820
  C      7.360360  -11.284070   10.221900
  C      8.503220  -11.776490   10.976340
  C     12.306100   -9.278490    8.844470
  C     13.726870   -9.254450    9.053100
  C     14.335630   -9.964440   10.004500
  H      1.449740    4.510100    1.079160
  H      0.436840    8.303620   -0.591740
  H      2.237450    8.064030   -2.283230
  H      3.288660    3.195790    0.139870
  H      4.110290    6.770020   -3.242490
  H      8.128820    3.409460   -3.858670
  H     13.047630   -0.084100   -1.454860
  H     14.682150   -1.530910   -0.285310
  H      9.837480   -1.558200    0.991300
  H     15.183500   -4.586010    3.456020
  H     15.643130   -6.229800    5.284420
  H     10.950050   -4.958920    4.025950
  H      6.338510  -11.590080   10.366130
  H      8.462400  -12.501830   11.764590
  H     14.281020   -8.614690    8.381420
  H     13.786990  -10.605050   10.675500
  H     15.403560   -9.921040   10.133820

 Total Charge           Charge          ....    0
 Multiplicity           Mult            ....    1
 Number of Electrons    NEL             ....  436
 Basis Dimension        Dim             ....  985

ORBITAL ENERGIES
----------------

  NO   OCC          E(Eh)            E(eV)
   0   2.0000     -89.033122     -2422.7144
   1   2.0000     -24.818507      -675.3459
   2   2.0000     -24.805497      -674.9919
   3   2.0000     -24.788574      -674.5314
   4   2.0000     -19.313577      -525.5491
   5   2.0000     -19.304565      -525.3039
   6   2.0000     -19.220023      -523.0034
   7   2.0000     -19.212794      -522.8067
   8   2.0000     -14.447918      -393.1478
   9   2.0000     -14.447410      -393.1340
  10   2.0000     -14.433387      -392.7524
  11   2.0000     -14.423995      -392.4969
  12   2.0000     -14.420572      -392.4037
  13   2.0000     -14.419107      -392.3639
  14   2.0000     -14.412777      -392.1916
  15   2.0000     -14.409227      -392.0950
  16   2.0000     -10.396985      -282.9163
  17   2.0000     -10.388157      -282.6761
  18   2.0000     -10.386936      -282.6429
  19   2.0000     -10.377958      -282.3986
  20   2.0000     -10.372775      -282.2576
  21   2.0000     -10.372581      -282.2523
  22   2.0000     -10.370989      -282.2089
  23   2.0000     -10.351099      -281.6677
  24   2.0000     -10.350700      -281.6569
  25   2.0000     -10.350286      -281.6456
  26   2.0000     -10.345858      -281.5251
  27   2.0000     -10.339414      -281.3498
  28   2.0000     -10.338707      -281.3305
  29   2.0000     -10.337878      -281.3080
  30   2.0000     -10.333827      -281.1977
  31   2.0000     -10.330019      -281.0941
  32   2.0000     -10.329022      -281.0670
  33   2.0000     -10.325001      -280.9576
  34   2.0000     -10.322752      -280.8964
  35   2.0000     -10.322599      -280.8922
  36   2.0000     -10.320273      -280.8289
  37   2.0000     -10.319998      -280.8214
  38   2.0000     -10.318826      -280.7895
  39   2.0000     -10.309977      -280.5487
  40   2.0000     -10.309845      -280.5452
  41   2.0000     -10.308024      -280.4956
  42   2.0000     -10.307925      -280.4929
  43   2.0000     -10.306477      -280.4535
  44   2.0000     -10.306290      -280.4484
  45   2.0000     -10.304900      -280.4106
  46   2.0000     -10.304238      -280.3926
  47   2.0000     -10.302091      -280.3342
  48   2.0000     -10.300842      -280.3002
  49   2.0000     -10.300759      -280.2979
  50   2.0000     -10.298868      -280.2465
  51   2.0000     -10.297536      -280.2102
  52   2.0000     -10.294244      -280.1206
  53   2.0000     -10.294229      -280.1202
  54   2.0000     -10.292741      -280.0797
  55   2.0000     -10.292023      -280.0602
  56   2.0000     -10.291576      -280.0480
  57   2.0000     -10.290099      -280.0078
  58   2.0000     -10.289564      -279.9933
  59   2.0000     -10.287833      -279.9462
  60   2.0000     -10.280393      -279.7437
  61   2.0000     -10.279640      -279.7232
  62   2.0000     -10.268683      -279.4251
  63   2.0000     -10.265010      -279.3251
  64   2.0000      -8.124996      -221.0924
  65   2.0000      -6.096221      -165.8866
  66   2.0000      -6.088410      -165.6741
  67   2.0000      -6.087382      -165.6461
  68   2.0000      -1.336872       -36.3781
  69   2.0000      -1.315430       -35.7947
  70   2.0000      -1.303859       -35.4798
  71   2.0000      -1.246589       -33.9214
  72   2.0000      -1.234258       -33.5859
  73   2.0000      -1.136169       -30.9167
  74   2.0000      -1.135782       -30.9062
  75   2.0000      -1.127560       -30.6825
  76   2.0000      -1.083099       -29.4726
  77   2.0000      -1.064065       -28.9547
  78   2.0000      -1.040432       -28.3116
  79   2.0000      -1.025829       -27.9142
  80   2.0000      -1.024796       -27.8861
  81   2.0000      -1.005804       -27.3693
  82   2.0000      -1.000897       -27.2358
  83   2.0000      -0.993541       -27.0356
  84   2.0000      -0.989825       -26.9345
  85   2.0000      -0.979578       -26.6557
  86   2.0000      -0.975279       -26.5387
  87   2.0000      -0.955705       -26.0060
  88   2.0000      -0.938526       -25.5386
  89   2.0000      -0.932335       -25.3701
  90   2.0000      -0.914294       -24.8792
  91   2.0000      -0.905426       -24.6379
  92   2.0000      -0.896763       -24.4022
  93   2.0000      -0.890286       -24.2259
  94   2.0000      -0.885588       -24.0981
  95   2.0000      -0.872271       -23.7357
  96   2.0000      -0.869940       -23.6723
  97   2.0000      -0.862838       -23.4790
  98   2.0000      -0.859043       -23.3757
  99   2.0000      -0.848174       -23.0800
 100   2.0000      -0.839037       -22.8314
 101   2.0000      -0.833276       -22.6746
 102   2.0000      -0.825137       -22.4531
 103   2.0000      -0.809200       -22.0195
 104   2.0000      -0.792734       -21.5714
 105   2.0000      -0.771529       -20.9944
 106   2.0000      -0.762819       -20.7574
 107   2.0000      -0.761031       -20.7087
 108   2.0000      -0.752848       -20.4860
 109   2.0000      -0.742065       -20.1926
 110   2.0000      -0.735688       -20.0191
 111   2.0000      -0.727230       -19.7889
 112   2.0000      -0.722646       -19.6642
 113   2.0000      -0.718458       -19.5502
 114   2.0000      -0.712970       -19.4009
 115   2.0000      -0.706529       -19.2256
 116   2.0000      -0.699855       -19.0440
 117   2.0000      -0.696882       -18.9631
 118   2.0000      -0.687738       -18.7143
 119   2.0000      -0.686026       -18.6677
 120   2.0000      -0.679831       -18.4991
 121   2.0000      -0.666778       -18.1440
 122   2.0000      -0.659648       -17.9499
 123   2.0000      -0.648733       -17.6529
 124   2.0000      -0.646709       -17.5979
 125   2.0000      -0.644027       -17.5249
 126   2.0000      -0.638984       -17.3876
 127   2.0000      -0.634059       -17.2536
 128   2.0000      -0.632733       -17.2175
 129   2.0000      -0.622261       -16.9326
 130   2.0000      -0.618100       -16.8193
 131   2.0000      -0.615209       -16.7407
 132   2.0000      -0.612044       -16.6546
 133   2.0000      -0.605145       -16.4668
 134   2.0000      -0.602239       -16.3878
 135   2.0000      -0.597374       -16.2554
 136   2.0000      -0.595134       -16.1944
 137   2.0000      -0.591679       -16.1004
 138   2.0000      -0.583402       -15.8752
 139   2.0000      -0.582397       -15.8478
 140   2.0000      -0.577518       -15.7151
 141   2.0000      -0.572478       -15.5779
 142   2.0000      -0.569594       -15.4994
 143   2.0000      -0.568826       -15.4785
 144   2.0000      -0.561798       -15.2873
 145   2.0000      -0.561131       -15.2692
 146   2.0000      -0.558914       -15.2088
 147   2.0000      -0.554931       -15.1004
 148   2.0000      -0.552110       -15.0237
 149   2.0000      -0.549099       -14.9417
 150   2.0000      -0.545545       -14.8450
 151   2.0000      -0.543584       -14.7917
 152   2.0000      -0.540545       -14.7090
 153   2.0000      -0.536724       -14.6050
 154   2.0000      -0.533307       -14.5120
 155   2.0000      -0.532246       -14.4832
 156   2.0000      -0.529219       -14.4008
 157   2.0000      -0.526948       -14.3390
 158   2.0000      -0.521209       -14.1828
 159   2.0000      -0.517813       -14.0904
 160   2.0000      -0.516684       -14.0597
 161   2.0000      -0.516380       -14.0514
 162   2.0000      -0.510990       -13.9047
 163   2.0000      -0.505347       -13.7512
 164   2.0000      -0.502337       -13.6693
 165   2.0000      -0.498196       -13.5566
 166   2.0000      -0.493902       -13.4398
 167   2.0000      -0.492257       -13.3950
 168   2.0000      -0.491781       -13.3820
 169   2.0000      -0.487689       -13.2707
 170   2.0000      -0.486462       -13.2373
 171   2.0000      -0.480121       -13.0647
 172   2.0000      -0.478284       -13.0148
 173   2.0000      -0.475614       -12.9421
 174   2.0000      -0.474491       -12.9116
 175   2.0000      -0.470501       -12.8030
 176   2.0000      -0.469452       -12.7744
 177   2.0000      -0.465372       -12.6634
 178   2.0000      -0.464966       -12.6524
 179   2.0000      -0.462875       -12.5955
 180   2.0000      -0.459354       -12.4997
 181   2.0000      -0.456157       -12.4127
 182   2.0000      -0.455010       -12.3815
 183   2.0000      -0.451862       -12.2958
 184   2.0000      -0.446331       -12.1453
 185   2.0000      -0.441262       -12.0074
 186   2.0000      -0.439050       -11.9472
 187   2.0000      -0.437252       -11.8982
 188   2.0000      -0.434363       -11.8196
 189   2.0000      -0.433309       -11.7909
 190   2.0000      -0.431278       -11.7357
 191   2.0000      -0.428141       -11.6503
 192   2.0000      -0.423891       -11.5346
 193   2.0000      -0.414917       -11.2905
 194   2.0000      -0.412982       -11.2378
 195   2.0000      -0.410267       -11.1639
 196   2.0000      -0.395472       -10.7613
 197   2.0000      -0.392316       -10.6755
 198   2.0000      -0.383848       -10.4450
 199   2.0000      -0.380624       -10.3573
 200   2.0000      -0.379113       -10.3162
 201   2.0000      -0.370315       -10.0768
 202   2.0000      -0.363771        -9.8987
 203   2.0000      -0.363009        -9.8780
 204   2.0000      -0.357065        -9.7162
 205   2.0000      -0.356794        -9.7089
 206   2.0000      -0.340138        -9.2556
 207   2.0000      -0.338602        -9.2138
 208   2.0000      -0.336364        -9.1529
 209   2.0000      -0.333935        -9.0868
 210   2.0000      -0.330640        -8.9972
 211   2.0000      -0.327134        -8.9018
 212   2.0000      -0.321462        -8.7474
 213   2.0000      -0.316783        -8.6201
 214   2.0000      -0.305733        -8.3194
 215   2.0000      -0.300736        -8.1834
 216   2.0000      -0.294614        -8.0169
 217   2.0000      -0.274689        -7.4747
 218   0.0000      -0.119414        -3.2494
 219   0.0000      -0.100327        -2.7301
 220   0.0000      -0.069190        -1.8828
 221   0.0000      -0.052575        -1.4306
 222   0.0000      -0.047927        -1.3041

MULLIKEN ATOMIC CHARGES
-----------------------
   0 C :   -0.096585
   1 C :    0.301989
   2 F :   -0.188669
   3 C :   -0.028182
   4 C :   -0.007765
   5 C :    0.098555
   6 C :    0.100869
   7 C :   -0.080001
   8 C :    0.037698
   9 C :    0.012902
  10 C :   -0.077830
  11 C :    0.133725
  12 O :   -0.134363
  13 C :   -0.104701
  14 C :    0.283030
  15 C :   -0.318666
  16 C :   -0.195714
  17 N :    0.162479
  18 C :   -0.181171
  19 N :    0.159611
  20 C :    0.007572
  21 C :   -0.003854
  22 C :    0.163133
  23 F :   -0.161760
  24 C :    0.177505
  25 F :   -0.168283
  26 C :    0.022168
  27 C :    0.011210
  28 C :    0.017479
  29 N :   -0.263791
  30 S :    0.521947
  31 N :   -0.268643
  32 C :    0.021348
  33 C :    0.030649
  34 C :   -0.054806
  35 C :    0.038904
  36 C :    0.223236
  37 C :   -0.103439
  38 O :   -0.198213
  39 C :    0.116713
  40 N :   -0.042271
  41 C :    0.020149
  42 C :    0.011657
  43 C :   -0.021695
  44 C :    0.027687
  45 C :    0.254002
  46 C :   -0.122916
  47 O :   -0.151187
  48 C :    0.066834
  49 N :   -0.022135
  50 C :    0.008884
  51 N :   -0.019908
  52 C :    0.078452
  53 C :   -0.173732
  54 C :    0.223385
  55 O :   -0.130460
  56 C :   -0.015689
  57 C :   -0.024844
  58 N :   -0.049518
  59 C :    0.093290
  60 C :   -0.097356
  61 C :    0.025467
  62 C :   -0.031389
  63 C :    0.011575
  64 H :   -0.000712
  65 H :    0.005760
  66 H :   -0.006407
  67 H :   -0.000523
  68 H :   -0.009023
  69 H :    0.040212
  70 H :   -0.009245
  71 H :   -0.018494
  72 H :   -0.004476
  73 H :    0.008720
  74 H :   -0.011048
  75 H :    0.007663
  76 H :    0.012822
  77 H :   -0.000679
  78 H :   -0.005534
  79 H :    0.042148
  80 H :    0.024251
Sum of atomic charges:   -0.0000000

LOEWDIN ATOMIC CHARGES
----------------------
   0 C :   -0.041533
   1 C :    0.094306
   2 F :   -0.062822
   3 C :   -0.035461
   4 C :    0.005335
   5 C :   -0.018056
   6 C :    0.004498
   7 C :    0.013664
   8 C :   -0.016614
   9 C :   -0.060886
  10 C :    0.036900
  11 C :    0.085595
  12 O :   -0.133507
  13 C :   -0.073127
  14 C :    0.068971
  15 C :   -0.129414
  16 C :   -0.015919
  17 N :   -0.047500
  18 C :   -0.018432
  19 N :   -0.044665
  20 C :    0.075733
  21 C :   -0.071469
  22 C :    0.089196
  23 F :   -0.032927
  24 C :    0.067865
  25 F :   -0.043346
  26 C :   -0.022153
  27 C :   -0.043004
  28 C :   -0.037727
  29 N :   -0.282823
  30 S :    0.656480
  31 N :   -0.276157
  32 C :   -0.023661
  33 C :   -0.003247
  34 C :   -0.020451
  35 C :   -0.023511
  36 C :    0.030071
  37 C :   -0.020493
  38 O :   -0.002703
  39 C :    0.074961
  40 N :   -0.101803
  41 C :   -0.040502
  42 C :    0.006752
  43 C :   -0.010362
  44 C :   -0.027825
  45 C :    0.038480
  46 C :   -0.017484
  47 O :    0.031279
  48 C :    0.056249
  49 N :   -0.069588
  50 C :    0.039256
  51 N :   -0.075165
  52 C :    0.042259
  53 C :   -0.053110
  54 C :    0.070287
  55 O :   -0.132017
  56 C :   -0.036388
  57 C :    0.034517
  58 N :   -0.093150
  59 C :    0.080988
  60 C :   -0.030504
  61 C :   -0.005400
  62 C :   -0.047464
  63 C :    0.007320
  64 H :    0.043801
  65 H :    0.042672
  66 H :    0.036500
  67 H :    0.040197
  68 H :    0.040585
  69 H :    0.054335
  70 H :    0.030616
  71 H :    0.037291
  72 H :    0.039122
  73 H :    0.040017
  74 H :    0.040360
  75 H :    0.044420
  76 H :    0.025067
  77 H :    0.035770
  78 H :    0.028327
  79 H :    0.025584
  80 H :    0.026747

  Mayer bond orders larger than 0.100000
B(  0-C ,  1-C ) :   1.4418 B(  0-C ,  6-C ) :   1.2030 B(  0-C , 64-H ) :   1.0063
B(  1-C ,  2-F ) :   1.0906 B(  1-C ,  3-C ) :   1.2540 B(  3-C ,  4-C ) :   1.4624
B(  3-C , 65-H ) :   0.9923 B(  4-C ,  5-C ) :   1.2340 B(  4-C , 66-H ) :   0.9968
B(  5-C ,  6-C ) :   1.2529 B(  5-C , 10-C ) :   1.1970 B(  6-C ,  7-C ) :   1.2078
B(  7-C ,  8-C ) :   1.4606 B(  7-C , 67-H ) :   0.9938 B(  8-C ,  9-C ) :   1.2153
B(  8-C , 14-C ) :   1.0024 B(  9-C , 10-C ) :   1.4665 B(  9-C , 11-C ) :   0.9222
B( 10-C , 68-H ) :   1.0152 B( 11-C , 12-O ) :   2.2776 B( 11-C , 13-C ) :   0.9235
B( 13-C , 14-C ) :   1.0170 B( 13-C , 20-C ) :   1.7094 B( 14-C , 15-C ) :   1.6693
B( 15-C , 16-C ) :   1.1685 B( 15-C , 18-C ) :   1.1287 B( 16-C , 17-N ) :   2.9958
B( 18-C , 19-N ) :   2.9922 B( 20-C , 21-C ) :   1.0662 B( 20-C , 69-H ) :   0.9412
B( 21-C , 22-C ) :   1.3765 B( 21-C , 26-C ) :   0.1266 B( 21-C , 28-C ) :   1.1796
B( 22-C , 23-F ) :   1.1455 B( 22-C , 24-C ) :   1.1320 B( 24-C , 25-F ) :   1.1495
B( 24-C , 26-C ) :   1.4619 B( 26-C , 27-C ) :   1.1973 B( 26-C , 32-C ) :   0.9892
B( 27-C , 28-C ) :   1.1435 B( 27-C , 31-N ) :   1.5481 B( 28-C , 29-N ) :   1.5899
B( 29-N , 30-S ) :   1.2593 B( 29-N , 31-N ) :   0.1447 B( 30-S , 31-N ) :   1.2729
B( 32-C , 33-C ) :   1.3414 B( 32-C , 37-C ) :   1.3434 B( 33-C , 34-C ) :   1.4028
B( 33-C , 70-H ) :   0.9841 B( 34-C , 35-C ) :   1.2926 B( 34-C , 37-C ) :   0.1027
B( 34-C , 71-H ) :   1.0209 B( 35-C , 36-C ) :   1.2709 B( 35-C , 40-N ) :   1.2905
B( 36-C , 37-C ) :   1.3399 B( 36-C , 38-O ) :   1.0949 B( 37-C , 72-H ) :   1.0161
B( 38-O , 39-C ) :   1.1690 B( 39-C , 40-N ) :   1.7659 B( 39-C , 41-C ) :   1.0248
B( 41-C , 42-C ) :   1.3222 B( 41-C , 46-C ) :   1.3300 B( 42-C , 43-C ) :   1.4100
B( 42-C , 73-H ) :   0.9870 B( 43-C , 44-C ) :   1.2611 B( 43-C , 74-H ) :   1.0220
B( 44-C , 45-C ) :   1.2459 B( 44-C , 49-N ) :   1.3161 B( 45-C , 46-C ) :   1.2895
B( 45-C , 47-O ) :   1.1302 B( 46-C , 75-H ) :   1.0268 B( 47-O , 48-C ) :   1.2100
B( 48-C , 49-N ) :   1.7345 B( 48-C , 50-C ) :   0.9845 B( 50-C , 51-N ) :   1.6403
B( 50-C , 52-C ) :   0.1324 B( 50-C , 61-C ) :   1.0698 B( 51-N , 52-C ) :   1.3141
B( 52-C , 53-C ) :   1.0534 B( 52-C , 57-C ) :   1.4476 B( 53-C , 54-C ) :   0.8884
B( 53-C , 61-C ) :   1.5696 B( 54-C , 55-O ) :   2.2161 B( 54-C , 56-C ) :   0.9183
B( 56-C , 57-C ) :   1.0555 B( 56-C , 60-C ) :   1.6274 B( 57-C , 58-N ) :   1.2937
B( 58-N , 59-C ) :   1.6782 B( 59-C , 60-C ) :   1.0489 B( 59-C , 76-H ) :   0.9888
B( 60-C , 77-H ) :   1.0115 B( 61-C , 62-C ) :   1.1313 B( 62-C , 63-C ) :   1.8978
B( 62-C , 78-H ) :   0.9342 B( 63-C , 79-H ) :   0.9335 B( 63-C , 80-H ) :   0.9450

-----------------------------------------------------------------------------
         ABSORPTION SPECTRUM VIA TRANSITION ELECTRIC DIPOLE MOMENTS
-----------------------------------------------------------------------------
State   Energy  Wavelength   fosc         T2         TX        TY        TZ
        (cm-1)    (nm)                  (au**2)     (au)      (au)      (au)
-----------------------------------------------------------------------------
   0   18434.7    542.5   0.033565636   0.59942   0.62295   0.35936  -0.28675
   1   21136.4    473.1   1.113741174  17.34722   0.19668  -3.16622   2.69881
   2   21372.2    467.9   0.086943795   1.33926  -0.15716   0.82633  -0.79482
   3   22786.7    438.9   0.669227743   9.66871  -3.01087  -0.04292   0.77558
   4   25562.9    391.2   0.003629425   0.04674  -0.10446   0.11295  -0.15189
   5   25613.8    390.4   0.000165919   0.00213  -0.02568   0.02851  -0.02570
   6   26944.8    371.1   0.019111753   0.23351   0.12442  -0.45339  -0.11164
   7   27276.2    366.6   0.002734037   0.03300  -0.01606   0.15087   0.09989
   8   27953.3    357.7   0.007318848   0.08620   0.15208   0.06077   0.24367
   9   28294.3    353.4   0.289650975   3.37017   1.18643   0.98279  -0.99834
  10   28746.3    347.9   0.128226583   1.46849   0.19162  -0.94438   0.73479
  11   29856.6    334.9   0.033522044   0.36963   0.10371  -0.57118   0.18064
  12   30283.3    330.2   0.066933420   0.72764   0.78529  -0.31635   0.10427
  13   31136.2    321.2   0.162791699   1.72124  -0.93562   0.91454  -0.09736
  14   31170.5    320.8   0.001204077   0.01272   0.05995  -0.09151   0.02736
  15   31927.9    313.2   0.056477138   0.58234   0.71260  -0.23973   0.13065
  16   32569.7    307.0   0.089388734   0.90353   0.23587   0.08425  -0.91695
  17   33096.5    302.1   0.019025348   0.18925   0.29351   0.17318  -0.27038
  18   33517.5    298.4   0.310193460   3.04675   1.08105  -1.36959   0.04814
  19   33694.0    296.8   0.177426766   1.73358   0.01176   1.31596   0.04091
  20   33904.7    294.9   0.449667804   4.36624  -1.69134   1.12588   0.48786
  21   33995.3    294.2   0.099181746   0.96048   0.44648   0.84632   0.21185
  22   34611.3    288.9   0.160795018   1.52943  -0.85237  -0.60259   0.66316
  23   34976.8    285.9   0.002864639   0.02696  -0.03841  -0.05249   0.15077
  24   34982.2    285.9   0.114376646   1.07638  -0.61957   0.74000   0.38068
  25   35349.8    282.9   0.678533868   6.31917  -0.39960   1.64430  -1.85897
  26   35676.1    280.3   0.172855010   1.59507   1.04494  -0.24379  -0.66613
  27   36084.9    277.1   0.139734193   1.27483  -0.26970   1.04523  -0.33103
  28   36958.0    270.6   0.017390482   0.15491   0.26017  -0.24655  -0.16259
  29   37283.9    268.2   0.060220139   0.53174  -0.69088   0.22956  -0.04151
  30   37471.5    266.9   0.037380957   0.32842  -0.02525   0.18741   0.54098
  31   38094.5    262.5   0.001838761   0.01589  -0.06267  -0.09995  -0.04442
  32   38707.7    258.3   0.091518785   0.77837   0.37209   0.47498  -0.64367
  33   38895.4    257.1   0.231871081   1.96256   0.11203  -1.22941   0.66225
  34   39734.0    251.7   0.118908995   0.98521  -0.79962  -0.47534   0.34622
  35   39780.8    251.4   0.047211657   0.39071   0.58321   0.19567   0.11087
  36   39993.0    250.0   0.015916722   0.13102   0.20545   0.15947  -0.25176
  37   40108.8    249.3   0.229448229   1.88330   1.34656   0.21485  -0.15470
  38   40262.0    248.4   0.005447859   0.04455   0.13852  -0.09160  -0.13026

FINAL SINGLE POINT ENERGY     -3272.214527339832

DIPOLE MOMENT
-------------
                                X             Y             Z
Electronic contribution:    -14.10913      23.19256     -23.42839
Nuclear contribution   :     14.60430     -21.40385      22.92103
                        -----------------------------------------
Total Dipole Moment    :      0.49517       1.78871      -0.50736
                        -----------------------------------------
Magnitude (a.u.)       :      1.92408
Magnitude (Debye)      :      4.89062

Rotational constants in cm-1:     0.001664     0.000327     0.000282
Rotational constants in MHz :    49.877817     9.797438     8.442106

                             ****ORCA TERMINATED NORMALLY****
TOTAL RUN TIME: 0 days 0 hours 8 minutes 30 seconds 900 msec
