                         Program Version 4.2.0 -  RELEASE  -
|  1> # ORCA input file
|  2> # SCF done       -215.313322681953          0.000938024256
|  3> ! CAM-B3LYP def2-SVP def2/J RIJCOSX Grid4 TightSCF
|  4> %maxcore 5000
|  5> %tddft
|  6>     Mode sTDDFT
|  7>     Ethresh 5.0
|  8>     maxcore 5000
|  9> end
| 10>
| 11> %pal
| 12>   nprocs 6
| 13>   end
| 14> * xyz 0 1
| 15>    C        7.25560         2.64654       -10.38342
| 16>    C        6.24422         2.63441       -11.30321
| 17>    F        6.53596         2.46488       -12.60553
| 18>    C        4.89892         2.79135       -10.94307
| 19>    C        4.58318         2.96383        -9.62410
| 20>    C        5.58598         2.98279        -8.63309
| 21>    C        6.94860         2.82266        -9.02030
| 22>    C        7.97291         2.84278        -8.04492
| 23>    C        7.64019         3.01017        -6.72867
| 24>    C        6.27554         3.15569        -6.34488
| 25>    C        5.26860         3.15027        -7.26624
| 26>    C        6.19118         3.27524        -4.87557
| 27>    O        5.20824         3.46623        -4.19781
| 28>    C        7.57822         3.03374        -4.38939
| 29>    C        8.46624         3.09800        -5.52815
| 30>    C        9.78803         3.46210        -5.50180
| 31>    C       10.46063         3.82530        -4.31738
| 32>    N       11.02033         4.16583        -3.37465
| 33>    C       10.58681         3.59808        -6.65389
| 34>    N       11.28334         3.70152        -7.56048
| 35>    C        7.77777         2.69749        -3.08386
| 36>    C        8.85060         2.00402        -2.48544
| 37>    C        9.07239         1.88061        -1.12008
| 38>    C       10.16428         1.07146        -0.83120
| 39>    C       10.77081         0.53988        -1.98907
| 40>    S       10.00489         1.04683        -3.41805
| 41>    C       11.85998        -0.27696        -1.60370
| 42>    C       11.94613        -0.26208        -0.20078
| 43>    C       10.88666         0.58223         0.33109
| 44>    C       10.63018         0.85010         1.64391
| 45>    C       11.41620         0.30216         2.67893
| 46>    N       12.05757        -0.14979         3.51549
| 47>    C        9.56532         1.68102         2.05145
| 48>    N        8.69443         2.34751         2.38541
| 49>    C       12.99962        -1.03496         0.27968
| 50>    C       13.72205        -1.63508        -0.74008
| 51>    S       13.08380        -1.22910        -2.31922
| 52>    C       14.86878        -2.48918        -0.60781
| 53>    C       15.56043        -2.95603        -1.74859
| 54>    O       15.06033        -2.57242        -2.95044
| 55>    C       15.70049        -2.98059        -4.13705
| 56>    C       16.67545        -3.75251        -1.59009
| 57>    C       17.15076        -4.13926        -0.33356
| 58>    C       16.44776        -3.69094         0.81342
| 59>    C       15.33847        -2.87997         0.65004
| 60>    O       16.91753        -4.07538         2.02267
| 61>    C       16.26063        -3.64907         3.19737
| 62>    C       18.32889        -4.96122        -0.25401
| 63>    C       18.86464        -5.63109         0.82820
| 64>    C       20.03011        -6.32612         0.50145
| 65>    C       20.39517        -6.18571        -0.84695
| 66>    S       19.29843        -5.20371        -1.70623
| 67>    C       21.57851        -6.92813        -1.07998
| 68>    C       21.96178        -7.54181         0.13065
| 69>    C       20.99922        -7.18669         1.16034
| 70>    C       21.00120        -7.59773         2.46095
| 71>    C       22.00247        -8.45918         2.95713
| 72>    N       22.82628        -9.15482         3.34747
| 73>    C       20.01527        -7.18478         3.38146
| 74>    N       19.22157        -6.84191         4.13469
| 75>    C       23.10108        -8.32393         0.00257
| 76>    C       23.60004        -8.31925        -1.29318
| 77>    S       22.63987        -7.29326        -2.35630
| 78>    C       24.74335        -8.95847        -1.81430
| 79>    C       25.45847        -9.99949        -1.30115
| 80>    C       26.85070       -10.21168        -1.79130
| 81>    O       27.36039        -9.68857        -2.75584
| 82>    C       27.46669       -11.13614        -0.82324
| 83>    C       28.76197       -11.55966        -0.74314
| 84>    C       29.13724       -12.43387         0.30125
| 85>    C       28.15898       -12.84532         1.25320
| 86>    C       28.54220       -13.70976         2.29684
| 87>    C       29.83846       -14.13814         2.37149
| 88>    C       30.81423       -13.74672         1.44447
| 89>    C       30.46004       -12.90568         0.42657
| 90>    F       30.20626       -14.96601         3.36554
| 91>    C       26.82265       -12.39456         1.14244
| 92>    C       26.48015       -11.56098         0.11284
| 93>    C       25.19577       -10.97680        -0.26791
| 94>    C       23.97303       -11.47186         0.10723
| 95>    C       22.75027       -11.05823        -0.45395
| 96>    N       21.73339       -10.76833        -0.90208
| 97>    C       23.80155       -12.52750         1.02726
| 98>    N       23.60508       -13.38645         1.76209
| 99>    H        8.28076         2.52667       -10.69725
|100>    H        4.14373         2.77245       -11.71271
|101>    H        3.55396         3.08676        -9.32229
|102>    H        8.99574         2.71169        -8.36161
|103>    H        4.24117         3.27062        -6.95711
|104>    H        6.94352         2.91250        -2.42214
|105>    H        8.46589         2.38685        -0.39069
|106>    H       13.23194        -1.14543         1.32208
|107>    H       15.11956        -2.54112        -4.94598
|108>    H       15.69689        -4.06981        -4.23691
|109>    H       16.72796        -2.60871        -4.18393
|110>    H       17.20596        -4.10555        -2.45997
|111>    H       14.80905        -2.53349         1.52004
|112>    H       16.82149        -4.09731         4.01593
|113>    H       15.22705        -4.00474         3.23047
|114>    H       16.28050        -2.56014         3.29640
|115>    H       18.41673        -5.61824         1.80219
|116>    H       23.58237        -8.84112         0.81257
|117>    H       25.16067        -8.52710        -2.71966
|118>    H       29.49204       -11.23198        -1.46797
|119>    H       27.81654       -14.03414         3.02617
|120>    H       31.82122       -14.11679         1.55441
|121>    H       31.19402       -12.58986        -0.29945
|122>    H       26.10540       -12.71153         1.88279
|123> *
|124>
|125>                          ****END OF INPUT****

CARTESIAN COORDINATES (ANGSTROEM)
---------------------------------
  C      7.255600    2.646540  -10.383420
  C      6.244220    2.634410  -11.303210
  F      6.535960    2.464880  -12.605530
  C      4.898920    2.791350  -10.943070
  C      4.583180    2.963830   -9.624100
  C      5.585980    2.982790   -8.633090
  C      6.948600    2.822660   -9.020300
  C      7.972910    2.842780   -8.044920
  C      7.640190    3.010170   -6.728670
  C      6.275540    3.155690   -6.344880
  C      5.268600    3.150270   -7.266240
  C      6.191180    3.275240   -4.875570
  O      5.208240    3.466230   -4.197810
  C      7.578220    3.033740   -4.389390
  C      8.466240    3.098000   -5.528150
  C      9.788030    3.462100   -5.501800
  C     10.460630    3.825300   -4.317380
  N     11.020330    4.165830   -3.374650
  C     10.586810    3.598080   -6.653890
  N     11.283340    3.701520   -7.560480
  C      7.777770    2.697490   -3.083860
  C      8.850600    2.004020   -2.485440
  C      9.072390    1.880610   -1.120080
  C     10.164280    1.071460   -0.831200
  C     10.770810    0.539880   -1.989070
  S     10.004890    1.046830   -3.418050
  C     11.859980   -0.276960   -1.603700
  C     11.946130   -0.262080   -0.200780
  C     10.886660    0.582230    0.331090
  C     10.630180    0.850100    1.643910
  C     11.416200    0.302160    2.678930
  N     12.057570   -0.149790    3.515490
  C      9.565320    1.681020    2.051450
  N      8.694430    2.347510    2.385410
  C     12.999620   -1.034960    0.279680
  C     13.722050   -1.635080   -0.740080
  S     13.083800   -1.229100   -2.319220
  C     14.868780   -2.489180   -0.607810
  C     15.560430   -2.956030   -1.748590
  O     15.060330   -2.572420   -2.950440
  C     15.700490   -2.980590   -4.137050
  C     16.675450   -3.752510   -1.590090
  C     17.150760   -4.139260   -0.333560
  C     16.447760   -3.690940    0.813420
  C     15.338470   -2.879970    0.650040
  O     16.917530   -4.075380    2.022670
  C     16.260630   -3.649070    3.197370
  C     18.328890   -4.961220   -0.254010
  C     18.864640   -5.631090    0.828200
  C     20.030110   -6.326120    0.501450
  C     20.395170   -6.185710   -0.846950
  S     19.298430   -5.203710   -1.706230
  C     21.578510   -6.928130   -1.079980
  C     21.961780   -7.541810    0.130650
  C     20.999220   -7.186690    1.160340
  C     21.001200   -7.597730    2.460950
  C     22.002470   -8.459180    2.957130
  N     22.826280   -9.154820    3.347470
  C     20.015270   -7.184780    3.381460
  N     19.221570   -6.841910    4.134690
  C     23.101080   -8.323930    0.002570
  C     23.600040   -8.319250   -1.293180
  S     22.639870   -7.293260   -2.356300
  C     24.743350   -8.958470   -1.814300
  C     25.458470   -9.999490   -1.301150
  C     26.850700  -10.211680   -1.791300
  O     27.360390   -9.688570   -2.755840
  C     27.466690  -11.136140   -0.823240
  C     28.761970  -11.559660   -0.743140
  C     29.137240  -12.433870    0.301250
  C     28.158980  -12.845320    1.253200
  C     28.542200  -13.709760    2.296840
  C     29.838460  -14.138140    2.371490
  C     30.814230  -13.746720    1.444470
  C     30.460040  -12.905680    0.426570
  F     30.206260  -14.966010    3.365540
  C     26.822650  -12.394560    1.142440
  C     26.480150  -11.560980    0.112840
  C     25.195770  -10.976800   -0.267910
  C     23.973030  -11.471860    0.107230
  C     22.750270  -11.058230   -0.453950
  N     21.733390  -10.768330   -0.902080
  C     23.801550  -12.527500    1.027260
  N     23.605080  -13.386450    1.762090
  H      8.280760    2.526670  -10.697250
  H      4.143730    2.772450  -11.712710
  H      3.553960    3.086760   -9.322290
  H      8.995740    2.711690   -8.361610
  H      4.241170    3.270620   -6.957110
  H      6.943520    2.912500   -2.422140
  H      8.465890    2.386850   -0.390690
  H     13.231940   -1.145430    1.322080
  H     15.119560   -2.541120   -4.945980
  H     15.696890   -4.069810   -4.236910
  H     16.727960   -2.608710   -4.183930
  H     17.205960   -4.105550   -2.459970
  H     14.809050   -2.533490    1.520040
  H     16.821490   -4.097310    4.015930
  H     15.227050   -4.004740    3.230470
  H     16.280500   -2.560140    3.296400
  H     18.416730   -5.618240    1.802190
  H     23.582370   -8.841120    0.812570
  H     25.160670   -8.527100   -2.719660
  H     29.492040  -11.231980   -1.467970
  H     27.816540  -14.034140    3.026170
  H     31.821220  -14.116790    1.554410
  H     31.194020  -12.589860   -0.299450
  H     26.105400  -12.711530    1.882790

 Total Charge           Charge          ....    0
 Multiplicity           Mult            ....    1
 Number of Electrons    NEL             ....  590
 Basis Dimension        Dim             .... 1312

ORBITAL ENERGIES
----------------

  NO   OCC          E(Eh)            E(eV)
   0   2.0000     -88.997728     -2421.7513
   1   2.0000     -88.995415     -2421.6884
   2   2.0000     -88.993664     -2421.6407
   3   2.0000     -88.990291     -2421.5489
   4   2.0000     -24.787414      -674.4998
   5   2.0000     -24.785405      -674.4452
   6   2.0000     -19.279172      -524.6129
   7   2.0000     -19.265421      -524.2388
   8   2.0000     -19.215012      -522.8671
   9   2.0000     -19.213731      -522.8322
  10   2.0000     -14.434230      -392.7754
  11   2.0000     -14.434136      -392.7728
  12   2.0000     -14.434091      -392.7716
  13   2.0000     -14.431941      -392.7131
  14   2.0000     -14.419040      -392.3620
  15   2.0000     -14.418250      -392.3405
  16   2.0000     -14.416412      -392.2905
  17   2.0000     -14.414036      -392.2259
  18   2.0000     -10.371095      -282.2119
  19   2.0000     -10.369281      -282.1625
  20   2.0000     -10.368742      -282.1478
  21   2.0000     -10.366655      -282.0910
  22   2.0000     -10.366515      -282.0872
  23   2.0000     -10.366285      -282.0810
  24   2.0000     -10.356916      -281.8260
  25   2.0000     -10.355870      -281.7975
  26   2.0000     -10.355804      -281.7957
  27   2.0000     -10.355430      -281.7856
  28   2.0000     -10.349122      -281.6139
  29   2.0000     -10.345690      -281.5205
  30   2.0000     -10.345490      -281.5151
  31   2.0000     -10.345289      -281.5096
  32   2.0000     -10.344434      -281.4863
  33   2.0000     -10.344153      -281.4787
  34   2.0000     -10.343437      -281.4592
  35   2.0000     -10.335422      -281.2411
  36   2.0000     -10.334924      -281.2276
  37   2.0000     -10.334462      -281.2150
  38   2.0000     -10.334439      -281.2144
  39   2.0000     -10.334360      -281.2122
  40   2.0000     -10.332124      -281.1514
  41   2.0000     -10.331393      -281.1315
  42   2.0000     -10.330905      -281.1182
  43   2.0000     -10.328984      -281.0659
  44   2.0000     -10.327559      -281.0272
  45   2.0000     -10.326510      -280.9986
  46   2.0000     -10.325587      -280.9735
  47   2.0000     -10.324777      -280.9515
  48   2.0000     -10.320958      -280.8475
  49   2.0000     -10.320258      -280.8285
  50   2.0000     -10.318306      -280.7754
  51   2.0000     -10.316501      -280.7263
  52   2.0000     -10.315229      -280.6916
  53   2.0000     -10.314899      -280.6827
  54   2.0000     -10.312077      -280.6059
  55   2.0000     -10.311717      -280.5961
  56   2.0000     -10.308827      -280.5175
  57   2.0000     -10.308337      -280.5041
  58   2.0000     -10.308036      -280.4959
  59   2.0000     -10.307873      -280.4915
  60   2.0000     -10.307842      -280.4906
  61   2.0000     -10.307042      -280.4689
  62   2.0000     -10.306043      -280.4417
  63   2.0000     -10.305961      -280.4395
  64   2.0000     -10.303037      -280.3599
  65   2.0000     -10.302697      -280.3506
  66   2.0000     -10.301198      -280.3098
  67   2.0000     -10.301146      -280.3084
  68   2.0000     -10.300544      -280.2921
  69   2.0000     -10.300274      -280.2847
  70   2.0000     -10.300214      -280.2831
  71   2.0000     -10.299213      -280.2558
  72   2.0000     -10.298480      -280.2359
  73   2.0000     -10.297937      -280.2211
  74   2.0000     -10.297895      -280.2200
  75   2.0000     -10.297812      -280.2177
  76   2.0000     -10.297594      -280.2118
  77   2.0000     -10.296048      -280.1697
  78   2.0000     -10.294949      -280.1398
  79   2.0000     -10.294342      -280.1233
  80   2.0000     -10.291387      -280.0429
  81   2.0000     -10.290719      -280.0247
  82   2.0000     -10.290234      -280.0115
  83   2.0000     -10.288517      -279.9648
  84   2.0000      -8.092480      -220.2076
  85   2.0000      -8.089633      -220.1301
  86   2.0000      -8.088103      -220.0885
  87   2.0000      -8.083307      -219.9580
  88   2.0000      -6.061635      -164.9455
  89   2.0000      -6.058810      -164.8686
  90   2.0000      -6.057471      -164.8322
  91   2.0000      -6.057313      -164.8279
  92   2.0000      -6.054984      -164.7645
  93   2.0000      -6.054657      -164.7556
  94   2.0000      -6.053227      -164.7167
  95   2.0000      -6.052699      -164.7023
  96   2.0000      -6.052120      -164.6866
  97   2.0000      -6.050517      -164.6429
  98   2.0000      -6.048054      -164.5759
  99   2.0000      -6.045923      -164.5179
 100   2.0000      -1.302375       -35.4394
 101   2.0000      -1.300457       -35.3872
 102   2.0000      -1.184355       -32.2279
 103   2.0000      -1.170629       -31.8544
 104   2.0000      -1.130513       -30.7628
 105   2.0000      -1.129516       -30.7357
 106   2.0000      -1.050766       -28.5928
 107   2.0000      -1.048650       -28.5352
 108   2.0000      -1.025996       -27.9188
 109   2.0000      -1.025372       -27.9018
 110   2.0000      -1.021171       -27.7875
 111   2.0000      -1.020431       -27.7673
 112   2.0000      -1.011655       -27.5285
 113   2.0000      -1.010748       -27.5039
 114   2.0000      -1.005787       -27.3689
 115   2.0000      -1.003212       -27.2988
 116   2.0000      -1.002165       -27.2703
 117   2.0000      -1.001508       -27.2524
 118   2.0000      -0.995378       -27.0856
 119   2.0000      -0.993987       -27.0478
 120   2.0000      -0.980469       -26.6799
 121   2.0000      -0.977779       -26.6067
 122   2.0000      -0.975506       -26.5449
 123   2.0000      -0.964778       -26.2529
 124   2.0000      -0.957521       -26.0555
 125   2.0000      -0.932087       -25.3634
 126   2.0000      -0.930772       -25.3276
 127   2.0000      -0.924457       -25.1558
 128   2.0000      -0.918365       -24.9900
 129   2.0000      -0.905725       -24.6460
 130   2.0000      -0.900028       -24.4910
 131   2.0000      -0.891387       -24.2559
 132   2.0000      -0.888015       -24.1641
 133   2.0000      -0.886378       -24.1196
 134   2.0000      -0.879295       -23.9268
 135   2.0000      -0.878403       -23.9026
 136   2.0000      -0.871472       -23.7139
 137   2.0000      -0.867879       -23.6162
 138   2.0000      -0.861270       -23.4364
 139   2.0000      -0.859961       -23.4007
 140   2.0000      -0.855217       -23.2716
 141   2.0000      -0.836615       -22.7654
 142   2.0000      -0.835036       -22.7225
 143   2.0000      -0.828998       -22.5582
 144   2.0000      -0.823795       -22.4166
 145   2.0000      -0.815351       -22.1868
 146   2.0000      -0.798816       -21.7369
 147   2.0000      -0.790238       -21.5035
 148   2.0000      -0.780988       -21.2518
 149   2.0000      -0.779935       -21.2231
 150   2.0000      -0.771529       -20.9944
 151   2.0000      -0.764889       -20.8137
 152   2.0000      -0.759477       -20.6664
 153   2.0000      -0.749852       -20.4045
 154   2.0000      -0.732250       -19.9255
 155   2.0000      -0.726957       -19.7815
 156   2.0000      -0.714846       -19.4519
 157   2.0000      -0.712081       -19.3767
 158   2.0000      -0.711170       -19.3519
 159   2.0000      -0.709604       -19.3093
 160   2.0000      -0.709176       -19.2977
 161   2.0000      -0.703633       -19.1468
 162   2.0000      -0.692250       -18.8371
 163   2.0000      -0.689374       -18.7588
 164   2.0000      -0.685946       -18.6655
 165   2.0000      -0.681532       -18.5454
 166   2.0000      -0.679673       -18.4948
 167   2.0000      -0.674886       -18.3646
 168   2.0000      -0.673754       -18.3338
 169   2.0000      -0.660404       -17.9705
 170   2.0000      -0.651898       -17.7390
 171   2.0000      -0.642612       -17.4864
 172   2.0000      -0.638510       -17.3747
 173   2.0000      -0.637998       -17.3608
 174   2.0000      -0.633165       -17.2293
 175   2.0000      -0.631325       -17.1792
 176   2.0000      -0.629284       -17.1237
 177   2.0000      -0.627284       -17.0693
 178   2.0000      -0.624298       -16.9880
 179   2.0000      -0.623481       -16.9658
 180   2.0000      -0.619922       -16.8689
 181   2.0000      -0.616814       -16.7844
 182   2.0000      -0.611599       -16.6425
 183   2.0000      -0.604400       -16.4466
 184   2.0000      -0.599926       -16.3248
 185   2.0000      -0.594628       -16.1806
 186   2.0000      -0.584495       -15.9049
 187   2.0000      -0.582195       -15.8423
 188   2.0000      -0.577437       -15.7129
 189   2.0000      -0.571260       -15.5448
 190   2.0000      -0.569645       -15.5008
 191   2.0000      -0.568412       -15.4673
 192   2.0000      -0.565595       -15.3906
 193   2.0000      -0.562140       -15.2966
 194   2.0000      -0.560009       -15.2386
 195   2.0000      -0.558085       -15.1863
 196   2.0000      -0.557910       -15.1815
 197   2.0000      -0.555289       -15.1102
 198   2.0000      -0.552831       -15.0433
 199   2.0000      -0.550955       -14.9922
 200   2.0000      -0.550173       -14.9710
 201   2.0000      -0.548227       -14.9180
 202   2.0000      -0.545889       -14.8544
 203   2.0000      -0.541317       -14.7300
 204   2.0000      -0.536122       -14.5886
 205   2.0000      -0.535416       -14.5694
 206   2.0000      -0.533739       -14.5238
 207   2.0000      -0.531279       -14.4568
 208   2.0000      -0.525303       -14.2942
 209   2.0000      -0.523310       -14.2400
 210   2.0000      -0.522112       -14.2074
 211   2.0000      -0.521268       -14.1844
 212   2.0000      -0.516662       -14.0591
 213   2.0000      -0.515270       -14.0212
 214   2.0000      -0.512233       -13.9386
 215   2.0000      -0.511591       -13.9211
 216   2.0000      -0.510729       -13.8976
 217   2.0000      -0.509875       -13.8744
 218   2.0000      -0.507788       -13.8176
 219   2.0000      -0.506239       -13.7755
 220   2.0000      -0.505129       -13.7453
 221   2.0000      -0.501360       -13.6427
 222   2.0000      -0.500227       -13.6119
 223   2.0000      -0.496209       -13.5025
 224   2.0000      -0.495887       -13.4938
 225   2.0000      -0.493003       -13.4153
 226   2.0000      -0.491066       -13.3626
 227   2.0000      -0.490177       -13.3384
 228   2.0000      -0.485941       -13.2231
 229   2.0000      -0.484846       -13.1933
 230   2.0000      -0.481868       -13.1123
 231   2.0000      -0.480847       -13.0845
 232   2.0000      -0.476985       -12.9794
 233   2.0000      -0.474715       -12.9176
 234   2.0000      -0.472858       -12.8671
 235   2.0000      -0.467327       -12.7166
 236   2.0000      -0.466621       -12.6974
 237   2.0000      -0.465216       -12.6592
 238   2.0000      -0.464965       -12.6523
 239   2.0000      -0.464105       -12.6289
 240   2.0000      -0.461887       -12.5686
 241   2.0000      -0.458760       -12.4835
 242   2.0000      -0.457675       -12.4540
 243   2.0000      -0.457321       -12.4443
 244   2.0000      -0.455235       -12.3876
 245   2.0000      -0.453240       -12.3333
 246   2.0000      -0.451791       -12.2939
 247   2.0000      -0.451518       -12.2864
 248   2.0000      -0.448459       -12.2032
 249   2.0000      -0.444347       -12.0913
 250   2.0000      -0.444256       -12.0888
 251   2.0000      -0.443662       -12.0726
 252   2.0000      -0.443343       -12.0640
 253   2.0000      -0.443195       -12.0599
 254   2.0000      -0.441902       -12.0248
 255   2.0000      -0.440684       -11.9916
 256   2.0000      -0.440286       -11.9808
 257   2.0000      -0.438664       -11.9367
 258   2.0000      -0.434676       -11.8281
 259   2.0000      -0.432358       -11.7650
 260   2.0000      -0.430940       -11.7265
 261   2.0000      -0.430534       -11.7154
 262   2.0000      -0.430080       -11.7031
 263   2.0000      -0.428708       -11.6657
 264   2.0000      -0.428591       -11.6626
 265   2.0000      -0.426263       -11.5992
 266   2.0000      -0.420840       -11.4516
 267   2.0000      -0.419999       -11.4287
 268   2.0000      -0.416651       -11.3377
 269   2.0000      -0.411087       -11.1862
 270   2.0000      -0.410246       -11.1634
 271   2.0000      -0.408385       -11.1127
 272   2.0000      -0.402442       -10.9510
 273   2.0000      -0.401868       -10.9354
 274   2.0000      -0.397473       -10.8158
 275   2.0000      -0.390733       -10.6324
 276   2.0000      -0.383050       -10.4233
 277   2.0000      -0.381083       -10.3698
 278   2.0000      -0.374709       -10.1964
 279   2.0000      -0.365360        -9.9419
 280   2.0000      -0.352138        -9.5822
 281   2.0000      -0.348941        -9.4952
 282   2.0000      -0.342737        -9.3263
 283   2.0000      -0.337834        -9.1929
 284   2.0000      -0.334288        -9.0964
 285   2.0000      -0.328228        -8.9315
 286   2.0000      -0.324760        -8.8372
 287   2.0000      -0.320001        -8.7077
 288   2.0000      -0.314747        -8.5647
 289   2.0000      -0.313818        -8.5394
 290   2.0000      -0.302397        -8.2287
 291   2.0000      -0.299954        -8.1622
 292   2.0000      -0.296011        -8.0549
 293   2.0000      -0.274598        -7.4722
 294   2.0000      -0.249571        -6.7912
 295   0.0000      -0.116688        -3.1752
 296   0.0000      -0.110118        -2.9965
 297   0.0000      -0.091379        -2.4866
 298   0.0000      -0.090699        -2.4680
 299   0.0000      -0.059452        -1.6178

MULLIKEN ATOMIC CHARGES
-----------------------
   0 C :   -0.096741
   1 C :    0.303076
   2 F :   -0.190751
   3 C :   -0.031642
   4 C :   -0.008448
   5 C :    0.096724
   6 C :    0.099774
   7 C :   -0.082150
   8 C :    0.040824
   9 C :    0.007610
  10 C :   -0.077547
  11 C :    0.142093
  12 O :   -0.142543
  13 C :   -0.143336
  14 C :    0.246667
  15 C :   -0.326570
  16 C :   -0.215069
  17 N :    0.175413
  18 C :   -0.172201
  19 N :    0.151537
  20 C :    0.045965
  21 C :   -0.087803
  22 C :    0.003215
  23 C :    0.017077
  24 C :   -0.077713
  25 S :    0.200259
  26 C :   -0.092484
  27 C :    0.025708
  28 C :    0.307911
  29 C :   -0.295676
  30 C :   -0.180810
  31 N :    0.160687
  32 C :   -0.190055
  33 N :    0.175414
  34 C :   -0.060458
  35 C :   -0.068505
  36 S :    0.214611
  37 C :    0.121270
  38 C :    0.211716
  39 O :   -0.346131
  40 C :    0.178369
  41 C :   -0.193420
  42 C :    0.131779
  43 C :    0.216183
  44 C :   -0.170225
  45 O :   -0.316395
  46 C :    0.175213
  47 C :   -0.082206
  48 C :   -0.042693
  49 C :    0.028470
  50 C :   -0.093781
  51 S :    0.148473
  52 C :   -0.068337
  53 C :   -0.007885
  54 C :    0.306450
  55 C :   -0.286900
  56 C :   -0.186326
  57 N :    0.169333
  58 C :   -0.184556
  59 N :    0.171810
  60 C :    0.003952
  61 C :   -0.114499
  62 S :    0.210442
  63 C :    0.086007
  64 C :   -0.145318
  65 C :    0.135082
  66 O :   -0.145467
  67 C :    0.015417
  68 C :   -0.079538
  69 C :    0.098853
  70 C :    0.099013
  71 C :   -0.095579
  72 C :    0.303062
  73 C :   -0.028770
  74 C :   -0.009860
  75 F :   -0.189625
  76 C :   -0.080760
  77 C :    0.032059
  78 C :    0.274705
  79 C :   -0.334921
  80 C :   -0.201623
  81 N :    0.169406
  82 C :   -0.172068
  83 N :    0.159206
  84 H :   -0.002870
  85 H :    0.005437
  86 H :   -0.008032
  87 H :   -0.005191
  88 H :   -0.010031
  89 H :    0.032363
  90 H :    0.018969
  91 H :    0.001668
  92 H :    0.045896
  93 H :    0.036203
  94 H :    0.034547
  95 H :   -0.022817
  96 H :   -0.036852
  97 H :    0.055446
  98 H :    0.033737
  99 H :    0.033954
 100 H :    0.015840
 101 H :    0.024314
 102 H :    0.020872
 103 H :   -0.011945
 104 H :   -0.000014
 105 H :    0.003524
 106 H :   -0.009149
 107 H :    0.000680
Sum of atomic charges:   -0.0000000

LOEWDIN ATOMIC CHARGES
----------------------
   0 C :   -0.042855
   1 C :    0.093184
   2 F :   -0.064966
   3 C :   -0.036897
   4 C :    0.004999
   5 C :   -0.018772
   6 C :    0.002998
   7 C :    0.009507
   8 C :   -0.017055
   9 C :   -0.058716
  10 C :    0.034414
  11 C :    0.082501
  12 O :   -0.144986
  13 C :   -0.107118
  14 C :    0.060443
  15 C :   -0.148150
  16 C :   -0.039047
  17 N :   -0.048107
  18 C :   -0.019936
  19 N :   -0.053713
  20 C :    0.053684
  21 C :   -0.181936
  22 C :    0.018209
  23 C :   -0.079472
  24 C :   -0.142429
  25 S :    0.510196
  26 C :   -0.206309
  27 C :   -0.055283
  28 C :    0.083039
  29 C :   -0.103667
  30 C :   -0.012939
  31 N :   -0.039603
  32 C :   -0.018256
  33 N :   -0.029589
  34 C :   -0.035101
  35 C :   -0.145488
  36 S :    0.515192
  37 C :   -0.049949
  38 C :    0.045140
  39 O :   -0.108930
  40 C :    0.082276
  41 C :   -0.066573
  42 C :   -0.049974
  43 C :    0.059483
  44 C :   -0.049299
  45 O :   -0.088279
  46 C :    0.081487
  47 C :   -0.140901
  48 C :   -0.025487
  49 C :   -0.058811
  50 C :   -0.188304
  51 S :    0.472645
  52 C :   -0.155851
  53 C :   -0.067573
  54 C :    0.083585
  55 C :   -0.097875
  56 C :   -0.013704
  57 N :   -0.031894
  58 C :   -0.013721
  59 N :   -0.032975
  60 C :    0.011855
  61 C :   -0.182875
  62 S :    0.497360
  63 C :    0.043423
  64 C :   -0.094471
  65 C :    0.082393
  66 O :   -0.147088
  67 C :   -0.060321
  68 C :    0.034627
  69 C :   -0.018644
  70 C :    0.003919
  71 C :   -0.040942
  72 C :    0.093493
  73 C :   -0.036381
  74 C :    0.004296
  75 F :   -0.064074
  76 C :    0.013860
  77 C :   -0.017127
  78 C :    0.065842
  79 C :   -0.137235
  80 C :   -0.015263
  81 N :   -0.047842
  82 C :   -0.018773
  83 N :   -0.046746
  84 H :    0.042714
  85 H :    0.042306
  86 H :    0.036082
  87 H :    0.038602
  88 H :    0.040185
  89 H :    0.055144
  90 H :    0.047441
  91 H :    0.036216
  92 H :    0.033704
  93 H :    0.021098
  94 H :    0.020951
  95 H :    0.018359
  96 H :    0.033640
  97 H :    0.037312
  98 H :    0.020269
  99 H :    0.020083
 100 H :    0.039279
 101 H :    0.043040
 102 H :    0.045475
 103 H :    0.039679
 104 H :    0.044129
 105 H :    0.041962
 106 H :    0.035686
 107 H :    0.040864

  Mayer bond orders larger than 0.100000
B(  0-C ,  1-C ) :   1.4399 B(  0-C ,  6-C ) :   1.2044 B(  0-C , 84-H ) :   1.0069
B(  1-C ,  2-F ) :   1.0882 B(  1-C ,  3-C ) :   1.2548 B(  3-C ,  4-C ) :   1.4614
B(  3-C , 85-H ) :   0.9932 B(  4-C ,  5-C ) :   1.2333 B(  4-C , 86-H ) :   0.9976
B(  5-C ,  6-C ) :   1.2573 B(  5-C , 10-C ) :   1.1932 B(  6-C ,  7-C ) :   1.2009
B(  7-C ,  8-C ) :   1.4659 B(  7-C , 87-H ) :   0.9954 B(  8-C ,  9-C ) :   1.2184
B(  8-C , 14-C ) :   1.0005 B(  9-C , 10-C ) :   1.4732 B(  9-C , 11-C ) :   0.9208
B( 10-C , 88-H ) :   1.0156 B( 11-C , 12-O ) :   2.2713 B( 11-C , 13-C ) :   0.9420
B( 13-C , 14-C ) :   1.0458 B( 13-C , 20-C ) :   1.6066 B( 14-C , 15-C ) :   1.6446
B( 15-C , 16-C ) :   1.1530 B( 15-C , 18-C ) :   1.1372 B( 16-C , 17-N ) :   3.0250
B( 18-C , 19-N ) :   2.9886 B( 20-C , 21-C ) :   1.1729 B( 20-C , 89-H ) :   0.9465
B( 21-C , 22-C ) :   1.3857 B( 21-C , 25-S ) :   1.0721 B( 22-C , 23-C ) :   1.3112
B( 22-C , 90-H ) :   1.0023 B( 23-C , 24-C ) :   1.3866 B( 23-C , 28-C ) :   0.9922
B( 24-C , 25-S ) :   1.1684 B( 24-C , 26-C ) :   1.2114 B( 26-C , 27-C ) :   1.4214
B( 26-C , 36-S ) :   1.0753 B( 27-C , 28-C ) :   1.0003 B( 27-C , 34-C ) :   1.3087
B( 28-C , 29-C ) :   1.7089 B( 29-C , 30-C ) :   1.1368 B( 29-C , 32-C ) :   1.1306
B( 30-C , 31-N ) :   2.9793 B( 32-C , 33-N ) :   2.9951 B( 34-C , 35-C ) :   1.4495
B( 34-C , 91-H ) :   0.9857 B( 35-C , 36-S ) :   1.1293 B( 35-C , 37-C ) :   1.0924
B( 37-C , 38-C ) :   1.3205 B( 37-C , 44-C ) :   1.3108 B( 38-C , 39-O ) :   1.1092
B( 38-C , 41-C ) :   1.3376 B( 39-O , 40-C ) :   0.9418 B( 40-C , 92-H ) :   0.9758
B( 40-C , 93-H ) :   0.9704 B( 40-C , 94-H ) :   0.9705 B( 41-C , 42-C ) :   1.2899
B( 41-C , 95-H ) :   0.9802 B( 42-C , 43-C ) :   1.3272 B( 42-C , 47-C ) :   1.0977
B( 43-C , 44-C ) :   1.3087 B( 43-C , 45-O ) :   1.1678 B( 44-C , 96-H ) :   0.9934
B( 45-O , 46-C ) :   0.9405 B( 46-C , 97-H ) :   0.9746 B( 46-C , 98-H ) :   0.9688
B( 46-C , 99-H ) :   0.9691 B( 47-C , 48-C ) :   1.4721 B( 47-C , 51-S ) :   1.1034
B( 48-C , 49-C ) :   1.2448 B( 48-C ,100-H ) :   0.9959 B( 49-C , 50-C ) :   1.4404
B( 49-C , 54-C ) :   0.9982 B( 50-C , 51-S ) :   1.1150 B( 50-C , 52-C ) :   1.1887
B( 52-C , 53-C ) :   1.4069 B( 52-C , 62-S ) :   1.1562 B( 53-C , 54-C ) :   0.9955
B( 53-C , 60-C ) :   1.3629 B( 54-C , 55-C ) :   1.7158 B( 55-C , 56-C ) :   1.1328
B( 55-C , 58-C ) :   1.1338 B( 56-C , 57-N ) :   2.9833 B( 58-C , 59-N ) :   2.9916
B( 60-C , 61-C ) :   1.3892 B( 60-C ,101-H ) :   0.9804 B( 61-C , 62-S ) :   1.0850
B( 61-C , 63-C ) :   1.1438 B( 63-C , 64-C ) :   1.6592 B( 63-C ,102-H ) :   0.9259
B( 64-C , 65-C ) :   0.9439 B( 64-C , 78-C ) :   1.0425 B( 65-C , 66-O ) :   2.2658
B( 65-C , 67-C ) :   0.9206 B( 67-C , 68-C ) :   1.4707 B( 67-C , 77-C ) :   1.2178
B( 68-C , 69-C ) :   1.1923 B( 68-C ,103-H ) :   1.0148 B( 69-C , 70-C ) :   1.2546
B( 69-C , 74-C ) :   1.2345 B( 70-C , 71-C ) :   1.2040 B( 70-C , 76-C ) :   1.2041
B( 71-C , 72-C ) :   1.4406 B( 71-C ,104-H ) :   1.0061 B( 72-C , 73-C ) :   1.2549
B( 72-C , 75-F ) :   1.0896 B( 73-C , 74-C ) :   1.4615 B( 73-C ,105-H ) :   0.9926
B( 74-C ,106-H ) :   0.9965 B( 76-C , 77-C ) :   1.4649 B( 76-C ,107-H ) :   0.9938
B( 77-C , 78-C ) :   0.9943 B( 78-C , 79-C ) :   1.6460 B( 79-C , 80-C ) :   1.1741
B( 79-C , 82-C ) :   1.1299 B( 80-C , 81-N ) :   2.9957 B( 82-C , 83-N ) :   2.9904

-----------------------------------------------------------------------------
         ABSORPTION SPECTRUM VIA TRANSITION ELECTRIC DIPOLE MOMENTS
-----------------------------------------------------------------------------
State   Energy  Wavelength   fosc         T2         TX        TY        TZ
        (cm-1)    (nm)                  (au**2)     (au)      (au)      (au)
-----------------------------------------------------------------------------
   0   12544.7    797.2   0.678225174  17.79876   3.22325  -2.60498   0.78965
   1   13447.9    743.6   0.022377124   0.54781  -0.01436  -0.07110   0.73658
   2   18876.4    529.8   1.326438234  23.13366  -3.26654   3.14011  -1.61340
   3   19882.2    503.0   0.234399480   3.88121   0.77061  -0.69301  -1.67545
   4   21494.9    465.2   0.018623667   0.28524   0.35252  -0.39729  -0.05590
   5   22229.3    449.9   0.053853003   0.79755   0.60770   0.23576  -0.61047
   6   25901.4    386.1   0.075254428   0.95650   0.65779  -0.68886  -0.22200
   7   26130.8    382.7   0.013043402   0.16433   0.12506  -0.29153  -0.25239
   8   26398.6    378.8   0.051445654   0.64157  -0.66301   0.18183  -0.41100
   9   26932.8    371.3   0.500080678   6.11271  -2.20349   1.12109  -0.02284
  10   27299.8    366.3   0.001220676   0.01472  -0.05419  -0.07249   0.08079
  11   27602.6    362.3   0.041412931   0.49393   0.68154  -0.08265  -0.15034
  12   27849.2    359.1   0.221550468   2.61900  -1.60399   0.13508   0.16721
  13   28402.4    352.1   0.114986609   1.33281   1.05010  -0.37204   0.30280
  14   28526.7    350.5   0.115335674   1.33103   0.95759  -0.64140   0.05142
  15   28679.4    348.7   0.074903049   0.85982  -0.19245   0.11684  -0.89952
  16   29151.8    343.0   0.392847968   4.43644   1.64268  -1.30673   0.17463
  17   29547.9    338.4   0.015882270   0.17695  -0.30935   0.18322   0.21837
  18   29604.1    337.8   0.034873045   0.38780  -0.59172   0.19052   0.03713
  19   30138.3    331.8   0.334178097   3.65035  -0.07308  -0.30092   1.88533
  20   30236.1    330.7   0.463117372   5.04243  -0.05117  -0.52222  -2.18337
  21   30741.2    325.3   0.324819090   3.47854  -0.98432   0.76491  -1.38729
  22   31040.0    322.2   0.126246594   1.33898  -1.07062  -0.11831   0.42279
  23   31391.4    318.6   0.057305902   0.60099  -0.04504   0.16345   0.75647
  24   32006.3    312.4   0.014619465   0.15037  -0.22103  -0.28695   0.13848
  25   32158.7    311.0   0.411927799   4.21694  -1.50891   0.64933  -1.23228
  26   32523.6    307.5   0.097821872   0.99018  -0.54778   0.83025   0.02817
  27   33023.7    302.8   0.125794247   1.25404   0.53920  -0.46924  -0.86204
  28   33398.4    299.4   0.122468182   1.20718   0.75620  -0.19833   0.77202
  29   33854.5    295.4   0.108966343   1.05962  -0.06803   0.14718   1.01653
  30   34107.5    293.2   0.023310044   0.22499  -0.14312   0.42147  -0.16392
  31   34210.7    292.3   0.408473122   3.93076   1.79068  -0.25725   0.81121
  32   34345.4    291.2   0.281706044   2.70025   0.39181  -0.22618  -1.57974
  33   34480.2    290.0   0.160133276   1.52893  -0.01421  -0.12700   1.22988
  34   34605.6    289.0   0.078380701   0.74566  -0.85085  -0.14372   0.03247
  35   34974.4    285.9   0.083664822   0.78753   0.45593  -0.16053  -0.74424
  36   35159.1    284.4   0.182379141   1.70771   0.10891  -0.10219   1.29823
  37   35340.3    283.0   0.517922258   4.82469   1.90498  -0.56172   0.93820
  38   35423.8    282.3   0.059259148   0.55073  -0.50969  -0.18837  -0.50543
  39   35822.3    279.2   0.051191770   0.47046   0.00843  -0.31076  -0.61141
  40   36103.8    277.0   0.011957818   0.10904  -0.32667   0.04240  -0.02298
  41   36303.3    275.5   0.050242306   0.45562  -0.62891  -0.14992  -0.19395
  42   36547.8    273.6   0.014516948   0.13076  -0.31243   0.02430  -0.18046
  43   36673.6    272.7   0.091266687   0.81928   0.79154  -0.14782   0.41339
  44   36998.0    270.3   0.015136751   0.13469   0.07982  -0.34496  -0.09654
  45   37079.0    269.7   0.053851624   0.47813  -0.67605  -0.09276  -0.11172
  46   37357.1    267.7   0.027795135   0.24495  -0.43131   0.12776   0.20638
  47   37409.2    267.3   0.101300950   0.89148   0.58750   0.13439   0.72682
  48   37810.4    264.5   0.026040794   0.22674   0.11762  -0.45683   0.06484
  49   37952.2    263.5   0.000218810   0.00190   0.01959  -0.02757  -0.02746
  50   38119.9    262.3   0.013402854   0.11575  -0.32892  -0.04867  -0.07206
  51   38436.5    260.2   0.014845391   0.12715  -0.16814   0.10328   0.29701
  52   38510.4    259.7   0.008833253   0.07551   0.13857   0.02776   0.23567
  53   38623.3    258.9   0.030668505   0.26141  -0.44396  -0.09955  -0.23323
  54   38800.6    257.7   0.050658297   0.42982   0.45934  -0.20482  -0.42057
  55   39080.0    255.9   0.041959010   0.35346  -0.04589   0.51894  -0.28646
  56   39305.1    254.4   0.071339730   0.59753  -0.68973  -0.17282   0.30321
  57   39919.4    250.5   0.071023916   0.58573   0.44622  -0.57086   0.24644
  58   39981.5    250.1   0.286516250   2.35921   1.05026   0.25734  -1.09084

FINAL SINGLE POINT ENERGY     -5055.818653461316

DIPOLE MOMENT
-------------
                                X             Y             Z
Electronic contribution:      2.17484      -1.21360      -2.81841
Nuclear contribution   :     -1.49499       0.79356       0.04927
                        -----------------------------------------
Total Dipole Moment    :      0.67985      -0.42004      -2.76913
                        -----------------------------------------
Magnitude (a.u.)       :      2.88214
Magnitude (Debye)      :      7.32582

Rotational constants in cm-1:     0.001561     0.000147     0.000137
Rotational constants in MHz :    46.804343     4.418327     4.119804

                             ****ORCA TERMINATED NORMALLY****
TOTAL RUN TIME: 0 days 0 hours 17 minutes 43 seconds 615 msec
