                         Program Version 4.2.0 -  RELEASE  -
|  1> # ORCA input file
|  2> # SCF done       -217.425842819105          0.000823639168
|  3> ! CAM-B3LYP def2-SVP def2/J RIJCOSX Grid4 TightSCF
|  4> %maxcore 5000
|  5> %tddft
|  6>     Mode sTDDFT
|  7>     Ethresh 5.0
|  8>     maxcore 5000
|  9> end
| 10>
| 11> %pal
| 12>   nprocs 6
| 13>   end
| 14> * xyz 0 1
| 15>    C        1.23961         3.78099         3.94987
| 16>    C        0.13462         4.58572         3.98173
| 17>    F       -0.37867         4.95885         5.16670
| 18>    C       -0.49494         5.04468         2.81625
| 19>    C        0.01253         4.67726         1.60122
| 20>    C        1.15018         3.84906         1.50974
| 21>    C        1.77355         3.38937         2.70696
| 22>    C        2.90645         2.54513         2.64159
| 23>    C        3.39670         2.17536         1.41858
| 24>    C        2.78595         2.65922         0.22541
| 25>    C        1.68760         3.46978         0.25965
| 26>    C        3.53499         2.16051        -0.94057
| 27>    O        3.29077         2.31995        -2.11390
| 28>    C        4.71831         1.44798        -0.37254
| 29>    C        4.50274         1.29445         1.05144
| 30>    C        5.02803         0.32637         1.86735
| 31>    C        5.91826        -0.67646         1.43828
| 32>    N        6.62426        -1.52924         1.13294
| 33>    C        4.66391         0.15705         3.22044
| 34>    N        4.40505        -0.02943         4.32243
| 35>    C        5.75552         1.14762        -1.20141
| 36>    C        7.08518         0.80926        -0.86502
| 37>    C        7.77569         1.05688         0.31244
| 38>    C        9.07039         0.55652         0.27696
| 39>    C        9.38095        -0.07659        -0.94424
| 40>    S        8.08889        -0.02067        -2.04912
| 41>    C       10.68987        -0.60918        -0.84913
| 42>    C       11.20449        -0.31720         0.42785
| 43>    C       10.20207         0.42507         1.17682
| 44>    C       10.28048         0.86548         2.46501
| 45>    C       11.43266         0.66988         3.25521
| 46>    N       12.37613         0.51361         3.88747
| 47>    C        9.20351         1.54195         3.07656
| 48>    N        8.31887         2.09039         3.55730
| 49>    C       12.47786        -0.84122         0.63328
| 50>    C       12.93753        -1.53152        -0.47609
| 51>    S       11.77871        -1.52115        -1.79699
| 52>    C       14.16165        -2.23149        -0.60671
| 53>    C       14.61206        -2.94430        -1.70565
| 54>    C       15.84157        -3.55046        -1.46275
| 55>    C       16.33375        -3.29712        -0.16691
| 56>    S       15.28409        -2.30476         0.74440
| 57>    C       17.55875        -3.98303         0.00072
| 58>    C       17.84695        -4.66864        -1.19992
| 59>    C       16.77958        -4.41930        -2.15465
| 60>    C       16.66948        -4.92000        -3.41892
| 61>    C       17.63941        -5.79318        -3.95435
| 62>    N       18.42949        -6.51146        -4.37221
| 63>    C       15.57895        -4.60742        -4.25747
| 64>    N       14.69176        -4.34877        -4.93598
| 65>    C       19.02935        -5.39092        -1.13638
| 66>    C       19.65124        -5.27956         0.10330
| 67>    S       18.76599        -4.20539         1.18412
| 68>    C       20.85277        -5.88002         0.55902
| 69>    C       21.51841        -5.33409         1.67570
| 70>    C       22.78707        -5.81871         2.16294
| 71>    N       23.22430        -5.08136         3.19064
| 72>    S       22.15306        -3.93470         3.52135
| 73>    N       21.08709        -4.28406         2.37910
| 74>    C       23.45520        -6.89690         1.55163
| 75>    C       22.76425        -7.49547         0.45228
| 76>    C       23.16412        -8.62638        -0.22297
| 77>    S       22.02313        -9.13349        -1.37848
| 78>    C       20.97458        -7.85255        -1.00660
| 79>    C       21.47428        -7.02367        -0.01943
| 80>    C       24.73805        -7.34671         1.93107
| 81>    C       25.40716        -7.21312         3.11874
| 82>    C       26.88001        -7.39771         3.13582
| 83>    O       27.57216        -7.82726         2.24249
| 84>    C       27.31843        -6.90866         4.46694
| 85>    C       26.18412        -6.56092         5.22295
| 86>    C       26.33659        -6.01696         6.48699
| 87>    C       27.62060        -5.84717         7.00201
| 88>    C       28.74517        -6.21769         6.24679
| 89>    C       28.59358        -6.75373         4.96290
| 90>    C       30.06081        -6.09032         6.76035
| 91>    N       31.15541        -6.06677         7.09577
| 92>    C       27.84318        -5.20966         8.34285
| 93>    O       28.81729        -4.55597         8.58421
| 94>    O       26.88523        -5.39833         9.25873
| 95>    C       24.98329        -6.88452         4.45175
| 96>    C       23.73426        -7.06659         4.99470
| 97>    C       22.64600        -7.62148         4.29610
| 98>    N       21.73714        -8.08748         3.77092
| 99>    C       23.43604        -6.80122         6.34391
|100>    N       23.16739        -6.58294         7.43932
|101>    H        1.69619         3.44304         4.86696
|102>    H       -1.36428         5.67685         2.90372
|103>    H       -0.45486         5.01867         0.68993
|104>    H        3.36529         2.22084         3.56208
|105>    H        1.23382         3.81737        -0.65629
|106>    H        5.53244         1.23301        -2.26081
|107>    H        7.35374         1.60733         1.13355
|108>    H       13.05106        -0.74352         1.53786
|109>    H       14.05594        -3.01214        -2.62351
|110>    H       19.45395        -5.92449        -1.96460
|111>    H       24.05670        -9.20017        -0.08019
|112>    H       20.02259        -7.81558        -1.49280
|113>    H       25.32654        -7.81543         1.14858
|114>    H       25.47524        -5.68380         7.04651
|115>    H       29.45503        -7.03478         4.37636
|116>    H       26.15598        -5.96118         8.96304
|117> *
|118>
|119>                          ****END OF INPUT****

CARTESIAN COORDINATES (ANGSTROEM)
---------------------------------
  C      1.239610    3.780990    3.949870
  C      0.134620    4.585720    3.981730
  F     -0.378670    4.958850    5.166700
  C     -0.494940    5.044680    2.816250
  C      0.012530    4.677260    1.601220
  C      1.150180    3.849060    1.509740
  C      1.773550    3.389370    2.706960
  C      2.906450    2.545130    2.641590
  C      3.396700    2.175360    1.418580
  C      2.785950    2.659220    0.225410
  C      1.687600    3.469780    0.259650
  C      3.534990    2.160510   -0.940570
  O      3.290770    2.319950   -2.113900
  C      4.718310    1.447980   -0.372540
  C      4.502740    1.294450    1.051440
  C      5.028030    0.326370    1.867350
  C      5.918260   -0.676460    1.438280
  N      6.624260   -1.529240    1.132940
  C      4.663910    0.157050    3.220440
  N      4.405050   -0.029430    4.322430
  C      5.755520    1.147620   -1.201410
  C      7.085180    0.809260   -0.865020
  C      7.775690    1.056880    0.312440
  C      9.070390    0.556520    0.276960
  C      9.380950   -0.076590   -0.944240
  S      8.088890   -0.020670   -2.049120
  C     10.689870   -0.609180   -0.849130
  C     11.204490   -0.317200    0.427850
  C     10.202070    0.425070    1.176820
  C     10.280480    0.865480    2.465010
  C     11.432660    0.669880    3.255210
  N     12.376130    0.513610    3.887470
  C      9.203510    1.541950    3.076560
  N      8.318870    2.090390    3.557300
  C     12.477860   -0.841220    0.633280
  C     12.937530   -1.531520   -0.476090
  S     11.778710   -1.521150   -1.796990
  C     14.161650   -2.231490   -0.606710
  C     14.612060   -2.944300   -1.705650
  C     15.841570   -3.550460   -1.462750
  C     16.333750   -3.297120   -0.166910
  S     15.284090   -2.304760    0.744400
  C     17.558750   -3.983030    0.000720
  C     17.846950   -4.668640   -1.199920
  C     16.779580   -4.419300   -2.154650
  C     16.669480   -4.920000   -3.418920
  C     17.639410   -5.793180   -3.954350
  N     18.429490   -6.511460   -4.372210
  C     15.578950   -4.607420   -4.257470
  N     14.691760   -4.348770   -4.935980
  C     19.029350   -5.390920   -1.136380
  C     19.651240   -5.279560    0.103300
  S     18.765990   -4.205390    1.184120
  C     20.852770   -5.880020    0.559020
  C     21.518410   -5.334090    1.675700
  C     22.787070   -5.818710    2.162940
  N     23.224300   -5.081360    3.190640
  S     22.153060   -3.934700    3.521350
  N     21.087090   -4.284060    2.379100
  C     23.455200   -6.896900    1.551630
  C     22.764250   -7.495470    0.452280
  C     23.164120   -8.626380   -0.222970
  S     22.023130   -9.133490   -1.378480
  C     20.974580   -7.852550   -1.006600
  C     21.474280   -7.023670   -0.019430
  C     24.738050   -7.346710    1.931070
  C     25.407160   -7.213120    3.118740
  C     26.880010   -7.397710    3.135820
  O     27.572160   -7.827260    2.242490
  C     27.318430   -6.908660    4.466940
  C     26.184120   -6.560920    5.222950
  C     26.336590   -6.016960    6.486990
  C     27.620600   -5.847170    7.002010
  C     28.745170   -6.217690    6.246790
  C     28.593580   -6.753730    4.962900
  C     30.060810   -6.090320    6.760350
  N     31.155410   -6.066770    7.095770
  C     27.843180   -5.209660    8.342850
  O     28.817290   -4.555970    8.584210
  O     26.885230   -5.398330    9.258730
  C     24.983290   -6.884520    4.451750
  C     23.734260   -7.066590    4.994700
  C     22.646000   -7.621480    4.296100
  N     21.737140   -8.087480    3.770920
  C     23.436040   -6.801220    6.343910
  N     23.167390   -6.582940    7.439320
  H      1.696190    3.443040    4.866960
  H     -1.364280    5.676850    2.903720
  H     -0.454860    5.018670    0.689930
  H      3.365290    2.220840    3.562080
  H      1.233820    3.817370   -0.656290
  H      5.532440    1.233010   -2.260810
  H      7.353740    1.607330    1.133550
  H     13.051060   -0.743520    1.537860
  H     14.055940   -3.012140   -2.623510
  H     19.453950   -5.924490   -1.964600
  H     24.056700   -9.200170   -0.080190
  H     20.022590   -7.815580   -1.492800
  H     25.326540   -7.815430    1.148580
  H     25.475240   -5.683800    7.046510
  H     29.455030   -7.034780    4.376360
  H     26.155980   -5.961180    8.963040

 Total Charge           Charge          ....    0
 Multiplicity           Mult            ....    1
 Number of Electrons    NEL             ....  614
 Basis Dimension        Dim             .... 1308

ORBITAL ENERGIES
----------------

  NO   OCC          E(Eh)            E(eV)
   0   2.0000     -89.055402     -2423.3207
   1   2.0000     -89.011258     -2422.1195
   2   2.0000     -89.010115     -2422.0884
   3   2.0000     -89.006469     -2421.9892
   4   2.0000     -89.005363     -2421.9591
   5   2.0000     -89.001216     -2421.8462
   6   2.0000     -24.789733      -674.5629
   7   2.0000     -19.269171      -524.3408
   8   2.0000     -19.224487      -523.1249
   9   2.0000     -19.221807      -523.0520
  10   2.0000     -19.208310      -522.6847
  11   2.0000     -14.468365      -393.7042
  12   2.0000     -14.454591      -393.3294
  13   2.0000     -14.448813      -393.1722
  14   2.0000     -14.446978      -393.1223
  15   2.0000     -14.443683      -393.0326
  16   2.0000     -14.443337      -393.0232
  17   2.0000     -14.426368      -392.5614
  18   2.0000     -14.425017      -392.5247
  19   2.0000     -14.420824      -392.4106
  20   2.0000     -14.420591      -392.4042
  21   2.0000     -14.403962      -391.9517
  22   2.0000     -10.413830      -283.3747
  23   2.0000     -10.382698      -282.5276
  24   2.0000     -10.379458      -282.4394
  25   2.0000     -10.374333      -282.2999
  26   2.0000     -10.373947      -282.2895
  27   2.0000     -10.373280      -282.2713
  28   2.0000     -10.370630      -282.1992
  29   2.0000     -10.366194      -282.0785
  30   2.0000     -10.353512      -281.7334
  31   2.0000     -10.353040      -281.7205
  32   2.0000     -10.352059      -281.6939
  33   2.0000     -10.351626      -281.6821
  34   2.0000     -10.351400      -281.6759
  35   2.0000     -10.350670      -281.6561
  36   2.0000     -10.350572      -281.6534
  37   2.0000     -10.350506      -281.6516
  38   2.0000     -10.349179      -281.6155
  39   2.0000     -10.349155      -281.6148
  40   2.0000     -10.348176      -281.5882
  41   2.0000     -10.347079      -281.5583
  42   2.0000     -10.346384      -281.5394
  43   2.0000     -10.346297      -281.5371
  44   2.0000     -10.344549      -281.4895
  45   2.0000     -10.343913      -281.4722
  46   2.0000     -10.343659      -281.4653
  47   2.0000     -10.343227      -281.4535
  48   2.0000     -10.340114      -281.3688
  49   2.0000     -10.337876      -281.3079
  50   2.0000     -10.333416      -281.1865
  51   2.0000     -10.328804      -281.0610
  52   2.0000     -10.328145      -281.0431
  53   2.0000     -10.327708      -281.0312
  54   2.0000     -10.327188      -281.0171
  55   2.0000     -10.326355      -280.9944
  56   2.0000     -10.326289      -280.9926
  57   2.0000     -10.325884      -280.9816
  58   2.0000     -10.323986      -280.9299
  59   2.0000     -10.323256      -280.9101
  60   2.0000     -10.323063      -280.9048
  61   2.0000     -10.322860      -280.8993
  62   2.0000     -10.322526      -280.8902
  63   2.0000     -10.322061      -280.8775
  64   2.0000     -10.321888      -280.8728
  65   2.0000     -10.321148      -280.8527
  66   2.0000     -10.320408      -280.8326
  67   2.0000     -10.318952      -280.7929
  68   2.0000     -10.318358      -280.7768
  69   2.0000     -10.318318      -280.7757
  70   2.0000     -10.316807      -280.7346
  71   2.0000     -10.314943      -280.6839
  72   2.0000     -10.311970      -280.6030
  73   2.0000     -10.311155      -280.5808
  74   2.0000     -10.310077      -280.5515
  75   2.0000     -10.309266      -280.5294
  76   2.0000     -10.308149      -280.4990
  77   2.0000     -10.306368      -280.4505
  78   2.0000     -10.305899      -280.4378
  79   2.0000     -10.303987      -280.3857
  80   2.0000     -10.303645      -280.3764
  81   2.0000     -10.302252      -280.3385
  82   2.0000     -10.298897      -280.2472
  83   2.0000     -10.298308      -280.2312
  84   2.0000     -10.296139      -280.1722
  85   2.0000     -10.293226      -280.0929
  86   2.0000      -8.146259      -221.6710
  87   2.0000      -8.105549      -220.5632
  88   2.0000      -8.104380      -220.5314
  89   2.0000      -8.101033      -220.4403
  90   2.0000      -8.098492      -220.3712
  91   2.0000      -8.096628      -220.3205
  92   2.0000      -6.117303      -166.4603
  93   2.0000      -6.109578      -166.2501
  94   2.0000      -6.109124      -166.2377
  95   2.0000      -6.074839      -165.3048
  96   2.0000      -6.073682      -165.2733
  97   2.0000      -6.070656      -165.1910
  98   2.0000      -6.070187      -165.1782
  99   2.0000      -6.069504      -165.1596
 100   2.0000      -6.067891      -165.1157
 101   2.0000      -6.067870      -165.1151
 102   2.0000      -6.066691      -165.0831
 103   2.0000      -6.066026      -165.0650
 104   2.0000      -6.065232      -165.0434
 105   2.0000      -6.063578      -164.9984
 106   2.0000      -6.063251      -164.9895
 107   2.0000      -6.061002      -164.9283
 108   2.0000      -6.060749      -164.9214
 109   2.0000      -6.060529      -164.9154
 110   2.0000      -1.305000       -35.5109
 111   2.0000      -1.192843       -32.4589
 112   2.0000      -1.150795       -31.3147
 113   2.0000      -1.139292       -31.0017
 114   2.0000      -1.137488       -30.9526
 115   2.0000      -1.108005       -30.1504
 116   2.0000      -1.065429       -28.9918
 117   2.0000      -1.061547       -28.8862
 118   2.0000      -1.040117       -28.3030
 119   2.0000      -1.035813       -28.1859
 120   2.0000      -1.030638       -28.0451
 121   2.0000      -1.029554       -28.0156
 122   2.0000      -1.027592       -27.9622
 123   2.0000      -1.025378       -27.9020
 124   2.0000      -1.021851       -27.8060
 125   2.0000      -1.020531       -27.7701
 126   2.0000      -1.013343       -27.5745
 127   2.0000      -1.011822       -27.5331
 128   2.0000      -1.007849       -27.4250
 129   2.0000      -1.004770       -27.3412
 130   2.0000      -1.000762       -27.2321
 131   2.0000      -0.999570       -27.1997
 132   2.0000      -0.990028       -26.9400
 133   2.0000      -0.983690       -26.7676
 134   2.0000      -0.979822       -26.6623
 135   2.0000      -0.972047       -26.4508
 136   2.0000      -0.965960       -26.2851
 137   2.0000      -0.959822       -26.1181
 138   2.0000      -0.940428       -25.5903
 139   2.0000      -0.934685       -25.4341
 140   2.0000      -0.927504       -25.2387
 141   2.0000      -0.915834       -24.9211
 142   2.0000      -0.910981       -24.7890
 143   2.0000      -0.907522       -24.6949
 144   2.0000      -0.893361       -24.3096
 145   2.0000      -0.890791       -24.2397
 146   2.0000      -0.888906       -24.1884
 147   2.0000      -0.888591       -24.1798
 148   2.0000      -0.880765       -23.9668
 149   2.0000      -0.880575       -23.9617
 150   2.0000      -0.873172       -23.7602
 151   2.0000      -0.871389       -23.7117
 152   2.0000      -0.869470       -23.6595
 153   2.0000      -0.845644       -23.0111
 154   2.0000      -0.839859       -22.8537
 155   2.0000      -0.827750       -22.5242
 156   2.0000      -0.824056       -22.4237
 157   2.0000      -0.812836       -22.1184
 158   2.0000      -0.796447       -21.6724
 159   2.0000      -0.793156       -21.5829
 160   2.0000      -0.789705       -21.4890
 161   2.0000      -0.782885       -21.3034
 162   2.0000      -0.776321       -21.1248
 163   2.0000      -0.769051       -20.9270
 164   2.0000      -0.754586       -20.5333
 165   2.0000      -0.740227       -20.1426
 166   2.0000      -0.739244       -20.1159
 167   2.0000      -0.730458       -19.8768
 168   2.0000      -0.720923       -19.6173
 169   2.0000      -0.719596       -19.5812
 170   2.0000      -0.714645       -19.4465
 171   2.0000      -0.712326       -19.3834
 172   2.0000      -0.711155       -19.3515
 173   2.0000      -0.706773       -19.2323
 174   2.0000      -0.702199       -19.1078
 175   2.0000      -0.697758       -18.9870
 176   2.0000      -0.696174       -18.9438
 177   2.0000      -0.690308       -18.7842
 178   2.0000      -0.686283       -18.6747
 179   2.0000      -0.676982       -18.4216
 180   2.0000      -0.674013       -18.3408
 181   2.0000      -0.669116       -18.2076
 182   2.0000      -0.659431       -17.9440
 183   2.0000      -0.650852       -17.7106
 184   2.0000      -0.648194       -17.6382
 185   2.0000      -0.646200       -17.5840
 186   2.0000      -0.642315       -17.4783
 187   2.0000      -0.640467       -17.4280
 188   2.0000      -0.638078       -17.3630
 189   2.0000      -0.634426       -17.2636
 190   2.0000      -0.630996       -17.1703
 191   2.0000      -0.629979       -17.1426
 192   2.0000      -0.623910       -16.9775
 193   2.0000      -0.615364       -16.7449
 194   2.0000      -0.610996       -16.6260
 195   2.0000      -0.609711       -16.5911
 196   2.0000      -0.598379       -16.2827
 197   2.0000      -0.595577       -16.2065
 198   2.0000      -0.588452       -16.0126
 199   2.0000      -0.585250       -15.9255
 200   2.0000      -0.579337       -15.7646
 201   2.0000      -0.577798       -15.7227
 202   2.0000      -0.569644       -15.5008
 203   2.0000      -0.567528       -15.4432
 204   2.0000      -0.565417       -15.3858
 205   2.0000      -0.562984       -15.3196
 206   2.0000      -0.562377       -15.3030
 207   2.0000      -0.559466       -15.2238
 208   2.0000      -0.558390       -15.1946
 209   2.0000      -0.553687       -15.0666
 210   2.0000      -0.552498       -15.0342
 211   2.0000      -0.549273       -14.9465
 212   2.0000      -0.543030       -14.7766
 213   2.0000      -0.541491       -14.7347
 214   2.0000      -0.540598       -14.7104
 215   2.0000      -0.536381       -14.5957
 216   2.0000      -0.534564       -14.5462
 217   2.0000      -0.529894       -14.4192
 218   2.0000      -0.528401       -14.3785
 219   2.0000      -0.527734       -14.3604
 220   2.0000      -0.526310       -14.3216
 221   2.0000      -0.525375       -14.2962
 222   2.0000      -0.522365       -14.2143
 223   2.0000      -0.520913       -14.1748
 224   2.0000      -0.519162       -14.1271
 225   2.0000      -0.518125       -14.0989
 226   2.0000      -0.516291       -14.0490
 227   2.0000      -0.513413       -13.9707
 228   2.0000      -0.512238       -13.9387
 229   2.0000      -0.510255       -13.8847
 230   2.0000      -0.509541       -13.8653
 231   2.0000      -0.504473       -13.7274
 232   2.0000      -0.503860       -13.7107
 233   2.0000      -0.501307       -13.6413
 234   2.0000      -0.499597       -13.5947
 235   2.0000      -0.498637       -13.5686
 236   2.0000      -0.494113       -13.4455
 237   2.0000      -0.493821       -13.4375
 238   2.0000      -0.491661       -13.3788
 239   2.0000      -0.490011       -13.3339
 240   2.0000      -0.489101       -13.3091
 241   2.0000      -0.486691       -13.2435
 242   2.0000      -0.485260       -13.2046
 243   2.0000      -0.478877       -13.0309
 244   2.0000      -0.475755       -12.9459
 245   2.0000      -0.473845       -12.8940
 246   2.0000      -0.473759       -12.8916
 247   2.0000      -0.473067       -12.8728
 248   2.0000      -0.471305       -12.8249
 249   2.0000      -0.470053       -12.7908
 250   2.0000      -0.465361       -12.6631
 251   2.0000      -0.462885       -12.5957
 252   2.0000      -0.462577       -12.5873
 253   2.0000      -0.461682       -12.5630
 254   2.0000      -0.459871       -12.5137
 255   2.0000      -0.458824       -12.4852
 256   2.0000      -0.458041       -12.4639
 257   2.0000      -0.457835       -12.4583
 258   2.0000      -0.456489       -12.4217
 259   2.0000      -0.455324       -12.3900
 260   2.0000      -0.453967       -12.3531
 261   2.0000      -0.453316       -12.3354
 262   2.0000      -0.452962       -12.3257
 263   2.0000      -0.451338       -12.2815
 264   2.0000      -0.450715       -12.2646
 265   2.0000      -0.448254       -12.1976
 266   2.0000      -0.444396       -12.0926
 267   2.0000      -0.443589       -12.0707
 268   2.0000      -0.441457       -12.0127
 269   2.0000      -0.439454       -11.9582
 270   2.0000      -0.438389       -11.9292
 271   2.0000      -0.437318       -11.9000
 272   2.0000      -0.435697       -11.8559
 273   2.0000      -0.433317       -11.7911
 274   2.0000      -0.432578       -11.7710
 275   2.0000      -0.430255       -11.7078
 276   2.0000      -0.427338       -11.6285
 277   2.0000      -0.423050       -11.5118
 278   2.0000      -0.421333       -11.4650
 279   2.0000      -0.418205       -11.3799
 280   2.0000      -0.416833       -11.3426
 281   2.0000      -0.413645       -11.2559
 282   2.0000      -0.409876       -11.1533
 283   2.0000      -0.402934       -10.9644
 284   2.0000      -0.400610       -10.9012
 285   2.0000      -0.397064       -10.8047
 286   2.0000      -0.389488       -10.5985
 287   2.0000      -0.386184       -10.5086
 288   2.0000      -0.379708       -10.3324
 289   2.0000      -0.372145       -10.1266
 290   2.0000      -0.367085        -9.9889
 291   2.0000      -0.365742        -9.9523
 292   2.0000      -0.362816        -9.8727
 293   2.0000      -0.355062        -9.6617
 294   2.0000      -0.353510        -9.6195
 295   2.0000      -0.348803        -9.4914
 296   2.0000      -0.348176        -9.4744
 297   2.0000      -0.343002        -9.3336
 298   2.0000      -0.341505        -9.2928
 299   2.0000      -0.337837        -9.1930
 300   2.0000      -0.336359        -9.1528
 301   2.0000      -0.320732        -8.7276
 302   2.0000      -0.314791        -8.5659
 303   2.0000      -0.311371        -8.4728
 304   2.0000      -0.302737        -8.2379
 305   2.0000      -0.274608        -7.4725
 306   2.0000      -0.250661        -6.8208
 307   0.0000      -0.141116        -3.8400
 308   0.0000      -0.122016        -3.3202
 309   0.0000      -0.117167        -3.1883
 310   0.0000      -0.099077        -2.6960
 311   0.0000      -0.084782        -2.3070

MULLIKEN ATOMIC CHARGES
-----------------------
   0 C :   -0.094322
   1 C :    0.303051
   2 F :   -0.187702
   3 C :   -0.030148
   4 C :   -0.006918
   5 C :    0.097230
   6 C :    0.097341
   7 C :   -0.075326
   8 C :    0.030291
   9 C :    0.011991
  10 C :   -0.075408
  11 C :    0.137821
  12 O :   -0.142732
  13 C :   -0.137818
  14 C :    0.273683
  15 C :   -0.331489
  16 C :   -0.198374
  17 N :    0.163614
  18 C :   -0.170470
  19 N :    0.164556
  20 C :    0.078358
  21 C :   -0.113623
  22 C :   -0.003393
  23 C :   -0.000136
  24 C :   -0.071520
  25 S :    0.222050
  26 C :   -0.100147
  27 C :    0.025362
  28 C :    0.301839
  29 C :   -0.284866
  30 C :   -0.187089
  31 N :    0.175497
  32 C :   -0.183276
  33 N :    0.176672
  34 C :   -0.062669
  35 C :   -0.050805
  36 S :    0.207732
  37 C :   -0.046906
  38 C :   -0.065049
  39 C :    0.023217
  40 C :   -0.104746
  41 S :    0.211131
  42 C :   -0.064968
  43 C :    0.013824
  44 C :    0.299114
  45 C :   -0.287581
  46 C :   -0.182388
  47 N :    0.165514
  48 C :   -0.186899
  49 N :    0.176455
  50 C :   -0.047142
  51 C :   -0.162885
  52 S :    0.248865
  53 C :    0.195757
  54 C :   -0.002484
  55 C :   -0.013330
  56 N :   -0.303913
  57 S :    0.564768
  58 N :   -0.330801
  59 C :    0.136758
  60 C :    0.076858
  61 C :   -0.168351
  62 S :    0.224751
  63 C :   -0.165327
  64 C :    0.044493
  65 C :   -0.065968
  66 C :   -0.131459
  67 C :    0.136830
  68 O :   -0.136424
  69 C :    0.014117
  70 C :    0.028596
  71 C :   -0.095997
  72 C :    0.011905
  73 C :   -0.080794
  74 C :   -0.036857
  75 C :   -0.156176
  76 N :    0.139181
  77 C :    0.177376
  78 O :   -0.151170
  79 O :   -0.144466
  80 C :    0.332441
  81 C :   -0.337733
  82 C :   -0.201246
  83 N :    0.164839
  84 C :   -0.197472
  85 N :    0.140959
  86 H :    0.000327
  87 H :    0.006440
  88 H :   -0.008249
  89 H :    0.001747
  90 H :   -0.010660
  91 H :    0.024551
  92 H :    0.026816
  93 H :    0.015920
  94 H :    0.015639
  95 H :    0.016439
  96 H :    0.036313
  97 H :    0.036174
  98 H :    0.014549
  99 H :    0.000089
 100 H :    0.014416
 101 H :    0.191414
Sum of atomic charges:   -0.0000000

LOEWDIN ATOMIC CHARGES
----------------------
   0 C :   -0.040391
   1 C :    0.094275
   2 F :   -0.062377
   3 C :   -0.035174
   4 C :    0.005363
   5 C :   -0.018289
   6 C :    0.004158
   7 C :    0.015277
   8 C :   -0.018036
   9 C :   -0.061243
  10 C :    0.036638
  11 C :    0.083081
  12 O :   -0.143215
  13 C :   -0.087780
  14 C :    0.065982
  15 C :   -0.134351
  16 C :   -0.014742
  17 N :   -0.047692
  18 C :   -0.019165
  19 N :   -0.043250
  20 C :    0.042003
  21 C :   -0.179241
  22 C :    0.007975
  23 C :   -0.064493
  24 C :   -0.161287
  25 S :    0.504720
  26 C :   -0.179036
  27 C :   -0.055667
  28 C :    0.081607
  29 C :   -0.093933
  30 C :   -0.016062
  31 N :   -0.027992
  32 C :   -0.013584
  33 N :   -0.027042
  34 C :   -0.033148
  35 C :   -0.176590
  36 S :    0.494120
  37 C :   -0.169526
  38 C :   -0.037356
  39 C :   -0.055103
  40 C :   -0.183901
  41 S :    0.495937
  42 C :   -0.166742
  43 C :   -0.075385
  44 C :    0.080463
  45 C :   -0.100152
  46 C :   -0.013696
  47 N :   -0.033391
  48 C :   -0.017542
  49 N :   -0.027879
  50 C :   -0.007500
  51 C :   -0.164351
  52 S :    0.538071
  53 C :    0.014386
  54 C :   -0.055978
  55 C :   -0.031198
  56 N :   -0.288541
  57 S :    0.686554
  58 N :   -0.298883
  59 C :   -0.062380
  60 C :   -0.019800
  61 C :   -0.208055
  62 S :    0.560046
  63 C :   -0.189244
  64 C :   -0.047618
  65 C :    0.066525
  66 C :   -0.098690
  67 C :    0.083914
  68 O :   -0.135894
  69 C :   -0.033905
  70 C :    0.009259
  71 C :   -0.009406
  72 C :   -0.037866
  73 C :   -0.029717
  74 C :    0.047628
  75 C :   -0.034173
  76 N :   -0.029914
  77 C :    0.080018
  78 O :   -0.122314
  79 O :   -0.016658
  80 C :    0.069709
  81 C :   -0.142447
  82 C :   -0.018022
  83 N :   -0.058356
  84 C :   -0.018820
  85 N :   -0.068732
  86 H :    0.044310
  87 H :    0.042817
  88 H :    0.036122
  89 H :    0.041173
  90 H :    0.040240
  91 H :    0.046855
  92 H :    0.043325
  93 H :    0.037434
  94 H :    0.037417
  95 H :    0.040620
  96 H :    0.028711
  97 H :    0.027330
  98 H :    0.043227
  99 H :    0.034367
 100 H :    0.052192
 101 H :    0.099067

  Mayer bond orders larger than 0.100000
B(  0-C ,  1-C ) :   1.4409 B(  0-C ,  6-C ) :   1.2026 B(  0-C , 86-H ) :   1.0070
B(  1-C ,  2-F ) :   1.0916 B(  1-C ,  3-C ) :   1.2534 B(  3-C ,  4-C ) :   1.4619
B(  3-C , 87-H ) :   0.9931 B(  4-C ,  5-C ) :   1.2333 B(  4-C , 88-H ) :   0.9974
B(  5-C ,  6-C ) :   1.2550 B(  5-C , 10-C ) :   1.1940 B(  6-C ,  7-C ) :   1.2066
B(  7-C ,  8-C ) :   1.4615 B(  7-C , 89-H ) :   0.9944 B(  8-C ,  9-C ) :   1.2174
B(  8-C , 14-C ) :   0.9963 B(  9-C , 10-C ) :   1.4689 B(  9-C , 11-C ) :   0.9227
B( 10-C , 90-H ) :   1.0156 B( 11-C , 12-O ) :   2.2682 B( 11-C , 13-C ) :   0.9390
B( 13-C , 14-C ) :   1.0331 B( 13-C , 20-C ) :   1.6784 B( 14-C , 15-C ) :   1.6522
B( 15-C , 16-C ) :   1.1719 B( 15-C , 18-C ) :   1.1273 B( 16-C , 17-N ) :   2.9927
B( 18-C , 19-N ) :   2.9927 B( 20-C , 21-C ) :   1.1246 B( 20-C , 91-H ) :   0.9287
B( 21-C , 22-C ) :   1.4023 B( 21-C , 25-S ) :   1.0927 B( 22-C , 23-C ) :   1.3545
B( 22-C , 92-H ) :   0.9812 B( 23-C , 24-C ) :   1.4122 B( 23-C , 28-C ) :   1.0001
B( 24-C , 25-S ) :   1.1537 B( 24-C , 26-C ) :   1.1955 B( 26-C , 27-C ) :   1.4386
B( 26-C , 36-S ) :   1.1196 B( 27-C , 28-C ) :   0.9908 B( 27-C , 34-C ) :   1.3161
B( 28-C , 29-C ) :   1.7230 B( 29-C , 30-C ) :   1.1305 B( 29-C , 32-C ) :   1.1347
B( 30-C , 31-N ) :   2.9905 B( 32-C , 33-N ) :   2.9832 B( 34-C , 35-C ) :   1.4435
B( 34-C , 93-H ) :   0.9856 B( 35-C , 36-S ) :   1.1154 B( 35-C , 37-C ) :   1.1774
B( 37-C , 38-C ) :   1.4412 B( 37-C , 41-S ) :   1.1186 B( 38-C , 39-C ) :   1.3166
B( 38-C , 94-H ) :   0.9863 B( 39-C , 40-C ) :   1.4265 B( 39-C , 44-C ) :   0.9916
B( 40-C , 41-S ) :   1.1163 B( 40-C , 42-C ) :   1.2062 B( 42-C , 43-C ) :   1.3776
B( 42-C , 52-S ) :   1.1347 B( 43-C , 44-C ) :   0.9950 B( 43-C , 50-C ) :   1.3356
B( 44-C , 45-C ) :   1.7158 B( 45-C , 46-C ) :   1.1345 B( 45-C , 48-C ) :   1.1303
B( 46-C , 47-N ) :   2.9806 B( 48-C , 49-N ) :   2.9911 B( 50-C , 51-C ) :   1.3704
B( 50-C , 95-H ) :   0.9879 B( 51-C , 52-S ) :   1.0965 B( 51-C , 53-C ) :   1.1992
B( 53-C , 54-C ) :   1.2249 B( 53-C , 64-C ) :   1.2199 B( 54-C , 55-C ) :   1.1236
B( 54-C , 58-N ) :   1.4490 B( 55-C , 56-N ) :   1.4747 B( 55-C , 59-C ) :   1.2491
B( 56-N , 57-S ) :   1.2659 B( 56-N , 58-N ) :   0.1479 B( 57-S , 58-N ) :   1.2945
B( 59-C , 60-C ) :   1.1575 B( 59-C , 65-C ) :   1.1848 B( 60-C , 61-C ) :   1.4604
B( 60-C , 64-C ) :   1.1355 B( 61-C , 62-S ) :   1.2178 B( 61-C , 63-C ) :   0.1025
B( 61-C , 96-H ) :   0.9482 B( 62-S , 63-C ) :   1.2807 B( 63-C , 64-C ) :   1.3845
B( 63-C , 97-H ) :   0.9557 B( 65-C , 66-C ) :   1.5652 B( 65-C , 98-H ) :   0.9359
B( 66-C , 67-C ) :   0.9580 B( 66-C , 80-C ) :   1.0921 B( 67-C , 68-O ) :   2.2610
B( 67-C , 69-C ) :   0.8954 B( 69-C , 70-C ) :   1.3435 B( 69-C , 74-C ) :   1.3632
B( 70-C , 71-C ) :   1.3902 B( 70-C , 80-C ) :   0.9915 B( 71-C , 72-C ) :   1.3127
B( 71-C , 99-H ) :   0.9678 B( 72-C , 73-C ) :   1.4029 B( 72-C , 77-C ) :   0.8700
B( 73-C , 74-C ) :   1.3565 B( 73-C , 75-C ) :   1.0678 B( 74-C ,100-H ) :   1.0156
B( 75-C , 76-N ) :   3.0389 B( 77-C , 78-O ) :   2.1674 B( 77-C , 79-O ) :   1.2564
B( 79-O ,101-H ) :   0.9449 B( 80-C , 81-C ) :   1.6034 B( 81-C , 82-C ) :   1.1768
B( 81-C , 84-C ) :   1.1526 B( 82-C , 83-N ) :   2.9991 B( 84-C , 85-N ) :   2.9810

-----------------------------------------------------------------------------
         ABSORPTION SPECTRUM VIA TRANSITION ELECTRIC DIPOLE MOMENTS
-----------------------------------------------------------------------------
State   Energy  Wavelength   fosc         T2         TX        TY        TZ
        (cm-1)    (nm)                  (au**2)     (au)      (au)      (au)
-----------------------------------------------------------------------------
   0    8617.5   1160.4   0.794527180  30.35314   4.84388  -1.93401   1.77471
   1   12455.3    802.9   0.044608644   1.17907   0.30096   0.12868   1.03534
   2   12896.8    775.4   0.159496388   4.07141   1.79624  -0.77626  -0.49227
   3   16084.7    621.7   0.275962829   5.64825   2.11666  -1.07353  -0.12460
   4   19465.3    513.7   0.605150090  10.23474  -2.94627   1.04313   0.68274
   5   20157.4    496.1   0.036194165   0.59113   0.41723   0.02747   0.64521
   6   20437.4    489.3   0.022216589   0.35787  -0.09112   0.39591  -0.43912
   7   20850.9    479.6   0.094337277   1.48948   1.05320   0.04638  -0.61490
   8   21468.9    465.8   0.038737613   0.59402  -0.69595   0.08075   0.32117
   9   23377.4    427.8   0.029284494   0.41240   0.51815  -0.15307   0.34711
  10   23848.3    419.3   0.223680717   3.08779  -1.09321   0.32787  -1.33611
  11   25001.4    400.0   0.004671111   0.06151   0.08943   0.19684   0.12150
  12   25970.7    385.0   0.062268988   0.78934  -0.76983   0.44331   0.01320
  13   26368.1    379.2   0.013508381   0.16866   0.35457  -0.14006   0.15270
  14   27128.4    368.6   0.136957500   1.66203  -0.76806   1.02023  -0.17677
  15   27269.8    366.7   0.071703185   0.86563  -0.84353   0.32286  -0.22325
  16   27390.5    365.1   0.077413494   0.93045  -0.27079  -0.06236  -0.92371
  17   27679.8    361.3   0.007945367   0.09450   0.14762  -0.00124   0.26964
  18   28377.1    352.4   0.075334969   0.87399  -0.15779   0.54308   0.74441
  19   28599.6    349.7   0.250342401   2.88170   1.60012  -0.55431   0.11862
  20   28707.5    348.3   0.414021821   4.74793  -1.93235   1.00172   0.10257
  21   29102.4    343.6   0.162456167   1.83774  -0.02607  -1.09712  -0.79585
  22   29504.2    338.9   0.549142853   6.12741  -1.13036   1.73688   1.35386
  23   29916.4    334.3   0.151880044   1.67135   0.72286   0.04952   1.07068
  24   30050.5    332.8   0.019725125   0.21609  -0.46354  -0.00683  -0.03431
  25   30576.9    327.0   0.027700303   0.29824   0.51006  -0.03914   0.19118
  26   30630.0    326.5   0.114211125   1.22754  -0.34754  -0.30011  -1.00831
  27   30775.1    324.9   0.101229138   1.08288  -0.98994   0.16972   0.27222
  28   31080.8    321.7   0.028650972   0.30348   0.04300   0.02730  -0.54853
  29   31545.2    317.0   0.116329760   1.21404  -0.54899  -0.35640  -0.88636
  30   31596.3    316.5   0.009878741   0.10293  -0.23246   0.18481   0.12139
  31   31940.4    313.1   0.328261616   3.38342  -0.36912  -0.21067  -1.78963
  32   31964.1    312.9   0.033752375   0.34763   0.48038   0.02717   0.34078
  33   32108.1    311.4   0.086952530   0.89154  -0.15640  -0.46992  -0.80390
  34   32579.2    306.9   0.355822012   3.59557  -1.38057   0.89174   0.94572
  35   32712.6    305.7   0.085541146   0.86086  -0.64357  -0.18453  -0.64236
  36   33198.0    301.2   0.115190440   1.14230  -0.84283   0.62177   0.21294
  37   33349.0    299.9   0.219627131   2.16810   1.26747   0.61517   0.42801
  38   33544.5    298.1   0.159697217   1.56730  -0.39274   0.73139   0.93708
  39   33805.7    295.8   0.109091659   1.06237  -0.91338  -0.06749  -0.47282
  40   33982.9    294.3   0.332609161   3.22218   1.78927  -0.10277  -0.10069
  41   34196.6    292.4   0.390025562   3.75479   1.45630  -1.13869   0.58083
  42   34300.9    291.5   0.054385497   0.52198  -0.55358   0.46423   0.00414
  43   34372.1    290.9   0.022388746   0.21444   0.26860  -0.27790  -0.25508
  44   34439.5    290.4   0.023495544   0.22460  -0.25544  -0.27857  -0.28592
  45   34686.2    288.3   0.045037844   0.42746   0.39299   0.43351  -0.29169
  46   35149.5    284.5   0.111241860   1.04190  -0.65567   0.66401   0.41362
  47   35259.5    283.6   0.098677421   0.92133  -0.70709   0.48277   0.43393
  48   35344.5    282.9   0.004507914   0.04199   0.16028  -0.11614  -0.05302
  49   35364.2    282.8   0.152053316   1.41549  -0.14528   0.47734   1.08006
  50   35440.3    282.2   0.042220661   0.39220  -0.46588   0.41834  -0.01189
  51   35501.1    281.7   0.002997298   0.02779   0.04059  -0.14756  -0.06613
  52   35734.9    279.8   0.006046797   0.05571  -0.09475   0.08740   0.19771
  53   35760.9    279.6   0.073379250   0.67552   0.50755  -0.58643  -0.27204
  54   36156.7    276.6   0.004822416   0.04391  -0.17691   0.10826  -0.02986
  55   36248.9    275.9   0.001183821   0.01075   0.09639  -0.03400   0.01743
  56   36362.3    275.0   0.022909591   0.20742   0.05065  -0.24418  -0.38108
  57   36659.0    272.8   0.041546115   0.37310  -0.14203  -0.22485  -0.54988
  58   36983.5    270.4   0.010171054   0.09054   0.26987  -0.07246   0.11162
  59   37023.8    270.1   0.009943624   0.08842   0.21661  -0.15319  -0.13428
  60   37286.6    268.2   0.039529692   0.34902   0.09076  -0.25043  -0.52732
  61   37449.6    267.0   0.031277443   0.27495   0.49207  -0.16245   0.08021
  62   37744.3    264.9   0.004878219   0.04255  -0.15696  -0.03270  -0.12978
  63   37912.6    263.8   0.017795041   0.15452   0.31762   0.16812   0.15928
  64   38086.3    262.6   0.010017742   0.08659  -0.27706  -0.08161  -0.05630
  65   38119.9    262.3   0.002885980   0.02492  -0.02582  -0.15460  -0.01886
  66   38403.0    260.4   0.012022263   0.10306   0.26225   0.15045   0.10794
  67   38540.0    259.5   0.010092909   0.08621  -0.05480  -0.15887   0.24077
  68   38792.3    257.8   0.114150830   0.96875  -0.72228   0.35582  -0.56607
  69   38943.6    256.8   0.023643599   0.19987   0.16016   0.12035   0.39967
  70   39014.6    256.3   0.065410965   0.55195   0.47012   0.31903  -0.47871
  71   39280.2    254.6   0.023928343   0.20055   0.24977  -0.08102   0.36277
  72   39756.2    251.5   0.043429842   0.35963   0.38490   0.42311   0.18018
  73   39878.6    250.8   0.010903699   0.09001  -0.03916  -0.06380  -0.29053
  74   40092.7    249.4   0.001816961   0.01492   0.01643  -0.04885   0.11074

FINAL SINGLE POINT ENERGY     -5835.312483062524

DIPOLE MOMENT
-------------
                                X             Y             Z
Electronic contribution:     10.63668      -4.47378      -2.53785
Nuclear contribution   :    -14.72600       6.06004      -1.75434
                        -----------------------------------------
Total Dipole Moment    :     -4.08932       1.58627      -4.29219
                        -----------------------------------------
Magnitude (a.u.)       :      6.13691
Magnitude (Debye)      :     15.59879

Rotational constants in cm-1:     0.001339     0.000147     0.000135
Rotational constants in MHz :    40.131364     4.398460     4.040004

                             ****ORCA TERMINATED NORMALLY****
TOTAL RUN TIME: 0 days 0 hours 26 minutes 40 seconds 896 msec
