                         Program Version 4.2.0 -  RELEASE  -
|  1> # ORCA input file
|  2> # SCF done       -172.530098786766          0.000982980262
|  3> ! CAM-B3LYP def2-SVP def2/J RIJCOSX Grid4 TightSCF
|  4> %maxcore 5000
|  5> %tddft
|  6>     Mode sTDDFT
|  7>     Ethresh 5.0
|  8>     maxcore 5000
|  9> end
| 10>
| 11> %pal
| 12>   nprocs 6
| 13>   end
| 14> * xyz 0 1
| 15>    C        5.17959         6.96030        -5.04861
| 16>    C        4.13039         7.73097        -5.46562
| 17>    F        4.18472         8.32812        -6.67142
| 18>    C        2.98531         7.92868        -4.68286
| 19>    C        2.91178         7.32992        -3.45569
| 20>    C        3.96463         6.52493        -2.97543
| 21>    C        5.12153         6.33824        -3.78642
| 22>    C        6.19517         5.54242        -3.32252
| 23>    C        6.10877         4.95309        -2.09066
| 24>    C        4.94273         5.12829        -1.29171
| 25>    C        3.89584         5.89609        -1.71114
| 26>    C        5.09016         4.35464        -0.04076
| 27>    O        4.32289         4.30638         0.89378
| 28>    C        6.35897         3.59612        -0.19773
| 29>    C        7.05171         4.11523        -1.35420
| 30>    C        8.40179         4.05856        -1.59863
| 31>    C        9.35190         3.44694        -0.75671
| 32>    N       10.20285         3.01800        -0.11516
| 33>    C        9.03299         4.67576        -2.69486
| 34>    N        9.61779         5.12642        -3.57523
| 35>    C        6.65553         2.56910         0.64881
| 36>    C        7.57940         1.50860         0.43381
| 37>    C        7.90887         1.01664        -0.82847
| 38>    C        8.83137         0.00624        -1.02545
| 39>    C        9.54760        -0.58697         0.01874
| 40>    C        9.17252        -0.17807         1.33263
| 41>    C        8.18261         0.85036         1.54003
| 42>    N        7.94553         1.13846         2.81034
| 43>   Se        8.94857         0.13028         3.82970
| 44>    N        9.68007        -0.67195         2.45113
| 45>    C       10.60578        -1.53008        -0.19619
| 46>    C       11.17874        -1.71359        -1.43992
| 47>    C       12.21569        -2.58381        -1.74086
| 48>    C       12.73862        -3.50603        -0.72666
| 49>    C       12.34443        -3.48685         0.56545
| 50>    S       11.18195        -2.40404         1.21616
| 51>    C       13.66849        -4.33408        -1.40985
| 52>    C       13.73293        -3.95576        -2.75378
| 53>    C       14.64734        -4.74682        -3.48716
| 54>    C       15.23622        -5.68388        -2.70209
| 55>    S       14.71510        -5.64610        -1.04686
| 56>    C       12.85800        -2.84130        -2.97708
| 57>    C       12.73266        -2.20514        -4.23513
| 58>    C       12.23677        -0.96586        -4.49071
| 59>    C       12.09681        -0.44151        -5.80395
| 60>    C       11.62968         0.77449        -6.27232
| 61>    O       11.20640         1.88460        -5.63696
| 62>    C       11.33301         2.05143        -4.24765
| 63>    C       11.58676         0.85726        -7.70961
| 64>    O       11.19017         2.04170        -8.22319
| 65>    C       10.88091         2.12859        -9.59344
| 66>    C       12.03558        -0.27224        -8.33352
| 67>    S       12.50344        -1.47569        -7.16406
| 68>    C       12.13239        -0.64726        -9.74858
| 69>    C       13.34717        -0.78392       -10.33763
| 70>    O       13.51912        -1.20011       -11.60380
| 71>    C       12.43662        -1.55037       -12.34258
| 72>    C       12.66105        -2.00267       -13.64327
| 73>    C       11.59089        -2.37013       -14.42872
| 74>    C       10.29054        -2.29382       -13.93539
| 75>    C       10.06763        -1.84807       -12.65339
| 76>    C       11.13678        -1.46776       -11.83773
| 77>    C       10.89970        -0.98939       -10.46771
| 78>    O        9.78467        -0.88551        -9.98401
| 79>    C       14.63946        -0.47901        -9.65127
| 80>    H        6.04732         6.83200        -5.67666
| 81>    H        2.18854         8.54727        -5.06436
| 82>    H        2.03946         7.46715        -2.83453
| 83>    H        7.05558         5.41035        -3.95959
| 84>    H        3.02372         6.02291        -1.08743
| 85>    H        6.09185         2.53340         1.57476
| 86>    H        7.39741         1.42160        -1.69028
| 87>    H        8.99038        -0.32940        -2.03824
| 88>    H       10.77567        -1.13041        -2.25187
| 89>    H       12.75822        -4.15939         1.30078
| 90>    H       14.85637        -4.63234        -4.53528
| 91>    H       15.96454        -6.41793        -2.98656
| 92>    H       13.11025        -2.77311        -5.07748
| 93>    H       11.95276        -0.33024        -3.66983
| 94>    H       11.07654         3.09472        -4.06161
| 95>    H       12.35482         1.86407        -3.90580
| 96>    H       10.63294         1.41407        -3.69724
| 97>    H       11.75721         1.92714       -10.21867
| 98>    H       10.55220         3.15439        -9.75162
| 99>    H       10.07502         1.44140        -9.86044
|100>    H       13.67494        -2.05682       -14.00716
|101>    H       11.76425        -2.72086       -15.43474
|102>    H        9.46092        -2.58501       -14.56098
|103>    H        9.07301        -1.77747       -12.23966
|104>    H       14.90885        -1.29772        -8.98510
|105>    H       14.54928         0.42426        -9.05277
|106>    H       15.42462        -0.35792       -10.39278
|107> *
|108>
|109>                          ****END OF INPUT****

CARTESIAN COORDINATES (ANGSTROEM)
---------------------------------
  C      5.179590    6.960300   -5.048610
  C      4.130390    7.730970   -5.465620
  F      4.184720    8.328120   -6.671420
  C      2.985310    7.928680   -4.682860
  C      2.911780    7.329920   -3.455690
  C      3.964630    6.524930   -2.975430
  C      5.121530    6.338240   -3.786420
  C      6.195170    5.542420   -3.322520
  C      6.108770    4.953090   -2.090660
  C      4.942730    5.128290   -1.291710
  C      3.895840    5.896090   -1.711140
  C      5.090160    4.354640   -0.040760
  O      4.322890    4.306380    0.893780
  C      6.358970    3.596120   -0.197730
  C      7.051710    4.115230   -1.354200
  C      8.401790    4.058560   -1.598630
  C      9.351900    3.446940   -0.756710
  N     10.202850    3.018000   -0.115160
  C      9.032990    4.675760   -2.694860
  N      9.617790    5.126420   -3.575230
  C      6.655530    2.569100    0.648810
  C      7.579400    1.508600    0.433810
  C      7.908870    1.016640   -0.828470
  C      8.831370    0.006240   -1.025450
  C      9.547600   -0.586970    0.018740
  C      9.172520   -0.178070    1.332630
  C      8.182610    0.850360    1.540030
  N      7.945530    1.138460    2.810340
  Se     8.948570    0.130280    3.829700
  N      9.680070   -0.671950    2.451130
  C     10.605780   -1.530080   -0.196190
  C     11.178740   -1.713590   -1.439920
  C     12.215690   -2.583810   -1.740860
  C     12.738620   -3.506030   -0.726660
  C     12.344430   -3.486850    0.565450
  S     11.181950   -2.404040    1.216160
  C     13.668490   -4.334080   -1.409850
  C     13.732930   -3.955760   -2.753780
  C     14.647340   -4.746820   -3.487160
  C     15.236220   -5.683880   -2.702090
  S     14.715100   -5.646100   -1.046860
  C     12.858000   -2.841300   -2.977080
  C     12.732660   -2.205140   -4.235130
  C     12.236770   -0.965860   -4.490710
  C     12.096810   -0.441510   -5.803950
  C     11.629680    0.774490   -6.272320
  O     11.206400    1.884600   -5.636960
  C     11.333010    2.051430   -4.247650
  C     11.586760    0.857260   -7.709610
  O     11.190170    2.041700   -8.223190
  C     10.880910    2.128590   -9.593440
  C     12.035580   -0.272240   -8.333520
  S     12.503440   -1.475690   -7.164060
  C     12.132390   -0.647260   -9.748580
  C     13.347170   -0.783920  -10.337630
  O     13.519120   -1.200110  -11.603800
  C     12.436620   -1.550370  -12.342580
  C     12.661050   -2.002670  -13.643270
  C     11.590890   -2.370130  -14.428720
  C     10.290540   -2.293820  -13.935390
  C     10.067630   -1.848070  -12.653390
  C     11.136780   -1.467760  -11.837730
  C     10.899700   -0.989390  -10.467710
  O      9.784670   -0.885510   -9.984010
  C     14.639460   -0.479010   -9.651270
  H      6.047320    6.832000   -5.676660
  H      2.188540    8.547270   -5.064360
  H      2.039460    7.467150   -2.834530
  H      7.055580    5.410350   -3.959590
  H      3.023720    6.022910   -1.087430
  H      6.091850    2.533400    1.574760
  H      7.397410    1.421600   -1.690280
  H      8.990380   -0.329400   -2.038240
  H     10.775670   -1.130410   -2.251870
  H     12.758220   -4.159390    1.300780
  H     14.856370   -4.632340   -4.535280
  H     15.964540   -6.417930   -2.986560
  H     13.110250   -2.773110   -5.077480
  H     11.952760   -0.330240   -3.669830
  H     11.076540    3.094720   -4.061610
  H     12.354820    1.864070   -3.905800
  H     10.632940    1.414070   -3.697240
  H     11.757210    1.927140  -10.218670
  H     10.552200    3.154390   -9.751620
  H     10.075020    1.441400   -9.860440
  H     13.674940   -2.056820  -14.007160
  H     11.764250   -2.720860  -15.434740
  H      9.460920   -2.585010  -14.560980
  H      9.073010   -1.777470  -12.239660
  H     14.908850   -1.297720   -8.985100
  H     14.549280    0.424260   -9.052770
  H     15.424620   -0.357920  -10.392780

 Total Charge           Charge          ....    0
 Multiplicity           Mult            ....    1
 Number of Electrons    NEL             ....  492
 Basis Dimension        Dim             .... 1075

ORBITAL ENERGIES
----------------

  NO   OCC          E(Eh)            E(eV)
   0   2.0000    -453.977686    -12353.3609
   1   2.0000     -88.957485     -2420.6562
   2   2.0000     -88.950483     -2420.4657
   3   2.0000     -88.932566     -2419.9781
   4   2.0000     -58.191487     -1583.4709
   5   2.0000     -52.262183     -1422.1263
   6   2.0000     -52.259879     -1422.0636
   7   2.0000     -52.259318     -1422.0483
   8   2.0000     -24.781737      -674.3454
   9   2.0000     -19.296998      -525.0980
  10   2.0000     -19.236563      -523.4535
  11   2.0000     -19.227310      -523.2017
  12   2.0000     -19.205652      -522.6123
  13   2.0000     -19.182206      -521.9744
  14   2.0000     -14.436449      -392.8357
  15   2.0000     -14.431879      -392.7114
  16   2.0000     -14.413047      -392.1989
  17   2.0000     -14.410332      -392.1251
  18   2.0000     -10.365243      -282.0526
  19   2.0000     -10.361732      -281.9571
  20   2.0000     -10.357552      -281.8433
  21   2.0000     -10.350799      -281.6596
  22   2.0000     -10.346301      -281.5372
  23   2.0000     -10.337001      -281.2841
  24   2.0000     -10.335945      -281.2554
  25   2.0000     -10.326162      -280.9892
  26   2.0000     -10.325156      -280.9618
  27   2.0000     -10.322877      -280.8998
  28   2.0000     -10.318964      -280.7933
  29   2.0000     -10.316687      -280.7313
  30   2.0000     -10.313283      -280.6387
  31   2.0000     -10.312420      -280.6152
  32   2.0000     -10.311589      -280.5926
  33   2.0000     -10.310616      -280.5661
  34   2.0000     -10.310303      -280.5576
  35   2.0000     -10.307945      -280.4935
  36   2.0000     -10.301646      -280.3220
  37   2.0000     -10.300868      -280.3009
  38   2.0000     -10.300210      -280.2830
  39   2.0000     -10.296762      -280.1891
  40   2.0000     -10.295608      -280.1577
  41   2.0000     -10.294648      -280.1316
  42   2.0000     -10.294014      -280.1144
  43   2.0000     -10.293609      -280.1033
  44   2.0000     -10.292740      -280.0797
  45   2.0000     -10.291066      -280.0341
  46   2.0000     -10.290532      -280.0196
  47   2.0000     -10.290259      -280.0122
  48   2.0000     -10.288263      -279.9579
  49   2.0000     -10.285796      -279.8907
  50   2.0000     -10.285672      -279.8874
  51   2.0000     -10.285498      -279.8826
  52   2.0000     -10.285003      -279.8692
  53   2.0000     -10.284714      -279.8613
  54   2.0000     -10.284696      -279.8608
  55   2.0000     -10.284340      -279.8511
  56   2.0000     -10.282304      -279.7957
  57   2.0000     -10.281984      -279.7870
  58   2.0000     -10.280004      -279.7331
  59   2.0000     -10.279441      -279.7178
  60   2.0000     -10.278720      -279.6982
  61   2.0000     -10.275775      -279.6180
  62   2.0000     -10.275549      -279.6119
  63   2.0000     -10.275334      -279.6060
  64   2.0000     -10.274371      -279.5799
  65   2.0000     -10.273055      -279.5440
  66   2.0000     -10.269715      -279.4531
  67   2.0000     -10.265676      -279.3432
  68   2.0000     -10.264990      -279.3246
  69   2.0000      -8.051831      -219.1015
  70   2.0000      -8.045952      -218.9415
  71   2.0000      -8.027833      -218.4484
  72   2.0000      -7.967144      -216.7970
  73   2.0000      -6.021524      -163.8540
  74   2.0000      -6.016683      -163.7223
  75   2.0000      -6.015438      -163.6884
  76   2.0000      -6.013607      -163.6386
  77   2.0000      -6.011169      -163.5722
  78   2.0000      -6.007895      -163.4831
  79   2.0000      -5.997487      -163.1999
  80   2.0000      -5.993646      -163.0954
  81   2.0000      -5.988928      -162.9670
  82   2.0000      -5.917407      -161.0208
  83   2.0000      -5.910755      -160.8398
  84   2.0000      -5.906771      -160.7314
  85   2.0000      -2.271529       -61.8114
  86   2.0000      -2.270894       -61.7942
  87   2.0000      -2.266200       -61.6664
  88   2.0000      -2.261080       -61.5271
  89   2.0000      -2.260922       -61.5228
  90   2.0000      -1.296169       -35.2705
  91   2.0000      -1.210511       -32.9397
  92   2.0000      -1.148300       -31.2468
  93   2.0000      -1.125627       -30.6299
  94   2.0000      -1.120592       -30.4929
  95   2.0000      -1.100719       -29.9521
  96   2.0000      -1.089797       -29.6549
  97   2.0000      -1.015007       -27.6198
  98   2.0000      -0.998076       -27.1590
  99   2.0000      -0.996348       -27.1120
 100   2.0000      -0.990622       -26.9562
 101   2.0000      -0.978391       -26.6234
 102   2.0000      -0.972957       -26.4755
 103   2.0000      -0.966038       -26.2872
 104   2.0000      -0.964162       -26.2362
 105   2.0000      -0.960835       -26.1457
 106   2.0000      -0.948947       -25.8221
 107   2.0000      -0.922777       -25.1100
 108   2.0000      -0.918533       -24.9945
 109   2.0000      -0.912773       -24.8378
 110   2.0000      -0.899672       -24.4813
 111   2.0000      -0.888751       -24.1841
 112   2.0000      -0.881629       -23.9903
 113   2.0000      -0.875982       -23.8367
 114   2.0000      -0.869008       -23.6469
 115   2.0000      -0.863776       -23.5045
 116   2.0000      -0.850890       -23.1539
 117   2.0000      -0.849454       -23.1148
 118   2.0000      -0.838189       -22.8083
 119   2.0000      -0.833729       -22.6869
 120   2.0000      -0.828793       -22.5526
 121   2.0000      -0.827663       -22.5219
 122   2.0000      -0.811953       -22.0944
 123   2.0000      -0.802802       -21.8453
 124   2.0000      -0.799754       -21.7624
 125   2.0000      -0.785309       -21.3694
 126   2.0000      -0.776034       -21.1170
 127   2.0000      -0.760291       -20.6886
 128   2.0000      -0.754462       -20.5300
 129   2.0000      -0.750506       -20.4223
 130   2.0000      -0.743287       -20.2259
 131   2.0000      -0.736105       -20.0304
 132   2.0000      -0.721944       -19.6451
 133   2.0000      -0.719676       -19.5834
 134   2.0000      -0.715087       -19.4585
 135   2.0000      -0.707301       -19.2466
 136   2.0000      -0.704895       -19.1812
 137   2.0000      -0.695496       -18.9254
 138   2.0000      -0.685511       -18.6537
 139   2.0000      -0.681538       -18.5456
 140   2.0000      -0.673198       -18.3187
 141   2.0000      -0.666102       -18.1256
 142   2.0000      -0.657499       -17.8914
 143   2.0000      -0.646532       -17.5930
 144   2.0000      -0.643849       -17.5200
 145   2.0000      -0.635429       -17.2909
 146   2.0000      -0.632269       -17.2049
 147   2.0000      -0.625730       -17.0270
 148   2.0000      -0.624604       -16.9963
 149   2.0000      -0.618491       -16.8300
 150   2.0000      -0.608949       -16.5703
 151   2.0000      -0.607978       -16.5439
 152   2.0000      -0.602761       -16.4020
 153   2.0000      -0.592945       -16.1348
 154   2.0000      -0.588001       -16.0003
 155   2.0000      -0.584185       -15.8965
 156   2.0000      -0.581685       -15.8285
 157   2.0000      -0.578766       -15.7490
 158   2.0000      -0.575348       -15.6560
 159   2.0000      -0.570570       -15.5260
 160   2.0000      -0.565070       -15.3763
 161   2.0000      -0.562060       -15.2944
 162   2.0000      -0.557457       -15.1692
 163   2.0000      -0.556049       -15.1309
 164   2.0000      -0.554020       -15.0757
 165   2.0000      -0.549399       -14.9499
 166   2.0000      -0.547901       -14.9092
 167   2.0000      -0.543719       -14.7954
 168   2.0000      -0.541986       -14.7482
 169   2.0000      -0.535016       -14.5585
 170   2.0000      -0.533260       -14.5107
 171   2.0000      -0.531273       -14.4567
 172   2.0000      -0.529002       -14.3949
 173   2.0000      -0.526059       -14.3148
 174   2.0000      -0.524861       -14.2822
 175   2.0000      -0.519248       -14.1295
 176   2.0000      -0.518766       -14.1163
 177   2.0000      -0.515541       -14.0286
 178   2.0000      -0.511265       -13.9122
 179   2.0000      -0.509733       -13.8705
 180   2.0000      -0.504477       -13.7275
 181   2.0000      -0.502489       -13.6734
 182   2.0000      -0.501404       -13.6439
 183   2.0000      -0.500097       -13.6083
 184   2.0000      -0.499200       -13.5839
 185   2.0000      -0.497523       -13.5383
 186   2.0000      -0.493874       -13.4390
 187   2.0000      -0.485839       -13.2204
 188   2.0000      -0.484996       -13.1974
 189   2.0000      -0.484366       -13.1803
 190   2.0000      -0.479712       -13.0536
 191   2.0000      -0.477095       -12.9824
 192   2.0000      -0.475268       -12.9327
 193   2.0000      -0.467600       -12.7240
 194   2.0000      -0.466428       -12.6921
 195   2.0000      -0.464828       -12.6486
 196   2.0000      -0.463360       -12.6087
 197   2.0000      -0.462145       -12.5756
 198   2.0000      -0.458971       -12.4892
 199   2.0000      -0.457660       -12.4536
 200   2.0000      -0.452968       -12.3259
 201   2.0000      -0.452306       -12.3079
 202   2.0000      -0.450303       -12.2534
 203   2.0000      -0.448497       -12.2042
 204   2.0000      -0.444291       -12.0898
 205   2.0000      -0.443785       -12.0760
 206   2.0000      -0.443003       -12.0547
 207   2.0000      -0.439852       -11.9690
 208   2.0000      -0.438083       -11.9209
 209   2.0000      -0.435204       -11.8425
 210   2.0000      -0.433845       -11.8055
 211   2.0000      -0.426745       -11.6123
 212   2.0000      -0.424255       -11.5446
 213   2.0000      -0.423011       -11.5107
 214   2.0000      -0.422391       -11.4939
 215   2.0000      -0.419283       -11.4093
 216   2.0000      -0.415004       -11.2928
 217   2.0000      -0.414138       -11.2693
 218   2.0000      -0.408989       -11.1291
 219   2.0000      -0.405130       -11.0242
 220   2.0000      -0.401373       -10.9219
 221   2.0000      -0.391148       -10.6437
 222   2.0000      -0.389220       -10.5912
 223   2.0000      -0.387146       -10.5348
 224   2.0000      -0.384707       -10.4684
 225   2.0000      -0.380936       -10.3658
 226   2.0000      -0.377188       -10.2638
 227   2.0000      -0.375372       -10.2144
 228   2.0000      -0.369741       -10.0612
 229   2.0000      -0.353649        -9.6233
 230   2.0000      -0.345562        -9.4032
 231   2.0000      -0.344027        -9.3615
 232   2.0000      -0.335527        -9.1301
 233   2.0000      -0.329177        -8.9574
 234   2.0000      -0.327537        -8.9127
 235   2.0000      -0.325680        -8.8622
 236   2.0000      -0.325325        -8.8525
 237   2.0000      -0.317817        -8.6482
 238   2.0000      -0.309764        -8.4291
 239   2.0000      -0.301780        -8.2118
 240   2.0000      -0.296577        -8.0703
 241   2.0000      -0.287487        -7.8229
 242   2.0000      -0.279814        -7.6141
 243   2.0000      -0.260645        -7.0925
 244   2.0000      -0.258469        -7.0333
 245   2.0000      -0.210339        -5.7236
 246   0.0000      -0.102541        -2.7903
 247   0.0000      -0.066731        -1.8159
 248   0.0000      -0.044823        -1.2197
 249   0.0000      -0.035583        -0.9683
 250   0.0000      -0.018448        -0.5020

MULLIKEN ATOMIC CHARGES
-----------------------
   0 C :   -0.099632
   1 C :    0.304458
   2 F :   -0.192033
   3 C :   -0.028801
   4 C :   -0.011360
   5 C :    0.102572
   6 C :    0.102815
   7 C :   -0.089721
   8 C :    0.035058
   9 C :    0.016250
  10 C :   -0.087355
  11 C :    0.134294
  12 O :   -0.141204
  13 C :   -0.123636
  14 C :    0.276000
  15 C :   -0.354621
  16 C :   -0.203947
  17 N :    0.172679
  18 C :   -0.145924
  19 N :    0.125087
  20 C :    0.032269
  21 C :    0.002866
  22 C :    0.004853
  23 C :   -0.070718
  24 C :    0.160230
  25 C :    0.000188
  26 C :    0.047008
  27 N :   -0.268063
  28 Se:    0.537793
  29 N :   -0.319318
  30 C :   -0.087539
  31 C :   -0.049154
  32 C :    0.043285
  33 C :    0.058372
  34 C :   -0.119156
  35 S :    0.162389
  36 C :   -0.099881
  37 C :    0.043514
  38 C :    0.012063
  39 C :   -0.070455
  40 S :    0.123428
  41 C :    0.111694
  42 C :   -0.067287
  43 C :    0.010925
  44 C :   -0.177361
  45 C :    0.170485
  46 O :   -0.285657
  47 C :    0.180356
  48 C :    0.249215
  49 O :   -0.293565
  50 C :    0.184697
  51 C :   -0.272805
  52 S :    0.081734
  53 C :   -0.111408
  54 C :   -0.030944
  55 O :   -0.201911
  56 C :    0.184230
  57 C :   -0.036942
  58 C :    0.042741
  59 C :    0.038557
  60 C :   -0.008885
  61 C :   -0.059566
  62 C :    0.183345
  63 O :   -0.188562
  64 C :    0.142406
  65 H :   -0.002040
  66 H :    0.002240
  67 H :   -0.009633
  68 H :   -0.002599
  69 H :   -0.012320
  70 H :    0.032976
  71 H :   -0.000681
  72 H :   -0.006015
  73 H :   -0.037610
  74 H :    0.029086
  75 H :   -0.016045
  76 H :    0.024818
  77 H :   -0.014524
  78 H :   -0.030679
  79 H :    0.046472
  80 H :    0.029675
  81 H :    0.009955
  82 H :    0.011702
  83 H :    0.026661
  84 H :    0.042733
  85 H :   -0.016145
  86 H :   -0.003751
  87 H :   -0.008777
  88 H :    0.000063
  89 H :    0.044840
  90 H :    0.051802
  91 H :    0.027352
Sum of atomic charges:   -0.0000000

LOEWDIN ATOMIC CHARGES
----------------------
   0 C :   -0.041727
   1 C :    0.092706
   2 F :   -0.066795
   3 C :   -0.037420
   4 C :    0.004025
   5 C :   -0.018259
   6 C :    0.002674
   7 C :    0.010331
   8 C :   -0.018615
   9 C :   -0.057835
  10 C :    0.032476
  11 C :    0.081233
  12 O :   -0.144735
  13 C :   -0.099572
  14 C :    0.069168
  15 C :   -0.147816
  16 C :   -0.017243
  17 N :   -0.053512
  18 C :   -0.013884
  19 N :   -0.060344
  20 C :    0.093512
  21 C :   -0.067055
  22 C :    0.023351
  23 C :   -0.030537
  24 C :   -0.007102
  25 C :   -0.039430
  26 C :   -0.024071
  27 N :   -0.250485
  28 Se:    0.575936
  29 N :   -0.260896
  30 C :   -0.178278
  31 C :    0.006019
  32 C :   -0.034903
  33 C :   -0.058693
  34 C :   -0.144319
  35 S :    0.486853
  36 C :   -0.192844
  37 C :   -0.045081
  38 C :   -0.061262
  39 C :   -0.165926
  40 S :    0.417059
  41 C :   -0.028219
  42 C :   -0.046685
  43 C :   -0.036608
  44 C :   -0.216745
  45 C :    0.018048
  46 O :   -0.078617
  47 C :    0.077076
  48 C :    0.013791
  49 O :   -0.091626
  50 C :    0.074432
  51 C :   -0.210551
  52 S :    0.401876
  53 C :   -0.146118
  54 C :    0.089070
  55 O :   -0.002025
  56 C :    0.063469
  57 C :   -0.039728
  58 C :   -0.000225
  59 C :   -0.030142
  60 C :    0.021204
  61 C :   -0.085784
  62 C :    0.068811
  63 O :   -0.184670
  64 C :   -0.052759
  65 H :    0.043271
  66 H :    0.041452
  67 H :    0.035455
  68 H :    0.039347
  69 H :    0.039331
  70 H :    0.050114
  71 H :    0.036578
  72 H :    0.031760
  73 H :    0.032833
  74 H :    0.033722
  75 H :    0.030697
  76 H :    0.022457
  77 H :    0.018663
  78 H :    0.025986
  79 H :    0.031518
  80 H :    0.018144
  81 H :    0.008137
  82 H :    0.009943
  83 H :    0.025236
  84 H :    0.020244
  85 H :    0.035594
  86 H :    0.033278
  87 H :    0.031127
  88 H :    0.038654
  89 H :    0.045337
  90 H :    0.049496
  91 H :    0.037647

  Mayer bond orders larger than 0.100000
B(  0-C ,  1-C ) :   1.4418 B(  0-C ,  6-C ) :   1.2019 B(  0-C , 65-H ) :   1.0066
B(  1-C ,  2-F ) :   1.0869 B(  1-C ,  3-C ) :   1.2546 B(  3-C ,  4-C ) :   1.4592
B(  3-C , 66-H ) :   0.9932 B(  4-C ,  5-C ) :   1.2365 B(  4-C , 67-H ) :   0.9969
B(  5-C ,  6-C ) :   1.2563 B(  5-C , 10-C ) :   1.1883 B(  6-C ,  7-C ) :   1.2041
B(  7-C ,  8-C ) :   1.4592 B(  7-C , 68-H ) :   0.9948 B(  8-C ,  9-C ) :   1.2184
B(  8-C , 14-C ) :   0.9921 B(  9-C , 10-C ) :   1.4722 B(  9-C , 11-C ) :   0.9141
B( 10-C , 69-H ) :   1.0155 B( 11-C , 12-O ) :   2.2805 B( 11-C , 13-C ) :   0.9417
B( 13-C , 14-C ) :   1.0552 B( 13-C , 20-C ) :   1.6037 B( 14-C , 15-C ) :   1.6293
B( 15-C , 16-C ) :   1.1655 B( 15-C , 18-C ) :   1.1530 B( 16-C , 17-N ) :   3.0013
B( 18-C , 19-N ) :   2.8783 B( 20-C , 21-C ) :   1.1149 B( 20-C , 70-H ) :   0.9503
B( 21-C , 22-C ) :   1.3836 B( 21-C , 26-C ) :   1.1618 B( 22-C , 23-C ) :   1.2964
B( 22-C , 71-H ) :   0.9894 B( 23-C , 24-C ) :   1.3876 B( 23-C , 72-H ) :   0.9891
B( 24-C , 25-C ) :   1.1339 B( 24-C , 30-C ) :   1.1566 B( 25-C , 26-C ) :   1.1239
B( 25-C , 29-N ) :   1.5580 B( 26-C , 27-N ) :   1.6466 B( 27-N , 28-Se) :   1.2264
B( 27-N , 29-N ) :   0.1244 B( 28-Se, 29-N ) :   1.2235 B( 30-C , 31-C ) :   1.4621
B( 30-C , 35-S ) :   1.0560 B( 31-C , 32-C ) :   1.2836 B( 31-C , 73-H ) :   0.9607
B( 32-C , 33-C ) :   1.0499 B( 32-C , 41-C ) :   1.3369 B( 33-C , 34-C ) :   1.5893
B( 33-C , 36-C ) :   1.1847 B( 34-C , 35-S ) :   1.1348 B( 34-C , 74-H ) :   0.9406
B( 36-C , 37-C ) :   1.4161 B( 36-C , 40-S ) :   1.0785 B( 37-C , 38-C ) :   1.2087
B( 37-C , 41-C ) :   1.1327 B( 38-C , 39-C ) :   1.5982 B( 38-C , 75-H ) :   0.9969
B( 39-C , 40-S ) :   1.1408 B( 39-C , 76-H ) :   0.9666 B( 41-C , 42-C ) :   1.1534
B( 42-C , 43-C ) :   1.6139 B( 42-C , 77-H ) :   0.9565 B( 43-C , 44-C ) :   1.1614
B( 43-C , 78-H ) :   0.9703 B( 44-C , 45-C ) :   1.4603 B( 44-C , 51-C ) :   0.1173
B( 44-C , 52-S ) :   1.0572 B( 45-C , 46-O ) :   1.2292 B( 45-C , 48-C ) :   1.1781
B( 46-O , 47-C ) :   0.9453 B( 47-C , 79-H ) :   0.9644 B( 47-C , 80-H ) :   0.9603
B( 47-C , 81-H ) :   0.9649 B( 48-C , 49-O ) :   1.2285 B( 48-C , 51-C ) :   1.5862
B( 49-O , 50-C ) :   0.9476 B( 50-C , 82-H ) :   0.9618 B( 50-C , 83-H ) :   0.9759
B( 50-C , 84-H ) :   0.9633 B( 51-C , 52-S ) :   1.0707 B( 51-C , 53-C ) :   0.9293
B( 53-C , 54-C ) :   1.6058 B( 53-C , 62-C ) :   1.0345 B( 54-C , 55-O ) :   1.1516
B( 54-C , 64-C ) :   1.1127 B( 55-O , 56-C ) :   1.0820 B( 56-C , 57-C ) :   1.3513
B( 56-C , 61-C ) :   1.3354 B( 57-C , 58-C ) :   1.4147 B( 57-C , 85-H ) :   0.9956
B( 58-C , 59-C ) :   1.3265 B( 58-C , 86-H ) :   0.9897 B( 59-C , 60-C ) :   1.3988
B( 59-C , 87-H ) :   0.9949 B( 60-C , 61-C ) :   1.3381 B( 60-C , 88-H ) :   0.9978
B( 61-C , 62-C ) :   0.9688 B( 62-C , 63-O ) :   2.1732 B( 64-C , 89-H ) :   0.9285
B( 64-C , 90-H ) :   0.9363 B( 64-C , 91-H ) :   0.9380

-----------------------------------------------------------------------------
         ABSORPTION SPECTRUM VIA TRANSITION ELECTRIC DIPOLE MOMENTS
-----------------------------------------------------------------------------
State   Energy  Wavelength   fosc         T2         TX        TY        TZ
        (cm-1)    (nm)                  (au**2)     (au)      (au)      (au)
-----------------------------------------------------------------------------
   0    8892.4   1124.6   0.359027187  13.29175  -2.30750   2.21672   1.74740
   1   17232.5    580.3   0.168962703   3.22789  -0.36988  -0.70591   1.61021
   2   18753.7    533.2   0.373811410   6.56208   1.26699  -2.15474   0.56028
   3   20637.3    484.6   0.099822193   1.59239  -0.18012  -0.30945   1.21003
   4   21198.5    471.7   0.010270949   0.15951   0.12634  -0.24422  -0.28966
   5   23343.4    428.4   0.061402331   0.86596   0.54099  -0.12742  -0.74636
   6   24288.0    411.7   0.150898389   2.04535  -0.25206  -0.69067   1.22670
   7   24493.0    408.3   0.074907628   1.00684   0.94635  -0.32160  -0.08851
   8   25380.7    394.0   0.253569749   3.28904  -0.52801   1.01716  -1.40557
   9   26131.3    382.7   0.077268687   0.97346  -0.10133   0.49208  -0.84915
  10   26884.4    372.0   0.005587238   0.06842  -0.03206   0.16593  -0.19964
  11   28060.9    356.4   0.077593778   0.91033  -0.84212   0.44774  -0.02630
  12   28258.8    353.9   0.003130995   0.03648  -0.04232  -0.10951   0.15064
  13   29139.0    343.2   0.091673824   1.03573   0.79786  -0.52485   0.35169
  14   29459.6    339.4   0.013086137   0.14624   0.03632   0.16475   0.34319
  15   30025.3    333.1   0.000434955   0.00477   0.00459  -0.04039   0.05582
  16   30793.6    324.7   0.020001094   0.21383  -0.08761  -0.42948  -0.14732
  17   31151.8    321.0   0.210161110   2.22098  -0.92004   0.95856  -0.67503
  18   31489.7    317.6   0.411706989   4.30423   0.30313  -1.01161   1.78578
  19   32358.7    309.0   0.170405673   1.73368  -1.00902   0.53409   0.65597
  20   32723.6    305.6   0.007498262   0.07544   0.19878  -0.18953   0.00120
  21   32901.0    303.9   0.379428916   3.79662  -0.95372   0.85040  -1.47100
  22   32991.0    303.1   0.174041657   1.73673  -1.06906   0.63134  -0.44189
  23   33223.4    301.0   0.174813070   1.73223  -0.64580   0.75944  -0.85931
  24   33465.6    298.8   0.015382815   0.15133   0.14939  -0.35910   0.00721
  25   33995.7    294.2   0.121033548   1.17208  -0.59304   0.55595  -0.71505
  26   34013.2    294.0   0.041450219   0.40119  -0.22530  -0.02942   0.59124
  27   34264.0    291.9   0.072515820   0.69674  -0.32029   0.76180  -0.11753
  28   34708.7    288.1   0.000995035   0.00944   0.01857   0.06910   0.06571
  29   34819.0    287.2   0.187580228   1.77356  -0.69987   0.88607  -0.70614
  30   35113.5    284.8   0.003263139   0.03059   0.15470  -0.07844  -0.02256
  31   35137.2    284.6   0.012423252   0.11640  -0.27449   0.20141   0.02214
  32   35668.5    280.4   0.034109673   0.31482   0.14480   0.42473  -0.33685
  33   36248.5    275.9   0.006338128   0.05756  -0.03386   0.11647   0.20701
  34   36402.2    274.7   0.021427403   0.19378  -0.05010   0.16017   0.40696
  35   36755.7    272.1   0.002753633   0.02466   0.08642  -0.11890  -0.05530
  36   36854.5    271.3   0.102327554   0.91407   0.75117  -0.23688  -0.54194
  37   37503.6    266.6   0.258246880   2.26693  -1.09347   1.03501  -0.00161
  38   37927.7    263.7   0.279234926   2.42376   1.47864  -0.44938   0.18828
  39   38121.2    262.3   0.027913310   0.24106   0.22260  -0.43607  -0.03672
  40   38343.8    260.8   0.084703994   0.72725   0.53975  -0.54323  -0.37527
  41   38915.8    257.0   0.204988281   1.73412  -1.00701   0.76085   0.37572
  42   39376.4    254.0   0.039720964   0.33209  -0.02517  -0.56940  -0.08511
  43   39495.0    253.2   0.019137278   0.15952  -0.11780  -0.15730   0.34770
  44   39599.5    252.5   0.043219070   0.35930  -0.39349   0.43573   0.12085
  45   39638.6    252.3   0.086120536   0.71526  -0.26076  -0.09766   0.79858
  46   39826.0    251.1   0.160629107   1.32780   0.61326  -0.91862  -0.32841
  47   40106.3    249.3   0.065899343   0.54093   0.31247  -0.29744   0.59567

FINAL SINGLE POINT ENERGY     -6246.810303895209

DIPOLE MOMENT
-------------
                                X             Y             Z
Electronic contribution:    -25.19467      -2.51557     136.12660
Nuclear contribution   :     25.56278       1.34270    -137.33304
                        -----------------------------------------
Total Dipole Moment    :      0.36811      -1.17287      -1.20644
                        -----------------------------------------
Magnitude (a.u.)       :      1.72239
Magnitude (Debye)      :      4.37796

Rotational constants in cm-1:     0.000889     0.000633     0.000388
Rotational constants in MHz :    26.656470    18.991053    11.622165

                             ****ORCA TERMINATED NORMALLY****
TOTAL RUN TIME: 0 days 0 hours 13 minutes 14 seconds 523 msec
