                         Program Version 4.2.0 -  RELEASE  -
|  1> # ORCA input file
|  2> # SCF done       -209.994518949502          0.000849967634
|  3> ! CAM-B3LYP def2-SVP def2/J RIJCOSX Grid4 TightSCF
|  4> %maxcore 5000
|  5> %tddft
|  6>     Mode sTDDFT
|  7>     Ethresh 5.0
|  8>     maxcore 5000
|  9> end
| 10>
| 11> %pal
| 12>   nprocs 6
| 13>   end
| 14> * xyz 0 1
| 15>    C        5.06900         6.59264         4.17602
| 16>    C        4.06239         7.51674         4.13338
| 17>    F        4.20018         8.67668         4.80082
| 18>    C        2.87818         7.30585         3.41406
| 19>    C        2.72094         6.13347         2.72862
| 20>    C        3.72722         5.14591         2.73758
| 21>    C        4.92354         5.37862         3.47700
| 22>    C        5.94339         4.39890         3.50877
| 23>    C        5.77190         3.22937         2.81919
| 24>    C        4.58123         3.00987         2.06762
| 25>    C        3.57760         3.93393         2.02698
| 26>    C        4.66664         1.70278         1.38811
| 27>    O        3.82822         1.16262         0.70475
| 28>    C        6.04399         1.20714         1.66992
| 29>    C        6.61579         2.04271         2.70364
| 30>    C        7.60463         1.68636         3.58431
| 31>    C        8.17918         0.39898         3.61479
| 32>    N        8.62907        -0.65321         3.69855
| 33>    C        8.11135         2.53793         4.58361
| 34>    N        8.58592         3.21446         5.38134
| 35>    C        6.55667         0.21681         0.88905
| 36>    C        7.90889        -0.14672         0.68158
| 37>    C        9.05077         0.57362         0.93064
| 38>    C       10.23677        -0.07569         0.53785
| 39>    C       11.56548         0.37199         0.71590
| 40>    C       11.88044         1.57064         1.46163
| 41>    C       12.88210         2.47472         1.23954
| 42>    C       12.92684         3.48885         2.21790
| 43>    C       11.98378         3.37488         3.20042
| 44>    S       11.00056         1.98517         2.91278
| 45>    C       11.76388         4.25121         4.37812
| 46>   Cl       14.07551         4.76919         2.17751
| 47>    C       12.56021        -0.43366         0.17369
| 48>    C       12.29661        -1.66277        -0.48322
| 49>    C       10.97776        -2.14987        -0.58291
| 50>    C        9.97482        -1.32272        -0.08744
| 51>    S        8.27222        -1.66656        -0.11221
| 52>    C       10.66751        -3.45397        -1.13224
| 53>    C        9.59191        -3.81570        -1.89201
| 54>    C        9.56818        -5.19681        -2.18286
| 55>    C       10.60260        -5.90660        -1.64620
| 56>    S       11.65001        -4.84801        -0.76496
| 57>    C       10.87851        -7.36264        -1.73301
| 58>   Cl        8.32613        -5.91208        -3.13676
| 59>    C       13.48125        -2.25578        -0.98243
| 60>    C       14.61431        -1.55750        -0.68773
| 61>    S       14.27068        -0.10934         0.23418
| 62>    C       15.96271        -1.87377        -1.07093
| 63>    C       16.26191        -2.63841        -2.20893
| 64>    N       17.48626        -2.92009        -2.57731
| 65>    C       18.48736        -2.45686        -1.81319
| 66>    N       18.31070        -1.72021        -0.70365
| 67>    C       17.08481        -1.43121        -0.35227
| 68>    C       19.83177        -2.74214        -2.17933
| 69>    C       20.34462        -3.32805        -3.34563
| 70>    C       21.76858        -3.40482        -3.32995
| 71>    C       22.44342        -3.95890        -4.43306
| 72>    C       21.72185        -4.41118        -5.50329
| 73>    C       20.31702        -4.33202        -5.51644
| 74>    C       19.62845        -3.80156        -4.46120
| 75>    C       22.32755        -2.90009        -2.13788
| 76>    S       21.09008        -2.30738        -1.08167
| 77>    C       23.69436        -2.87758        -1.79419
| 78>    C       24.18837        -2.53694        -0.57494
| 79>    C       25.55906        -2.54459        -0.24208
| 80>    S       26.82742        -2.84478        -1.41412
| 81>    C       28.09841        -2.70766        -0.23473
| 82>    C       27.55671        -2.44661         1.01830
| 83>    C       26.13706        -2.35109         0.99836
| 84>    S       25.47608        -2.04533         2.57190
| 85>    C       27.09492        -2.05351         3.24252
| 86>    C       27.28916        -1.86248         4.68035
| 87>    O       28.36836        -1.85833         5.22224
| 88>    O       26.11742        -1.71129         5.30903
| 89>    C       26.16072        -1.51788         6.72171
| 90>    C       26.43890        -0.06479         7.07802
| 91>    C       28.07698        -2.26773         2.32367
| 92>    C       29.47987        -2.85284        -0.56722
| 93>    C       29.94919        -3.08607        -1.79394
| 94>    H        5.96565         6.78790         4.74322
| 95>    H        2.11861         8.07138         3.41694
| 96>    H        1.81768         5.94781         2.16721
| 97>    H        6.84082         4.60268         4.07134
| 98>    H        2.67987         3.74357         1.45818
| 99>    H        5.82591        -0.31331         0.28574
|100>    H        9.03069         1.57292         1.32442
|101>    H       13.54342         2.44985         0.39369
|102>    H       11.80706         5.29775         4.07896
|103>    H       12.54294         4.08443         5.12324
|104>    H       10.79904         4.04340         4.83509
|105>    H        8.85738        -3.12798        -2.26714
|106>    H       10.20145        -7.82146        -2.44925
|107>    H       10.73547        -7.83774        -0.76219
|108>    H       11.90609        -7.54192        -2.04529
|109>    H       13.49394        -3.17492        -1.53758
|110>    H       15.47648        -3.01403        -2.85278
|111>    H       16.96770        -0.83063         0.54219
|112>    H       23.52068        -4.02235        -4.43090
|113>    H       22.23155        -4.83638        -6.35508
|114>    H       19.78151        -4.69900        -6.37940
|115>    H       18.55323        -3.73523        -4.45306
|116>    H       24.39169        -3.18232        -2.56388
|117>    H       23.51209        -2.26216         0.22439
|118>    H       26.93776        -2.16547         7.14200
|119>    H       25.17777        -1.83203         7.07853
|120>    H       27.42438         0.22268         6.71950
|121>    H       26.40843         0.05681         8.15681
|122>    H       25.69264         0.58325         6.62464
|123>    H       29.11774        -2.30197         2.58878
|124>    H       30.15912        -2.75713         0.26969
|125>    H       29.28646        -3.18284        -2.63807
|126>    H       31.00242        -3.18350        -1.98526
|127> *
|128>
|129>                          ****END OF INPUT****

CARTESIAN COORDINATES (ANGSTROEM)
---------------------------------
  C      5.069000    6.592640    4.176020
  C      4.062390    7.516740    4.133380
  F      4.200180    8.676680    4.800820
  C      2.878180    7.305850    3.414060
  C      2.720940    6.133470    2.728620
  C      3.727220    5.145910    2.737580
  C      4.923540    5.378620    3.477000
  C      5.943390    4.398900    3.508770
  C      5.771900    3.229370    2.819190
  C      4.581230    3.009870    2.067620
  C      3.577600    3.933930    2.026980
  C      4.666640    1.702780    1.388110
  O      3.828220    1.162620    0.704750
  C      6.043990    1.207140    1.669920
  C      6.615790    2.042710    2.703640
  C      7.604630    1.686360    3.584310
  C      8.179180    0.398980    3.614790
  N      8.629070   -0.653210    3.698550
  C      8.111350    2.537930    4.583610
  N      8.585920    3.214460    5.381340
  C      6.556670    0.216810    0.889050
  C      7.908890   -0.146720    0.681580
  C      9.050770    0.573620    0.930640
  C     10.236770   -0.075690    0.537850
  C     11.565480    0.371990    0.715900
  C     11.880440    1.570640    1.461630
  C     12.882100    2.474720    1.239540
  C     12.926840    3.488850    2.217900
  C     11.983780    3.374880    3.200420
  S     11.000560    1.985170    2.912780
  C     11.763880    4.251210    4.378120
  Cl    14.075510    4.769190    2.177510
  C     12.560210   -0.433660    0.173690
  C     12.296610   -1.662770   -0.483220
  C     10.977760   -2.149870   -0.582910
  C      9.974820   -1.322720   -0.087440
  S      8.272220   -1.666560   -0.112210
  C     10.667510   -3.453970   -1.132240
  C      9.591910   -3.815700   -1.892010
  C      9.568180   -5.196810   -2.182860
  C     10.602600   -5.906600   -1.646200
  S     11.650010   -4.848010   -0.764960
  C     10.878510   -7.362640   -1.733010
  Cl     8.326130   -5.912080   -3.136760
  C     13.481250   -2.255780   -0.982430
  C     14.614310   -1.557500   -0.687730
  S     14.270680   -0.109340    0.234180
  C     15.962710   -1.873770   -1.070930
  C     16.261910   -2.638410   -2.208930
  N     17.486260   -2.920090   -2.577310
  C     18.487360   -2.456860   -1.813190
  N     18.310700   -1.720210   -0.703650
  C     17.084810   -1.431210   -0.352270
  C     19.831770   -2.742140   -2.179330
  C     20.344620   -3.328050   -3.345630
  C     21.768580   -3.404820   -3.329950
  C     22.443420   -3.958900   -4.433060
  C     21.721850   -4.411180   -5.503290
  C     20.317020   -4.332020   -5.516440
  C     19.628450   -3.801560   -4.461200
  C     22.327550   -2.900090   -2.137880
  S     21.090080   -2.307380   -1.081670
  C     23.694360   -2.877580   -1.794190
  C     24.188370   -2.536940   -0.574940
  C     25.559060   -2.544590   -0.242080
  S     26.827420   -2.844780   -1.414120
  C     28.098410   -2.707660   -0.234730
  C     27.556710   -2.446610    1.018300
  C     26.137060   -2.351090    0.998360
  S     25.476080   -2.045330    2.571900
  C     27.094920   -2.053510    3.242520
  C     27.289160   -1.862480    4.680350
  O     28.368360   -1.858330    5.222240
  O     26.117420   -1.711290    5.309030
  C     26.160720   -1.517880    6.721710
  C     26.438900   -0.064790    7.078020
  C     28.076980   -2.267730    2.323670
  C     29.479870   -2.852840   -0.567220
  C     29.949190   -3.086070   -1.793940
  H      5.965650    6.787900    4.743220
  H      2.118610    8.071380    3.416940
  H      1.817680    5.947810    2.167210
  H      6.840820    4.602680    4.071340
  H      2.679870    3.743570    1.458180
  H      5.825910   -0.313310    0.285740
  H      9.030690    1.572920    1.324420
  H     13.543420    2.449850    0.393690
  H     11.807060    5.297750    4.078960
  H     12.542940    4.084430    5.123240
  H     10.799040    4.043400    4.835090
  H      8.857380   -3.127980   -2.267140
  H     10.201450   -7.821460   -2.449250
  H     10.735470   -7.837740   -0.762190
  H     11.906090   -7.541920   -2.045290
  H     13.493940   -3.174920   -1.537580
  H     15.476480   -3.014030   -2.852780
  H     16.967700   -0.830630    0.542190
  H     23.520680   -4.022350   -4.430900
  H     22.231550   -4.836380   -6.355080
  H     19.781510   -4.699000   -6.379400
  H     18.553230   -3.735230   -4.453060
  H     24.391690   -3.182320   -2.563880
  H     23.512090   -2.262160    0.224390
  H     26.937760   -2.165470    7.142000
  H     25.177770   -1.832030    7.078530
  H     27.424380    0.222680    6.719500
  H     26.408430    0.056810    8.156810
  H     25.692640    0.583250    6.624640
  H     29.117740   -2.301970    2.588780
  H     30.159120   -2.757130    0.269690
  H     29.286460   -3.182840   -2.638070
  H     31.002420   -3.183500   -1.985260

 Total Charge           Charge          ....    0
 Multiplicity           Mult            ....    1
 Number of Electrons    NEL             ....  612
 Basis Dimension        Dim             .... 1307

ORBITAL ENERGIES
----------------

  NO   OCC          E(Eh)            E(eV)
   0   2.0000    -101.583555     -2764.2291
   1   2.0000    -101.581636     -2764.1768
   2   2.0000     -88.961519     -2420.7660
   3   2.0000     -88.960994     -2420.7517
   4   2.0000     -88.960036     -2420.7257
   5   2.0000     -88.959272     -2420.7049
   6   2.0000     -88.959056     -2420.6990
   7   2.0000     -88.958521     -2420.6844
   8   2.0000     -88.951811     -2420.5018
   9   2.0000     -24.787530      -674.5030
  10   2.0000     -19.258644      -524.0544
  11   2.0000     -19.215105      -522.8696
  12   2.0000     -19.200995      -522.4856
  13   2.0000     -14.423603      -392.4862
  14   2.0000     -14.415825      -392.2745
  15   2.0000     -14.412008      -392.1707
  16   2.0000     -14.411743      -392.1635
  17   2.0000     -10.402258      -283.0598
  18   2.0000     -10.371378      -282.2195
  19   2.0000     -10.366756      -282.0938
  20   2.0000     -10.348336      -281.5925
  21   2.0000     -10.346093      -281.5315
  22   2.0000     -10.344921      -281.4996
  23   2.0000     -10.327660      -281.0299
  24   2.0000     -10.325824      -280.9800
  25   2.0000     -10.325166      -280.9621
  26   2.0000     -10.322692      -280.8947
  27   2.0000     -10.322034      -280.8768
  28   2.0000     -10.318979      -280.7937
  29   2.0000     -10.316697      -280.7316
  30   2.0000     -10.316364      -280.7225
  31   2.0000     -10.316155      -280.7168
  32   2.0000     -10.315364      -280.6953
  33   2.0000     -10.314888      -280.6824
  34   2.0000     -10.311638      -280.5939
  35   2.0000     -10.309696      -280.5411
  36   2.0000     -10.308702      -280.5140
  37   2.0000     -10.308570      -280.5105
  38   2.0000     -10.308309      -280.5033
  39   2.0000     -10.307934      -280.4931
  40   2.0000     -10.307706      -280.4870
  41   2.0000     -10.307405      -280.4788
  42   2.0000     -10.305548      -280.4282
  43   2.0000     -10.304843      -280.4090
  44   2.0000     -10.304506      -280.3999
  45   2.0000     -10.303056      -280.3604
  46   2.0000     -10.302920      -280.3567
  47   2.0000     -10.302697      -280.3506
  48   2.0000     -10.301686      -280.3231
  49   2.0000     -10.301593      -280.3206
  50   2.0000     -10.300774      -280.2983
  51   2.0000     -10.300020      -280.2778
  52   2.0000     -10.299421      -280.2615
  53   2.0000     -10.297186      -280.2007
  54   2.0000     -10.296320      -280.1771
  55   2.0000     -10.296180      -280.1733
  56   2.0000     -10.295787      -280.1626
  57   2.0000     -10.295446      -280.1533
  58   2.0000     -10.291750      -280.0528
  59   2.0000     -10.290954      -280.0311
  60   2.0000     -10.290080      -280.0073
  61   2.0000     -10.289493      -279.9913
  62   2.0000     -10.288409      -279.9618
  63   2.0000     -10.286131      -279.8999
  64   2.0000     -10.285881      -279.8930
  65   2.0000     -10.284394      -279.8526
  66   2.0000     -10.281212      -279.7660
  67   2.0000     -10.280585      -279.7489
  68   2.0000     -10.280182      -279.7380
  69   2.0000     -10.277102      -279.6541
  70   2.0000     -10.276803      -279.6460
  71   2.0000     -10.275881      -279.6209
  72   2.0000     -10.271755      -279.5087
  73   2.0000     -10.270364      -279.4708
  74   2.0000     -10.266713      -279.3715
  75   2.0000     -10.266008      -279.3523
  76   2.0000     -10.264759      -279.3183
  77   2.0000     -10.259224      -279.1677
  78   2.0000     -10.258450      -279.1466
  79   2.0000      -9.538317      -259.5508
  80   2.0000      -9.536430      -259.4994
  81   2.0000      -8.056467      -219.2276
  82   2.0000      -8.055762      -219.2084
  83   2.0000      -8.054854      -219.1837
  84   2.0000      -8.054549      -219.1754
  85   2.0000      -8.054431      -219.1722
  86   2.0000      -8.053829      -219.1558
  87   2.0000      -8.047204      -218.9756
  88   2.0000      -7.308564      -198.8761
  89   2.0000      -7.306633      -198.8236
  90   2.0000      -7.298398      -198.5995
  91   2.0000      -7.298297      -198.5968
  92   2.0000      -7.296611      -198.5509
  93   2.0000      -7.296364      -198.5442
  94   2.0000      -6.025671      -163.9668
  95   2.0000      -6.024992      -163.9484
  96   2.0000      -6.024172      -163.9260
  97   2.0000      -6.024083      -163.9236
  98   2.0000      -6.023484      -163.9073
  99   2.0000      -6.023467      -163.9069
 100   2.0000      -6.021750      -163.8602
 101   2.0000      -6.020913      -163.8374
 102   2.0000      -6.019994      -163.8124
 103   2.0000      -6.019873      -163.8091
 104   2.0000      -6.019354      -163.7950
 105   2.0000      -6.019279      -163.7929
 106   2.0000      -6.018659      -163.7760
 107   2.0000      -6.018018      -163.7586
 108   2.0000      -6.017509      -163.7447
 109   2.0000      -6.017003      -163.7310
 110   2.0000      -6.016926      -163.7289
 111   2.0000      -6.015793      -163.6981
 112   2.0000      -6.015202      -163.6820
 113   2.0000      -6.012810      -163.6169
 114   2.0000      -6.008251      -163.4928
 115   2.0000      -1.302405       -35.4402
 116   2.0000      -1.190153       -32.3857
 117   2.0000      -1.130694       -30.7677
 118   2.0000      -1.095575       -29.8121
 119   2.0000      -1.086189       -29.5567
 120   2.0000      -1.023801       -27.8590
 121   2.0000      -1.018035       -27.7021
 122   2.0000      -1.007883       -27.4259
 123   2.0000      -1.004110       -27.3232
 124   2.0000      -1.002596       -27.2820
 125   2.0000      -0.998717       -27.1765
 126   2.0000      -0.996542       -27.1173
 127   2.0000      -0.990655       -26.9571
 128   2.0000      -0.987443       -26.8697
 129   2.0000      -0.981674       -26.7127
 130   2.0000      -0.977844       -26.6085
 131   2.0000      -0.949931       -25.8489
 132   2.0000      -0.945610       -25.7313
 133   2.0000      -0.944641       -25.7050
 134   2.0000      -0.932496       -25.3745
 135   2.0000      -0.926691       -25.2165
 136   2.0000      -0.923603       -25.1325
 137   2.0000      -0.913064       -24.8457
 138   2.0000      -0.905168       -24.6309
 139   2.0000      -0.902498       -24.5582
 140   2.0000      -0.894920       -24.3520
 141   2.0000      -0.888400       -24.1746
 142   2.0000      -0.878235       -23.8980
 143   2.0000      -0.870418       -23.6853
 144   2.0000      -0.863869       -23.5071
 145   2.0000      -0.860621       -23.4187
 146   2.0000      -0.850631       -23.1468
 147   2.0000      -0.849285       -23.1102
 148   2.0000      -0.842995       -22.9391
 149   2.0000      -0.837711       -22.7953
 150   2.0000      -0.836535       -22.7633
 151   2.0000      -0.824683       -22.4408
 152   2.0000      -0.821119       -22.3438
 153   2.0000      -0.817479       -22.2447
 154   2.0000      -0.810653       -22.0590
 155   2.0000      -0.809197       -22.0194
 156   2.0000      -0.805152       -21.9093
 157   2.0000      -0.802189       -21.8287
 158   2.0000      -0.790914       -21.5219
 159   2.0000      -0.780060       -21.2265
 160   2.0000      -0.772275       -21.0147
 161   2.0000      -0.762178       -20.7399
 162   2.0000      -0.756387       -20.5823
 163   2.0000      -0.749557       -20.3965
 164   2.0000      -0.748186       -20.3592
 165   2.0000      -0.743660       -20.2360
 166   2.0000      -0.732543       -19.9335
 167   2.0000      -0.718435       -19.5496
 168   2.0000      -0.711530       -19.3617
 169   2.0000      -0.710891       -19.3443
 170   2.0000      -0.698172       -18.9982
 171   2.0000      -0.697468       -18.9791
 172   2.0000      -0.693842       -18.8804
 173   2.0000      -0.685814       -18.6619
 174   2.0000      -0.678097       -18.4520
 175   2.0000      -0.672616       -18.3028
 176   2.0000      -0.668004       -18.1773
 177   2.0000      -0.660727       -17.9793
 178   2.0000      -0.654663       -17.8143
 179   2.0000      -0.650170       -17.6920
 180   2.0000      -0.643057       -17.4985
 181   2.0000      -0.638216       -17.3667
 182   2.0000      -0.635484       -17.2924
 183   2.0000      -0.634313       -17.2605
 184   2.0000      -0.630593       -17.1593
 185   2.0000      -0.629956       -17.1420
 186   2.0000      -0.625448       -17.0193
 187   2.0000      -0.615693       -16.7539
 188   2.0000      -0.611372       -16.6363
 189   2.0000      -0.608866       -16.5681
 190   2.0000      -0.606437       -16.5020
 191   2.0000      -0.605330       -16.4719
 192   2.0000      -0.599938       -16.3251
 193   2.0000      -0.593715       -16.1558
 194   2.0000      -0.585280       -15.9263
 195   2.0000      -0.584744       -15.9117
 196   2.0000      -0.581903       -15.8344
 197   2.0000      -0.574242       -15.6259
 198   2.0000      -0.573054       -15.5936
 199   2.0000      -0.565850       -15.3976
 200   2.0000      -0.564262       -15.3544
 201   2.0000      -0.561186       -15.2707
 202   2.0000      -0.560078       -15.2405
 203   2.0000      -0.554491       -15.0885
 204   2.0000      -0.550029       -14.9670
 205   2.0000      -0.547044       -14.8858
 206   2.0000      -0.543882       -14.7998
 207   2.0000      -0.542147       -14.7526
 208   2.0000      -0.541741       -14.7415
 209   2.0000      -0.538270       -14.6471
 210   2.0000      -0.535391       -14.5687
 211   2.0000      -0.531181       -14.4542
 212   2.0000      -0.527040       -14.3415
 213   2.0000      -0.525734       -14.3059
 214   2.0000      -0.524816       -14.2810
 215   2.0000      -0.523699       -14.2506
 216   2.0000      -0.522306       -14.2127
 217   2.0000      -0.520013       -14.1503
 218   2.0000      -0.517934       -14.0937
 219   2.0000      -0.517208       -14.0739
 220   2.0000      -0.516526       -14.0554
 221   2.0000      -0.515590       -14.0299
 222   2.0000      -0.513917       -13.9844
 223   2.0000      -0.513126       -13.9629
 224   2.0000      -0.507728       -13.8160
 225   2.0000      -0.504263       -13.7217
 226   2.0000      -0.503045       -13.6885
 227   2.0000      -0.500781       -13.6269
 228   2.0000      -0.499825       -13.6009
 229   2.0000      -0.495418       -13.4810
 230   2.0000      -0.494167       -13.4470
 231   2.0000      -0.491701       -13.3799
 232   2.0000      -0.488896       -13.3035
 233   2.0000      -0.487422       -13.2634
 234   2.0000      -0.485995       -13.2246
 235   2.0000      -0.483101       -13.1458
 236   2.0000      -0.480994       -13.0885
 237   2.0000      -0.478899       -13.0315
 238   2.0000      -0.477008       -12.9801
 239   2.0000      -0.476140       -12.9564
 240   2.0000      -0.475611       -12.9420
 241   2.0000      -0.471583       -12.8324
 242   2.0000      -0.466298       -12.6886
 243   2.0000      -0.465740       -12.6734
 244   2.0000      -0.465544       -12.6681
 245   2.0000      -0.463941       -12.6245
 246   2.0000      -0.462291       -12.5796
 247   2.0000      -0.460164       -12.5217
 248   2.0000      -0.459594       -12.5062
 249   2.0000      -0.456655       -12.4262
 250   2.0000      -0.453403       -12.3377
 251   2.0000      -0.449638       -12.2353
 252   2.0000      -0.448663       -12.2088
 253   2.0000      -0.444156       -12.0861
 254   2.0000      -0.443386       -12.0652
 255   2.0000      -0.441715       -12.0197
 256   2.0000      -0.439730       -11.9657
 257   2.0000      -0.435197       -11.8423
 258   2.0000      -0.430830       -11.7235
 259   2.0000      -0.430226       -11.7070
 260   2.0000      -0.430073       -11.7029
 261   2.0000      -0.428212       -11.6522
 262   2.0000      -0.427630       -11.6364
 263   2.0000      -0.425898       -11.5893
 264   2.0000      -0.423850       -11.5336
 265   2.0000      -0.421854       -11.4792
 266   2.0000      -0.420192       -11.4340
 267   2.0000      -0.418539       -11.3890
 268   2.0000      -0.417405       -11.3582
 269   2.0000      -0.416022       -11.3205
 270   2.0000      -0.415386       -11.3032
 271   2.0000      -0.412996       -11.2382
 272   2.0000      -0.412182       -11.2160
 273   2.0000      -0.409599       -11.1458
 274   2.0000      -0.406583       -11.0637
 275   2.0000      -0.402084       -10.9413
 276   2.0000      -0.401092       -10.9143
 277   2.0000      -0.397330       -10.8119
 278   2.0000      -0.393798       -10.7158
 279   2.0000      -0.384022       -10.4498
 280   2.0000      -0.381026       -10.3683
 281   2.0000      -0.378691       -10.3047
 282   2.0000      -0.377156       -10.2629
 283   2.0000      -0.375921       -10.2293
 284   2.0000      -0.375603       -10.2207
 285   2.0000      -0.374240       -10.1836
 286   2.0000      -0.356996        -9.7144
 287   2.0000      -0.353319        -9.6143
 288   2.0000      -0.344215        -9.3666
 289   2.0000      -0.337318        -9.1789
 290   2.0000      -0.336423        -9.1545
 291   2.0000      -0.327757        -8.9187
 292   2.0000      -0.323424        -8.8008
 293   2.0000      -0.322073        -8.7640
 294   2.0000      -0.318209        -8.6589
 295   2.0000      -0.315601        -8.5879
 296   2.0000      -0.313121        -8.5204
 297   2.0000      -0.309314        -8.4169
 298   2.0000      -0.308299        -8.3893
 299   2.0000      -0.304039        -8.2733
 300   2.0000      -0.300961        -8.1896
 301   2.0000      -0.291393        -7.9292
 302   2.0000      -0.284876        -7.7519
 303   2.0000      -0.267240        -7.2720
 304   2.0000      -0.249102        -6.7784
 305   2.0000      -0.220098        -5.9892
 306   0.0000      -0.099243        -2.7005
 307   0.0000      -0.075821        -2.0632
 308   0.0000      -0.060098        -1.6353
 309   0.0000      -0.044096        -1.1999
 310   0.0000      -0.035512        -0.9663

MULLIKEN ATOMIC CHARGES
-----------------------
   0 C :   -0.095761
   1 C :    0.302316
   2 F :   -0.189673
   3 C :   -0.030422
   4 C :   -0.008580
   5 C :    0.100145
   6 C :    0.101285
   7 C :   -0.088007
   8 C :    0.041915
   9 C :    0.012485
  10 C :   -0.078010
  11 C :    0.136329
  12 O :   -0.141244
  13 C :   -0.130506
  14 C :    0.263780
  15 C :   -0.344110
  16 C :   -0.216526
  17 N :    0.188012
  18 C :   -0.124895
  19 N :    0.128349
  20 C :    0.097109
  21 C :   -0.086303
  22 C :   -0.026166
  23 C :    0.053439
  24 C :    0.172306
  25 C :   -0.210954
  26 C :    0.028923
  27 C :    0.080469
  28 C :   -0.250579
  29 S :    0.122032
  30 C :    0.119880
  31 Cl:   -0.087434
  32 C :   -0.145938
  33 C :    0.087924
  34 C :    0.132651
  35 C :   -0.117180
  36 S :    0.139107
  37 C :   -0.210124
  38 C :    0.029426
  39 C :    0.088001
  40 C :   -0.267256
  41 S :    0.140886
  42 C :    0.122019
  43 Cl:   -0.087887
  44 C :   -0.061986
  45 C :   -0.020961
  46 S :    0.117479
  47 C :    0.002624
  48 C :    0.042971
  49 N :   -0.059236
  50 C :   -0.075000
  51 N :   -0.071792
  52 C :    0.031407
  53 C :   -0.082158
  54 C :    0.081493
  55 C :    0.101727
  56 C :   -0.040231
  57 C :    0.028270
  58 C :    0.036704
  59 C :   -0.019201
  60 C :   -0.077655
  61 S :    0.198692
  62 C :   -0.022255
  63 C :   -0.002416
  64 C :   -0.131227
  65 S :    0.117127
  66 C :   -0.108066
  67 C :    0.128009
  68 C :   -0.017193
  69 S :    0.155345
  70 C :   -0.127593
  71 C :    0.211406
  72 O :   -0.204810
  73 O :   -0.306130
  74 C :    0.173967
  75 C :   -0.026666
  76 C :   -0.006492
  77 C :   -0.002008
  78 C :   -0.019874
  79 H :   -0.003547
  80 H :    0.005552
  81 H :   -0.008172
  82 H :   -0.007590
  83 H :   -0.010433
  84 H :    0.024056
  85 H :    0.014565
  86 H :   -0.003552
  87 H :    0.030866
  88 H :    0.042500
  89 H :    0.020858
  90 H :   -0.005555
  91 H :    0.026644
  92 H :    0.041642
  93 H :    0.029132
  94 H :   -0.013919
  95 H :    0.003921
  96 H :    0.012622
  97 H :   -0.029148
  98 H :   -0.018054
  99 H :   -0.017081
 100 H :   -0.017412
 101 H :   -0.006559
 102 H :   -0.001583
 103 H :    0.029675
 104 H :    0.024200
 105 H :    0.036308
 106 H :    0.023943
 107 H :    0.027471
 108 H :    0.003786
 109 H :   -0.003339
 110 H :    0.022985
 111 H :    0.029715
Sum of atomic charges:   -0.0000000

LOEWDIN ATOMIC CHARGES
----------------------
   0 C :   -0.042571
   1 C :    0.093672
   2 F :   -0.064545
   3 C :   -0.036214
   4 C :    0.005325
   5 C :   -0.018359
   6 C :    0.003566
   7 C :    0.009166
   8 C :   -0.017283
   9 C :   -0.059152
  10 C :    0.035463
  11 C :    0.082917
  12 O :   -0.142024
  13 C :   -0.089724
  14 C :    0.068484
  15 C :   -0.143199
  16 C :   -0.028035
  17 N :   -0.035912
  18 C :   -0.011901
  19 N :   -0.060967
  20 C :    0.056381
  21 C :   -0.174758
  22 C :   -0.013445
  23 C :   -0.046054
  24 C :   -0.038598
  25 C :   -0.179798
  26 C :   -0.072803
  27 C :   -0.180873
  28 C :   -0.191951
  29 S :    0.475755
  30 C :   -0.064320
  31 Cl:    0.127104
  32 C :   -0.145587
  33 C :   -0.029582
  34 C :   -0.058509
  35 C :   -0.131549
  36 S :    0.437137
  37 C :   -0.172789
  38 C :   -0.076485
  39 C :   -0.177361
  40 C :   -0.197329
  41 S :    0.449499
  42 C :   -0.060843
  43 Cl:    0.129285
  44 C :   -0.068160
  45 C :   -0.140202
  46 S :    0.422954
  47 C :   -0.103921
  48 C :    0.060618
  49 N :   -0.078672
  50 C :    0.019359
  51 N :   -0.096307
  52 C :    0.050134
  53 C :   -0.209005
  54 C :   -0.024225
  55 C :   -0.047345
  56 C :   -0.018383
  57 C :   -0.027578
  58 C :   -0.021812
  59 C :   -0.011933
  60 C :   -0.161541
  61 S :    0.512731
  62 C :   -0.049136
  63 C :   -0.035688
  64 C :   -0.191499
  65 S :    0.448370
  66 C :   -0.163119
  67 C :   -0.077400
  68 C :   -0.183213
  69 S :    0.410613
  70 C :   -0.198697
  71 C :    0.070134
  72 O :   -0.180602
  73 O :   -0.093973
  74 C :    0.085332
  75 C :   -0.067724
  76 C :   -0.006489
  77 C :   -0.038897
  78 C :   -0.041376
  79 H :    0.042722
  80 H :    0.042444
  81 H :    0.036234
  82 H :    0.038094
  83 H :    0.040312
  84 H :    0.046905
  85 H :    0.022631
  86 H :    0.026011
  87 H :    0.037822
  88 H :    0.043606
  89 H :    0.033276
  90 H :    0.026050
  91 H :    0.034637
  92 H :    0.041743
  93 H :    0.037379
  94 H :    0.018028
  95 H :    0.026010
  96 H :    0.023043
  97 H :    0.026216
  98 H :    0.027531
  99 H :    0.027997
 100 H :    0.027111
 101 H :    0.026292
 102 H :    0.029265
 103 H :    0.022331
 104 H :    0.024221
 105 H :    0.031800
 106 H :    0.033272
 107 H :    0.028153
 108 H :    0.039912
 109 H :    0.036721
 110 H :    0.018937
 111 H :    0.028710

  Mayer bond orders larger than 0.100000
B(  0-C ,  1-C ) :   1.4415 B(  0-C ,  6-C ) :   1.2025 B(  0-C , 79-H ) :   1.0058
B(  1-C ,  2-F ) :   1.0897 B(  1-C ,  3-C ) :   1.2569 B(  3-C ,  4-C ) :   1.4616
B(  3-C , 80-H ) :   0.9921 B(  4-C ,  5-C ) :   1.2342 B(  4-C , 81-H ) :   0.9964
B(  5-C ,  6-C ) :   1.2579 B(  5-C , 10-C ) :   1.1917 B(  6-C ,  7-C ) :   1.2035
B(  7-C ,  8-C ) :   1.4621 B(  7-C , 82-H ) :   0.9941 B(  8-C ,  9-C ) :   1.2185
B(  8-C , 14-C ) :   1.0005 B(  9-C , 10-C ) :   1.4734 B(  9-C , 11-C ) :   0.9194
B( 10-C , 83-H ) :   1.0144 B( 11-C , 12-O ) :   2.2713 B( 11-C , 13-C ) :   0.9384
B( 13-C , 14-C ) :   1.0415 B( 13-C , 20-C ) :   1.6662 B( 14-C , 15-C ) :   1.6438
B( 15-C , 16-C ) :   1.1634 B( 15-C , 18-C ) :   1.1430 B( 16-C , 17-N ) :   3.0065
B( 18-C , 19-N ) :   2.8786 B( 20-C , 21-C ) :   1.1234 B( 20-C , 84-H ) :   0.9322
B( 21-C , 22-C ) :   1.5068 B( 21-C , 36-S ) :   1.0570 B( 22-C , 23-C ) :   1.2381
B( 22-C , 85-H ) :   0.9641 B( 23-C , 24-C ) :   1.2774 B( 23-C , 35-C ) :   1.2682
B( 24-C , 25-C ) :   1.0017 B( 24-C , 32-C ) :   1.4302 B( 25-C , 26-C ) :   1.5356
B( 25-C , 29-S ) :   1.1268 B( 26-C , 27-C ) :   1.2392 B( 26-C , 86-H ) :   0.9938
B( 27-C , 28-C ) :   1.5818 B( 27-C , 31-Cl) :   1.0307 B( 28-C , 29-S ) :   1.1428
B( 28-C , 30-C ) :   1.0883 B( 30-C , 87-H ) :   0.9455 B( 30-C , 88-H ) :   0.9456
B( 30-C , 89-H ) :   0.9314 B( 32-C , 33-C ) :   1.2611 B( 32-C , 46-S ) :   1.0549
B( 33-C , 34-C ) :   1.2986 B( 33-C , 44-C ) :   1.1776 B( 34-C , 35-C ) :   1.4070
B( 34-C , 37-C ) :   0.9926 B( 35-C , 36-S ) :   1.0794 B( 37-C , 38-C ) :   1.5500
B( 37-C , 41-S ) :   1.1299 B( 38-C , 39-C ) :   1.2215 B( 38-C , 90-H ) :   0.9932
B( 39-C , 40-C ) :   1.6039 B( 39-C , 43-Cl) :   1.0079 B( 40-C , 41-S ) :   1.1313
B( 40-C , 42-C ) :   1.0827 B( 42-C , 91-H ) :   0.9445 B( 42-C , 92-H ) :   0.9492
B( 42-C , 93-H ) :   0.9476 B( 44-C , 45-C ) :   1.6006 B( 44-C , 94-H ) :   0.9741
B( 45-C , 46-S ) :   1.0762 B( 45-C , 47-C ) :   1.0375 B( 47-C , 48-C ) :   1.3217
B( 47-C , 52-C ) :   1.3026 B( 48-C , 49-N ) :   1.5844 B( 48-C , 95-H ) :   0.9840
B( 49-N , 50-C ) :   1.5162 B( 50-C , 51-N ) :   1.5488 B( 50-C , 53-C ) :   1.0884
B( 51-N , 52-C ) :   1.6014 B( 52-C , 96-H ) :   0.9836 B( 53-C , 54-C ) :   1.3483
B( 53-C , 60-C ) :   0.1156 B( 53-C , 61-S ) :   1.1442 B( 54-C , 55-C ) :   1.2160
B( 54-C , 59-C ) :   1.2399 B( 55-C , 56-C ) :   1.2196 B( 55-C , 60-C ) :   1.2903
B( 56-C , 57-C ) :   1.5433 B( 56-C , 97-H ) :   0.9919 B( 57-C , 58-C ) :   1.2202
B( 57-C , 98-H ) :   0.9837 B( 58-C , 59-C ) :   1.5108 B( 58-C , 99-H ) :   0.9859
B( 59-C ,100-H ) :   0.9809 B( 60-C , 61-S ) :   1.1598 B( 60-C , 62-C ) :   1.1995
B( 62-C , 63-C ) :   1.6123 B( 62-C ,101-H ) :   0.9675 B( 63-C , 64-C ) :   1.1931
B( 63-C ,102-H ) :   0.9735 B( 64-C , 65-S ) :   1.1057 B( 64-C , 68-C ) :   1.4786
B( 65-S , 66-C ) :   1.1214 B( 66-C , 67-C ) :   1.3936 B( 66-C , 77-C ) :   1.1481
B( 67-C , 68-C ) :   1.2356 B( 67-C , 76-C ) :   1.1260 B( 68-C , 69-S ) :   1.0370
B( 69-S , 70-C ) :   1.0556 B( 70-C , 71-C ) :   0.9579 B( 70-C , 76-C ) :   1.6385
B( 71-C , 72-O ) :   2.1190 B( 71-C , 73-O ) :   1.2371 B( 73-O , 74-C ) :   0.9017
B( 74-C , 75-C ) :   1.1223 B( 74-C ,103-H ) :   0.9464 B( 74-C ,104-H ) :   0.9617
B( 75-C ,105-H ) :   0.9670 B( 75-C ,106-H ) :   0.9644 B( 75-C ,107-H ) :   0.9670
B( 76-C ,108-H ) :   1.0041 B( 77-C , 78-C ) :   1.8981 B( 77-C ,109-H ) :   0.9614
B( 78-C ,110-H ) :   0.9568 B( 78-C ,111-H ) :   0.9501

-----------------------------------------------------------------------------
         ABSORPTION SPECTRUM VIA TRANSITION ELECTRIC DIPOLE MOMENTS
-----------------------------------------------------------------------------
State   Energy  Wavelength   fosc         T2         TX        TY        TZ
        (cm-1)    (nm)                  (au**2)     (au)      (au)      (au)
-----------------------------------------------------------------------------
   0   15462.4    646.7   1.443927911  30.74276   5.48178  -0.72149  -0.41514
   1   16990.3    588.6   0.383846760   7.43761   2.61591  -0.17386   0.75126
   2   19622.8    509.6   0.129199820   2.16759   0.91994   0.70325   0.90925
   3   23354.6    428.2   0.486796913   6.86200  -1.30036   1.62233   1.59346
   4   24044.1    415.9   0.018916715   0.25901   0.44846  -0.23243  -0.06221
   5   24810.6    403.1   0.165635596   2.19782  -1.37743  -0.50454   0.21434
   6   26163.5    382.2   0.040999113   0.51589  -0.21738  -0.63580  -0.25376
   7   26513.5    377.2   0.018833913   0.23386   0.13284  -0.36812  -0.28407
   8   26782.2    373.4   0.039932544   0.49086  -0.03802   0.45921   0.52777
   9   27104.1    368.9   0.043988053   0.53429   0.49992  -0.48048  -0.23132
  10   28092.8    356.0   0.032332589   0.37890  -0.56785   0.09949   0.21575
  11   28382.3    352.3   0.078114156   0.90606   0.62127  -0.42211   0.58473
  12   29110.9    343.5   0.009103767   0.10295  -0.07730  -0.30407   0.06721
  13   29602.9    337.8   0.026619285   0.29603   0.39153  -0.37633   0.03336
  14   29847.1    335.0   0.159759273   1.76214  -0.08154   1.25164   0.43462
  15   30093.4    332.3   0.046365845   0.50723  -0.12357  -0.69792   0.06975
  16   30190.1    331.2   0.008514447   0.09285  -0.24242   0.16142   0.08956
  17   30609.3    326.7   0.026201084   0.28180  -0.20181  -0.41281  -0.26583
  18   31101.1    321.5   0.113502476   1.20145   0.89338   0.12064   0.62351
  19   31141.4    321.1   0.515229132   5.44676   0.79732  -1.71659  -1.36542
  20   31716.2    315.3   0.273775839   2.84177   0.99943  -1.24324  -0.54522
  21   32393.2    308.7   0.030500451   0.30998  -0.03814  -0.54073  -0.12700
  22   32708.1    305.7   0.063104440   0.63516   0.70102  -0.35974   0.11960
  23   33202.1    301.2   0.533655781   5.29141  -1.74728   1.49348   0.08913
  24   33500.8    298.5   0.214764971   2.11049  -1.16811   0.67414   0.53995
  25   33683.3    296.9   0.081394446   0.79553  -0.18474   0.43202   0.75813
  26   33758.0    296.2   0.280988143   2.74023  -0.95542   0.65683   1.18152
  27   34291.1    291.6   0.190034962   1.82443   0.30870  -1.06369   0.77311
  28   34401.0    290.7   0.030056034   0.28763  -0.48831   0.21263   0.06304
  29   34861.4    286.9   0.098271857   0.92803   0.31881  -0.77975  -0.46731
  30   34995.6    285.7   0.410602330   3.86263   0.41724   0.42507   1.87293
  31   35131.5    284.6   0.065841902   0.61699   0.26336  -0.72573  -0.14476
  32   35415.4    282.4   0.004768829   0.04433  -0.05241  -0.16136  -0.12468
  33   36112.7    276.9   0.084513099   0.77044   0.80299  -0.28998   0.20384
  34   36623.1    273.1   0.065242494   0.58648   0.12092   0.67357   0.34375
  35   36895.2    271.0   0.069673129   0.62169  -0.43218   0.53830   0.38097
  36   37484.1    266.8   0.042652196   0.37460  -0.50078   0.24418  -0.25337
  37   37567.7    266.2   0.012559586   0.11006  -0.15231   0.28858  -0.05989
  38   37818.6    264.4   0.021308949   0.18550   0.41970   0.09171   0.03054
  39   37946.3    263.5   0.012835339   0.11136  -0.25575   0.18555  -0.10732
  40   38280.0    261.2   0.008810612   0.07577  -0.12564  -0.08111  -0.23110
  41   38388.7    260.5   0.082852712   0.71052  -0.82515   0.16007   0.06353
  42   38600.5    259.1   0.048348590   0.41235  -0.45317  -0.23107  -0.39191
  43   38748.7    258.1   0.067858148   0.57653  -0.59697  -0.35567  -0.30602
  44   38880.1    257.2   0.024268461   0.20549  -0.38201  -0.12326  -0.21063
  45   39108.6    255.7   0.015319525   0.12896   0.23068  -0.23276   0.14686
  46   39383.0    253.9   0.054784284   0.45795   0.18604  -0.51123  -0.40248
  47   39574.4    252.7   0.038858859   0.32326   0.10159  -0.02840   0.55869
  48   39738.0    251.6   0.007543700   0.06250  -0.05012  -0.07292  -0.23381
  49   39850.6    250.9   0.035870841   0.29633   0.53962   0.06965  -0.01723
  50   40088.7    249.4   0.064615436   0.53063  -0.18552  -0.15497  -0.68716
  51   40258.6    248.4   0.068551031   0.56057  -0.73584   0.12542   0.05819

FINAL SINGLE POINT ENERGY     -6629.922566066338

DIPOLE MOMENT
-------------
                                X             Y             Z
Electronic contribution:    -79.76980      15.26154      -6.51848
Nuclear contribution   :     79.61544     -14.80970       5.53412
                        -----------------------------------------
Total Dipole Moment    :     -0.15436       0.45184      -0.98436
                        -----------------------------------------
Magnitude (a.u.)       :      1.09405
Magnitude (Debye)      :      2.78086

Rotational constants in cm-1:     0.000911     0.000200     0.000174
Rotational constants in MHz :    27.324497     6.009209     5.207490

                             ****ORCA TERMINATED NORMALLY****
TOTAL RUN TIME: 0 days 0 hours 11 minutes 48 seconds 950 msec
