                         Program Version 4.2.0 -  RELEASE  -
|  1> # ORCA input file
|  2> # SCF done       -169.255836522846          0.000901262530
|  3> ! CAM-B3LYP def2-SVP def2/J RIJCOSX Grid4 TightSCF
|  4> %maxcore 5000
|  5> %tddft
|  6>     Mode sTDDFT
|  7>     Ethresh 5.0
|  8>     maxcore 5000
|  9> end
| 10>
| 11> %pal
| 12>   nprocs 6
| 13>   end
| 14> * xyz 0 1
| 15>    C        3.32388         4.98697         5.88847
| 16>    C        2.73661         6.12449         6.36811
| 17>    F        2.09842         6.09158         7.55174
| 18>    C        2.77176         7.34011         5.67108
| 19>    C        3.41607         7.39322         4.46656
| 20>    C        4.04021         6.25052         3.92515
| 21>    C        3.99232         5.02307         4.64914
| 22>    C        4.60833         3.86267         4.12561
| 23>    C        5.25479         3.93163         2.92113
| 24>    C        5.31077         5.16472         2.20819
| 25>    C        4.71755         6.29767         2.68626
| 26>    C        6.09926         4.98006         0.97583
| 27>    O        6.30559         5.77874         0.09280
| 28>    C        6.65645         3.59727         1.07771
| 29>    C        5.95678         2.91473         2.14691
| 30>    C        5.80519         1.56152         2.28110
| 31>    C        6.33410         0.62678         1.36845
| 32>    N        6.72838        -0.16552         0.63747
| 33>    C        5.07030         0.95127         3.31752
| 34>    N        4.50687         0.40587         4.15552
| 35>    C        7.71909         3.25837         0.30961
| 36>    C        8.65077         2.17684         0.45783
| 37>    C        9.33002         1.68383        -0.64441
| 38>    C       10.24479         0.63416        -0.56037
| 39>    C       10.57522         0.03450         0.64041
| 40>    C        9.93810         0.53107         1.80892
| 41>    C        8.97749         1.60412         1.72044
| 42>    N        8.48961         1.99292         2.89094
| 43>   Se        9.16872         0.99910         4.16304
| 44>    N       10.14326         0.08561         3.04250
| 45>    C       11.56751        -1.02231         0.71238
| 46>    C       12.47536        -1.14528         1.77456
| 47>    N       13.41787        -2.05502         1.79636
| 48>    C       13.52456        -2.87567         0.75487
| 49>    N       12.68659        -2.87447        -0.28510
| 50>    C       11.72241        -1.98439        -0.29519
| 51>    C       14.64363        -3.80606         0.71617
| 52>    C       14.95678        -4.47893        -0.44846
| 53>    C       16.09977        -5.27123        -0.56877
| 54>    C       17.02158        -5.39860         0.45612
| 55>    C       16.68528        -4.80252         1.70559
| 56>    C       15.48831        -4.00456         1.84086
| 57>    N       15.29370        -3.52334         3.05871
| 58>   Se       16.58930        -4.03447         4.10303
| 59>    N       17.38682        -4.92852         2.82363
| 60>    C       18.24729        -6.12240         0.25583
| 61>    C       19.45085        -5.93206         0.84389
| 62>    C       20.48673        -7.00657         0.76333
| 63>    O       20.48844        -7.95097         0.00977
| 64>    C       21.45375        -6.68756         1.82975
| 65>    C       22.52694        -7.41328         2.26162
| 66>    C       23.30829        -6.91968         3.32996
| 67>    C       22.95219        -5.68222         3.94247
| 68>    C       23.72927        -5.20186         5.01471
| 69>    C       24.80825        -5.92604         5.43913
| 70>    C       25.17777        -7.14166         4.84677
| 71>    C       24.43238        -7.62474         3.80767
| 72>    F       25.55256        -5.46792         6.46136
| 73>    C       21.84005        -4.94797         3.47013
| 74>    C       21.10844        -5.43758         2.42176
| 75>    C       19.96457        -4.88447         1.70664
| 76>    C       19.60073        -3.56626         1.69239
| 77>    C       18.66066        -3.02263         0.79302
| 78>    N       17.93562        -2.52452         0.05567
| 79>    C       20.16007        -2.58617         2.53785
| 80>    N       20.56085        -1.75679         3.22250
| 81>    H        3.27414         4.06783         6.45102
| 82>    H        2.29114         8.20512         6.09976
| 83>    H        3.45710         8.31822         3.91140
| 84>    H        4.56647         2.94898         4.69718
| 85>    H        4.76745         7.22078         2.12836
| 86>    H        7.92764         3.94436        -0.50685
| 87>    H        9.11566         2.10815        -1.61421
| 88>    H       10.72983         0.29815        -1.46449
| 89>    H       12.44166        -0.46997         2.61833
| 90>    H       11.02878        -2.04599        -1.12474
| 91>    H       14.30344        -4.34965        -1.29724
| 92>    H       16.31209        -5.74103        -1.51782
| 93>    H       18.19739        -6.95994        -0.43386
| 94>    H       22.77833        -8.35285         1.79281
| 95>    H       23.47657        -4.26772         5.49142
| 96>    H       26.04030        -7.66813         5.22354
| 97>    H       24.69720        -8.55895         3.33590
| 98>    H       21.58742        -4.01854         3.95523
| 99> *
|100>
|101>                          ****END OF INPUT****

CARTESIAN COORDINATES (ANGSTROEM)
---------------------------------
  C      3.323880    4.986970    5.888470
  C      2.736610    6.124490    6.368110
  F      2.098420    6.091580    7.551740
  C      2.771760    7.340110    5.671080
  C      3.416070    7.393220    4.466560
  C      4.040210    6.250520    3.925150
  C      3.992320    5.023070    4.649140
  C      4.608330    3.862670    4.125610
  C      5.254790    3.931630    2.921130
  C      5.310770    5.164720    2.208190
  C      4.717550    6.297670    2.686260
  C      6.099260    4.980060    0.975830
  O      6.305590    5.778740    0.092800
  C      6.656450    3.597270    1.077710
  C      5.956780    2.914730    2.146910
  C      5.805190    1.561520    2.281100
  C      6.334100    0.626780    1.368450
  N      6.728380   -0.165520    0.637470
  C      5.070300    0.951270    3.317520
  N      4.506870    0.405870    4.155520
  C      7.719090    3.258370    0.309610
  C      8.650770    2.176840    0.457830
  C      9.330020    1.683830   -0.644410
  C     10.244790    0.634160   -0.560370
  C     10.575220    0.034500    0.640410
  C      9.938100    0.531070    1.808920
  C      8.977490    1.604120    1.720440
  N      8.489610    1.992920    2.890940
  Se     9.168720    0.999100    4.163040
  N     10.143260    0.085610    3.042500
  C     11.567510   -1.022310    0.712380
  C     12.475360   -1.145280    1.774560
  N     13.417870   -2.055020    1.796360
  C     13.524560   -2.875670    0.754870
  N     12.686590   -2.874470   -0.285100
  C     11.722410   -1.984390   -0.295190
  C     14.643630   -3.806060    0.716170
  C     14.956780   -4.478930   -0.448460
  C     16.099770   -5.271230   -0.568770
  C     17.021580   -5.398600    0.456120
  C     16.685280   -4.802520    1.705590
  C     15.488310   -4.004560    1.840860
  N     15.293700   -3.523340    3.058710
  Se    16.589300   -4.034470    4.103030
  N     17.386820   -4.928520    2.823630
  C     18.247290   -6.122400    0.255830
  C     19.450850   -5.932060    0.843890
  C     20.486730   -7.006570    0.763330
  O     20.488440   -7.950970    0.009770
  C     21.453750   -6.687560    1.829750
  C     22.526940   -7.413280    2.261620
  C     23.308290   -6.919680    3.329960
  C     22.952190   -5.682220    3.942470
  C     23.729270   -5.201860    5.014710
  C     24.808250   -5.926040    5.439130
  C     25.177770   -7.141660    4.846770
  C     24.432380   -7.624740    3.807670
  F     25.552560   -5.467920    6.461360
  C     21.840050   -4.947970    3.470130
  C     21.108440   -5.437580    2.421760
  C     19.964570   -4.884470    1.706640
  C     19.600730   -3.566260    1.692390
  C     18.660660   -3.022630    0.793020
  N     17.935620   -2.524520    0.055670
  C     20.160070   -2.586170    2.537850
  N     20.560850   -1.756790    3.222500
  H      3.274140    4.067830    6.451020
  H      2.291140    8.205120    6.099760
  H      3.457100    8.318220    3.911400
  H      4.566470    2.948980    4.697180
  H      4.767450    7.220780    2.128360
  H      7.927640    3.944360   -0.506850
  H      9.115660    2.108150   -1.614210
  H     10.729830    0.298150   -1.464490
  H     12.441660   -0.469970    2.618330
  H     11.028780   -2.045990   -1.124740
  H     14.303440   -4.349650   -1.297240
  H     16.312090   -5.741030   -1.517820
  H     18.197390   -6.959940   -0.433860
  H     22.778330   -8.352850    1.792810
  H     23.476570   -4.267720    5.491420
  H     26.040300   -7.668130    5.223540
  H     24.697200   -8.558950    3.335900
  H     21.587420   -4.018540    3.955230

 Total Charge           Charge          ....    0
 Multiplicity           Mult            ....    1
 Number of Electrons    NEL             ....  490
 Basis Dimension        Dim             .... 1050

ORBITAL ENERGIES
----------------

  NO   OCC          E(Eh)            E(eV)
   0   2.0000    -453.988668    -12353.6597
   1   2.0000    -453.973707    -12353.2526
   2   2.0000     -58.202373     -1583.7671
   3   2.0000     -58.187590     -1583.3648
   4   2.0000     -52.273056     -1422.4222
   5   2.0000     -52.270741     -1422.3592
   6   2.0000     -52.270239     -1422.3455
   7   2.0000     -52.258280     -1422.0201
   8   2.0000     -52.255907     -1421.9555
   9   2.0000     -52.255486     -1421.9441
  10   2.0000     -24.787193      -674.4938
  11   2.0000     -24.784839      -674.4298
  12   2.0000     -19.216257      -522.9009
  13   2.0000     -19.212673      -522.8034
  14   2.0000     -14.445547      -393.0833
  15   2.0000     -14.442163      -392.9912
  16   2.0000     -14.429849      -392.6562
  17   2.0000     -14.427061      -392.5803
  18   2.0000     -14.416852      -392.3025
  19   2.0000     -14.415798      -392.2738
  20   2.0000     -14.414228      -392.2311
  21   2.0000     -14.413370      -392.2077
  22   2.0000     -14.411674      -392.1616
  23   2.0000     -14.405304      -391.9883
  24   2.0000     -10.370856      -282.2053
  25   2.0000     -10.368241      -282.1342
  26   2.0000     -10.367115      -282.1035
  27   2.0000     -10.363360      -282.0014
  28   2.0000     -10.347131      -281.5598
  29   2.0000     -10.341430      -281.4046
  30   2.0000     -10.339285      -281.3462
  31   2.0000     -10.338060      -281.3129
  32   2.0000     -10.335976      -281.2562
  33   2.0000     -10.333790      -281.1967
  34   2.0000     -10.333027      -281.1760
  35   2.0000     -10.325946      -280.9833
  36   2.0000     -10.321153      -280.8529
  37   2.0000     -10.319419      -280.8057
  38   2.0000     -10.319300      -280.8024
  39   2.0000     -10.319262      -280.8014
  40   2.0000     -10.317478      -280.7528
  41   2.0000     -10.316471      -280.7255
  42   2.0000     -10.316002      -280.7127
  43   2.0000     -10.313886      -280.6551
  44   2.0000     -10.313346      -280.6404
  45   2.0000     -10.311715      -280.5960
  46   2.0000     -10.307497      -280.4813
  47   2.0000     -10.307456      -280.4801
  48   2.0000     -10.306404      -280.4515
  49   2.0000     -10.306194      -280.4458
  50   2.0000     -10.304504      -280.3998
  51   2.0000     -10.303204      -280.3644
  52   2.0000     -10.302326      -280.3405
  53   2.0000     -10.301277      -280.3120
  54   2.0000     -10.301002      -280.3045
  55   2.0000     -10.299456      -280.2625
  56   2.0000     -10.299026      -280.2508
  57   2.0000     -10.298964      -280.2491
  58   2.0000     -10.298935      -280.2483
  59   2.0000     -10.298848      -280.2459
  60   2.0000     -10.298417      -280.2342
  61   2.0000     -10.298226      -280.2290
  62   2.0000     -10.296377      -280.1787
  63   2.0000     -10.295840      -280.1640
  64   2.0000     -10.295658      -280.1591
  65   2.0000     -10.295486      -280.1544
  66   2.0000     -10.294723      -280.1337
  67   2.0000     -10.294507      -280.1278
  68   2.0000     -10.292968      -280.0859
  69   2.0000     -10.290981      -280.0318
  70   2.0000     -10.290170      -280.0098
  71   2.0000     -10.287844      -279.9465
  72   2.0000     -10.287508      -279.9373
  73   2.0000     -10.286267      -279.9036
  74   2.0000      -7.978134      -217.0961
  75   2.0000      -7.963441      -216.6962
  76   2.0000      -5.928341      -161.3184
  77   2.0000      -5.921586      -161.1345
  78   2.0000      -5.917974      -161.0363
  79   2.0000      -5.913654      -160.9187
  80   2.0000      -5.906854      -160.7337
  81   2.0000      -5.903338      -160.6380
  82   2.0000      -2.282366       -62.1063
  83   2.0000      -2.281813       -62.0913
  84   2.0000      -2.277338       -61.9695
  85   2.0000      -2.272194       -61.8295
  86   2.0000      -2.271977       -61.8236
  87   2.0000      -2.267684       -61.7068
  88   2.0000      -2.267101       -61.6910
  89   2.0000      -2.262736       -61.5722
  90   2.0000      -2.257547       -61.4310
  91   2.0000      -2.257316       -61.4247
  92   2.0000      -1.302152       -35.4334
  93   2.0000      -1.299911       -35.3724
  94   2.0000      -1.131640       -30.7935
  95   2.0000      -1.128029       -30.6952
  96   2.0000      -1.100195       -29.9378
  97   2.0000      -1.089956       -29.6592
  98   2.0000      -1.083129       -29.4734
  99   2.0000      -1.019528       -27.7428
 100   2.0000      -1.015634       -27.6368
 101   2.0000      -1.001429       -27.2503
 102   2.0000      -0.998033       -27.1578
 103   2.0000      -0.995891       -27.0996
 104   2.0000      -0.991788       -26.9879
 105   2.0000      -0.982394       -26.7323
 106   2.0000      -0.979926       -26.6651
 107   2.0000      -0.976930       -26.5836
 108   2.0000      -0.975178       -26.5360
 109   2.0000      -0.971268       -26.4295
 110   2.0000      -0.963235       -26.2110
 111   2.0000      -0.959020       -26.0963
 112   2.0000      -0.927454       -25.2373
 113   2.0000      -0.923422       -25.1276
 114   2.0000      -0.916210       -24.9314
 115   2.0000      -0.902292       -24.5526
 116   2.0000      -0.896225       -24.3875
 117   2.0000      -0.888107       -24.1666
 118   2.0000      -0.885325       -24.0909
 119   2.0000      -0.879580       -23.9346
 120   2.0000      -0.870323       -23.6827
 121   2.0000      -0.858844       -23.3703
 122   2.0000      -0.848446       -23.0874
 123   2.0000      -0.844056       -22.9679
 124   2.0000      -0.835958       -22.7476
 125   2.0000      -0.832800       -22.6616
 126   2.0000      -0.827072       -22.5058
 127   2.0000      -0.800703       -21.7882
 128   2.0000      -0.787030       -21.4162
 129   2.0000      -0.765849       -20.8398
 130   2.0000      -0.760075       -20.6827
 131   2.0000      -0.754609       -20.5339
 132   2.0000      -0.751686       -20.4544
 133   2.0000      -0.743177       -20.2229
 134   2.0000      -0.730218       -19.8702
 135   2.0000      -0.724916       -19.7260
 136   2.0000      -0.721590       -19.6355
 137   2.0000      -0.710735       -19.3401
 138   2.0000      -0.707367       -19.2484
 139   2.0000      -0.705115       -19.1872
 140   2.0000      -0.703754       -19.1501
 141   2.0000      -0.696673       -18.9574
 142   2.0000      -0.688955       -18.7474
 143   2.0000      -0.680108       -18.5067
 144   2.0000      -0.675264       -18.3749
 145   2.0000      -0.670783       -18.2529
 146   2.0000      -0.667259       -18.1571
 147   2.0000      -0.640249       -17.4221
 148   2.0000      -0.636147       -17.3104
 149   2.0000      -0.633383       -17.2352
 150   2.0000      -0.630055       -17.1447
 151   2.0000      -0.628566       -17.1042
 152   2.0000      -0.622300       -16.9336
 153   2.0000      -0.619880       -16.8678
 154   2.0000      -0.607244       -16.5239
 155   2.0000      -0.604612       -16.4523
 156   2.0000      -0.596082       -16.2202
 157   2.0000      -0.590698       -16.0737
 158   2.0000      -0.588713       -16.0197
 159   2.0000      -0.581572       -15.8254
 160   2.0000      -0.579957       -15.7814
 161   2.0000      -0.574636       -15.6366
 162   2.0000      -0.568350       -15.4656
 163   2.0000      -0.566546       -15.4165
 164   2.0000      -0.564368       -15.3572
 165   2.0000      -0.561796       -15.2872
 166   2.0000      -0.559702       -15.2303
 167   2.0000      -0.557343       -15.1661
 168   2.0000      -0.554383       -15.0855
 169   2.0000      -0.550618       -14.9831
 170   2.0000      -0.548499       -14.9254
 171   2.0000      -0.546004       -14.8575
 172   2.0000      -0.545236       -14.8366
 173   2.0000      -0.540288       -14.7020
 174   2.0000      -0.537800       -14.6343
 175   2.0000      -0.534104       -14.5337
 176   2.0000      -0.530279       -14.4296
 177   2.0000      -0.528576       -14.3833
 178   2.0000      -0.524716       -14.2782
 179   2.0000      -0.521885       -14.2012
 180   2.0000      -0.521030       -14.1779
 181   2.0000      -0.517197       -14.0736
 182   2.0000      -0.516487       -14.0543
 183   2.0000      -0.507502       -13.8098
 184   2.0000      -0.503752       -13.7078
 185   2.0000      -0.500410       -13.6169
 186   2.0000      -0.498566       -13.5667
 187   2.0000      -0.496677       -13.5153
 188   2.0000      -0.490011       -13.3339
 189   2.0000      -0.489717       -13.3259
 190   2.0000      -0.489232       -13.3127
 191   2.0000      -0.485078       -13.1996
 192   2.0000      -0.483505       -13.1569
 193   2.0000      -0.480210       -13.0672
 194   2.0000      -0.475241       -12.9320
 195   2.0000      -0.472422       -12.8553
 196   2.0000      -0.470953       -12.8153
 197   2.0000      -0.466767       -12.7014
 198   2.0000      -0.465620       -12.6702
 199   2.0000      -0.459334       -12.4991
 200   2.0000      -0.459051       -12.4914
 201   2.0000      -0.458340       -12.4721
 202   2.0000      -0.455860       -12.4046
 203   2.0000      -0.454491       -12.3673
 204   2.0000      -0.451870       -12.2960
 205   2.0000      -0.448449       -12.2029
 206   2.0000      -0.447768       -12.1844
 207   2.0000      -0.442538       -12.0421
 208   2.0000      -0.439419       -11.9572
 209   2.0000      -0.438213       -11.9244
 210   2.0000      -0.437601       -11.9077
 211   2.0000      -0.434524       -11.8240
 212   2.0000      -0.429681       -11.6922
 213   2.0000      -0.427886       -11.6434
 214   2.0000      -0.426280       -11.5997
 215   2.0000      -0.424278       -11.5452
 216   2.0000      -0.419467       -11.4143
 217   2.0000      -0.417007       -11.3473
 218   2.0000      -0.414135       -11.2692
 219   2.0000      -0.407311       -11.0835
 220   2.0000      -0.405258       -11.0276
 221   2.0000      -0.401628       -10.9289
 222   2.0000      -0.398791       -10.8516
 223   2.0000      -0.393975       -10.7206
 224   2.0000      -0.392648       -10.6845
 225   2.0000      -0.389674       -10.6036
 226   2.0000      -0.382014       -10.3951
 227   2.0000      -0.379553       -10.3282
 228   2.0000      -0.369958       -10.0671
 229   2.0000      -0.368276       -10.0213
 230   2.0000      -0.357194        -9.7197
 231   2.0000      -0.351723        -9.5709
 232   2.0000      -0.347718        -9.4619
 233   2.0000      -0.343047        -9.3348
 234   2.0000      -0.336218        -9.1490
 235   2.0000      -0.334165        -9.0931
 236   2.0000      -0.331531        -9.0214
 237   2.0000      -0.321891        -8.7591
 238   2.0000      -0.311565        -8.4781
 239   2.0000      -0.310780        -8.4568
 240   2.0000      -0.306662        -8.3447
 241   2.0000      -0.299423        -8.1477
 242   2.0000      -0.296506        -8.0683
 243   2.0000      -0.293441        -7.9849
 244   2.0000      -0.274836        -7.4787
 245   0.0000      -0.105865        -2.8807
 246   0.0000      -0.093454        -2.5430
 247   0.0000      -0.066550        -1.8109
 248   0.0000      -0.060532        -1.6472
 249   0.0000      -0.051579        -1.4035

MULLIKEN ATOMIC CHARGES
-----------------------
   0 C :   -0.099757
   1 C :    0.304217
   2 F :   -0.189572
   3 C :   -0.028335
   4 C :   -0.010814
   5 C :    0.100710
   6 C :    0.105866
   7 C :   -0.094315
   8 C :    0.040951
   9 C :    0.016078
  10 C :   -0.082967
  11 C :    0.131933
  12 O :   -0.140755
  13 C :   -0.110166
  14 C :    0.331471
  15 C :   -0.336296
  16 C :   -0.201531
  17 N :    0.167017
  18 C :   -0.193911
  19 N :    0.155916
  20 C :   -0.005288
  21 C :    0.092482
  22 C :   -0.000995
  23 C :   -0.029780
  24 C :    0.106050
  25 C :    0.037402
  26 C :   -0.009466
  27 N :   -0.285305
  28 Se:    0.549801
  29 N :   -0.274616
  30 C :   -0.042722
  31 C :    0.065268
  32 N :   -0.002462
  33 C :   -0.147238
  34 N :   -0.041568
  35 C :    0.034288
  36 C :    0.116987
  37 C :   -0.006919
  38 C :    0.005590
  39 C :    0.087564
  40 C :   -0.022539
  41 C :    0.029696
  42 N :   -0.224306
  43 Se:    0.525176
  44 N :   -0.286713
  45 C :    0.001591
  46 C :   -0.101950
  47 C :    0.127720
  48 O :   -0.140331
  49 C :    0.013593
  50 C :   -0.077526
  51 C :    0.096370
  52 C :    0.101108
  53 C :   -0.095331
  54 C :    0.301624
  55 C :   -0.031169
  56 C :   -0.006357
  57 F :   -0.190548
  58 C :   -0.085696
  59 C :    0.038267
  60 C :    0.330112
  61 C :   -0.341183
  62 C :   -0.199136
  63 N :    0.171666
  64 C :   -0.189106
  65 N :    0.152155
  66 H :   -0.003355
  67 H :    0.003453
  68 H :   -0.008355
  69 H :   -0.007067
  70 H :   -0.011119
  71 H :    0.022208
  72 H :   -0.005128
  73 H :   -0.009418
  74 H :    0.012237
  75 H :    0.010121
  76 H :    0.002472
  77 H :   -0.009619
  78 H :    0.022816
  79 H :   -0.012544
  80 H :   -0.003518
  81 H :    0.003234
  82 H :   -0.009973
  83 H :   -0.008447
Sum of atomic charges:   -0.0000000

LOEWDIN ATOMIC CHARGES
----------------------
   0 C :   -0.043006
   1 C :    0.093413
   2 F :   -0.064467
   3 C :   -0.036783
   4 C :    0.004974
   5 C :   -0.018854
   6 C :    0.004049
   7 C :    0.009262
   8 C :   -0.013146
   9 C :   -0.059406
  10 C :    0.035269
  11 C :    0.085664
  12 O :   -0.140428
  13 C :   -0.074896
  14 C :    0.080089
  15 C :   -0.134357
  16 C :   -0.017969
  17 N :   -0.052877
  18 C :   -0.020556
  19 N :   -0.054858
  20 C :    0.070106
  21 C :   -0.043378
  22 C :    0.029520
  23 C :   -0.010478
  24 C :    0.003002
  25 C :   -0.030839
  26 C :   -0.034294
  27 N :   -0.247976
  28 Se:    0.588737
  29 N :   -0.237899
  30 C :   -0.064237
  31 C :    0.068808
  32 N :   -0.052771
  33 C :    0.038586
  34 N :   -0.074905
  35 C :    0.054355
  36 C :   -0.019006
  37 C :    0.015019
  38 C :    0.022136
  39 C :   -0.037315
  40 C :   -0.039916
  41 C :   -0.031452
  42 N :   -0.217686
  43 Se:    0.571688
  44 N :   -0.255289
  45 C :    0.073427
  46 C :   -0.074061
  47 C :    0.084914
  48 O :   -0.140620
  49 C :   -0.059154
  50 C :    0.034947
  51 C :   -0.019111
  52 C :    0.003964
  53 C :   -0.042920
  54 C :    0.092766
  55 C :   -0.037842
  56 C :    0.005072
  57 F :   -0.064818
  58 C :    0.009549
  59 C :   -0.012236
  60 C :    0.081156
  61 C :   -0.133319
  62 C :   -0.017703
  63 N :   -0.048877
  64 C :   -0.019273
  65 N :   -0.055750
  66 H :    0.042733
  67 H :    0.041964
  68 H :    0.035973
  69 H :    0.038321
  70 H :    0.039870
  71 H :    0.047751
  72 H :    0.039160
  73 H :    0.035995
  74 H :    0.025333
  75 H :    0.027039
  76 H :    0.037989
  77 H :    0.037005
  78 H :    0.047821
  79 H :    0.039369
  80 H :    0.042629
  81 H :    0.041652
  82 H :    0.035486
  83 H :    0.038165

  Mayer bond orders larger than 0.100000
B(  0-C ,  1-C ) :   1.4406 B(  0-C ,  6-C ) :   1.2021 B(  0-C , 66-H ) :   1.0066
B(  1-C ,  2-F ) :   1.0898 B(  1-C ,  3-C ) :   1.2550 B(  3-C ,  4-C ) :   1.4616
B(  3-C , 67-H ) :   0.9929 B(  4-C ,  5-C ) :   1.2331 B(  4-C , 68-H ) :   0.9970
B(  5-C ,  6-C ) :   1.2553 B(  5-C , 10-C ) :   1.1942 B(  6-C ,  7-C ) :   1.2016
B(  7-C ,  8-C ) :   1.4597 B(  7-C , 69-H ) :   0.9953 B(  8-C ,  9-C ) :   1.2146
B(  8-C , 14-C ) :   1.0065 B(  9-C , 10-C ) :   1.4665 B(  9-C , 11-C ) :   0.9200
B( 10-C , 70-H ) :   1.0152 B( 11-C , 12-O ) :   2.2712 B( 11-C , 13-C ) :   0.9320
B( 13-C , 14-C ) :   1.0215 B( 13-C , 20-C ) :   1.7096 B( 14-C , 15-C ) :   1.6540
B( 15-C , 16-C ) :   1.1642 B( 15-C , 18-C ) :   1.1435 B( 16-C , 17-N ) :   3.0076
B( 18-C , 19-N ) :   2.9861 B( 20-C , 21-C ) :   1.0607 B( 20-C , 71-H ) :   0.9441
B( 21-C , 22-C ) :   1.4481 B( 21-C , 24-C ) :   0.1058 B( 21-C , 26-C ) :   1.1503
B( 22-C , 23-C ) :   1.1960 B( 22-C , 72-H ) :   0.9988 B( 23-C , 24-C ) :   1.5015
B( 23-C , 73-H ) :   0.9956 B( 24-C , 25-C ) :   1.1800 B( 24-C , 30-C ) :   0.9855
B( 25-C , 26-C ) :   1.1219 B( 25-C , 29-N ) :   1.5879 B( 26-C , 27-N ) :   1.5953
B( 27-N , 28-Se) :   1.2224 B( 27-N , 29-N ) :   0.1201 B( 28-Se, 29-N ) :   1.2497
B( 30-C , 31-C ) :   1.3295 B( 30-C , 35-C ) :   1.3319 B( 31-C , 32-N ) :   1.5679
B( 31-C , 74-H ) :   0.9795 B( 32-N , 33-C ) :   1.5950 B( 33-C , 34-N ) :   1.5783
B( 33-C , 36-C ) :   0.9526 B( 34-N , 35-C ) :   1.5735 B( 34-N , 36-C ) :  -0.1071
B( 35-C , 75-H ) :   0.9849 B( 36-C , 37-C ) :   1.5391 B( 36-C , 39-C ) :   0.1096
B( 36-C , 41-C ) :   1.1449 B( 37-C , 38-C ) :   1.1722 B( 37-C , 76-H ) :   0.9849
B( 38-C , 39-C ) :   1.4548 B( 38-C , 77-H ) :   0.9986 B( 39-C , 40-C ) :   1.1450
B( 39-C , 45-C ) :   1.0484 B( 40-C , 41-C ) :   1.1195 B( 40-C , 44-N ) :   1.6038
B( 41-C , 42-N ) :   1.6217 B( 42-N , 43-Se) :   1.2538 B( 42-N , 44-N ) :   0.1232
B( 43-Se, 44-N ) :   1.2140 B( 45-C , 46-C ) :   1.7193 B( 45-C , 78-H ) :   0.9438
B( 46-C , 47-C ) :   0.9331 B( 46-C , 60-C ) :   1.0145 B( 47-C , 48-O ) :   2.2749
B( 47-C , 49-C ) :   0.9196 B( 49-C , 50-C ) :   1.4693 B( 49-C , 59-C ) :   1.2150
B( 50-C , 51-C ) :   1.1952 B( 50-C , 79-H ) :   1.0143 B( 51-C , 52-C ) :   1.2541
B( 51-C , 56-C ) :   1.2350 B( 52-C , 53-C ) :   1.2010 B( 52-C , 58-C ) :   1.2071
B( 53-C , 54-C ) :   1.4436 B( 53-C , 80-H ) :   1.0061 B( 54-C , 55-C ) :   1.2524
B( 54-C , 57-F ) :   1.0888 B( 55-C , 56-C ) :   1.4633 B( 55-C , 81-H ) :   0.9931
B( 56-C , 82-H ) :   0.9963 B( 58-C , 59-C ) :   1.4596 B( 58-C , 83-H ) :   0.9939
B( 59-C , 60-C ) :   1.0101 B( 60-C , 61-C ) :   1.6549 B( 61-C , 62-C ) :   1.1626
B( 61-C , 64-C ) :   1.1412 B( 62-C , 63-N ) :   3.0057 B( 64-C , 65-N ) :   2.9846

-----------------------------------------------------------------------------
         ABSORPTION SPECTRUM VIA TRANSITION ELECTRIC DIPOLE MOMENTS
-----------------------------------------------------------------------------
State   Energy  Wavelength   fosc         T2         TX        TY        TZ
        (cm-1)    (nm)                  (au**2)     (au)      (au)      (au)
-----------------------------------------------------------------------------
   0   20540.9    486.8   1.332998282  21.36413  -4.05435   2.20727   0.23298
   1   23013.2    434.5   0.064181562   0.91814   0.75623   0.23362   0.54007
   2   23536.1    424.9   0.014443565   0.20203  -0.44629  -0.05148   0.01442
   3   25082.7    398.7   0.125856372   1.65187   0.64663  -1.04434  -0.37827
   4   25835.7    387.1   0.068023331   0.86679   0.74042  -0.52423   0.20917
   5   27424.5    364.6   0.009637626   0.11569  -0.21799   0.26080   0.01257
   6   27790.3    359.8   0.013962056   0.16540   0.10560   0.38230  -0.08997
   7   27856.8    359.0   0.009377206   0.11082  -0.15754  -0.16476   0.24260
   8   28408.5    352.0   0.017044292   0.19752  -0.18412  -0.28260   0.28940
   9   29046.5    344.3   0.052365658   0.59351  -0.28382   0.69233   0.18340
  10   29162.0    342.9   0.031600848   0.35674   0.16064  -0.57492  -0.02026
  11   29557.6    338.3   0.096546465   1.07533  -0.28083   0.97152  -0.22937
  12   29893.2    334.5   0.121669552   1.33994  -0.88944   0.74068  -0.01518
  13   30095.9    332.3   0.064738665   0.70816  -0.21827  -0.21695  -0.78323
  14   31100.3    321.5   0.019812910   0.20973  -0.05818  -0.15440  -0.42721
  15   31445.1    318.0   0.015989654   0.16740   0.37760   0.08556   0.13229
  16   32000.9    312.5   0.051748495   0.53237   0.24824  -0.07368  -0.68214
  17   32165.3    310.9   0.085458251   0.87467   0.42131  -0.56642   0.61346
  18   32780.8    305.1   0.024740538   0.24846  -0.16119  -0.38268  -0.27575
  19   33215.5    301.1   0.031456283   0.31178  -0.45821  -0.31129   0.07014
  20   33360.5    299.8   0.128920227   1.27222   0.48515  -0.06229   1.01635
  21   33462.3    298.8   0.601250251   5.91528  -1.73489   1.70357  -0.05726
  22   33966.5    294.4   0.006126392   0.05938  -0.21785   0.10215  -0.03853
  23   34082.1    293.4   0.397980948   3.84425  -0.62452   1.43012   1.18700
  24   34603.8    289.0   0.036364694   0.34596   0.19593  -0.43120   0.34877
  25   34884.5    286.7   0.048131419   0.45423  -0.09619   0.65600  -0.12098
  26   34954.1    286.1   0.018022443   0.16974  -0.18560   0.35057   0.11133
  27   35615.6    280.8   0.204740494   1.89252  -1.12363   0.42511  -0.67027
  28   36287.5    275.6   0.114756851   1.04111   0.55574  -0.19099   0.83413
  29   36381.8    274.9   0.184703325   1.67135   0.87724  -0.72576  -0.61243
  30   36550.2    273.6   0.022801152   0.20537  -0.33394   0.09644   0.29078
  31   36730.0    272.3   0.089334705   0.80071   0.75891  -0.15406   0.44836
  32   37062.3    269.8   0.204257741   1.81435  -1.14200   0.67170  -0.24290
  33   37206.6    268.8   0.383697316   3.39503   0.57447  -1.73361  -0.24413
  34   37228.0    268.6   0.035497427   0.31391  -0.11208   0.54397   0.07375
  35   37529.4    266.5   0.114171831   1.00153   0.35113   0.93664   0.03069
  36   38131.2    262.3   0.027719947   0.23932  -0.00947   0.47995  -0.09423
  37   38336.0    260.9   0.144097395   1.23744   0.55674  -0.94177   0.20139
  38   38495.9    259.8   0.024921869   0.21313  -0.28152  -0.13351  -0.34066
  39   38969.4    256.6   0.019589451   0.16549  -0.15005  -0.18987  -0.32700
  40   39009.5    256.3   0.055339527   0.46703   0.20707  -0.08352   0.64589
  41   39081.6    255.9   0.058228248   0.49050   0.13828   0.29452   0.62019
  42   39331.9    254.2   0.022054601   0.18460  -0.03703   0.03768   0.42639
  43   39452.9    253.5   0.053713382   0.44821  -0.45832  -0.30514   0.38085
  44   39618.9    252.4   0.053719391   0.44638   0.33269  -0.01187  -0.57927
  45   39816.7    251.2   0.098744778   0.81644   0.17183   0.10780   0.88051
  46   39948.9    250.3   0.016192294   0.13344  -0.24820   0.16430   0.21176
  47   40202.8    248.7   0.039022289   0.31955  -0.25272   0.42981   0.26635

FINAL SINGLE POINT ENERGY     -7612.943096897793

DIPOLE MOMENT
-------------
                                X             Y             Z
Electronic contribution:     -3.85302      -9.54985      48.96216
Nuclear contribution   :      3.93787      10.11336     -48.26318
                        -----------------------------------------
Total Dipole Moment    :      0.08485       0.56351       0.69898
                        -----------------------------------------
Magnitude (a.u.)       :      0.90185
Magnitude (Debye)      :      2.29231

Rotational constants in cm-1:     0.002947     0.000269     0.000258
Rotational constants in MHz :    88.360243     8.064918     7.731025

                             ****ORCA TERMINATED NORMALLY****
TOTAL RUN TIME: 0 days 0 hours 12 minutes 42 seconds 414 msec
