                         Program Version 4.2.0 -  RELEASE  -
|  1> # ORCA input file
|  2> # SCF done       -209.300084628543          0.000803428502
|  3> ! CAM-B3LYP def2-SVP def2/J RIJCOSX Grid4 TightSCF
|  4> %maxcore 5000
|  5> %tddft
|  6>     Mode sTDDFT
|  7>     Ethresh 5.0
|  8>     maxcore 5000
|  9> end
| 10>
| 11> %pal
| 12>   nprocs 6
| 13>   end
| 14> * xyz 0 1
| 15>    C        5.09301         3.28052         7.80463
| 16>    C        4.65260         4.36804         8.50650
| 17>    F        4.55899         4.29753         9.84632
| 18>    C        4.29049         5.56946         7.88200
| 19>    C        4.38003         5.66063         6.52090
| 20>    C        4.82855         4.57019         5.74767
| 21>    C        5.18981         3.35611         6.40170
| 22>    C        5.63428         2.24530         5.64696
| 23>    C        5.71722         2.34999         4.28514
| 24>    C        5.37182         3.57182         3.63832
| 25>    C        4.93228         4.65628         4.34126
| 26>    C        5.59223         3.43385         2.18667
| 27>    O        5.36089         4.24028         1.31611
| 28>    C        6.22900         2.09615         2.01413
| 29>    C        6.10471         1.37961         3.26395
| 30>    C        6.09130         0.01817         3.42462
| 31>    C        6.21116        -0.89258         2.35599
| 32>    N        6.26879        -1.66491         1.50870
| 33>    C        5.86950        -0.62298         4.66032
| 34>    N        5.71540        -1.18941         5.64677
| 35>    C        6.86076         1.81800         0.83997
| 36>    C        7.84469         0.84416         0.55903
| 37>    C        8.68051         0.14975         1.41390
| 38>    C        9.57971        -0.67469         0.74588
| 39>   Cl       10.72752        -1.63983         1.57218
| 40>    C        9.46293        -0.64804        -0.64203
| 41>    S        8.21253         0.46123        -1.10035
| 42>    C       10.21963        -1.37138        -1.59534
| 43>    C       10.13607        -1.31768        -2.98106
| 44>   Cl        9.01916        -0.32180        -3.81173
| 45>    C       11.04828        -2.14057        -3.64539
| 46>    C       11.85187        -2.85094        -2.78258
| 47>    S       11.46711        -2.49386        -1.12591
| 48>    C       12.89939        -3.75108        -3.10877
| 49>    C       13.67816        -4.48681        -2.24582
| 50>    C       14.64726        -5.24658        -2.90588
| 51>   Cl       15.75393        -6.25265        -2.07024
| 52>    C       14.63978        -5.11095        -4.28662
| 53>    S       13.37284        -4.01477        -4.76189
| 54>    C       15.51337        -5.70376        -5.23357
| 55>    C       15.52077        -5.55065        -6.61217
| 56>   Cl       14.37469        -4.59652        -7.45484
| 57>    C       16.55035        -6.23624        -7.26360
| 58>    C       17.35556        -6.93559        -6.39617
| 59>    S       16.82272        -6.74684        -4.75195
| 60>    C       18.50624        -7.71024        -6.70613
| 61>    C       19.30228        -8.42526        -5.84317
| 62>    C       20.38248        -9.05112        -6.48220
| 63>   Cl       21.58775        -9.89389        -5.60631
| 64>    C       20.42587        -8.83478        -7.84587
| 65>    S       19.10132        -7.81374        -8.33557
| 66>    C       21.36545        -9.26215        -8.83277
| 67>    C       22.01246       -10.47197        -9.01049
| 68>   Cl       21.73200       -11.85702        -8.04533
| 69>    C       22.86874       -10.49558       -10.11798
| 70>    C       22.85808        -9.32524       -10.84509
| 71>    S       21.80475        -8.15598       -10.09508
| 72>    C       23.64926        -9.02893       -11.98566
| 73>    C       23.47780        -8.04644       -12.90648
| 74>    C       24.63708        -7.58880       -13.72754
| 75>    O       25.68630        -8.16747       -13.88287
| 76>    C       24.24196        -6.26063       -14.23492
| 77>    C       24.98702        -5.34777       -14.92498
| 78>    C       24.40417        -4.11179       -15.28369
| 79>    C       23.05411        -3.84079       -14.91327
| 80>    C       22.48393        -2.60201       -15.26539
| 81>    C       23.23287        -1.69052       -15.95622
| 82>    C       24.56017        -1.93905       -16.33244
| 83>    C       25.13001        -3.13552       -15.99704
| 84>    F       22.69009        -0.50739       -16.29351
| 85>    C       22.30230        -4.80798       -14.20682
| 86>    C       22.88597        -6.00143       -13.87939
| 87>    C       22.35432        -7.17907       -13.20239
| 88>    C       21.03158        -7.52236       -13.12658
| 89>    C       20.58892        -8.80359       -12.73413
| 90>    N       20.20416        -9.85253       -12.47246
| 91>    C       19.97851        -6.67144       -13.51840
| 92>    N       19.08917        -6.00734       -13.80986
| 93>    H        5.35962         2.37024         8.31856
| 94>    H        3.94993         6.39408         8.48783
| 95>    H        4.10701         6.57563         6.01718
| 96>    H        5.90847         1.34144         6.16777
| 97>    H        4.66784         5.57010         3.83072
| 98>    H        6.62394         2.49620         0.02547
| 99>    H        8.68080         0.26418         2.48231
|100>    H       11.11805        -2.21178        -4.71527
|101>    H       13.55485        -4.47505        -1.17844
|102>    H       16.69912        -6.21669        -8.32774
|103>    H       19.12220        -8.48580        -4.78539
|104>    H       23.43928       -11.36092       -10.40177
|105>    H       24.55877        -9.61309       -12.08792
|106>    H       26.00991        -5.56495       -15.19369
|107>    H       21.46359        -2.37872       -14.99562
|108>    H       25.10170        -1.18201       -16.87708
|109>    H       26.15083        -3.34938       -16.27568
|110>    H       21.28536        -4.57777       -13.93056
|111> *
|112>
|113>                          ****END OF INPUT****

CARTESIAN COORDINATES (ANGSTROEM)
---------------------------------
  C      5.093010    3.280520    7.804630
  C      4.652600    4.368040    8.506500
  F      4.558990    4.297530    9.846320
  C      4.290490    5.569460    7.882000
  C      4.380030    5.660630    6.520900
  C      4.828550    4.570190    5.747670
  C      5.189810    3.356110    6.401700
  C      5.634280    2.245300    5.646960
  C      5.717220    2.349990    4.285140
  C      5.371820    3.571820    3.638320
  C      4.932280    4.656280    4.341260
  C      5.592230    3.433850    2.186670
  O      5.360890    4.240280    1.316110
  C      6.229000    2.096150    2.014130
  C      6.104710    1.379610    3.263950
  C      6.091300    0.018170    3.424620
  C      6.211160   -0.892580    2.355990
  N      6.268790   -1.664910    1.508700
  C      5.869500   -0.622980    4.660320
  N      5.715400   -1.189410    5.646770
  C      6.860760    1.818000    0.839970
  C      7.844690    0.844160    0.559030
  C      8.680510    0.149750    1.413900
  C      9.579710   -0.674690    0.745880
  Cl    10.727520   -1.639830    1.572180
  C      9.462930   -0.648040   -0.642030
  S      8.212530    0.461230   -1.100350
  C     10.219630   -1.371380   -1.595340
  C     10.136070   -1.317680   -2.981060
  Cl     9.019160   -0.321800   -3.811730
  C     11.048280   -2.140570   -3.645390
  C     11.851870   -2.850940   -2.782580
  S     11.467110   -2.493860   -1.125910
  C     12.899390   -3.751080   -3.108770
  C     13.678160   -4.486810   -2.245820
  C     14.647260   -5.246580   -2.905880
  Cl    15.753930   -6.252650   -2.070240
  C     14.639780   -5.110950   -4.286620
  S     13.372840   -4.014770   -4.761890
  C     15.513370   -5.703760   -5.233570
  C     15.520770   -5.550650   -6.612170
  Cl    14.374690   -4.596520   -7.454840
  C     16.550350   -6.236240   -7.263600
  C     17.355560   -6.935590   -6.396170
  S     16.822720   -6.746840   -4.751950
  C     18.506240   -7.710240   -6.706130
  C     19.302280   -8.425260   -5.843170
  C     20.382480   -9.051120   -6.482200
  Cl    21.587750   -9.893890   -5.606310
  C     20.425870   -8.834780   -7.845870
  S     19.101320   -7.813740   -8.335570
  C     21.365450   -9.262150   -8.832770
  C     22.012460  -10.471970   -9.010490
  Cl    21.732000  -11.857020   -8.045330
  C     22.868740  -10.495580  -10.117980
  C     22.858080   -9.325240  -10.845090
  S     21.804750   -8.155980  -10.095080
  C     23.649260   -9.028930  -11.985660
  C     23.477800   -8.046440  -12.906480
  C     24.637080   -7.588800  -13.727540
  O     25.686300   -8.167470  -13.882870
  C     24.241960   -6.260630  -14.234920
  C     24.987020   -5.347770  -14.924980
  C     24.404170   -4.111790  -15.283690
  C     23.054110   -3.840790  -14.913270
  C     22.483930   -2.602010  -15.265390
  C     23.232870   -1.690520  -15.956220
  C     24.560170   -1.939050  -16.332440
  C     25.130010   -3.135520  -15.997040
  F     22.690090   -0.507390  -16.293510
  C     22.302300   -4.807980  -14.206820
  C     22.885970   -6.001430  -13.879390
  C     22.354320   -7.179070  -13.202390
  C     21.031580   -7.522360  -13.126580
  C     20.588920   -8.803590  -12.734130
  N     20.204160   -9.852530  -12.472460
  C     19.978510   -6.671440  -13.518400
  N     19.089170   -6.007340  -13.809860
  H      5.359620    2.370240    8.318560
  H      3.949930    6.394080    8.487830
  H      4.107010    6.575630    6.017180
  H      5.908470    1.341440    6.167770
  H      4.667840    5.570100    3.830720
  H      6.623940    2.496200    0.025470
  H      8.680800    0.264180    2.482310
  H     11.118050   -2.211780   -4.715270
  H     13.554850   -4.475050   -1.178440
  H     16.699120   -6.216690   -8.327740
  H     19.122200   -8.485800   -4.785390
  H     23.439280  -11.360920  -10.401770
  H     24.558770   -9.613090  -12.087920
  H     26.009910   -5.564950  -15.193690
  H     21.463590   -2.378720  -14.995620
  H     25.101700   -1.182010  -16.877080
  H     26.150830   -3.349380  -16.275680
  H     21.285360   -4.577770  -13.930560

 Total Charge           Charge          ....    0
 Multiplicity           Mult            ....    1
 Number of Electrons    NEL             ....  626
 Basis Dimension        Dim             .... 1230

ORBITAL ENERGIES
----------------

  NO   OCC          E(Eh)            E(eV)
   0   2.0000    -101.607487     -2764.8803
   1   2.0000    -101.605756     -2764.8332
   2   2.0000    -101.605343     -2764.8219
   3   2.0000    -101.604765     -2764.8062
   4   2.0000    -101.594651     -2764.5310
   5   2.0000    -101.592942     -2764.4845
   6   2.0000     -88.978044     -2421.2157
   7   2.0000     -88.976689     -2421.1788
   8   2.0000     -88.976117     -2421.1632
   9   2.0000     -88.975658     -2421.1507
  10   2.0000     -88.974331     -2421.1146
  11   2.0000     -88.974237     -2421.1121
  12   2.0000     -24.788507      -674.5296
  13   2.0000     -24.786480      -674.4744
  14   2.0000     -19.217481      -522.9342
  15   2.0000     -19.214008      -522.8397
  16   2.0000     -14.420202      -392.3936
  17   2.0000     -14.416554      -392.2944
  18   2.0000     -14.416531      -392.2937
  19   2.0000     -14.415634      -392.2693
  20   2.0000     -10.372383      -282.2469
  21   2.0000     -10.370172      -282.1867
  22   2.0000     -10.369763      -282.1756
  23   2.0000     -10.365715      -282.0654
  24   2.0000     -10.348443      -281.5955
  25   2.0000     -10.345581      -281.5176
  26   2.0000     -10.344599      -281.4909
  27   2.0000     -10.344306      -281.4829
  28   2.0000     -10.342844      -281.4431
  29   2.0000     -10.342383      -281.4305
  30   2.0000     -10.341729      -281.4128
  31   2.0000     -10.340931      -281.3910
  32   2.0000     -10.340493      -281.3791
  33   2.0000     -10.340268      -281.3730
  34   2.0000     -10.337701      -281.3032
  35   2.0000     -10.335137      -281.2334
  36   2.0000     -10.329667      -281.0845
  37   2.0000     -10.329573      -281.0820
  38   2.0000     -10.329323      -281.0752
  39   2.0000     -10.328583      -281.0550
  40   2.0000     -10.326714      -281.0042
  41   2.0000     -10.326696      -281.0037
  42   2.0000     -10.325501      -280.9712
  43   2.0000     -10.325090      -280.9600
  44   2.0000     -10.323506      -280.9169
  45   2.0000     -10.322336      -280.8851
  46   2.0000     -10.322303      -280.8842
  47   2.0000     -10.322170      -280.8805
  48   2.0000     -10.319102      -280.7970
  49   2.0000     -10.318616      -280.7838
  50   2.0000     -10.318271      -280.7744
  51   2.0000     -10.316478      -280.7256
  52   2.0000     -10.309756      -280.5427
  53   2.0000     -10.309366      -280.5321
  54   2.0000     -10.306831      -280.4631
  55   2.0000     -10.306790      -280.4620
  56   2.0000     -10.304746      -280.4064
  57   2.0000     -10.304287      -280.3939
  58   2.0000     -10.303339      -280.3681
  59   2.0000     -10.303030      -280.3597
  60   2.0000     -10.302627      -280.3487
  61   2.0000     -10.301733      -280.3244
  62   2.0000     -10.301680      -280.3230
  63   2.0000     -10.300577      -280.2930
  64   2.0000     -10.300504      -280.2910
  65   2.0000     -10.299004      -280.2501
  66   2.0000     -10.298660      -280.2408
  67   2.0000     -10.298325      -280.2317
  68   2.0000     -10.297214      -280.2014
  69   2.0000     -10.295069      -280.1431
  70   2.0000     -10.294961      -280.1401
  71   2.0000     -10.294899      -280.1384
  72   2.0000     -10.294856      -280.1373
  73   2.0000     -10.294534      -280.1285
  74   2.0000     -10.293727      -280.1066
  75   2.0000     -10.291739      -280.0525
  76   2.0000     -10.290456      -280.0175
  77   2.0000     -10.289606      -279.9944
  78   2.0000      -9.562257      -260.2022
  79   2.0000      -9.560540      -260.1555
  80   2.0000      -9.560111      -260.1438
  81   2.0000      -9.559536      -260.1282
  82   2.0000      -9.549617      -259.8583
  83   2.0000      -9.547900      -259.8116
  84   2.0000      -8.073232      -219.6838
  85   2.0000      -8.071696      -219.6420
  86   2.0000      -8.071493      -219.6365
  87   2.0000      -8.070283      -219.6036
  88   2.0000      -8.068989      -219.5684
  89   2.0000      -8.068958      -219.5675
  90   2.0000      -7.332306      -199.5222
  91   2.0000      -7.330633      -199.4767
  92   2.0000      -7.330161      -199.4638
  93   2.0000      -7.329599      -199.4485
  94   2.0000      -7.322380      -199.2521
  95   2.0000      -7.322261      -199.2489
  96   2.0000      -7.320618      -199.2041
  97   2.0000      -7.320540      -199.2020
  98   2.0000      -7.320205      -199.1929
  99   2.0000      -7.320155      -199.1915
 100   2.0000      -7.319996      -199.1872
 101   2.0000      -7.319622      -199.1770
 102   2.0000      -7.319571      -199.1757
 103   2.0000      -7.318350      -199.1424
 104   2.0000      -7.309773      -198.9090
 105   2.0000      -7.309254      -198.8949
 106   2.0000      -7.307972      -198.8600
 107   2.0000      -7.307555      -198.8487
 108   2.0000      -6.042608      -164.4277
 109   2.0000      -6.041096      -164.3866
 110   2.0000      -6.040970      -164.3831
 111   2.0000      -6.039892      -164.3538
 112   2.0000      -6.038603      -164.3188
 113   2.0000      -6.038573      -164.3179
 114   2.0000      -6.038443      -164.3144
 115   2.0000      -6.036988      -164.2748
 116   2.0000      -6.036585      -164.2638
 117   2.0000      -6.035506      -164.2345
 118   2.0000      -6.035124      -164.2241
 119   2.0000      -6.034221      -164.1995
 120   2.0000      -6.034189      -164.1986
 121   2.0000      -6.033437      -164.1782
 122   2.0000      -6.033385      -164.1768
 123   2.0000      -6.031940      -164.1374
 124   2.0000      -6.030627      -164.1017
 125   2.0000      -6.030579      -164.1004
 126   2.0000      -1.303612       -35.4731
 127   2.0000      -1.301450       -35.4143
 128   2.0000      -1.133338       -30.8397
 129   2.0000      -1.129737       -30.7417
 130   2.0000      -1.036354       -28.2006
 131   2.0000      -1.033392       -28.1200
 132   2.0000      -1.029834       -28.0232
 133   2.0000      -1.022396       -27.8208
 134   2.0000      -1.019923       -27.7535
 135   2.0000      -1.013828       -27.5877
 136   2.0000      -1.009228       -27.4625
 137   2.0000      -1.003974       -27.3195
 138   2.0000      -1.003627       -27.3101
 139   2.0000      -1.001002       -27.2387
 140   2.0000      -0.996398       -27.1134
 141   2.0000      -0.994210       -27.0538
 142   2.0000      -0.980059       -26.6688
 143   2.0000      -0.977593       -26.6017
 144   2.0000      -0.972754       -26.4700
 145   2.0000      -0.967235       -26.3198
 146   2.0000      -0.962647       -26.1950
 147   2.0000      -0.958324       -26.0773
 148   2.0000      -0.951820       -25.9004
 149   2.0000      -0.948015       -25.7968
 150   2.0000      -0.930575       -25.3222
 151   2.0000      -0.928577       -25.2679
 152   2.0000      -0.911473       -24.8024
 153   2.0000      -0.908564       -24.7233
 154   2.0000      -0.898054       -24.4373
 155   2.0000      -0.893058       -24.3013
 156   2.0000      -0.889252       -24.1978
 157   2.0000      -0.886588       -24.1253
 158   2.0000      -0.881704       -23.9924
 159   2.0000      -0.868719       -23.6391
 160   2.0000      -0.863654       -23.5012
 161   2.0000      -0.843813       -22.9613
 162   2.0000      -0.839747       -22.8507
 163   2.0000      -0.838598       -22.8194
 164   2.0000      -0.836813       -22.7708
 165   2.0000      -0.835963       -22.7477
 166   2.0000      -0.828409       -22.5421
 167   2.0000      -0.826503       -22.4903
 168   2.0000      -0.823502       -22.4086
 169   2.0000      -0.822636       -22.3851
 170   2.0000      -0.810692       -22.0601
 171   2.0000      -0.797067       -21.6893
 172   2.0000      -0.782173       -21.2840
 173   2.0000      -0.771174       -20.9847
 174   2.0000      -0.763209       -20.7680
 175   2.0000      -0.760362       -20.6905
 176   2.0000      -0.738518       -20.0961
 177   2.0000      -0.732194       -19.9240
 178   2.0000      -0.725901       -19.7528
 179   2.0000      -0.718644       -19.5553
 180   2.0000      -0.712473       -19.3874
 181   2.0000      -0.709982       -19.3196
 182   2.0000      -0.709671       -19.3111
 183   2.0000      -0.701930       -19.1005
 184   2.0000      -0.690577       -18.7916
 185   2.0000      -0.685073       -18.6418
 186   2.0000      -0.683144       -18.5893
 187   2.0000      -0.677470       -18.4349
 188   2.0000      -0.670017       -18.2321
 189   2.0000      -0.667680       -18.1685
 190   2.0000      -0.657832       -17.9005
 191   2.0000      -0.646466       -17.5912
 192   2.0000      -0.640429       -17.4270
 193   2.0000      -0.637632       -17.3508
 194   2.0000      -0.633338       -17.2340
 195   2.0000      -0.632638       -17.2149
 196   2.0000      -0.630370       -17.1532
 197   2.0000      -0.628875       -17.1125
 198   2.0000      -0.624666       -16.9980
 199   2.0000      -0.621993       -16.9253
 200   2.0000      -0.616246       -16.7689
 201   2.0000      -0.612115       -16.6565
 202   2.0000      -0.606749       -16.5105
 203   2.0000      -0.604174       -16.4404
 204   2.0000      -0.597503       -16.2589
 205   2.0000      -0.593968       -16.1627
 206   2.0000      -0.589765       -16.0483
 207   2.0000      -0.579095       -15.7580
 208   2.0000      -0.569927       -15.5085
 209   2.0000      -0.568174       -15.4608
 210   2.0000      -0.563875       -15.3438
 211   2.0000      -0.561073       -15.2676
 212   2.0000      -0.559053       -15.2126
 213   2.0000      -0.558910       -15.2087
 214   2.0000      -0.558126       -15.1874
 215   2.0000      -0.554202       -15.0806
 216   2.0000      -0.553360       -15.0577
 217   2.0000      -0.550964       -14.9925
 218   2.0000      -0.547774       -14.9057
 219   2.0000      -0.546964       -14.8837
 220   2.0000      -0.538443       -14.6518
 221   2.0000      -0.536188       -14.5904
 222   2.0000      -0.534647       -14.5485
 223   2.0000      -0.532106       -14.4793
 224   2.0000      -0.531168       -14.4538
 225   2.0000      -0.528722       -14.3872
 226   2.0000      -0.527018       -14.3409
 227   2.0000      -0.526543       -14.3280
 228   2.0000      -0.524265       -14.2660
 229   2.0000      -0.523969       -14.2579
 230   2.0000      -0.523566       -14.2469
 231   2.0000      -0.521185       -14.1822
 232   2.0000      -0.519012       -14.1230
 233   2.0000      -0.517084       -14.0706
 234   2.0000      -0.514736       -14.0067
 235   2.0000      -0.511696       -13.9239
 236   2.0000      -0.509389       -13.8612
 237   2.0000      -0.505628       -13.7588
 238   2.0000      -0.503774       -13.7084
 239   2.0000      -0.502475       -13.6730
 240   2.0000      -0.500588       -13.6217
 241   2.0000      -0.496878       -13.5207
 242   2.0000      -0.496040       -13.4979
 243   2.0000      -0.494508       -13.4562
 244   2.0000      -0.493357       -13.4249
 245   2.0000      -0.489772       -13.3274
 246   2.0000      -0.487812       -13.2740
 247   2.0000      -0.486294       -13.2327
 248   2.0000      -0.483860       -13.1665
 249   2.0000      -0.481525       -13.1030
 250   2.0000      -0.478988       -13.0339
 251   2.0000      -0.477257       -12.9868
 252   2.0000      -0.468284       -12.7427
 253   2.0000      -0.467662       -12.7257
 254   2.0000      -0.464702       -12.6452
 255   2.0000      -0.461157       -12.5487
 256   2.0000      -0.460299       -12.5254
 257   2.0000      -0.457811       -12.4577
 258   2.0000      -0.456726       -12.4282
 259   2.0000      -0.454439       -12.3659
 260   2.0000      -0.452573       -12.3151
 261   2.0000      -0.450646       -12.2627
 262   2.0000      -0.448970       -12.2171
 263   2.0000      -0.446249       -12.1431
 264   2.0000      -0.445888       -12.1332
 265   2.0000      -0.444866       -12.1054
 266   2.0000      -0.443630       -12.0718
 267   2.0000      -0.442037       -12.0284
 268   2.0000      -0.441546       -12.0151
 269   2.0000      -0.439985       -11.9726
 270   2.0000      -0.439215       -11.9517
 271   2.0000      -0.436799       -11.8859
 272   2.0000      -0.431969       -11.7545
 273   2.0000      -0.430654       -11.7187
 274   2.0000      -0.429527       -11.6880
 275   2.0000      -0.428719       -11.6660
 276   2.0000      -0.427104       -11.6221
 277   2.0000      -0.421873       -11.4797
 278   2.0000      -0.420479       -11.4418
 279   2.0000      -0.418605       -11.3908
 280   2.0000      -0.416418       -11.3313
 281   2.0000      -0.412264       -11.2183
 282   2.0000      -0.411093       -11.1864
 283   2.0000      -0.402614       -10.9557
 284   2.0000      -0.402402       -10.9499
 285   2.0000      -0.395682       -10.7671
 286   2.0000      -0.392755       -10.6874
 287   2.0000      -0.388402       -10.5689
 288   2.0000      -0.387614       -10.5475
 289   2.0000      -0.383895       -10.4463
 290   2.0000      -0.381460       -10.3800
 291   2.0000      -0.378856       -10.3092
 292   2.0000      -0.374070       -10.1790
 293   2.0000      -0.373083       -10.1521
 294   2.0000      -0.370121       -10.0715
 295   2.0000      -0.363957        -9.9038
 296   2.0000      -0.347208        -9.4480
 297   2.0000      -0.339885        -9.2487
 298   2.0000      -0.337419        -9.1816
 299   2.0000      -0.335670        -9.1340
 300   2.0000      -0.332634        -9.0514
 301   2.0000      -0.329253        -8.9594
 302   2.0000      -0.326885        -8.8950
 303   2.0000      -0.324171        -8.8211
 304   2.0000      -0.321815        -8.7570
 305   2.0000      -0.319420        -8.6918
 306   2.0000      -0.315260        -8.5787
 307   2.0000      -0.313006        -8.5173
 308   2.0000      -0.302446        -8.2300
 309   2.0000      -0.299454        -8.1485
 310   2.0000      -0.290174        -7.8960
 311   2.0000      -0.269063        -7.3216
 312   2.0000      -0.243640        -6.6298
 313   0.0000      -0.101276        -2.7559
 314   0.0000      -0.098381        -2.6771
 315   0.0000      -0.067914        -1.8480
 316   0.0000      -0.059086        -1.6078
 317   0.0000      -0.054330        -1.4784

MULLIKEN ATOMIC CHARGES
-----------------------
   0 C :   -0.097728
   1 C :    0.303418
   2 F :   -0.189820
   3 C :   -0.028851
   4 C :   -0.008276
   5 C :    0.100220
   6 C :    0.102658
   7 C :   -0.086476
   8 C :    0.038168
   9 C :    0.011267
  10 C :   -0.081620
  11 C :    0.138857
  12 O :   -0.143675
  13 C :   -0.139416
  14 C :    0.265673
  15 C :   -0.334690
  16 C :   -0.206913
  17 N :    0.178327
  18 C :   -0.171686
  19 N :    0.152199
  20 C :    0.099451
  21 C :   -0.105577
  22 C :    0.052744
  23 C :    0.046776
  24 Cl:   -0.056346
  25 C :   -0.072862
  26 S :    0.179896
  27 C :   -0.093813
  28 C :    0.074683
  29 Cl:   -0.053554
  30 C :   -0.024787
  31 C :   -0.014491
  32 S :    0.155803
  33 C :   -0.020464
  34 C :   -0.021943
  35 C :    0.068188
  36 Cl:   -0.061955
  37 C :   -0.090620
  38 S :    0.151725
  39 C :   -0.090492
  40 C :    0.066969
  41 Cl:   -0.060123
  42 C :   -0.024770
  43 C :   -0.011709
  44 S :    0.151417
  45 C :   -0.024589
  46 C :   -0.040241
  47 C :    0.125090
  48 Cl:   -0.056721
  49 C :   -0.143534
  50 S :    0.162906
  51 C :   -0.117323
  52 C :    0.113693
  53 Cl:   -0.055952
  54 C :    0.047862
  55 C :   -0.096512
  56 S :    0.162653
  57 C :    0.072650
  58 C :   -0.138717
  59 C :    0.143069
  60 O :   -0.138912
  61 C :    0.006665
  62 C :   -0.077761
  63 C :    0.100443
  64 C :    0.102404
  65 C :   -0.096634
  66 C :    0.301909
  67 C :   -0.030508
  68 C :   -0.007646
  69 F :   -0.188943
  70 C :   -0.083044
  71 C :    0.043781
  72 C :    0.244198
  73 C :   -0.317968
  74 C :   -0.206246
  75 N :    0.179479
  76 C :   -0.174636
  77 N :    0.154904
  78 H :   -0.003073
  79 H :    0.003501
  80 H :   -0.008882
  81 H :   -0.004521
  82 H :   -0.011552
  83 H :    0.023379
  84 H :   -0.001017
  85 H :   -0.006017
  86 H :   -0.006487
  87 H :   -0.003111
  88 H :   -0.004138
  89 H :   -0.000173
  90 H :    0.029726
  91 H :   -0.010025
  92 H :   -0.002219
  93 H :    0.005528
  94 H :   -0.008177
  95 H :   -0.004341
Sum of atomic charges:   -0.0000000

LOEWDIN ATOMIC CHARGES
----------------------
   0 C :   -0.042128
   1 C :    0.093358
   2 F :   -0.064244
   3 C :   -0.036705
   4 C :    0.004954
   5 C :   -0.018725
   6 C :    0.003524
   7 C :    0.010327
   8 C :   -0.017408
   9 C :   -0.059717
  10 C :    0.034821
  11 C :    0.082572
  12 O :   -0.144492
  13 C :   -0.093923
  14 C :    0.064997
  15 C :   -0.139840
  16 C :   -0.019935
  17 N :   -0.039515
  18 C :   -0.020048
  19 N :   -0.051153
  20 C :    0.050180
  21 C :   -0.189517
  22 C :   -0.029161
  23 C :   -0.171276
  24 Cl:    0.165157
  25 C :   -0.184638
  26 S :    0.476621
  27 C :   -0.214188
  28 C :   -0.159490
  29 Cl:    0.169091
  30 C :   -0.075275
  31 C :   -0.175696
  32 S :    0.458675
  33 C :   -0.186036
  34 C :   -0.070052
  35 C :   -0.169777
  36 Cl:    0.161247
  37 C :   -0.206311
  38 S :    0.455288
  39 C :   -0.206219
  40 C :   -0.169692
  41 Cl:    0.162651
  42 C :   -0.069745
  43 C :   -0.186731
  44 S :    0.455295
  45 C :   -0.171008
  46 C :   -0.074379
  47 C :   -0.152194
  48 Cl:    0.155903
  49 C :   -0.223101
  50 S :    0.454835
  51 C :   -0.189968
  52 C :   -0.164846
  53 Cl:    0.156403
  54 C :   -0.022562
  55 C :   -0.180490
  56 S :    0.474315
  57 C :    0.053972
  58 C :   -0.093689
  59 C :    0.083515
  60 O :   -0.141312
  61 C :   -0.059917
  62 C :    0.035815
  63 C :   -0.018420
  64 C :    0.004013
  65 C :   -0.042233
  66 C :    0.093799
  67 C :   -0.036210
  68 C :    0.005529
  69 F :   -0.063544
  70 C :    0.011002
  71 C :   -0.016853
  72 C :    0.059666
  73 C :   -0.137605
  74 C :   -0.037711
  75 N :   -0.042757
  76 C :   -0.018959
  77 N :   -0.048782
  78 H :    0.043078
  79 H :    0.042028
  80 H :    0.035859
  81 H :    0.039041
  82 H :    0.039862
  83 H :    0.046668
  84 H :    0.037171
  85 H :    0.032496
  86 H :    0.032191
  87 H :    0.033392
  88 H :    0.032700
  89 H :    0.041361
  90 H :    0.053514
  91 H :    0.040318
  92 H :    0.043165
  93 H :    0.042487
  94 H :    0.036181
  95 H :    0.039141

  Mayer bond orders larger than 0.100000
B(  0-C ,  1-C ) :   1.4413 B(  0-C ,  6-C ) :   1.2026 B(  0-C , 78-H ) :   1.0064
B(  1-C ,  2-F ) :   1.0900 B(  1-C ,  3-C ) :   1.2542 B(  3-C ,  4-C ) :   1.4614
B(  3-C , 79-H ) :   0.9924 B(  4-C ,  5-C ) :   1.2363 B(  4-C , 80-H ) :   0.9965
B(  5-C ,  6-C ) :   1.2547 B(  5-C , 10-C ) :   1.1908 B(  6-C ,  7-C ) :   1.2035
B(  7-C ,  8-C ) :   1.4622 B(  7-C , 81-H ) :   0.9947 B(  8-C ,  9-C ) :   1.2182
B(  8-C , 14-C ) :   0.9956 B(  9-C , 10-C ) :   1.4729 B(  9-C , 11-C ) :   0.9182
B( 10-C , 82-H ) :   1.0152 B( 11-C , 12-O ) :   2.2682 B( 11-C , 13-C ) :   0.9415
B( 13-C , 14-C ) :   1.0426 B( 13-C , 20-C ) :   1.6597 B( 14-C , 15-C ) :   1.6480
B( 15-C , 16-C ) :   1.1645 B( 15-C , 18-C ) :   1.1289 B( 16-C , 17-N ) :   3.0078
B( 18-C , 19-N ) :   2.9859 B( 20-C , 21-C ) :   1.1372 B( 20-C , 83-H ) :   0.9281
B( 21-C , 22-C ) :   1.4153 B( 21-C , 26-S ) :   1.0892 B( 22-C , 23-C ) :   1.3361
B( 22-C , 84-H ) :   0.9951 B( 23-C , 24-Cl) :   1.0369 B( 23-C , 25-C ) :   1.4311
B( 25-C , 26-S ) :   1.1591 B( 25-C , 27-C ) :   1.1874 B( 27-C , 28-C ) :   1.4667
B( 27-C , 32-S ) :   1.1155 B( 28-C , 29-Cl) :   1.0375 B( 28-C , 30-C ) :   1.2764
B( 30-C , 31-C ) :   1.4659 B( 30-C , 85-H ) :   1.0030 B( 31-C , 32-S ) :   1.1179
B( 31-C , 33-C ) :   1.1599 B( 33-C , 34-C ) :   1.4740 B( 33-C , 38-S ) :   1.1063
B( 34-C , 35-C ) :   1.2702 B( 34-C , 86-H ) :   1.0027 B( 35-C , 36-Cl) :   1.0297
B( 35-C , 37-C ) :   1.4772 B( 37-C , 38-S ) :   1.1236 B( 37-C , 39-C ) :   1.1780
B( 39-C , 40-C ) :   1.4786 B( 39-C , 44-S ) :   1.1230 B( 40-C , 41-Cl) :   1.0316
B( 40-C , 42-C ) :   1.2689 B( 42-C , 43-C ) :   1.4779 B( 42-C , 87-H ) :   1.0030
B( 43-C , 44-S ) :   1.1083 B( 43-C , 45-C ) :   1.1497 B( 45-C , 46-C ) :   1.4870
B( 45-C , 49-C ) :   0.1071 B( 45-C , 50-S ) :   1.1269 B( 46-C , 47-C ) :   1.2376
B( 46-C , 88-H ) :   1.0034 B( 47-C , 48-Cl) :   1.0613 B( 47-C , 49-C ) :   1.5429
B( 49-C , 50-S ) :   1.1197 B( 49-C , 51-C ) :   1.0681 B( 51-C , 52-C ) :   1.5163
B( 51-C , 55-C ) :   0.1026 B( 51-C , 56-S ) :   1.1506 B( 52-C , 53-Cl) :   1.0579
B( 52-C , 54-C ) :   1.2525 B( 54-C , 55-C ) :   1.4441 B( 54-C , 89-H ) :   1.0077
B( 55-C , 56-S ) :   1.1003 B( 55-C , 57-C ) :   1.1182 B( 57-C , 58-C ) :   1.6649
B( 57-C , 90-H ) :   0.9487 B( 58-C , 59-C ) :   0.9333 B( 58-C , 72-C ) :   1.0257
B( 59-C , 60-O ) :   2.2767 B( 59-C , 61-C ) :   0.9221 B( 61-C , 62-C ) :   1.4714
B( 61-C , 71-C ) :   1.2192 B( 62-C , 63-C ) :   1.1944 B( 62-C , 91-H ) :   1.0146
B( 63-C , 64-C ) :   1.2572 B( 63-C , 68-C ) :   1.2330 B( 64-C , 65-C ) :   1.2020
B( 64-C , 70-C ) :   1.2047 B( 65-C , 66-C ) :   1.4407 B( 65-C , 92-H ) :   1.0066
B( 66-C , 67-C ) :   1.2562 B( 66-C , 69-F ) :   1.0903 B( 67-C , 68-C ) :   1.4626
B( 67-C , 93-H ) :   0.9919 B( 68-C , 94-H ) :   0.9968 B( 70-C , 71-C ) :   1.4614
B( 70-C , 95-H ) :   0.9953 B( 71-C , 72-C ) :   1.0020 B( 72-C , 73-C ) :   1.6679
B( 73-C , 74-C ) :   1.1459 B( 73-C , 76-C ) :   1.1367 B( 74-C , 75-N ) :   3.0296
B( 76-C , 77-N ) :   2.9903

-----------------------------------------------------------------------------
         ABSORPTION SPECTRUM VIA TRANSITION ELECTRIC DIPOLE MOMENTS
-----------------------------------------------------------------------------
State   Energy  Wavelength   fosc         T2         TX        TY        TZ
        (cm-1)    (nm)                  (au**2)     (au)      (au)      (au)
-----------------------------------------------------------------------------
   0   17330.8    577.0   2.070660074  39.33374  -3.93728   2.10753   4.40340
   1   18669.5    535.6   0.101861895   1.79620   0.11491  -1.02044   0.86122
   2   23825.9    419.7   0.718577713   9.92888   2.18585  -2.21306  -0.50330
   3   24438.2    409.2   0.128147565   1.72630   0.55640  -0.36300  -1.13356
   4   26057.1    383.8   0.248166915   3.13541   1.06725  -0.51074  -1.31740
   5   26954.9    371.0   0.025210045   0.30790  -0.19230  -0.46046   0.24268
   6   27135.2    368.5   0.081803514   0.99246  -0.50619   0.12989   0.84815
   7   27668.6    361.4   0.014672233   0.17458  -0.19494  -0.30729  -0.20530
   8   28121.4    355.6   0.057384474   0.67179   0.76790   0.07525  -0.27650
   9   28676.3    348.7   0.146302621   1.67959   0.51694   1.17685  -0.16552
  10   29142.0    343.1   0.106991266   1.20866   0.64193  -0.32841  -0.82990
  11   29500.9    339.0   0.002311963   0.02580  -0.15273   0.04518   0.02078
  12   30180.3    331.3   0.122886140   1.34046   0.31841   1.11313  -0.00515
  13   30352.5    329.5   0.072914065   0.79085   0.35014  -0.43539  -0.69187
  14   31170.5    320.8   0.057019656   0.60222   0.53822   0.03126  -0.55818
  15   31416.3    318.3   0.018353563   0.19233  -0.39395  -0.01351  -0.19222
  16   31631.6    316.1   0.167311577   1.74133  -0.21538   1.05095  -0.76841
  17   31948.9    313.0   0.038505468   0.39677  -0.44993   0.23966  -0.37000
  18   32713.8    305.7   0.042525399   0.42795  -0.38526   0.52846  -0.01587
  19   33065.4    302.4   0.006775277   0.06746   0.19016  -0.15383  -0.08735
  20   33623.6    297.4   0.244052959   2.38955  -1.08096   0.17094   1.09172
  21   34036.9    293.8   0.534668079   5.17142  -0.62168  -2.18610   0.07674
  22   34220.1    292.2   0.107309767   1.03236   0.64273  -0.07339  -0.78350
  23   34741.2    287.8   0.186817521   1.77031   0.68816   0.36011  -1.08031
  24   34855.3    286.9   0.295547548   2.79148   0.19459  -1.49999  -0.70969
  25   35194.7    284.1   0.210707607   1.97096  -0.14881   1.36391   0.29762
  26   35496.2    281.7   0.146428670   1.35806  -0.28383  -0.23067   1.10648
  27   35891.1    278.6   0.018486304   0.16957   0.26187  -0.06834   0.31036
  28   36081.1    277.2   0.246051901   2.24503   0.20871  -1.44978   0.31561
  29   36621.4    273.1   0.207126999   1.86199   0.36538  -0.44468   1.23723
  30   37124.8    269.4   0.027177537   0.24100   0.15711  -0.43101  -0.17478
  31   37165.9    269.1   0.020484471   0.18145   0.37496   0.04805  -0.19633
  32   37395.9    267.4   0.035386137   0.31152  -0.29465   0.10635   0.46194
  33   37961.3    263.4   0.011866086   0.10291   0.02813  -0.01743   0.31908
  34   38632.0    258.9   0.037208614   0.31708   0.56096   0.01988  -0.04487
  35   38782.3    257.8   0.046725201   0.39664   0.04339  -0.62585   0.05543
  36   39040.6    256.1   0.064428760   0.54330   0.35848   0.61650  -0.18632
  37   39114.6    255.7   0.052505849   0.44192   0.16817   0.52003  -0.37842
  38   39295.6    254.5   0.128812045   1.07916   0.88798  -0.07550  -0.53382
  39   39494.1    253.2   0.017984747   0.14992  -0.20788   0.28930  -0.15168
  40   39549.9    252.8   0.150773028   1.25503  -0.61200   0.91672  -0.20027
  41   40134.8    249.2   0.027912644   0.22896  -0.46380  -0.11663   0.01571
  42   40304.2    248.1   0.012420068   0.10145   0.27794  -0.07749  -0.13488

FINAL SINGLE POINT ENERGY     -7935.375554111248

DIPOLE MOMENT
-------------
                                X             Y             Z
Electronic contribution:      4.78634     -33.75061       5.55628
Nuclear contribution   :     -2.64104      36.07197      -5.40043
                        -----------------------------------------
Total Dipole Moment    :      2.14529       2.32136       0.15585
                        -----------------------------------------
Magnitude (a.u.)       :      3.16469
Magnitude (Debye)      :      8.04401

Rotational constants in cm-1:     0.001327     0.000126     0.000119
Rotational constants in MHz :    39.780262     3.775528     3.553585

                             ****ORCA TERMINATED NORMALLY****
TOTAL RUN TIME: 0 days 0 hours 10 minutes 22 seconds 582 msec
