                         Program Version 4.2.0 -  RELEASE  -
|  1> # ORCA input file
|  2> # SCF done       -201.362232889958          0.000735833469
|  3> ! CAM-B3LYP def2-SVP def2/J RIJCOSX Grid4 TightSCF
|  4> %maxcore 5000
|  5> %tddft
|  6>     Mode sTDDFT
|  7>     Ethresh 5.0
|  8>     maxcore 5000
|  9> end
| 10>
| 11> %pal
| 12>   nprocs 6
| 13>   end
| 14> * xyz 0 1
| 15>    C       13.27038         5.69210         3.10313
| 16>    C       13.47731         6.79637         3.88174
| 17>    F       14.33184         7.75001         3.46559
| 18>    C       12.82905         6.98258         5.11005
| 19>    C       11.95516         6.02650         5.54742
| 20>    C       11.70235         4.86852         4.78383
| 21>    C       12.37558         4.69557         3.53920
| 22>    C       12.14643         3.53742         2.75996
| 23>    C       11.26931         2.58998         3.21261
| 24>    C       10.57876         2.78026         4.44358
| 25>    C       10.78902         3.88256         5.22051
| 26>    C        9.64853         1.65430         4.65502
| 27>    O        8.94012         1.44449         5.61358
| 28>    C        9.71273         0.84999         3.40179
| 29>    C       10.85648         1.31085         2.64118
| 30>    C       11.58976         0.58983         1.73591
| 31>    C       11.28396        -0.72989         1.34809
| 32>    N       11.10541        -1.81455         1.01712
| 33>    C       12.78377         1.04894         1.14715
| 34>    N       13.76333         1.36373         0.63693
| 35>    C        8.72517        -0.04998         3.14988
| 36>    C        8.33232        -0.65200         1.91134
| 37>    C        8.59493        -0.04797         0.69925
| 38>    C        8.14727        -0.64095        -0.49169
| 39>    C        8.31597        -0.23650        -1.81280
| 40>    C        9.09819         0.97969        -2.18086
| 41>    C       10.61729         0.70133        -2.04989
| 42>    N       11.28089         1.90839        -1.59621
| 43>    C        8.76930         1.59369        -3.54550
| 44>    N        9.34732         2.92714        -3.63502
| 45>    C        7.65294        -1.22667        -2.62930
| 46>    C        7.48480        -1.34722        -3.96061
| 47>    C        6.64414        -2.42801        -4.55397
| 48>    C        6.16464        -3.45572        -3.58484
| 49>    C        6.36271        -3.34330        -2.25911
| 50>    C        7.07640        -2.24307        -1.72809
| 51>    C        7.39556        -1.88314        -0.43595
| 52>    C        7.11979        -2.46948         0.82263
| 53>    C        7.56651        -1.86644         1.95128
| 54>    C        7.29612        -2.97611        -5.79603
| 55>    C        7.65382        -4.24895        -5.97792
| 56>    C        8.20699        -4.76682        -7.19693
| 57>    C        8.59617        -4.09812        -8.33744
| 58>    C        9.01350        -4.97267        -9.34569
| 59>    C        8.93870        -6.31986        -8.96478
| 60>    S        8.37389        -6.50630        -7.36605
| 61>    C        9.33620        -7.12319       -10.06878
| 62>    C        9.66485        -6.27959       -11.13995
| 63>    C        9.48299        -4.90020       -10.72008
| 64>    C        9.69564        -3.77255       -11.46074
| 65>    C       10.15106        -3.82575       -12.79387
| 66>    N       10.52045        -3.86874       -13.87886
| 67>    C        9.46829        -2.48353       -10.93780
| 68>    N        9.27850        -1.43604       -10.51043
| 69>    C       10.03357        -6.98278       -12.29089
| 70>    C        9.98377        -8.34768       -12.10686
| 71>    S        9.48263        -8.77268       -10.47147
| 72>    C       10.24542        -9.38159       -13.06512
| 73>    C       10.64412        -9.12396       -14.38864
| 74>    N       10.83199       -10.07886       -15.26597
| 75>    C       10.63584       -11.34038       -14.86915
| 76>    N       10.28883       -11.70328       -13.63006
| 77>    C       10.10160       -10.74490       -12.75711
| 78>    C       10.80247       -12.37015       -15.85036
| 79>    C       10.63011       -13.72890       -15.68889
| 80>    C       10.85679       -14.41615       -16.88255
| 81>    C       11.20247       -13.56042       -17.94168
| 82>    S       11.24936       -11.92147       -17.47770
| 83>    C       11.40474       -14.35497       -19.10886
| 84>    C       11.18568       -15.69735       -18.78273
| 85>    C       10.83423       -15.78615       -17.37555
| 86>    C       10.54012       -16.91408       -16.66680
| 87>    C       10.54531       -18.19524       -17.25731
| 88>    N       10.54785       -19.24022       -17.72937
| 89>    C       10.20702       -16.88206       -15.29611
| 90>    N        9.93385       -16.87326       -14.18266
| 91>    C       11.36116       -16.55509       -19.88530
| 92>    C       11.70363       -15.85772       -21.00413
| 93>    S       11.82185       -14.14849       -20.75081
| 94>    H       13.79011         5.57985         2.16453
| 95>    H       13.03260         7.87407         5.68181
| 96>    H       11.44288         6.14783         6.49005
| 97>    H       12.65719         3.43370         1.81564
| 98>    H       10.26209         4.00492         6.15495
| 99>    H        8.10128        -0.28172         4.00882
|100>    H        9.11113         0.89986         0.66065
|101>    H        8.87904         1.74483        -1.42565
|102>    H       10.99160         0.32229        -3.01427
|103>    H       10.78290        -0.08056        -1.30230
|104>    H       11.14256         2.63417        -2.29490
|105>    H       12.27815         1.74960        -1.49406
|106>    H        7.67407         1.58968        -3.68607
|107>    H        9.22448         0.99972        -4.34240
|108>    H        8.90423         3.54784        -2.96519
|109>    H        9.20346         3.31539        -4.56075
|110>    H        7.92143        -0.65602        -4.66482
|111>    H        5.73982        -1.90143        -4.91871
|112>    H        5.59697        -4.27433        -3.99960
|113>    H        5.97919        -4.09002        -1.57940
|114>    H        6.55437        -3.38817         0.87106
|115>    H        7.36831        -2.30149         2.91958
|116>    H        7.45887        -2.24880        -6.57910
|117>    H        7.49886        -4.97454        -5.19163
|118>    H        8.57852        -3.02859        -8.43281
|119>    H       10.31493        -6.51948       -13.21854
|120>    H       10.81311        -8.11753       -14.74728
|121>    H        9.81807       -11.06194       -11.76005
|122>    H       10.35313       -14.16291       -14.74600
|123>    H       11.24262       -17.62282       -19.85991
|124>    H       11.89863       -16.24499       -21.98414
|125> *
|126>
|127>                          ****END OF INPUT****

CARTESIAN COORDINATES (ANGSTROEM)
---------------------------------
  C     13.270380    5.692100    3.103130
  C     13.477310    6.796370    3.881740
  F     14.331840    7.750010    3.465590
  C     12.829050    6.982580    5.110050
  C     11.955160    6.026500    5.547420
  C     11.702350    4.868520    4.783830
  C     12.375580    4.695570    3.539200
  C     12.146430    3.537420    2.759960
  C     11.269310    2.589980    3.212610
  C     10.578760    2.780260    4.443580
  C     10.789020    3.882560    5.220510
  C      9.648530    1.654300    4.655020
  O      8.940120    1.444490    5.613580
  C      9.712730    0.849990    3.401790
  C     10.856480    1.310850    2.641180
  C     11.589760    0.589830    1.735910
  C     11.283960   -0.729890    1.348090
  N     11.105410   -1.814550    1.017120
  C     12.783770    1.048940    1.147150
  N     13.763330    1.363730    0.636930
  C      8.725170   -0.049980    3.149880
  C      8.332320   -0.652000    1.911340
  C      8.594930   -0.047970    0.699250
  C      8.147270   -0.640950   -0.491690
  C      8.315970   -0.236500   -1.812800
  C      9.098190    0.979690   -2.180860
  C     10.617290    0.701330   -2.049890
  N     11.280890    1.908390   -1.596210
  C      8.769300    1.593690   -3.545500
  N      9.347320    2.927140   -3.635020
  C      7.652940   -1.226670   -2.629300
  C      7.484800   -1.347220   -3.960610
  C      6.644140   -2.428010   -4.553970
  C      6.164640   -3.455720   -3.584840
  C      6.362710   -3.343300   -2.259110
  C      7.076400   -2.243070   -1.728090
  C      7.395560   -1.883140   -0.435950
  C      7.119790   -2.469480    0.822630
  C      7.566510   -1.866440    1.951280
  C      7.296120   -2.976110   -5.796030
  C      7.653820   -4.248950   -5.977920
  C      8.206990   -4.766820   -7.196930
  C      8.596170   -4.098120   -8.337440
  C      9.013500   -4.972670   -9.345690
  C      8.938700   -6.319860   -8.964780
  S      8.373890   -6.506300   -7.366050
  C      9.336200   -7.123190  -10.068780
  C      9.664850   -6.279590  -11.139950
  C      9.482990   -4.900200  -10.720080
  C      9.695640   -3.772550  -11.460740
  C     10.151060   -3.825750  -12.793870
  N     10.520450   -3.868740  -13.878860
  C      9.468290   -2.483530  -10.937800
  N      9.278500   -1.436040  -10.510430
  C     10.033570   -6.982780  -12.290890
  C      9.983770   -8.347680  -12.106860
  S      9.482630   -8.772680  -10.471470
  C     10.245420   -9.381590  -13.065120
  C     10.644120   -9.123960  -14.388640
  N     10.831990  -10.078860  -15.265970
  C     10.635840  -11.340380  -14.869150
  N     10.288830  -11.703280  -13.630060
  C     10.101600  -10.744900  -12.757110
  C     10.802470  -12.370150  -15.850360
  C     10.630110  -13.728900  -15.688890
  C     10.856790  -14.416150  -16.882550
  C     11.202470  -13.560420  -17.941680
  S     11.249360  -11.921470  -17.477700
  C     11.404740  -14.354970  -19.108860
  C     11.185680  -15.697350  -18.782730
  C     10.834230  -15.786150  -17.375550
  C     10.540120  -16.914080  -16.666800
  C     10.545310  -18.195240  -17.257310
  N     10.547850  -19.240220  -17.729370
  C     10.207020  -16.882060  -15.296110
  N      9.933850  -16.873260  -14.182660
  C     11.361160  -16.555090  -19.885300
  C     11.703630  -15.857720  -21.004130
  S     11.821850  -14.148490  -20.750810
  H     13.790110    5.579850    2.164530
  H     13.032600    7.874070    5.681810
  H     11.442880    6.147830    6.490050
  H     12.657190    3.433700    1.815640
  H     10.262090    4.004920    6.154950
  H      8.101280   -0.281720    4.008820
  H      9.111130    0.899860    0.660650
  H      8.879040    1.744830   -1.425650
  H     10.991600    0.322290   -3.014270
  H     10.782900   -0.080560   -1.302300
  H     11.142560    2.634170   -2.294900
  H     12.278150    1.749600   -1.494060
  H      7.674070    1.589680   -3.686070
  H      9.224480    0.999720   -4.342400
  H      8.904230    3.547840   -2.965190
  H      9.203460    3.315390   -4.560750
  H      7.921430   -0.656020   -4.664820
  H      5.739820   -1.901430   -4.918710
  H      5.596970   -4.274330   -3.999600
  H      5.979190   -4.090020   -1.579400
  H      6.554370   -3.388170    0.871060
  H      7.368310   -2.301490    2.919580
  H      7.458870   -2.248800   -6.579100
  H      7.498860   -4.974540   -5.191630
  H      8.578520   -3.028590   -8.432810
  H     10.314930   -6.519480  -13.218540
  H     10.813110   -8.117530  -14.747280
  H      9.818070  -11.061940  -11.760050
  H     10.353130  -14.162910  -14.746000
  H     11.242620  -17.622820  -19.859910
  H     11.898630  -16.244990  -21.984140

 Total Charge           Charge          ....    0
 Multiplicity           Mult            ....    1
 Number of Electrons    NEL             ....  560
 Basis Dimension        Dim             .... 1277

ORBITAL ENERGIES
----------------

  NO   OCC          E(Eh)            E(eV)
   0   2.0000     -88.994087     -2421.6522
   1   2.0000     -88.991044     -2421.5694
   2   2.0000     -88.984296     -2421.3858
   3   2.0000     -88.982713     -2421.3427
   4   2.0000     -24.782099      -674.3552
   5   2.0000     -19.206880      -522.6458
   6   2.0000     -14.434598      -392.7854
   7   2.0000     -14.434223      -392.7752
   8   2.0000     -14.424999      -392.5242
   9   2.0000     -14.424022      -392.4976
  10   2.0000     -14.423563      -392.4851
  11   2.0000     -14.423059      -392.4714
  12   2.0000     -14.408782      -392.0829
  13   2.0000     -14.408168      -392.0662
  14   2.0000     -14.393956      -391.6794
  15   2.0000     -14.359787      -390.7497
  16   2.0000     -10.367700      -282.1195
  17   2.0000     -10.365265      -282.0532
  18   2.0000     -10.358399      -281.8664
  19   2.0000     -10.358352      -281.8651
  20   2.0000     -10.357202      -281.8338
  21   2.0000     -10.355549      -281.7888
  22   2.0000     -10.345345      -281.5111
  23   2.0000     -10.336615      -281.2736
  24   2.0000     -10.336005      -281.2570
  25   2.0000     -10.335566      -281.2451
  26   2.0000     -10.335273      -281.2371
  27   2.0000     -10.334699      -281.2215
  28   2.0000     -10.334556      -281.2176
  29   2.0000     -10.333739      -281.1953
  30   2.0000     -10.332306      -281.1563
  31   2.0000     -10.329151      -281.0705
  32   2.0000     -10.326296      -280.9928
  33   2.0000     -10.324765      -280.9511
  34   2.0000     -10.324644      -280.9479
  35   2.0000     -10.323894      -280.9274
  36   2.0000     -10.323440      -280.9151
  37   2.0000     -10.312749      -280.6242
  38   2.0000     -10.312728      -280.6236
  39   2.0000     -10.311593      -280.5927
  40   2.0000     -10.309278      -280.5297
  41   2.0000     -10.309033      -280.5231
  42   2.0000     -10.308117      -280.4981
  43   2.0000     -10.306117      -280.4437
  44   2.0000     -10.305539      -280.4280
  45   2.0000     -10.305536      -280.4279
  46   2.0000     -10.305097      -280.4159
  47   2.0000     -10.305050      -280.4147
  48   2.0000     -10.301173      -280.3092
  49   2.0000     -10.300216      -280.2831
  50   2.0000     -10.299504      -280.2638
  51   2.0000     -10.296705      -280.1876
  52   2.0000     -10.296285      -280.1762
  53   2.0000     -10.296243      -280.1750
  54   2.0000     -10.295870      -280.1649
  55   2.0000     -10.295075      -280.1432
  56   2.0000     -10.294585      -280.1299
  57   2.0000     -10.294519      -280.1281
  58   2.0000     -10.294156      -280.1182
  59   2.0000     -10.293553      -280.1018
  60   2.0000     -10.293545      -280.1016
  61   2.0000     -10.292163      -280.0640
  62   2.0000     -10.290391      -280.0158
  63   2.0000     -10.288476      -279.9637
  64   2.0000     -10.284677      -279.8603
  65   2.0000     -10.284351      -279.8514
  66   2.0000     -10.284017      -279.8423
  67   2.0000     -10.283190      -279.8198
  68   2.0000     -10.282966      -279.8137
  69   2.0000     -10.277771      -279.6724
  70   2.0000     -10.274395      -279.5805
  71   2.0000     -10.272929      -279.5406
  72   2.0000     -10.272160      -279.5197
  73   2.0000     -10.271713      -279.5075
  74   2.0000     -10.270676      -279.4793
  75   2.0000     -10.268130      -279.4100
  76   2.0000     -10.266298      -279.3602
  77   2.0000     -10.265925      -279.3500
  78   2.0000     -10.265449      -279.3371
  79   2.0000      -8.088533      -220.1002
  80   2.0000      -8.085795      -220.0257
  81   2.0000      -8.079297      -219.8488
  82   2.0000      -8.076799      -219.7809
  83   2.0000      -6.057754      -164.8399
  84   2.0000      -6.054906      -164.7624
  85   2.0000      -6.053590      -164.7266
  86   2.0000      -6.050984      -164.6556
  87   2.0000      -6.050828      -164.6514
  88   2.0000      -6.048506      -164.5882
  89   2.0000      -6.048348      -164.5839
  90   2.0000      -6.045951      -164.5187
  91   2.0000      -6.044125      -164.4690
  92   2.0000      -6.041936      -164.4094
  93   2.0000      -6.041721      -164.4036
  94   2.0000      -6.039455      -164.3419
  95   2.0000      -1.296628       -35.2830
  96   2.0000      -1.121912       -30.5288
  97   2.0000      -1.098583       -29.8940
  98   2.0000      -1.047184       -28.4953
  99   2.0000      -1.037031       -28.2190
 100   2.0000      -1.025727       -27.9114
 101   2.0000      -1.015219       -27.6255
 102   2.0000      -1.012019       -27.5384
 103   2.0000      -1.011963       -27.5369
 104   2.0000      -1.001341       -27.2479
 105   2.0000      -1.001071       -27.2405
 106   2.0000      -0.994568       -27.0636
 107   2.0000      -0.993354       -27.0305
 108   2.0000      -0.989825       -26.9345
 109   2.0000      -0.988542       -26.8996
 110   2.0000      -0.986637       -26.8478
 111   2.0000      -0.975938       -26.5566
 112   2.0000      -0.970676       -26.4134
 113   2.0000      -0.964747       -26.2521
 114   2.0000      -0.952574       -25.9209
 115   2.0000      -0.951052       -25.8794
 116   2.0000      -0.940078       -25.5808
 117   2.0000      -0.930862       -25.3300
 118   2.0000      -0.926155       -25.2020
 119   2.0000      -0.916904       -24.9502
 120   2.0000      -0.908692       -24.7268
 121   2.0000      -0.895336       -24.3633
 122   2.0000      -0.891213       -24.2511
 123   2.0000      -0.884287       -24.0627
 124   2.0000      -0.881326       -23.9821
 125   2.0000      -0.875551       -23.8250
 126   2.0000      -0.866623       -23.5820
 127   2.0000      -0.859495       -23.3881
 128   2.0000      -0.857026       -23.3209
 129   2.0000      -0.851969       -23.1833
 130   2.0000      -0.846801       -23.0426
 131   2.0000      -0.843496       -22.9527
 132   2.0000      -0.831723       -22.6323
 133   2.0000      -0.829917       -22.5832
 134   2.0000      -0.824945       -22.4479
 135   2.0000      -0.814252       -22.1569
 136   2.0000      -0.791103       -21.5270
 137   2.0000      -0.782522       -21.2935
 138   2.0000      -0.775484       -21.1020
 139   2.0000      -0.771979       -21.0066
 140   2.0000      -0.762496       -20.7486
 141   2.0000      -0.757705       -20.6182
 142   2.0000      -0.756136       -20.5755
 143   2.0000      -0.751414       -20.4470
 144   2.0000      -0.739528       -20.1236
 145   2.0000      -0.725000       -19.7283
 146   2.0000      -0.717952       -19.5365
 147   2.0000      -0.710515       -19.3341
 148   2.0000      -0.704656       -19.1747
 149   2.0000      -0.703837       -19.1524
 150   2.0000      -0.696962       -18.9653
 151   2.0000      -0.694424       -18.8962
 152   2.0000      -0.687485       -18.7074
 153   2.0000      -0.685564       -18.6552
 154   2.0000      -0.681908       -18.5557
 155   2.0000      -0.676241       -18.4015
 156   2.0000      -0.671302       -18.2670
 157   2.0000      -0.669004       -18.2045
 158   2.0000      -0.664259       -18.0754
 159   2.0000      -0.658526       -17.9194
 160   2.0000      -0.645842       -17.5743
 161   2.0000      -0.643747       -17.5173
 162   2.0000      -0.638199       -17.3663
 163   2.0000      -0.633476       -17.2378
 164   2.0000      -0.629093       -17.1185
 165   2.0000      -0.625174       -17.0119
 166   2.0000      -0.621498       -16.9118
 167   2.0000      -0.618374       -16.8268
 168   2.0000      -0.614771       -16.7288
 169   2.0000      -0.609011       -16.5720
 170   2.0000      -0.603978       -16.4351
 171   2.0000      -0.601677       -16.3725
 172   2.0000      -0.597592       -16.2613
 173   2.0000      -0.594099       -16.1663
 174   2.0000      -0.584299       -15.8996
 175   2.0000      -0.581568       -15.8253
 176   2.0000      -0.577281       -15.7086
 177   2.0000      -0.569230       -15.4895
 178   2.0000      -0.566188       -15.4068
 179   2.0000      -0.561209       -15.2713
 180   2.0000      -0.559059       -15.2128
 181   2.0000      -0.554371       -15.0852
 182   2.0000      -0.551556       -15.0086
 183   2.0000      -0.549452       -14.9513
 184   2.0000      -0.548890       -14.9361
 185   2.0000      -0.545306       -14.8385
 186   2.0000      -0.544669       -14.8212
 187   2.0000      -0.544162       -14.8074
 188   2.0000      -0.540179       -14.6990
 189   2.0000      -0.534886       -14.5550
 190   2.0000      -0.534769       -14.5518
 191   2.0000      -0.531790       -14.4707
 192   2.0000      -0.531067       -14.4511
 193   2.0000      -0.526618       -14.3300
 194   2.0000      -0.521226       -14.1833
 195   2.0000      -0.519569       -14.1382
 196   2.0000      -0.519160       -14.1271
 197   2.0000      -0.518084       -14.0978
 198   2.0000      -0.514657       -14.0045
 199   2.0000      -0.512426       -13.9438
 200   2.0000      -0.511172       -13.9097
 201   2.0000      -0.508152       -13.8275
 202   2.0000      -0.504313       -13.7231
 203   2.0000      -0.502654       -13.6779
 204   2.0000      -0.500966       -13.6320
 205   2.0000      -0.498429       -13.5629
 206   2.0000      -0.497046       -13.5253
 207   2.0000      -0.495816       -13.4918
 208   2.0000      -0.495124       -13.4730
 209   2.0000      -0.490886       -13.3577
 210   2.0000      -0.489261       -13.3135
 211   2.0000      -0.487783       -13.2733
 212   2.0000      -0.484603       -13.1867
 213   2.0000      -0.483863       -13.1666
 214   2.0000      -0.482363       -13.1258
 215   2.0000      -0.477564       -12.9952
 216   2.0000      -0.475747       -12.9457
 217   2.0000      -0.472603       -12.8602
 218   2.0000      -0.470358       -12.7991
 219   2.0000      -0.469128       -12.7656
 220   2.0000      -0.466058       -12.6821
 221   2.0000      -0.465154       -12.6575
 222   2.0000      -0.463640       -12.6163
 223   2.0000      -0.462297       -12.5797
 224   2.0000      -0.458342       -12.4721
 225   2.0000      -0.455278       -12.3887
 226   2.0000      -0.454867       -12.3776
 227   2.0000      -0.451830       -12.2949
 228   2.0000      -0.451197       -12.2777
 229   2.0000      -0.450030       -12.2459
 230   2.0000      -0.445919       -12.1341
 231   2.0000      -0.445278       -12.1166
 232   2.0000      -0.444782       -12.1031
 233   2.0000      -0.443928       -12.0799
 234   2.0000      -0.442641       -12.0449
 235   2.0000      -0.441093       -12.0027
 236   2.0000      -0.439752       -11.9663
 237   2.0000      -0.438124       -11.9220
 238   2.0000      -0.437182       -11.8963
 239   2.0000      -0.434281       -11.8174
 240   2.0000      -0.433456       -11.7949
 241   2.0000      -0.432651       -11.7730
 242   2.0000      -0.432593       -11.7715
 243   2.0000      -0.431478       -11.7411
 244   2.0000      -0.429794       -11.6953
 245   2.0000      -0.423671       -11.5287
 246   2.0000      -0.421125       -11.4594
 247   2.0000      -0.419849       -11.4247
 248   2.0000      -0.417457       -11.3596
 249   2.0000      -0.412676       -11.2295
 250   2.0000      -0.409025       -11.1301
 251   2.0000      -0.408073       -11.1042
 252   2.0000      -0.407777       -11.0962
 253   2.0000      -0.401962       -10.9379
 254   2.0000      -0.398857       -10.8535
 255   2.0000      -0.397919       -10.8279
 256   2.0000      -0.395509       -10.7624
 257   2.0000      -0.392862       -10.6903
 258   2.0000      -0.387120       -10.5341
 259   2.0000      -0.384421       -10.4606
 260   2.0000      -0.374772       -10.1981
 261   2.0000      -0.369969       -10.0674
 262   2.0000      -0.360326        -9.8050
 263   2.0000      -0.350962        -9.5502
 264   2.0000      -0.349059        -9.4984
 265   2.0000      -0.340802        -9.2737
 266   2.0000      -0.335009        -9.1161
 267   2.0000      -0.331950        -9.0328
 268   2.0000      -0.329345        -8.9619
 269   2.0000      -0.328154        -8.9295
 270   2.0000      -0.322141        -8.7659
 271   2.0000      -0.315416        -8.5829
 272   2.0000      -0.314610        -8.5610
 273   2.0000      -0.309144        -8.4122
 274   2.0000      -0.297254        -8.0887
 275   2.0000      -0.290026        -7.8920
 276   2.0000      -0.286226        -7.7886
 277   2.0000      -0.279044        -7.5932
 278   2.0000      -0.253425        -6.8961
 279   2.0000      -0.227611        -6.1936
 280   0.0000      -0.107431        -2.9234
 281   0.0000      -0.096454        -2.6246
 282   0.0000      -0.091253        -2.4831
 283   0.0000      -0.064655        -1.7593
 284   0.0000      -0.055602        -1.5130

MULLIKEN ATOMIC CHARGES
-----------------------
   0 C :   -0.095859
   1 C :    0.301285
   2 F :   -0.192854
   3 C :   -0.030125
   4 C :   -0.010000
   5 C :    0.099769
   6 C :    0.101792
   7 C :   -0.078780
   8 C :    0.023669
   9 C :    0.019127
  10 C :   -0.085331
  11 C :    0.134247
  12 O :   -0.147310
  13 C :   -0.119390
  14 C :    0.274983
  15 C :   -0.336822
  16 C :   -0.200967
  17 N :    0.174203
  18 C :   -0.146499
  19 N :    0.134584
  20 C :    0.023258
  21 C :    0.081285
  22 C :   -0.058344
  23 C :    0.030035
  24 C :   -0.013581
  25 C :   -0.067991
  26 C :    0.152617
  27 N :   -0.240802
  28 C :    0.109511
  29 N :   -0.208454
  30 C :    0.086090
  31 C :   -0.130822
  32 C :    0.195578
  33 C :   -0.077167
  34 C :    0.031379
  35 C :   -0.003742
  36 C :    0.050115
  37 C :    0.006665
  38 C :    0.006885
  39 C :   -0.114103
  40 C :    0.087998
  41 C :   -0.078261
  42 C :   -0.028932
  43 C :   -0.007258
  44 C :   -0.103352
  45 S :    0.191219
  46 C :   -0.092765
  47 C :    0.006241
  48 C :    0.305303
  49 C :   -0.298113
  50 C :   -0.185755
  51 N :    0.170596
  52 C :   -0.181099
  53 N :    0.163483
  54 C :   -0.040209
  55 C :   -0.057939
  56 S :    0.172808
  57 C :    0.035870
  58 C :    0.028551
  59 N :   -0.064532
  60 C :   -0.076197
  61 N :   -0.037016
  62 C :    0.007339
  63 C :   -0.043007
  64 C :   -0.037982
  65 C :    0.002579
  66 C :   -0.096971
  67 S :    0.234206
  68 C :   -0.121246
  69 C :   -0.025858
  70 C :    0.298848
  71 C :   -0.301100
  72 C :   -0.192687
  73 N :    0.170419
  74 C :   -0.190958
  75 N :    0.177340
  76 C :    0.030681
  77 C :   -0.078868
  78 S :    0.182352
  79 H :   -0.004410
  80 H :    0.001761
  81 H :   -0.010976
  82 H :   -0.001805
  83 H :   -0.013716
  84 H :    0.019078
  85 H :   -0.001389
  86 H :   -0.007982
  87 H :   -0.023761
  88 H :    0.006095
  89 H :    0.083457
  90 H :    0.097396
  91 H :   -0.004332
  92 H :    0.010502
  93 H :    0.101450
  94 H :    0.097162
  95 H :   -0.008969
  96 H :    0.055518
  97 H :   -0.008441
  98 H :   -0.034544
  99 H :   -0.034876
 100 H :   -0.023646
 101 H :    0.005927
 102 H :   -0.005399
 103 H :    0.001020
 104 H :    0.005144
 105 H :    0.014528
 106 H :    0.015131
 107 H :    0.017317
 108 H :    0.013251
 109 H :    0.035644
Sum of atomic charges:   -0.0000000

LOEWDIN ATOMIC CHARGES
----------------------
   0 C :   -0.042429
   1 C :    0.092115
   2 F :   -0.067017
   3 C :   -0.038759
   4 C :    0.004021
   5 C :   -0.019293
   6 C :    0.003040
   7 C :    0.012604
   8 C :   -0.015564
   9 C :   -0.058916
  10 C :    0.032364
  11 C :    0.083312
  12 O :   -0.147539
  13 C :   -0.093457
  14 C :    0.067939
  15 C :   -0.133525
  16 C :   -0.017556
  17 N :   -0.041833
  18 C :   -0.007828
  19 N :   -0.065599
  20 C :    0.079338
  21 C :   -0.043517
  22 C :    0.034557
  23 C :   -0.021699
  24 C :   -0.012363
  25 C :   -0.042822
  26 C :    0.033900
  27 N :   -0.131148
  28 C :    0.020733
  29 N :   -0.101057
  30 C :   -0.018313
  31 C :    0.076270
  32 C :   -0.030786
  33 C :   -0.044302
  34 C :   -0.008985
  35 C :   -0.040521
  36 C :   -0.021740
  37 C :   -0.004831
  38 C :   -0.017313
  39 C :   -0.002934
  40 C :   -0.049295
  41 C :   -0.161217
  42 C :   -0.031761
  43 C :   -0.067787
  44 C :   -0.188852
  45 S :    0.481043
  46 C :   -0.174116
  47 C :   -0.073806
  48 C :    0.084878
  49 C :   -0.104601
  50 C :   -0.016496
  51 N :   -0.034251
  52 C :   -0.014081
  53 N :   -0.037832
  54 C :   -0.027210
  55 C :   -0.163919
  56 S :    0.477682
  57 C :   -0.090965
  58 C :    0.058746
  59 N :   -0.092016
  60 C :    0.010890
  61 N :   -0.073110
  62 C :    0.041908
  63 C :   -0.193635
  64 C :   -0.000255
  65 C :   -0.077505
  66 C :   -0.174237
  67 S :    0.511872
  68 C :   -0.186878
  69 C :   -0.072947
  70 C :    0.082656
  71 C :   -0.105440
  72 C :   -0.016724
  73 N :   -0.036592
  74 C :   -0.018246
  75 N :   -0.033042
  76 C :   -0.035429
  77 C :   -0.176483
  78 S :    0.478689
  79 H :    0.042550
  80 H :    0.041124
  81 H :    0.035098
  82 H :    0.040164
  83 H :    0.038853
  84 H :    0.044783
  85 H :    0.032207
  86 H :    0.027112
  87 H :    0.000138
  88 H :    0.016838
  89 H :    0.039334
  90 H :    0.051294
  91 H :   -0.000140
  92 H :    0.015007
  93 H :    0.056670
  94 H :    0.058195
  95 H :    0.029658
  96 H :    0.073234
  97 H :    0.024147
  98 H :    0.031229
  99 H :    0.028362
 100 H :    0.028558
 101 H :    0.026294
 102 H :    0.030422
 103 H :    0.037534
 104 H :    0.038874
 105 H :    0.029222
 106 H :    0.019600
 107 H :    0.045346
 108 H :    0.042628
 109 H :    0.027484

  Mayer bond orders larger than 0.100000
B(  0-C ,  1-C ) :   1.4411 B(  0-C ,  6-C ) :   1.2020 B(  0-C , 79-H ) :   1.0067
B(  1-C ,  2-F ) :   1.0862 B(  1-C ,  3-C ) :   1.2545 B(  3-C ,  4-C ) :   1.4622
B(  3-C , 80-H ) :   0.9930 B(  4-C ,  5-C ) :   1.2341 B(  4-C , 81-H ) :   0.9967
B(  5-C ,  6-C ) :   1.2571 B(  5-C , 10-C ) :   1.1920 B(  6-C ,  7-C ) :   1.2004
B(  7-C ,  8-C ) :   1.4686 B(  7-C , 82-H ) :   0.9951 B(  8-C ,  9-C ) :   1.2191
B(  8-C , 14-C ) :   0.9896 B(  9-C , 10-C ) :   1.4690 B(  9-C , 11-C ) :   0.9173
B( 10-C , 83-H ) :   1.0154 B( 11-C , 12-O ) :   2.2635 B( 11-C , 13-C ) :   0.9424
B( 13-C , 14-C ) :   1.0289 B( 13-C , 20-C ) :   1.6607 B( 14-C , 15-C ) :   1.6625
B( 15-C , 16-C ) :   1.1779 B( 15-C , 18-C ) :   1.1467 B( 16-C , 17-N ) :   2.9572
B( 18-C , 19-N ) :   2.9170 B( 20-C , 21-C ) :   1.0757 B( 20-C , 84-H ) :   0.9406
B( 21-C , 22-C ) :   1.4599 B( 21-C , 38-C ) :   1.1188 B( 22-C , 23-C ) :   1.1973
B( 22-C , 85-H ) :   0.9792 B( 23-C , 24-C ) :   1.4757 B( 23-C , 36-C ) :   1.1239
B( 24-C , 25-C ) :   1.0356 B( 24-C , 30-C ) :   1.0944 B( 25-C , 26-C ) :   1.0123
B( 25-C , 28-C ) :   1.0454 B( 25-C , 86-H ) :   0.8876 B( 26-C , 27-N ) :   1.0940
B( 26-C , 87-H ) :   0.9221 B( 26-C , 88-H ) :   0.9483 B( 27-N , 89-H ) :   0.9447
B( 27-N , 90-H ) :   0.9447 B( 28-C , 29-N ) :   1.0864 B( 28-C , 91-H ) :   0.9535
B( 28-C , 92-H ) :   0.9197 B( 29-N , 93-H ) :   0.9626 B( 29-N , 94-H ) :   0.9663
B( 30-C , 31-C ) :   1.6702 B( 30-C , 35-C ) :   1.0465 B( 31-C , 32-C ) :   0.9558
B( 31-C , 95-H ) :   0.9657 B( 32-C , 33-C ) :   1.0117 B( 32-C , 39-C ) :   0.9466
B( 32-C , 96-H ) :   0.8261 B( 33-C , 34-C ) :   1.7101 B( 33-C , 97-H ) :   0.9650
B( 34-C , 35-C ) :   1.1333 B( 34-C , 98-H ) :   0.9885 B( 35-C , 36-C ) :   1.4453
B( 36-C , 37-C ) :   1.1400 B( 37-C , 38-C ) :   1.6052 B( 37-C , 99-H ) :   0.9893
B( 38-C ,100-H ) :   0.9905 B( 39-C , 40-C ) :   1.8751 B( 39-C ,101-H ) :   0.9681
B( 40-C , 41-C ) :   1.0644 B( 40-C ,102-H ) :   0.9418 B( 41-C , 42-C ) :   1.4958
B( 41-C , 45-S ) :   1.1169 B( 42-C , 43-C ) :   1.2877 B( 42-C ,103-H ) :   0.9922
B( 43-C , 44-C ) :   1.4555 B( 43-C , 48-C ) :   0.9988 B( 44-C , 45-S ) :   1.1228
B( 44-C , 46-C ) :   1.1735 B( 46-C , 47-C ) :   1.4586 B( 46-C , 56-S ) :   1.1296
B( 47-C , 48-C ) :   0.9998 B( 47-C , 54-C ) :   1.2757 B( 48-C , 49-C ) :   1.7072
B( 49-C , 50-C ) :   1.1318 B( 49-C , 52-C ) :   1.1339 B( 50-C , 51-N ) :   2.9890
B( 52-C , 53-N ) :   2.9859 B( 54-C , 55-C ) :   1.5060 B( 54-C ,104-H ) :   0.9872
B( 55-C , 56-S ) :   1.1004 B( 55-C , 57-C ) :   1.0797 B( 57-C , 58-C ) :   1.3196
B( 57-C , 62-C ) :   1.2963 B( 58-C , 59-N ) :   1.5815 B( 58-C ,105-H ) :   0.9838
B( 59-N , 60-C ) :   1.5709 B( 60-C , 61-N ) :   1.5732 B( 60-C , 63-C ) :   1.0339
B( 61-N , 62-C ) :   1.5932 B( 62-C ,106-H ) :   0.9811 B( 63-C , 64-C ) :   1.4829
B( 63-C , 67-S ) :   1.1065 B( 64-C , 65-C ) :   1.2622 B( 64-C ,107-H ) :   1.0061
B( 65-C , 66-C ) :   1.4439 B( 65-C , 70-C ) :   0.9972 B( 66-C , 67-S ) :   1.1390
B( 66-C , 68-C ) :   1.1829 B( 68-C , 69-C ) :   1.4630 B( 68-C , 78-S ) :   1.1360
B( 69-C , 70-C ) :   1.0127 B( 69-C , 76-C ) :   1.2778 B( 70-C , 71-C ) :   1.7108
B( 71-C , 72-C ) :   1.1314 B( 71-C , 74-C ) :   1.1323 B( 72-C , 73-N ) :   3.0010
B( 74-C , 75-N ) :   3.0008 B( 76-C , 77-C ) :   1.5465 B( 76-C ,108-H ) :   0.9966
B( 77-C , 78-S ) :   1.1536 B( 77-C ,109-H ) :   0.9641

-----------------------------------------------------------------------------
         ABSORPTION SPECTRUM VIA TRANSITION ELECTRIC DIPOLE MOMENTS
-----------------------------------------------------------------------------
State   Energy  Wavelength   fosc         T2         TX        TY        TZ
        (cm-1)    (nm)                  (au**2)     (au)      (au)      (au)
-----------------------------------------------------------------------------
   0   11894.8    840.7   0.034557066   0.95643   0.24623  -0.06013   0.94456
   1   12986.0    770.1   0.112584652   2.85417  -0.33829   1.08015   1.25419
   2   15678.4    637.8   0.003219110   0.06759   0.09457   0.15502   0.18606
   3   16085.4    621.7   0.076819903   1.57223   0.16072  -0.82919  -0.92674
   4   17794.3    562.0   0.243759272   4.50979  -1.28557  -1.30359  -1.07599
   5   23141.1    432.1   0.007783889   0.11074  -0.30225  -0.12425  -0.06281
   6   23376.4    427.8   0.011899199   0.16758  -0.03823   0.28231   0.29397
   7   24118.3    414.6   0.263764513   3.60035   0.20907  -1.32319  -1.34381
   8   24711.4    404.7   0.019567089   0.26068  -0.07315   0.37934   0.33381
   9   25041.1    399.3   0.944485618  12.41703   0.92637   1.84832   2.85352
  10   25405.1    393.6   0.082873814   1.07392  -0.77324   0.64533   0.24404
  11   25926.3    385.7   0.699730759   8.88518   0.73394  -2.27429  -1.78161
  12   27185.0    367.8   0.391285965   4.73849   0.17020  -1.59837  -1.46790
  13   27637.7    361.8   0.620082820   7.38625  -0.28984   2.13630   1.65483
  14   27770.2    360.1   0.068861755   0.81635  -0.72259   0.47330   0.26494
  15   28436.5    351.7   0.035497277   0.41096  -0.05947  -0.39920  -0.49806
  16   29581.9    338.0   0.020311624   0.22604  -0.03301   0.05384   0.47123
  17   29906.5    334.4   0.005824554   0.06412  -0.07980  -0.23992   0.01373
  18   30000.1    333.3   0.032334698   0.35483  -0.14104  -0.49329  -0.30267
  19   30531.8    327.5   0.003779911   0.04076  -0.04714   0.12117   0.15444
  20   30778.7    324.9   0.009005510   0.09632   0.05942   0.28194  -0.11535
  21   30966.4    322.9   0.017319537   0.18413  -0.26465  -0.32431  -0.09443
  22   31336.4    319.1   0.083060511   0.87261  -0.56309   0.09730   0.73897
  23   31623.4    316.2   0.173610933   1.80736   0.30476   1.21380  -0.49110
  24   31815.0    314.3   0.591996465   6.12579  -0.59586  -1.56961   1.81854
  25   31949.7    313.0   0.661889553   6.82016  -0.48278  -1.86225   1.76610
  26   32208.5    310.5   0.001735276   0.01774  -0.03627  -0.09217   0.08903
  27   32700.5    305.8   0.006676050   0.06721  -0.09104  -0.23110  -0.07426
  28   32884.8    304.1   0.013633504   0.13649   0.05517  -0.21615   0.29448
  29   33007.2    303.0   1.157006789  11.53993   0.05279  -2.24154  -2.55199
  30   33223.4    301.0   0.069076653   0.68448  -0.66133  -0.44708   0.21735
  31   33512.7    298.4   0.075630284   0.74295   0.07272  -0.79924  -0.31447
  32   33810.9    295.8   0.010562135   0.10284  -0.20874  -0.10543   0.21944
  33   34244.8    292.0   0.003686867   0.03544   0.03732   0.15037  -0.10696
  34   34345.7    291.2   0.004344531   0.04164   0.08820   0.17818   0.04601
  35   34502.9    289.8   0.018377630   0.17535  -0.31825   0.15876  -0.22105
  36   34554.3    289.4   0.263325010   2.50880   0.50395   1.46656   0.32256
  37   34569.7    289.3   0.064824768   0.61734   0.30035   0.72599   0.00790
  38   35007.0    285.7   0.000123306   0.00116  -0.02703   0.01554  -0.01369
  39   35313.3    283.2   0.001214440   0.01132  -0.02985  -0.10161  -0.01028
  40   35529.4    281.5   0.193371887   1.79176   0.44043   1.23781   0.25616
  41   35948.8    278.2   0.069736657   0.63863   0.26028   0.19034  -0.73120
  42   36167.0    276.5   0.011273767   0.10262   0.08968  -0.01218  -0.30729
  43   36324.4    275.3   0.406220537   3.68162  -0.33068  -1.37473  -1.29707
  44   36469.3    274.2   0.037810215   0.34132  -0.57934  -0.05646  -0.04999
  45   36789.8    271.8   0.000091952   0.00082   0.00763   0.02750  -0.00292
  46   37292.9    268.1   0.000974315   0.00860   0.08924  -0.01626   0.01933
  47   37332.1    267.9   0.004206578   0.03710  -0.18174   0.00708  -0.06337
  48   37378.0    267.5   0.018613025   0.16394  -0.36309  -0.17026  -0.05580
  49   37505.6    266.6   0.000140766   0.00124  -0.02944  -0.01594   0.01070
  50   37868.4    264.1   0.013413664   0.11661   0.11773   0.25335   0.19638
  51   38473.3    259.9   0.001072605   0.00918  -0.01597   0.09306   0.01622
  52   38608.5    259.0   0.194460258   1.65815   0.27666  -0.80689  -0.96464
  53   38881.4    257.2   0.042767782   0.36212  -0.33854   0.11998  -0.48282
  54   39022.2    256.3   0.003660643   0.03088  -0.03611   0.00467  -0.17192
  55   39367.2    254.0   0.094487463   0.79016   0.84582   0.25925  -0.08684
  56   39375.4    254.0   0.009357645   0.07824   0.26980   0.00318   0.07374
  57   39647.1    252.2   0.010343445   0.08589   0.15863   0.05804  -0.23949
  58   39765.5    251.5   0.000008099   0.00007   0.00377   0.00190   0.00701
  59   40127.4    249.2   0.048279904   0.39610  -0.16786  -0.35076   0.49486
  60   40284.8    248.2   0.000094625   0.00077  -0.00060   0.01313   0.02451

FINAL SINGLE POINT ENERGY     -4730.037929284413

DIPOLE MOMENT
-------------
                                X             Y             Z
Electronic contribution:     18.33681     -71.77518     -72.22585
Nuclear contribution   :    -20.13207      73.67882      71.29458
                        -----------------------------------------
Total Dipole Moment    :     -1.79526       1.90364      -0.93127
                        -----------------------------------------
Magnitude (a.u.)       :      2.77742
Magnitude (Debye)      :      7.05964

Rotational constants in cm-1:     0.002042     0.000134     0.000132
Rotational constants in MHz :    61.206876     4.021234     3.947915

                             ****ORCA TERMINATED NORMALLY****
TOTAL RUN TIME: 0 days 0 hours 10 minutes 52 seconds 454 msec
