                         Program Version 4.2.0 -  RELEASE  -
|  1> # ORCA input file
|  2> # SCF done       -210.686889410768          0.000415040132
|  3> ! CAM-B3LYP def2-SVP def2/J RIJCOSX Grid4 TightSCF
|  4> %maxcore 5000
|  5> %tddft
|  6>     Mode sTDDFT
|  7>     Ethresh 5.0
|  8>     maxcore 5000
|  9> end
| 10>
| 11> %pal
| 12>   nprocs 6
| 13>   end
| 14> * xyz 0 1
| 15>    C        5.40956         4.37606         7.14192
| 16>    C        4.24982         4.60292         7.83007
| 17>    F        4.28806         4.72872         9.16874
| 18>    C        3.00622         4.71096         7.19289
| 19>    C        2.94734         4.58462         5.83283
| 20>    C        4.11215         4.34900         5.07384
| 21>    C        5.36801         4.24426         5.74072
| 22>    C        6.55216         4.01416         5.00075
| 23>    C        6.47834         3.88886         3.64112
| 24>    C        5.21800         3.97502         2.98151
| 25>    C        4.06075         4.20588         3.66939
| 26>    C        5.41243         3.75312         1.54118
| 27>    O        4.59386         3.80062         0.65235
| 28>    C        6.85996         3.38938         1.38845
| 29>    C        7.51739         3.66727         2.63822
| 30>    C        8.86001         3.86957         2.83194
| 31>    C        9.79510         3.90448         1.77952
| 32>    N       10.58366         3.96042         0.94807
| 33>    C        9.44036         4.20582         4.07307
| 34>    N        9.97179         4.48066         5.05188
| 35>    C        7.23867         2.81539         0.21017
| 36>    C        8.36163         2.02831        -0.12755
| 37>    C        9.26911         1.31563         0.66423
| 38>    C       10.12732         0.58738        -0.19509
| 39>    C        9.71063         0.81405        -1.56581
| 40>    O       10.08825         0.36308        -2.62156
| 41>    N        8.63626         1.71458        -1.43791
| 42>    C        7.98422         2.26582        -2.59397
| 43>    C       11.01987        -0.13817         0.58000
| 44>    N       10.74232         0.12521         1.89642
| 45>    C        9.66172         1.01779         2.02102
| 46>    O        9.24212         1.39967         3.09849
| 47>    C       11.53175        -0.23336         3.04559
| 48>    C       12.04471        -0.97426         0.03959
| 49>    C       12.77785        -0.66167        -1.09511
| 50>    C       13.65400        -1.74339        -1.36572
| 51>    C       13.39505        -2.79093        -0.40236
| 52>    O       13.79404        -3.92592        -0.28636
| 53>    N       12.42947        -2.22026         0.46463
| 54>    C       11.81227        -3.02226         1.48671
| 55>    C       14.38420        -1.43605        -2.50516
| 56>    N       14.00347        -0.19617        -2.93486
| 57>    C       13.03193         0.38026        -2.07052
| 58>    O       12.62103         1.50500        -2.20592
| 59>    C       14.62418         0.59838        -3.96089
| 60>    C       15.38267        -2.30819        -3.04129
| 61>    C       16.24220        -3.05354        -2.24710
| 62>    C       17.03250        -3.87062        -3.09111
| 63>    C       16.62828        -3.62756        -4.45983
| 64>    O       16.96429        -4.11026        -5.51536
| 65>    N       15.61942        -2.63616        -4.34833
| 66>    C       14.85462        -2.23923        -5.50033
| 67>    C       17.96862        -4.53538        -2.30857
| 68>    N       17.75534        -4.16607        -1.00265
| 69>    C       16.69247        -3.23572        -0.88414
| 70>    O       16.34004        -2.77195         0.17342
| 71>    C       18.32492        -4.75332         0.17947
| 72>    C       18.95674        -5.44343        -2.77924
| 73>    C       20.21138        -5.66621        -2.31026
| 74>    C       20.93547        -6.92599        -2.66504
| 75>    O       20.61759        -7.72603        -3.51093
| 76>    C       22.05985        -6.99857        -1.71354
| 77>    C       22.95217        -8.01338        -1.51800
| 78>    C       23.94070        -7.87887        -0.51783
| 79>    C       23.98424        -6.68894         0.26679
| 80>    C       24.96675        -6.56603         1.26806
| 81>    C       25.85640        -7.58588         1.46417
| 82>    C       25.83098        -8.76244         0.70241
| 83>    C       24.88345        -8.89865        -0.27358
| 84>    F       26.79435        -7.47065         2.41965
| 85>    C       23.05264        -5.64963         0.03687
| 86>    C       22.10774        -5.80069        -0.94164
| 87>    C       21.05154        -4.90830        -1.40794
| 88>    C       21.00100        -3.55209        -1.21677
| 89>    C       20.10899        -2.69782        -1.89841
| 90>    N       19.44278        -1.95743        -2.46859
| 91>    C       21.90056        -2.84860        -0.38857
| 92>    N       22.59815        -2.24227         0.29137
| 93>    H        6.34973         4.30094         7.66552
| 94>    H        2.12498         4.89044         7.78806
| 95>    H        2.00089         4.66340         5.31935
| 96>    H        7.48774         3.92706         5.52928
| 97>    H        3.11666         4.27352         3.14969
| 98>    H        6.48938         2.90809        -0.57203
| 99>    H        8.51783         1.88490        -3.46475
|100>    H        8.03593         3.35530        -2.58627
|101>    H        6.94009         1.94931        -2.64984
|102>    H       12.56526        -0.40207         2.75019
|103>    H       11.13212        -1.12109         3.54034
|104>    H       11.48378         0.59615         3.75307
|105>    H       11.90293        -4.06532         1.17871
|106>    H       10.76053        -2.76085         1.59359
|107>    H       12.32628        -2.90882         2.44317
|108>    H       15.67775         0.33985        -4.05575
|109>    H       14.52625         1.64405        -3.66491
|110>    H       14.11708         0.47165        -4.91939
|111>    H       14.90531        -3.05597        -6.22205
|112>    H       15.27833        -1.34854        -5.96857
|113>    H       13.81758        -2.05711        -5.22278
|114>    H       19.17132        -4.17025         0.55214
|115>    H       18.64550        -5.77554        -0.01781
|116>    H       17.55169        -4.75056         0.94939
|117>    H       18.64923        -6.05689        -3.62107
|118>    H       22.90320        -8.90938        -2.11832
|119>    H       25.01826        -5.67313         1.87126
|120>    H       26.55814        -9.53316         0.90294
|121>    H       24.84388        -9.79553        -0.87309
|122>    H       23.10264        -4.76336         0.64961
|123> *
|124>
|125>                          ****END OF INPUT****

CARTESIAN COORDINATES (ANGSTROEM)
---------------------------------
  C      5.409560    4.376060    7.141920
  C      4.249820    4.602920    7.830070
  F      4.288060    4.728720    9.168740
  C      3.006220    4.710960    7.192890
  C      2.947340    4.584620    5.832830
  C      4.112150    4.349000    5.073840
  C      5.368010    4.244260    5.740720
  C      6.552160    4.014160    5.000750
  C      6.478340    3.888860    3.641120
  C      5.218000    3.975020    2.981510
  C      4.060750    4.205880    3.669390
  C      5.412430    3.753120    1.541180
  O      4.593860    3.800620    0.652350
  C      6.859960    3.389380    1.388450
  C      7.517390    3.667270    2.638220
  C      8.860010    3.869570    2.831940
  C      9.795100    3.904480    1.779520
  N     10.583660    3.960420    0.948070
  C      9.440360    4.205820    4.073070
  N      9.971790    4.480660    5.051880
  C      7.238670    2.815390    0.210170
  C      8.361630    2.028310   -0.127550
  C      9.269110    1.315630    0.664230
  C     10.127320    0.587380   -0.195090
  C      9.710630    0.814050   -1.565810
  O     10.088250    0.363080   -2.621560
  N      8.636260    1.714580   -1.437910
  C      7.984220    2.265820   -2.593970
  C     11.019870   -0.138170    0.580000
  N     10.742320    0.125210    1.896420
  C      9.661720    1.017790    2.021020
  O      9.242120    1.399670    3.098490
  C     11.531750   -0.233360    3.045590
  C     12.044710   -0.974260    0.039590
  C     12.777850   -0.661670   -1.095110
  C     13.654000   -1.743390   -1.365720
  C     13.395050   -2.790930   -0.402360
  O     13.794040   -3.925920   -0.286360
  N     12.429470   -2.220260    0.464630
  C     11.812270   -3.022260    1.486710
  C     14.384200   -1.436050   -2.505160
  N     14.003470   -0.196170   -2.934860
  C     13.031930    0.380260   -2.070520
  O     12.621030    1.505000   -2.205920
  C     14.624180    0.598380   -3.960890
  C     15.382670   -2.308190   -3.041290
  C     16.242200   -3.053540   -2.247100
  C     17.032500   -3.870620   -3.091110
  C     16.628280   -3.627560   -4.459830
  O     16.964290   -4.110260   -5.515360
  N     15.619420   -2.636160   -4.348330
  C     14.854620   -2.239230   -5.500330
  C     17.968620   -4.535380   -2.308570
  N     17.755340   -4.166070   -1.002650
  C     16.692470   -3.235720   -0.884140
  O     16.340040   -2.771950    0.173420
  C     18.324920   -4.753320    0.179470
  C     18.956740   -5.443430   -2.779240
  C     20.211380   -5.666210   -2.310260
  C     20.935470   -6.925990   -2.665040
  O     20.617590   -7.726030   -3.510930
  C     22.059850   -6.998570   -1.713540
  C     22.952170   -8.013380   -1.518000
  C     23.940700   -7.878870   -0.517830
  C     23.984240   -6.688940    0.266790
  C     24.966750   -6.566030    1.268060
  C     25.856400   -7.585880    1.464170
  C     25.830980   -8.762440    0.702410
  C     24.883450   -8.898650   -0.273580
  F     26.794350   -7.470650    2.419650
  C     23.052640   -5.649630    0.036870
  C     22.107740   -5.800690   -0.941640
  C     21.051540   -4.908300   -1.407940
  C     21.001000   -3.552090   -1.216770
  C     20.108990   -2.697820   -1.898410
  N     19.442780   -1.957430   -2.468590
  C     21.900560   -2.848600   -0.388570
  N     22.598150   -2.242270    0.291370
  H      6.349730    4.300940    7.665520
  H      2.124980    4.890440    7.788060
  H      2.000890    4.663400    5.319350
  H      7.487740    3.927060    5.529280
  H      3.116660    4.273520    3.149690
  H      6.489380    2.908090   -0.572030
  H      8.517830    1.884900   -3.464750
  H      8.035930    3.355300   -2.586270
  H      6.940090    1.949310   -2.649840
  H     12.565260   -0.402070    2.750190
  H     11.132120   -1.121090    3.540340
  H     11.483780    0.596150    3.753070
  H     11.902930   -4.065320    1.178710
  H     10.760530   -2.760850    1.593590
  H     12.326280   -2.908820    2.443170
  H     15.677750    0.339850   -4.055750
  H     14.526250    1.644050   -3.664910
  H     14.117080    0.471650   -4.919390
  H     14.905310   -3.055970   -6.222050
  H     15.278330   -1.348540   -5.968570
  H     13.817580   -2.057110   -5.222780
  H     19.171320   -4.170250    0.552140
  H     18.645500   -5.775540   -0.017810
  H     17.551690   -4.750560    0.949390
  H     18.649230   -6.056890   -3.621070
  H     22.903200   -8.909380   -2.118320
  H     25.018260   -5.673130    1.871260
  H     26.558140   -9.533160    0.902940
  H     24.843880   -9.795530   -0.873090
  H     23.102640   -4.763360    0.649610

 Total Charge           Charge          ....    0
 Multiplicity           Mult            ....    1
 Number of Electrons    NEL             ....  530
 Basis Dimension        Dim             .... 1242

ORBITAL ENERGIES
----------------

  NO   OCC          E(Eh)            E(eV)
   0   2.0000     -24.791857      -674.6207
   1   2.0000     -24.784898      -674.4314
   2   2.0000     -19.224957      -523.1377
   3   2.0000     -19.222006      -523.0574
   4   2.0000     -19.211924      -522.7830
   5   2.0000     -19.201066      -522.4876
   6   2.0000     -19.196748      -522.3701
   7   2.0000     -19.196279      -522.3573
   8   2.0000     -19.196055      -522.3512
   9   2.0000     -19.195464      -522.3351
  10   2.0000     -14.473819      -393.8526
  11   2.0000     -14.466358      -393.6496
  12   2.0000     -14.464491      -393.5988
  13   2.0000     -14.463460      -393.5708
  14   2.0000     -14.463413      -393.5695
  15   2.0000     -14.461490      -393.5171
  16   2.0000     -14.426210      -392.5571
  17   2.0000     -14.423071      -392.4717
  18   2.0000     -14.417094      -392.3091
  19   2.0000     -14.413935      -392.2231
  20   2.0000     -10.389554      -282.7141
  21   2.0000     -10.384292      -282.5709
  22   2.0000     -10.380423      -282.4657
  23   2.0000     -10.379363      -282.4368
  24   2.0000     -10.378996      -282.4268
  25   2.0000     -10.378022      -282.4003
  26   2.0000     -10.376488      -282.3586
  27   2.0000     -10.376153      -282.3495
  28   2.0000     -10.370695      -282.2010
  29   2.0000     -10.368433      -282.1394
  30   2.0000     -10.356916      -281.8260
  31   2.0000     -10.356537      -281.8157
  32   2.0000     -10.354914      -281.7715
  33   2.0000     -10.354782      -281.7679
  34   2.0000     -10.353778      -281.7406
  35   2.0000     -10.353667      -281.7376
  36   2.0000     -10.351959      -281.6911
  37   2.0000     -10.351415      -281.6763
  38   2.0000     -10.348005      -281.5835
  39   2.0000     -10.332463      -281.1606
  40   2.0000     -10.327567      -281.0274
  41   2.0000     -10.327545      -281.0268
  42   2.0000     -10.324386      -280.9408
  43   2.0000     -10.318204      -280.7726
  44   2.0000     -10.316711      -280.7320
  45   2.0000     -10.316182      -280.7176
  46   2.0000     -10.316019      -280.7131
  47   2.0000     -10.315511      -280.6993
  48   2.0000     -10.315480      -280.6985
  49   2.0000     -10.314065      -280.6600
  50   2.0000     -10.312852      -280.6270
  51   2.0000     -10.312784      -280.6251
  52   2.0000     -10.312189      -280.6089
  53   2.0000     -10.310535      -280.5639
  54   2.0000     -10.308977      -280.5215
  55   2.0000     -10.308715      -280.5144
  56   2.0000     -10.308467      -280.5076
  57   2.0000     -10.307882      -280.4917
  58   2.0000     -10.307035      -280.4687
  59   2.0000     -10.304613      -280.4028
  60   2.0000     -10.304451      -280.3984
  61   2.0000     -10.303660      -280.3768
  62   2.0000     -10.301107      -280.3074
  63   2.0000     -10.300830      -280.2998
  64   2.0000     -10.299227      -280.2562
  65   2.0000     -10.299041      -280.2512
  66   2.0000     -10.296753      -280.1889
  67   2.0000     -10.295734      -280.1612
  68   2.0000     -10.293552      -280.1018
  69   2.0000     -10.292651      -280.0773
  70   2.0000     -10.289551      -279.9929
  71   2.0000     -10.286986      -279.9231
  72   2.0000     -10.284857      -279.8652
  73   2.0000     -10.278660      -279.6965
  74   2.0000     -10.276728      -279.6440
  75   2.0000     -10.275607      -279.6135
  76   2.0000     -10.274388      -279.5803
  77   2.0000     -10.273815      -279.5647
  78   2.0000      -1.307247       -35.5720
  79   2.0000      -1.299788       -35.3690
  80   2.0000      -1.150706       -31.3123
  81   2.0000      -1.143738       -31.1227
  82   2.0000      -1.140691       -31.0398
  83   2.0000      -1.139537       -31.0084
  84   2.0000      -1.136795       -30.9338
  85   2.0000      -1.136391       -30.9228
  86   2.0000      -1.134420       -30.8691
  87   2.0000      -1.131581       -30.7919
  88   2.0000      -1.082698       -29.4617
  89   2.0000      -1.078041       -29.3350
  90   2.0000      -1.068773       -29.0828
  91   2.0000      -1.068090       -29.0642
  92   2.0000      -1.062348       -28.9080
  93   2.0000      -1.055355       -28.7177
  94   2.0000      -1.027627       -27.9632
  95   2.0000      -1.017516       -27.6880
  96   2.0000      -1.009245       -27.4630
  97   2.0000      -1.002404       -27.2768
  98   2.0000      -1.000095       -27.2140
  99   2.0000      -0.993414       -27.0322
 100   2.0000      -0.985014       -26.8036
 101   2.0000      -0.975520       -26.5453
 102   2.0000      -0.937826       -25.5195
 103   2.0000      -0.937220       -25.5030
 104   2.0000      -0.933609       -25.4048
 105   2.0000      -0.928286       -25.2599
 106   2.0000      -0.926576       -25.2134
 107   2.0000      -0.915012       -24.8987
 108   2.0000      -0.907774       -24.7018
 109   2.0000      -0.895929       -24.3795
 110   2.0000      -0.889644       -24.2084
 111   2.0000      -0.886997       -24.1364
 112   2.0000      -0.883749       -24.0480
 113   2.0000      -0.878148       -23.8956
 114   2.0000      -0.866341       -23.5743
 115   2.0000      -0.851121       -23.1602
 116   2.0000      -0.846054       -23.0223
 117   2.0000      -0.843120       -22.9424
 118   2.0000      -0.842736       -22.9320
 119   2.0000      -0.833929       -22.6924
 120   2.0000      -0.826541       -22.4913
 121   2.0000      -0.822830       -22.3904
 122   2.0000      -0.786519       -21.4023
 123   2.0000      -0.781469       -21.2649
 124   2.0000      -0.778194       -21.1757
 125   2.0000      -0.775782       -21.1101
 126   2.0000      -0.770792       -20.9743
 127   2.0000      -0.769000       -20.9255
 128   2.0000      -0.762818       -20.7573
 129   2.0000      -0.756870       -20.5955
 130   2.0000      -0.743293       -20.2260
 131   2.0000      -0.731051       -19.8929
 132   2.0000      -0.724423       -19.7126
 133   2.0000      -0.717320       -19.5193
 134   2.0000      -0.709618       -19.3097
 135   2.0000      -0.707465       -19.2511
 136   2.0000      -0.700286       -19.0558
 137   2.0000      -0.695490       -18.9252
 138   2.0000      -0.689797       -18.7703
 139   2.0000      -0.686616       -18.6838
 140   2.0000      -0.684833       -18.6352
 141   2.0000      -0.681267       -18.5382
 142   2.0000      -0.678323       -18.4581
 143   2.0000      -0.675572       -18.3832
 144   2.0000      -0.671862       -18.2823
 145   2.0000      -0.656922       -17.8757
 146   2.0000      -0.649629       -17.6773
 147   2.0000      -0.644692       -17.5430
 148   2.0000      -0.641471       -17.4553
 149   2.0000      -0.636652       -17.3242
 150   2.0000      -0.632218       -17.2035
 151   2.0000      -0.629568       -17.1314
 152   2.0000      -0.625517       -17.0212
 153   2.0000      -0.610166       -16.6035
 154   2.0000      -0.609490       -16.5851
 155   2.0000      -0.597238       -16.2517
 156   2.0000      -0.596340       -16.2272
 157   2.0000      -0.592561       -16.1244
 158   2.0000      -0.589442       -16.0395
 159   2.0000      -0.588190       -16.0055
 160   2.0000      -0.584828       -15.9140
 161   2.0000      -0.583036       -15.8652
 162   2.0000      -0.578755       -15.7487
 163   2.0000      -0.573661       -15.6101
 164   2.0000      -0.572450       -15.5771
 165   2.0000      -0.569422       -15.4948
 166   2.0000      -0.567441       -15.4409
 167   2.0000      -0.566736       -15.4217
 168   2.0000      -0.564579       -15.3630
 169   2.0000      -0.563077       -15.3221
 170   2.0000      -0.561232       -15.2719
 171   2.0000      -0.559298       -15.2193
 172   2.0000      -0.557312       -15.1652
 173   2.0000      -0.557236       -15.1632
 174   2.0000      -0.555295       -15.1103
 175   2.0000      -0.554542       -15.0899
 176   2.0000      -0.548884       -14.9359
 177   2.0000      -0.546405       -14.8684
 178   2.0000      -0.543743       -14.7960
 179   2.0000      -0.543052       -14.7772
 180   2.0000      -0.539822       -14.6893
 181   2.0000      -0.531339       -14.4585
 182   2.0000      -0.530879       -14.4460
 183   2.0000      -0.527166       -14.3449
 184   2.0000      -0.526742       -14.3334
 185   2.0000      -0.526709       -14.3325
 186   2.0000      -0.523072       -14.2335
 187   2.0000      -0.522064       -14.2061
 188   2.0000      -0.519759       -14.1434
 189   2.0000      -0.516755       -14.0616
 190   2.0000      -0.515309       -14.0223
 191   2.0000      -0.513311       -13.9679
 192   2.0000      -0.512151       -13.9363
 193   2.0000      -0.510279       -13.8854
 194   2.0000      -0.508510       -13.8372
 195   2.0000      -0.508183       -13.8284
 196   2.0000      -0.505216       -13.7476
 197   2.0000      -0.502733       -13.6801
 198   2.0000      -0.498300       -13.5594
 199   2.0000      -0.496886       -13.5209
 200   2.0000      -0.496717       -13.5164
 201   2.0000      -0.493939       -13.4408
 202   2.0000      -0.491591       -13.3769
 203   2.0000      -0.489979       -13.3330
 204   2.0000      -0.488877       -13.3030
 205   2.0000      -0.486916       -13.2497
 206   2.0000      -0.486108       -13.2277
 207   2.0000      -0.483364       -13.1530
 208   2.0000      -0.482932       -13.1412
 209   2.0000      -0.482437       -13.1278
 210   2.0000      -0.480423       -13.0730
 211   2.0000      -0.476266       -12.9598
 212   2.0000      -0.474623       -12.9151
 213   2.0000      -0.473584       -12.8869
 214   2.0000      -0.472143       -12.8477
 215   2.0000      -0.468253       -12.7418
 216   2.0000      -0.465813       -12.6754
 217   2.0000      -0.464238       -12.6326
 218   2.0000      -0.460287       -12.5250
 219   2.0000      -0.458928       -12.4881
 220   2.0000      -0.458587       -12.4788
 221   2.0000      -0.455654       -12.3990
 222   2.0000      -0.452000       -12.2996
 223   2.0000      -0.449903       -12.2425
 224   2.0000      -0.448264       -12.1979
 225   2.0000      -0.446343       -12.1456
 226   2.0000      -0.442241       -12.0340
 227   2.0000      -0.440686       -11.9917
 228   2.0000      -0.436397       -11.8750
 229   2.0000      -0.436195       -11.8695
 230   2.0000      -0.435002       -11.8370
 231   2.0000      -0.434013       -11.8101
 232   2.0000      -0.428204       -11.6520
 233   2.0000      -0.426837       -11.6148
 234   2.0000      -0.425008       -11.5651
 235   2.0000      -0.424511       -11.5515
 236   2.0000      -0.418051       -11.3757
 237   2.0000      -0.412073       -11.2131
 238   2.0000      -0.408240       -11.1088
 239   2.0000      -0.404900       -11.0179
 240   2.0000      -0.395838       -10.7713
 241   2.0000      -0.392398       -10.6777
 242   2.0000      -0.389727       -10.6050
 243   2.0000      -0.385545       -10.4912
 244   2.0000      -0.379146       -10.3171
 245   2.0000      -0.365167        -9.9367
 246   2.0000      -0.355812        -9.6821
 247   2.0000      -0.355190        -9.6652
 248   2.0000      -0.353163        -9.6100
 249   2.0000      -0.348646        -9.4871
 250   2.0000      -0.343206        -9.3391
 251   2.0000      -0.342392        -9.3170
 252   2.0000      -0.340234        -9.2582
 253   2.0000      -0.335675        -9.1342
 254   2.0000      -0.334853        -9.1118
 255   2.0000      -0.327015        -8.8985
 256   2.0000      -0.325171        -8.8483
 257   2.0000      -0.322268        -8.7694
 258   2.0000      -0.320647        -8.7253
 259   2.0000      -0.307827        -8.3764
 260   2.0000      -0.306161        -8.3311
 261   2.0000      -0.294068        -8.0020
 262   2.0000      -0.278225        -7.5709
 263   2.0000      -0.267325        -7.2743
 264   2.0000      -0.244276        -6.6471
 265   0.0000      -0.120677        -3.2838
 266   0.0000      -0.105361        -2.8670
 267   0.0000      -0.077443        -2.1073
 268   0.0000      -0.065053        -1.7702
 269   0.0000      -0.057933        -1.5764

MULLIKEN ATOMIC CHARGES
-----------------------
   0 C :   -0.098102
   1 C :    0.304599
   2 F :   -0.190293
   3 C :   -0.031103
   4 C :   -0.007037
   5 C :    0.095466
   6 C :    0.104343
   7 C :   -0.090391
   8 C :    0.045919
   9 C :    0.009062
  10 C :   -0.076464
  11 C :    0.132702
  12 O :   -0.138263
  13 C :   -0.096772
  14 C :    0.303157
  15 C :   -0.268686
  16 C :   -0.255240
  17 N :    0.193323
  18 C :   -0.179715
  19 N :    0.161718
  20 C :   -0.049446
  21 C :    0.184636
  22 C :   -0.061720
  23 C :   -0.022498
  24 C :    0.161291
  25 O :   -0.169072
  26 N :   -0.279914
  27 C :    0.116680
  28 C :    0.058758
  29 N :   -0.250798
  30 C :    0.148027
  31 O :   -0.185210
  32 C :    0.129358
  33 C :    0.051292
  34 C :   -0.025446
  35 C :   -0.034627
  36 C :    0.157908
  37 O :   -0.173102
  38 N :   -0.271224
  39 C :    0.128682
  40 C :    0.061862
  41 N :   -0.268825
  42 C :    0.161846
  43 O :   -0.153581
  44 C :    0.124015
  45 C :    0.069003
  46 C :   -0.011319
  47 C :    0.001738
  48 C :    0.149263
  49 O :   -0.164184
  50 N :   -0.268777
  51 C :    0.123900
  52 C :    0.044346
  53 N :   -0.275711
  54 C :    0.155973
  55 O :   -0.166880
  56 C :    0.135154
  57 C :    0.007222
  58 C :   -0.126859
  59 C :    0.143629
  60 O :   -0.126916
  61 C :    0.005493
  62 C :   -0.074464
  63 C :    0.097467
  64 C :    0.101093
  65 C :   -0.095411
  66 C :    0.303084
  67 C :   -0.029730
  68 C :   -0.006038
  69 F :   -0.187518
  70 C :   -0.085446
  71 C :    0.047177
  72 C :    0.258297
  73 C :   -0.337806
  74 C :   -0.181619
  75 N :    0.177291
  76 C :   -0.179099
  77 N :    0.165627
  78 H :   -0.003062
  79 H :    0.002221
  80 H :   -0.010267
  81 H :   -0.002352
  82 H :   -0.012944
  83 H :    0.012796
  84 H :    0.063278
  85 H :    0.044088
  86 H :    0.040931
  87 H :    0.051861
  88 H :    0.033950
  89 H :    0.061085
  90 H :    0.056631
  91 H :    0.037724
  92 H :    0.034786
  93 H :    0.047937
  94 H :    0.060330
  95 H :    0.033803
  96 H :    0.058022
  97 H :    0.037018
  98 H :    0.045917
  99 H :    0.043983
 100 H :    0.035249
 101 H :    0.058483
 102 H :    0.051664
 103 H :   -0.007025
 104 H :    0.000363
 105 H :    0.007180
 106 H :   -0.005792
 107 H :   -0.002956
Sum of atomic charges:   -0.0000000

LOEWDIN ATOMIC CHARGES
----------------------
   0 C :   -0.042717
   1 C :    0.094409
   2 F :   -0.064545
   3 C :   -0.039435
   4 C :    0.005452
   5 C :   -0.022151
   6 C :    0.006640
   7 C :    0.008361
   8 C :   -0.009108
   9 C :   -0.065435
  10 C :    0.038352
  11 C :    0.085974
  12 O :   -0.136333
  13 C :   -0.038557
  14 C :    0.049295
  15 C :   -0.097711
  16 C :   -0.021175
  17 N :   -0.033731
  18 C :   -0.013389
  19 N :   -0.047176
  20 C :    0.015459
  21 C :    0.074960
  22 C :   -0.090452
  23 C :   -0.086850
  24 C :    0.088170
  25 O :   -0.168843
  26 N :   -0.001610
  27 C :    0.029855
  28 C :    0.059598
  29 N :    0.003268
  30 C :    0.079240
  31 O :   -0.172029
  32 C :    0.034267
  33 C :    0.054902
  34 C :   -0.090875
  35 C :   -0.094832
  36 C :    0.088458
  37 O :   -0.171197
  38 N :   -0.008521
  39 C :    0.030789
  40 C :    0.060108
  41 N :   -0.006557
  42 C :    0.089918
  43 O :   -0.153519
  44 C :    0.031473
  45 C :    0.065492
  46 C :   -0.090239
  47 C :   -0.088878
  48 C :    0.086848
  49 O :   -0.170430
  50 N :   -0.007781
  51 C :    0.031470
  52 C :    0.058272
  53 N :   -0.002189
  54 C :    0.089979
  55 O :   -0.166430
  56 C :    0.029319
  57 C :    0.056678
  58 C :   -0.068542
  59 C :    0.082873
  60 O :   -0.128463
  61 C :   -0.061788
  62 C :    0.038391
  63 C :   -0.017754
  64 C :    0.004427
  65 C :   -0.041444
  66 C :    0.095216
  67 C :   -0.034092
  68 C :    0.006202
  69 F :   -0.061682
  70 C :    0.012252
  71 C :   -0.019307
  72 C :    0.062567
  73 C :   -0.123485
  74 C :   -0.020579
  75 N :   -0.037236
  76 C :   -0.019461
  77 N :   -0.039736
  78 H :    0.043169
  79 H :    0.041431
  80 H :    0.035289
  81 H :    0.040186
  82 H :    0.039336
  83 H :    0.047520
  84 H :    0.043983
  85 H :    0.032645
  86 H :    0.027963
  87 H :    0.036202
  88 H :    0.027280
  89 H :    0.043510
  90 H :    0.041159
  91 H :    0.029179
  92 H :    0.026850
  93 H :    0.033318
  94 H :    0.042949
  95 H :    0.026476
  96 H :    0.041877
  97 H :    0.027570
  98 H :    0.032842
  99 H :    0.025370
 100 H :    0.029898
 101 H :    0.041962
 102 H :    0.063589
 103 H :    0.041537
 104 H :    0.044104
 105 H :    0.043373
 106 H :    0.037019
 107 H :    0.039743

  Mayer bond orders larger than 0.100000
B(  0-C ,  1-C ) :   1.4374 B(  0-C ,  6-C ) :   1.2056 B(  0-C , 78-H ) :   1.0077
B(  1-C ,  2-F ) :   1.0887 B(  1-C ,  3-C ) :   1.2553 B(  3-C ,  4-C ) :   1.4607
B(  3-C , 79-H ) :   0.9931 B(  4-C ,  5-C ) :   1.2332 B(  4-C , 80-H ) :   0.9974
B(  5-C ,  6-C ) :   1.2561 B(  5-C , 10-C ) :   1.1938 B(  6-C ,  7-C ) :   1.1963
B(  7-C ,  8-C ) :   1.4741 B(  7-C , 81-H ) :   0.9946 B(  8-C ,  9-C ) :   1.2098
B(  8-C , 14-C ) :   0.9938 B(  9-C , 10-C ) :   1.4642 B(  9-C , 11-C ) :   0.9295
B( 10-C , 82-H ) :   1.0164 B( 11-C , 12-O ) :   2.2537 B( 11-C , 13-C ) :   0.9231
B( 13-C , 14-C ) :   1.0671 B( 13-C , 20-C ) :   1.6292 B( 14-C , 15-C ) :   1.6219
B( 15-C , 16-C ) :   1.1730 B( 15-C , 18-C ) :   1.1333 B( 15-C , 31-O ) :   0.1116
B( 16-C , 17-N ) :   2.9960 B( 18-C , 19-N ) :   2.9888 B( 20-C , 21-C ) :   1.1307
B( 20-C , 83-H ) :   0.9218 B( 21-C , 22-C ) :   1.3226 B( 21-C , 26-N ) :   1.1856
B( 22-C , 23-C ) :   1.2526 B( 22-C , 30-C ) :   0.9794 B( 23-C , 24-C ) :   0.9569
B( 23-C , 28-C ) :   1.4370 B( 24-C , 25-O ) :   2.1543 B( 24-C , 26-N ) :   1.0313
B( 26-N , 27-C ) :   0.9670 B( 27-C , 84-H ) :   0.9504 B( 27-C , 85-H ) :   0.9729
B( 27-C , 86-H ) :   0.9678 B( 28-C , 29-N ) :   1.1966 B( 28-C , 33-C ) :   1.0213
B( 29-N , 30-C ) :   1.0529 B( 29-N , 32-C ) :   0.9575 B( 30-C , 31-O ) :   2.0534
B( 32-C , 87-H ) :   0.9687 B( 32-C , 88-H ) :   0.9713 B( 32-C , 89-H ) :   0.9550
B( 33-C , 34-C ) :   1.4415 B( 33-C , 38-N ) :   1.2014 B( 34-C , 35-C ) :   1.2177
B( 34-C , 42-C ) :   0.9559 B( 35-C , 36-C ) :   0.9643 B( 35-C , 40-C ) :   1.4307
B( 36-C , 37-O ) :   2.1548 B( 36-C , 38-N ) :   1.0084 B( 38-N , 39-C ) :   0.9660
B( 39-C , 90-H ) :   0.9508 B( 39-C , 91-H ) :   0.9698 B( 39-C , 92-H ) :   0.9714
B( 40-C , 41-N ) :   1.2149 B( 40-C , 45-C ) :   1.0168 B( 41-N , 42-C ) :   0.9979
B( 41-N , 44-C ) :   0.9620 B( 42-C , 43-O ) :   2.1724 B( 44-C , 93-H ) :   0.9703
B( 44-C , 94-H ) :   0.9513 B( 44-C , 95-H ) :   0.9712 B( 45-C , 46-C ) :   1.4331
B( 45-C , 50-N ) :   1.2054 B( 46-C , 47-C ) :   1.2288 B( 46-C , 54-C ) :   0.9657
B( 47-C , 48-C ) :   0.9608 B( 47-C , 52-C ) :   1.3892 B( 48-C , 49-O ) :   2.1838
B( 48-C , 50-N ) :   1.0090 B( 50-N , 51-C ) :   0.9618 B( 51-C , 96-H ) :   0.9523
B( 51-C , 97-H ) :   0.9717 B( 51-C , 98-H ) :   0.9700 B( 52-C , 53-N ) :   1.1886
B( 52-C , 57-C ) :   1.0794 B( 53-N , 54-C ) :   1.0118 B( 53-N , 56-C ) :   0.9679
B( 54-C , 55-O ) :   2.1623 B( 56-C , 99-H ) :   0.9635 B( 56-C ,100-H ) :   0.9661
B( 56-C ,101-H ) :   0.9555 B( 57-C , 58-C ) :   1.6577 B( 57-C ,102-H ) :   0.9421
B( 58-C , 59-C ) :   0.9178 B( 58-C , 72-C ) :   1.0361 B( 59-C , 60-O ) :   2.2912
B( 59-C , 61-C ) :   0.9197 B( 61-C , 62-C ) :   1.4702 B( 61-C , 71-C ) :   1.2144
B( 62-C , 63-C ) :   1.1949 B( 62-C ,103-H ) :   1.0146 B( 63-C , 64-C ) :   1.2517
B( 63-C , 68-C ) :   1.2358 B( 64-C , 65-C ) :   1.2026 B( 64-C , 70-C ) :   1.2062
B( 65-C , 66-C ) :   1.4412 B( 65-C ,104-H ) :   1.0059 B( 66-C , 67-C ) :   1.2537
B( 66-C , 69-F ) :   1.0918 B( 67-C , 68-C ) :   1.4623 B( 67-C ,105-H ) :   0.9926
B( 68-C ,106-H ) :   0.9967 B( 70-C , 71-C ) :   1.4586 B( 70-C ,107-H ) :   0.9951
B( 71-C , 72-C ) :   1.0012 B( 72-C , 73-C ) :   1.6613 B( 73-C , 74-C ) :   1.1631
B( 73-C , 76-C ) :   1.1330 B( 74-C , 75-N ) :   2.9908 B( 76-C , 77-N ) :   2.9878

-----------------------------------------------------------------------------
         ABSORPTION SPECTRUM VIA TRANSITION ELECTRIC DIPOLE MOMENTS
-----------------------------------------------------------------------------
State   Energy  Wavelength   fosc         T2         TX        TY        TZ
        (cm-1)    (nm)                  (au**2)     (au)      (au)      (au)
-----------------------------------------------------------------------------
   0   11106.2    900.4   0.787763627  23.35113  -4.30502   2.12145   0.56335
   1   14746.1    678.1   0.132273033   2.95304   0.36679  -0.79978  -1.47610
   2   17133.5    583.7   0.028154726   0.54098  -0.23036   0.41070  -0.56501
   3   18064.2    553.6   0.079560729   1.44996   0.48524  -0.83048   0.72444
   4   19965.0    500.9   0.016084288   0.26522  -0.46326   0.22482  -0.00826
   5   21554.9    463.9   0.014546506   0.22217  -0.08725  -0.45985  -0.05568
   6   22908.3    436.5   0.049780592   0.71539   0.28683   0.69098   0.39454
   7   23359.4    428.1   0.024663957   0.34760  -0.05706   0.58443  -0.05278
   8   23799.3    420.2   0.008872261   0.12273  -0.15056   0.31585   0.01733
   9   24689.8    405.0   0.002133174   0.02844  -0.10330   0.04268   0.12630
  10   24731.0    404.4   0.013622802   0.18134  -0.06773  -0.42042   0.00011
  11   25184.9    397.1   0.003322834   0.04344  -0.03160   0.10521  -0.17711
  12   25379.7    394.0   0.022901501   0.29707   0.23564   0.48128   0.09956
  13   25473.9    392.6   0.026188107   0.33844   0.55035  -0.14839  -0.11635
  14   25764.0    388.1   0.026569507   0.33950   0.22852  -0.34676   0.40870
  15   25951.1    385.3   0.086340500   1.09530  -0.21246   0.24561  -0.99490
  16   26611.2    375.8   0.001160654   0.01436   0.04609   0.09537   0.05602
  17   26753.9    373.8   0.039295185   0.48353  -0.08209   0.67831  -0.12918
  18   26920.8    371.5   0.016571860   0.20266  -0.18780   0.37626   0.16068
  19   27126.5    368.6   0.019984314   0.24253   0.06311  -0.36797   0.32117
  20   28151.0    355.2   0.006557086   0.07668  -0.02188  -0.18556   0.20438
  21   28436.0    351.7   0.065820140   0.76202   0.48564  -0.71355   0.13044
  22   28748.5    347.8   0.026753897   0.30637  -0.08764   0.20893  -0.50502
  23   29001.2    344.8   0.032188797   0.36540   0.21304   0.06018  -0.56248
  24   29262.7    341.7   0.000292088   0.00329  -0.00555  -0.01368  -0.05539
  25   29516.4    338.8   0.000202229   0.00226   0.02872  -0.03698  -0.00798
  26   30252.1    330.6   0.020277733   0.22067   0.18697  -0.10942   0.41682
  27   30998.0    322.6   0.098171855   1.04263  -0.73647   0.40627   0.57895
  28   31336.4    319.1   0.058647267   0.61613   0.33501  -0.37945  -0.59993
  29   31669.6    315.8   0.190623765   1.98157  -1.08469   0.85279  -0.27885
  30   32331.1    309.3   0.191409015   1.94902   0.96898  -0.13094  -0.99647
  31   32402.0    308.6   0.005698605   0.05790  -0.04300  -0.01473  -0.23629
  32   32626.0    306.5   0.113022421   1.14045   0.61676  -0.37174  -0.78858
  33   32850.4    304.4   0.292370123   2.93000   0.20742  -1.22517   1.17726
  34   33105.9    302.1   0.178118083   1.77124   1.07031  -0.78204  -0.11873
  35   33448.2    299.0   0.972161136   9.56845   1.96248  -1.21770  -2.05775
  36   33689.5    296.8   0.384447158   3.75679   1.48144  -0.48835   1.15049
  37   34111.9    293.2   0.010455006   0.10090   0.20564   0.06515   0.23317
  38   34267.2    291.8   0.067018420   0.64386   0.52599  -0.58248   0.16706
  39   34433.0    290.4   0.020832525   0.19918   0.35929  -0.00552   0.26469
  40   34664.3    288.5   0.020395643   0.19370  -0.03327   0.40615  -0.16624
  41   34746.9    287.8   0.142513320   1.35025  -1.11826  -0.26800  -0.16711
  42   35087.7    285.0   0.204551762   1.91922   1.22542  -0.40699   0.50191
  43   35282.7    283.4   0.055261687   0.51563   0.56585  -0.22691   0.37941
  44   35512.7    281.6   0.005218407   0.04838  -0.06808  -0.08318  -0.19189
  45   35692.8    280.2   0.047301556   0.43628  -0.00335   0.05268  -0.65841
  46   36014.3    277.7   0.044443759   0.40627   0.57090   0.03289  -0.28153
  47   36325.1    275.3   0.004043854   0.03665  -0.14431  -0.06347  -0.10860
  48   36448.9    274.4   0.020319100   0.18353   0.38877  -0.12727   0.12722
  49   36732.7    272.2   0.199035279   1.78383   0.42002  -1.25368   0.18894
  50   36833.9    271.5   0.055985748   0.50039   0.10393  -0.69968  -0.00517
  51   37086.1    269.6   0.124480028   1.10501  -0.57960   0.69916   0.52938
  52   37174.9    269.0   0.096047681   0.85057   0.44112  -0.61648  -0.52530
  53   37330.2    267.9   0.124529723   1.09822  -0.98014  -0.36961   0.03067
  54   37546.9    266.3   0.006867187   0.06021  -0.14486  -0.19805  -0.00080
  55   37984.2    263.3   0.002395274   0.02076  -0.01853  -0.13963  -0.03032
  56   38116.3    262.4   0.027016625   0.23334  -0.10488   0.45463   0.12513
  57   38732.7    258.2   0.035636438   0.30289   0.37265   0.24225   0.32456
  58   39157.1    255.4   0.191227979   1.60774   0.03164  -0.08280  -1.26487
  59   39292.8    254.5   0.001692263   0.01418  -0.00410  -0.11613  -0.02597
  60   39407.3    253.8   0.022733872   0.18992  -0.14842  -0.40324  -0.07274
  61   39595.7    252.6   0.023621169   0.19639  -0.09884  -0.43151   0.02067
  62   39623.0    252.4   0.031361477   0.26057  -0.42544   0.25737  -0.11546
  63   39952.6    250.3   0.004906669   0.04043   0.14002  -0.04595   0.13680
  64   40100.8    249.4   0.048678107   0.39963  -0.34483  -0.08916  -0.52228
  65   40194.4    248.8   0.011222853   0.09192   0.27239   0.01338   0.13245

FINAL SINGLE POINT ENERGY     -3572.808727500723

DIPOLE MOMENT
-------------
                                X             Y             Z
Electronic contribution:     10.89884       6.11522      16.02284
Nuclear contribution   :    -11.88328      -8.45820     -15.51194
                        -----------------------------------------
Total Dipole Moment    :     -0.98443      -2.34299       0.51090
                        -----------------------------------------
Magnitude (a.u.)       :      2.59224
Magnitude (Debye)      :      6.58895

Rotational constants in cm-1:     0.001989     0.000259     0.000239
Rotational constants in MHz :    59.625573     7.758293     7.156052

                             ****ORCA TERMINATED NORMALLY****
TOTAL RUN TIME: 0 days 0 hours 19 minutes 6 seconds 855 msec
