                         Program Version 4.2.0 -  RELEASE  -
|  1> # ORCA input file
|  2> # SCF done       -197.637960100314          0.000684152142
|  3> ! CAM-B3LYP def2-SVP def2/J RIJCOSX Grid4 TightSCF
|  4> %maxcore 5000
|  5> %tddft
|  6>     Mode sTDDFT
|  7>     Ethresh 5.0
|  8>     maxcore 5000
|  9> end
| 10>
| 11> %pal
| 12>   nprocs 6
| 13>   end
| 14> * xyz 0 1
| 15>    C        7.89221        -3.85688         8.85651
| 16>    C        7.07542        -3.78332         9.95058
| 17>    F        7.61160        -3.85073        11.18254
| 18>    C        5.68574        -3.63820         9.84279
| 19>    C        5.12312        -3.56639         8.59875
| 20>    C        5.91818        -3.63558         7.43653
| 21>    C        7.32972        -3.78645         7.56748
| 22>    C        8.14707        -3.86943         6.41553
| 23>    C        7.56888        -3.79648         5.17807
| 24>    C        6.15885        -3.62814         5.05262
| 25>    C        5.34629        -3.55559         6.14672
| 26>    C        5.80227        -3.54405         3.62324
| 27>    O        4.70057        -3.45652         3.13096
| 28>    C        7.10431        -3.52598         2.90066
| 29>    C        8.13997        -3.89102         3.83830
| 30>    C        9.33232        -4.49154         3.51905
| 31>    C        9.67217        -4.84425         2.19756
| 32>    N        9.93498        -5.18528         1.13268
| 33>    C       10.28016        -4.90810         4.47309
| 34>    N       11.08950        -5.24575         5.21392
| 35>    C        7.14245        -3.12578         1.59860
| 36>    C        8.22931        -2.62712         0.83288
| 37>    C        8.16778        -2.61395        -0.54420
| 38>    C        9.16630        -2.13448        -1.38367
| 39>    C       10.33872        -1.43483        -0.83836
| 40>    C       10.59377        -1.30522         0.48220
| 41>    S        9.58813        -1.93270         1.71492
| 42>    C       11.05154        -0.95259        -1.96813
| 43>    C       10.37841        -1.32073        -3.13844
| 44>    C       11.04467        -0.86899        -4.30026
| 45>    C       12.17403        -0.18248        -3.98987
| 46>    S       12.48090        -0.05888        -2.28774
| 47>    C        9.21787        -2.08598        -2.79105
| 48>    C        8.32899        -2.66187        -3.74316
| 49>    C        7.58411        -3.77229        -3.54782
| 50>    C        6.66406        -4.32674        -4.50130
| 51>    C        6.18441        -5.64148        -4.36544
| 52>    N        5.32141        -6.17610        -5.19519
| 53>    C        4.88569        -5.41435        -6.20348
| 54>    N        5.27251        -4.15668        -6.43596
| 55>    C        6.13876        -3.63004        -5.60361
| 56>    C        3.91402        -5.99401        -7.08417
| 57>    C        3.24199        -5.38094        -8.12212
| 58>    C        2.34441        -6.25627        -8.73270
| 59>    C        2.35377        -7.53827        -8.14707
| 60>    S        3.45248        -7.65844        -6.84696
| 61>    C        1.40694        -8.34902        -8.82528
| 62>    C        0.79754        -7.57491        -9.83277
| 63>    C        1.36068        -6.23495        -9.80149
| 64>    C        0.99859        -5.18232       -10.58967
| 65>    C        1.59606        -3.90916       -10.47818
| 66>    N        2.07889        -2.87240       -10.40064
| 67>    C       -0.00766        -5.31188       -11.57028
| 68>    N       -0.82581        -5.43192       -12.36469
| 69>    C       -0.18065        -8.26836       -10.53212
| 70>    C       -0.32987        -9.56989       -10.07396
| 71>    S        0.79498        -9.93424        -8.76967
| 72>    C       -1.19913       -10.57838       -10.54352
| 73>    C       -2.33519       -10.44573       -11.28354
| 74>    C       -2.84656       -11.63312       -12.02809
| 75>    O       -2.48766       -12.77934       -11.88619
| 76>    C       -3.82195       -11.09541       -12.99330
| 77>    C       -4.48822       -11.74200       -13.99434
| 78>    C       -5.36135       -11.00733       -14.82729
| 79>    C       -5.51939        -9.60693       -14.61167
| 80>    C       -6.38421        -8.87902       -15.45168
| 81>    C       -7.05499        -9.52962       -16.44965
| 82>    C       -6.91476       -10.90569       -16.67663
| 83>    C       -6.07735       -11.62703       -15.87213
| 84>    F       -7.88356        -8.83748       -17.25163
| 85>    C       -4.82043        -8.96407       -13.56344
| 86>    C       -3.99297        -9.70034       -12.76001
| 87>    C       -3.18799        -9.32007       -11.60160
| 88>    C       -3.41429        -8.21198       -10.82710
| 89>    C       -2.79275        -7.97438        -9.58616
| 90>    N       -2.33421        -7.75304        -8.55695
| 91>    C       -4.37396        -7.22361       -11.13213
| 92>    N       -5.14328        -6.39486       -11.32626
| 93>    H        8.95792        -3.97275         8.97759
| 94>    H        5.09173        -3.58642        10.74140
| 95>    H        4.05484        -3.45448         8.48998
| 96>    H        9.21299        -3.97879         6.54023
| 97>    H        4.27916        -3.43871         6.03109
| 98>    H        6.17811        -3.11728         1.09860
| 99>    H        7.26998        -3.02086        -0.98844
|100>    H       11.46601        -0.79338         0.85774
|101>    H       10.71161        -1.03935        -5.30783
|102>    H       12.87175         0.27317        -4.66498
|103>    H        8.31909        -2.18161        -4.71348
|104>    H        7.70581        -4.34226        -2.63643
|105>    H        6.52155        -6.27659        -3.55498
|106>    H        6.41214        -2.60281        -5.80757
|107>    H        3.41330        -4.35452        -8.38934
|108>    H       -0.73540        -7.87391       -11.36390
|109>    H       -0.89759       -11.60334       -10.34959
|110>    H       -4.35079       -12.80155       -14.14970
|111>    H       -6.51871        -7.81904       -15.30337
|112>    H       -7.46947       -11.36430       -17.47979
|113>    H       -5.95281       -12.68806       -16.02786
|114>    H       -4.94799        -7.90162       -13.42980
|115> *
|116>
|117>                          ****END OF INPUT****

CARTESIAN COORDINATES (ANGSTROEM)
---------------------------------
  C      7.892210   -3.856880    8.856510
  C      7.075420   -3.783320    9.950580
  F      7.611600   -3.850730   11.182540
  C      5.685740   -3.638200    9.842790
  C      5.123120   -3.566390    8.598750
  C      5.918180   -3.635580    7.436530
  C      7.329720   -3.786450    7.567480
  C      8.147070   -3.869430    6.415530
  C      7.568880   -3.796480    5.178070
  C      6.158850   -3.628140    5.052620
  C      5.346290   -3.555590    6.146720
  C      5.802270   -3.544050    3.623240
  O      4.700570   -3.456520    3.130960
  C      7.104310   -3.525980    2.900660
  C      8.139970   -3.891020    3.838300
  C      9.332320   -4.491540    3.519050
  C      9.672170   -4.844250    2.197560
  N      9.934980   -5.185280    1.132680
  C     10.280160   -4.908100    4.473090
  N     11.089500   -5.245750    5.213920
  C      7.142450   -3.125780    1.598600
  C      8.229310   -2.627120    0.832880
  C      8.167780   -2.613950   -0.544200
  C      9.166300   -2.134480   -1.383670
  C     10.338720   -1.434830   -0.838360
  C     10.593770   -1.305220    0.482200
  S      9.588130   -1.932700    1.714920
  C     11.051540   -0.952590   -1.968130
  C     10.378410   -1.320730   -3.138440
  C     11.044670   -0.868990   -4.300260
  C     12.174030   -0.182480   -3.989870
  S     12.480900   -0.058880   -2.287740
  C      9.217870   -2.085980   -2.791050
  C      8.328990   -2.661870   -3.743160
  C      7.584110   -3.772290   -3.547820
  C      6.664060   -4.326740   -4.501300
  C      6.184410   -5.641480   -4.365440
  N      5.321410   -6.176100   -5.195190
  C      4.885690   -5.414350   -6.203480
  N      5.272510   -4.156680   -6.435960
  C      6.138760   -3.630040   -5.603610
  C      3.914020   -5.994010   -7.084170
  C      3.241990   -5.380940   -8.122120
  C      2.344410   -6.256270   -8.732700
  C      2.353770   -7.538270   -8.147070
  S      3.452480   -7.658440   -6.846960
  C      1.406940   -8.349020   -8.825280
  C      0.797540   -7.574910   -9.832770
  C      1.360680   -6.234950   -9.801490
  C      0.998590   -5.182320  -10.589670
  C      1.596060   -3.909160  -10.478180
  N      2.078890   -2.872400  -10.400640
  C     -0.007660   -5.311880  -11.570280
  N     -0.825810   -5.431920  -12.364690
  C     -0.180650   -8.268360  -10.532120
  C     -0.329870   -9.569890  -10.073960
  S      0.794980   -9.934240   -8.769670
  C     -1.199130  -10.578380  -10.543520
  C     -2.335190  -10.445730  -11.283540
  C     -2.846560  -11.633120  -12.028090
  O     -2.487660  -12.779340  -11.886190
  C     -3.821950  -11.095410  -12.993300
  C     -4.488220  -11.742000  -13.994340
  C     -5.361350  -11.007330  -14.827290
  C     -5.519390   -9.606930  -14.611670
  C     -6.384210   -8.879020  -15.451680
  C     -7.054990   -9.529620  -16.449650
  C     -6.914760  -10.905690  -16.676630
  C     -6.077350  -11.627030  -15.872130
  F     -7.883560   -8.837480  -17.251630
  C     -4.820430   -8.964070  -13.563440
  C     -3.992970   -9.700340  -12.760010
  C     -3.187990   -9.320070  -11.601600
  C     -3.414290   -8.211980  -10.827100
  C     -2.792750   -7.974380   -9.586160
  N     -2.334210   -7.753040   -8.556950
  C     -4.373960   -7.223610  -11.132130
  N     -5.143280   -6.394860  -11.326260
  H      8.957920   -3.972750    8.977590
  H      5.091730   -3.586420   10.741400
  H      4.054840   -3.454480    8.489980
  H      9.212990   -3.978790    6.540230
  H      4.279160   -3.438710    6.031090
  H      6.178110   -3.117280    1.098600
  H      7.269980   -3.020860   -0.988440
  H     11.466010   -0.793380    0.857740
  H     10.711610   -1.039350   -5.307830
  H     12.871750    0.273170   -4.664980
  H      8.319090   -2.181610   -4.713480
  H      7.705810   -4.342260   -2.636430
  H      6.521550   -6.276590   -3.554980
  H      6.412140   -2.602810   -5.807570
  H      3.413300   -4.354520   -8.389340
  H     -0.735400   -7.873910  -11.363900
  H     -0.897590  -11.603340  -10.349590
  H     -4.350790  -12.801550  -14.149700
  H     -6.518710   -7.819040  -15.303370
  H     -7.469470  -11.364300  -17.479790
  H     -5.952810  -12.688060  -16.027860
  H     -4.947990   -7.901620  -13.429800

 Total Charge           Charge          ....    0
 Multiplicity           Mult            ....    1
 Number of Electrons    NEL             ....  548
 Basis Dimension        Dim             .... 1218

ORBITAL ENERGIES
----------------

  NO   OCC          E(Eh)            E(eV)
   0   2.0000     -88.994532     -2421.6643
   1   2.0000     -88.989135     -2421.5175
   2   2.0000     -88.982506     -2421.3371
   3   2.0000     -88.967655     -2420.9330
   4   2.0000     -24.786674      -674.4797
   5   2.0000     -24.783911      -674.4045
   6   2.0000     -19.215004      -522.8668
   7   2.0000     -19.213573      -522.8279
   8   2.0000     -14.430281      -392.6679
   9   2.0000     -14.427860      -392.6020
  10   2.0000     -14.425232      -392.5305
  11   2.0000     -14.423987      -392.4966
  12   2.0000     -14.416963      -392.3055
  13   2.0000     -14.416775      -392.3004
  14   2.0000     -14.414855      -392.2481
  15   2.0000     -14.412264      -392.1776
  16   2.0000     -10.370394      -282.1928
  17   2.0000     -10.367755      -282.1209
  18   2.0000     -10.367006      -282.1006
  19   2.0000     -10.365218      -282.0519
  20   2.0000     -10.363990      -282.0185
  21   2.0000     -10.359488      -281.8960
  22   2.0000     -10.351631      -281.6822
  23   2.0000     -10.344030      -281.4754
  24   2.0000     -10.342912      -281.4449
  25   2.0000     -10.341914      -281.4178
  26   2.0000     -10.341661      -281.4109
  27   2.0000     -10.340980      -281.3924
  28   2.0000     -10.339101      -281.3413
  29   2.0000     -10.332977      -281.1746
  30   2.0000     -10.332655      -281.1658
  31   2.0000     -10.332463      -281.1606
  32   2.0000     -10.331002      -281.1208
  33   2.0000     -10.330731      -281.1135
  34   2.0000     -10.327865      -281.0355
  35   2.0000     -10.326740      -281.0049
  36   2.0000     -10.324651      -280.9480
  37   2.0000     -10.323981      -280.9298
  38   2.0000     -10.319437      -280.8062
  39   2.0000     -10.317977      -280.7664
  40   2.0000     -10.317446      -280.7520
  41   2.0000     -10.316670      -280.7309
  42   2.0000     -10.316669      -280.7308
  43   2.0000     -10.314713      -280.6776
  44   2.0000     -10.311125      -280.5800
  45   2.0000     -10.307280      -280.4754
  46   2.0000     -10.307176      -280.4725
  47   2.0000     -10.307133      -280.4713
  48   2.0000     -10.307077      -280.4698
  49   2.0000     -10.306033      -280.4414
  50   2.0000     -10.304961      -280.4122
  51   2.0000     -10.304474      -280.3990
  52   2.0000     -10.304393      -280.3968
  53   2.0000     -10.303013      -280.3592
  54   2.0000     -10.301931      -280.3298
  55   2.0000     -10.301859      -280.3278
  56   2.0000     -10.300975      -280.3038
  57   2.0000     -10.300385      -280.2877
  58   2.0000     -10.299718      -280.2696
  59   2.0000     -10.299484      -280.2632
  60   2.0000     -10.299064      -280.2518
  61   2.0000     -10.299035      -280.2510
  62   2.0000     -10.298884      -280.2469
  63   2.0000     -10.298562      -280.2381
  64   2.0000     -10.297091      -280.1981
  65   2.0000     -10.296642      -280.1859
  66   2.0000     -10.296343      -280.1778
  67   2.0000     -10.296193      -280.1737
  68   2.0000     -10.295997      -280.1683
  69   2.0000     -10.295333      -280.1502
  70   2.0000     -10.295181      -280.1461
  71   2.0000     -10.292877      -280.0834
  72   2.0000     -10.291018      -280.0328
  73   2.0000     -10.289797      -279.9996
  74   2.0000     -10.288817      -279.9729
  75   2.0000     -10.287060      -279.9251
  76   2.0000     -10.286108      -279.8992
  77   2.0000     -10.285334      -279.8782
  78   2.0000      -8.089278      -220.1204
  79   2.0000      -8.083080      -219.9518
  80   2.0000      -8.077503      -219.8000
  81   2.0000      -8.063144      -219.4093
  82   2.0000      -6.058425      -164.8581
  83   2.0000      -6.054266      -164.7449
  84   2.0000      -6.052271      -164.6907
  85   2.0000      -6.051781      -164.6773
  86   2.0000      -6.047962      -164.5734
  87   2.0000      -6.047099      -164.5499
  88   2.0000      -6.045753      -164.5133
  89   2.0000      -6.042503      -164.4249
  90   2.0000      -6.039332      -164.3386
  91   2.0000      -6.032598      -164.1553
  92   2.0000      -6.028309      -164.0386
  93   2.0000      -6.025135      -163.9523
  94   2.0000      -1.301597       -35.4183
  95   2.0000      -1.298984       -35.3472
  96   2.0000      -1.130294       -30.7569
  97   2.0000      -1.129207       -30.7273
  98   2.0000      -1.098090       -29.8805
  99   2.0000      -1.046518       -28.4772
 100   2.0000      -1.021872       -27.8065
 101   2.0000      -1.021503       -27.7965
 102   2.0000      -1.018297       -27.7093
 103   2.0000      -1.016938       -27.6723
 104   2.0000      -1.006668       -27.3928
 105   2.0000      -1.001182       -27.2435
 106   2.0000      -1.000238       -27.2179
 107   2.0000      -0.999364       -27.1941
 108   2.0000      -0.995512       -27.0893
 109   2.0000      -0.992650       -27.0114
 110   2.0000      -0.991624       -26.9835
 111   2.0000      -0.984248       -26.7828
 112   2.0000      -0.975302       -26.5393
 113   2.0000      -0.975279       -26.5387
 114   2.0000      -0.960630       -26.1401
 115   2.0000      -0.945299       -25.7229
 116   2.0000      -0.933094       -25.3908
 117   2.0000      -0.928713       -25.2716
 118   2.0000      -0.924988       -25.1702
 119   2.0000      -0.916751       -24.9461
 120   2.0000      -0.911851       -24.8127
 121   2.0000      -0.898394       -24.4465
 122   2.0000      -0.894656       -24.3448
 123   2.0000      -0.886312       -24.1178
 124   2.0000      -0.885498       -24.0956
 125   2.0000      -0.876890       -23.8614
 126   2.0000      -0.875963       -23.8362
 127   2.0000      -0.863103       -23.4862
 128   2.0000      -0.862419       -23.4676
 129   2.0000      -0.856630       -23.3101
 130   2.0000      -0.847432       -23.0598
 131   2.0000      -0.835597       -22.7378
 132   2.0000      -0.833472       -22.6799
 133   2.0000      -0.820273       -22.3208
 134   2.0000      -0.819759       -22.3068
 135   2.0000      -0.806113       -21.9355
 136   2.0000      -0.794717       -21.6253
 137   2.0000      -0.779495       -21.2111
 138   2.0000      -0.775222       -21.0949
 139   2.0000      -0.765444       -20.8288
 140   2.0000      -0.760947       -20.7064
 141   2.0000      -0.756955       -20.5978
 142   2.0000      -0.754191       -20.5226
 143   2.0000      -0.734463       -19.9858
 144   2.0000      -0.731904       -19.9161
 145   2.0000      -0.725873       -19.7520
 146   2.0000      -0.715912       -19.4809
 147   2.0000      -0.710086       -19.3224
 148   2.0000      -0.709069       -19.2948
 149   2.0000      -0.707848       -19.2615
 150   2.0000      -0.700263       -19.0551
 151   2.0000      -0.688318       -18.7301
 152   2.0000      -0.684186       -18.6176
 153   2.0000      -0.682135       -18.5618
 154   2.0000      -0.679270       -18.4839
 155   2.0000      -0.674633       -18.3577
 156   2.0000      -0.671964       -18.2851
 157   2.0000      -0.655951       -17.8493
 158   2.0000      -0.651130       -17.7181
 159   2.0000      -0.646083       -17.5808
 160   2.0000      -0.639434       -17.3999
 161   2.0000      -0.636407       -17.3175
 162   2.0000      -0.633421       -17.2363
 163   2.0000      -0.630508       -17.1570
 164   2.0000      -0.628019       -17.0893
 165   2.0000      -0.626616       -17.0511
 166   2.0000      -0.618321       -16.8254
 167   2.0000      -0.617145       -16.7934
 168   2.0000      -0.611674       -16.6445
 169   2.0000      -0.608870       -16.5682
 170   2.0000      -0.604709       -16.4550
 171   2.0000      -0.597302       -16.2534
 172   2.0000      -0.592614       -16.1258
 173   2.0000      -0.586212       -15.9516
 174   2.0000      -0.577440       -15.7129
 175   2.0000      -0.573393       -15.6028
 176   2.0000      -0.572107       -15.5678
 177   2.0000      -0.567057       -15.4304
 178   2.0000      -0.564691       -15.3660
 179   2.0000      -0.560896       -15.2628
 180   2.0000      -0.559196       -15.2165
 181   2.0000      -0.556484       -15.1427
 182   2.0000      -0.553773       -15.0689
 183   2.0000      -0.550665       -14.9843
 184   2.0000      -0.549975       -14.9656
 185   2.0000      -0.546434       -14.8692
 186   2.0000      -0.544712       -14.8224
 187   2.0000      -0.542369       -14.7586
 188   2.0000      -0.538378       -14.6500
 189   2.0000      -0.535317       -14.5667
 190   2.0000      -0.534746       -14.5512
 191   2.0000      -0.533727       -14.5235
 192   2.0000      -0.531755       -14.4698
 193   2.0000      -0.524968       -14.2851
 194   2.0000      -0.524435       -14.2706
 195   2.0000      -0.523665       -14.2496
 196   2.0000      -0.521943       -14.2028
 197   2.0000      -0.520786       -14.1713
 198   2.0000      -0.518604       -14.1119
 199   2.0000      -0.512815       -13.9544
 200   2.0000      -0.510623       -13.8947
 201   2.0000      -0.508697       -13.8423
 202   2.0000      -0.505935       -13.7672
 203   2.0000      -0.503389       -13.6979
 204   2.0000      -0.501904       -13.6575
 205   2.0000      -0.500732       -13.6256
 206   2.0000      -0.497883       -13.5481
 207   2.0000      -0.494812       -13.4645
 208   2.0000      -0.491449       -13.3730
 209   2.0000      -0.490681       -13.3521
 210   2.0000      -0.487585       -13.2679
 211   2.0000      -0.486067       -13.2266
 212   2.0000      -0.485006       -13.1977
 213   2.0000      -0.482659       -13.1338
 214   2.0000      -0.477290       -12.9877
 215   2.0000      -0.475155       -12.9296
 216   2.0000      -0.472154       -12.8480
 217   2.0000      -0.470707       -12.8086
 218   2.0000      -0.465957       -12.6793
 219   2.0000      -0.465519       -12.6674
 220   2.0000      -0.460520       -12.5314
 221   2.0000      -0.459060       -12.4917
 222   2.0000      -0.457605       -12.4521
 223   2.0000      -0.456765       -12.4292
 224   2.0000      -0.455503       -12.3949
 225   2.0000      -0.452315       -12.3081
 226   2.0000      -0.450577       -12.2608
 227   2.0000      -0.449625       -12.2349
 228   2.0000      -0.445100       -12.1118
 229   2.0000      -0.444367       -12.0918
 230   2.0000      -0.443300       -12.0628
 231   2.0000      -0.443072       -12.0566
 232   2.0000      -0.440020       -11.9736
 233   2.0000      -0.439450       -11.9580
 234   2.0000      -0.439069       -11.9477
 235   2.0000      -0.437768       -11.9123
 236   2.0000      -0.436453       -11.8765
 237   2.0000      -0.433242       -11.7891
 238   2.0000      -0.431422       -11.7396
 239   2.0000      -0.429087       -11.6760
 240   2.0000      -0.428009       -11.6467
 241   2.0000      -0.427871       -11.6430
 242   2.0000      -0.425416       -11.5762
 243   2.0000      -0.424389       -11.5482
 244   2.0000      -0.423375       -11.5206
 245   2.0000      -0.421538       -11.4706
 246   2.0000      -0.418074       -11.3764
 247   2.0000      -0.416643       -11.3374
 248   2.0000      -0.408434       -11.1140
 249   2.0000      -0.406720       -11.0674
 250   2.0000      -0.405751       -11.0411
 251   2.0000      -0.399776       -10.8785
 252   2.0000      -0.399155       -10.8616
 253   2.0000      -0.394351       -10.7308
 254   2.0000      -0.385269       -10.4837
 255   2.0000      -0.380325       -10.3492
 256   2.0000      -0.377990       -10.2856
 257   2.0000      -0.371902       -10.1200
 258   2.0000      -0.356342        -9.6966
 259   2.0000      -0.347875        -9.4661
 260   2.0000      -0.343696        -9.3524
 261   2.0000      -0.340959        -9.2780
 262   2.0000      -0.335324        -9.1246
 263   2.0000      -0.334550        -9.1036
 264   2.0000      -0.331447        -9.0191
 265   2.0000      -0.322978        -8.7887
 266   2.0000      -0.317178        -8.6309
 267   2.0000      -0.313592        -8.5333
 268   2.0000      -0.311289        -8.4706
 269   2.0000      -0.299741        -8.1564
 270   2.0000      -0.297103        -8.0846
 271   2.0000      -0.285983        -7.7820
 272   2.0000      -0.268205        -7.2982
 273   2.0000      -0.244755        -6.6601
 274   0.0000      -0.111780        -3.0417
 275   0.0000      -0.103426        -2.8144
 276   0.0000      -0.088812        -2.4167
 277   0.0000      -0.063062        -1.7160
 278   0.0000      -0.055632        -1.5138

MULLIKEN ATOMIC CHARGES
-----------------------
   0 C :   -0.098508
   1 C :    0.303515
   2 F :   -0.190242
   3 C :   -0.031430
   4 C :   -0.010580
   5 C :    0.098461
   6 C :    0.101390
   7 C :   -0.083765
   8 C :    0.043912
   9 C :    0.006861
  10 C :   -0.078435
  11 C :    0.141185
  12 O :   -0.143408
  13 C :   -0.130759
  14 C :    0.252703
  15 C :   -0.317633
  16 C :   -0.208918
  17 N :    0.163014
  18 C :   -0.174171
  19 N :    0.151206
  20 C :    0.025283
  21 C :   -0.091818
  22 C :   -0.007493
  23 C :    0.055944
  24 C :    0.060231
  25 C :   -0.109161
  26 S :    0.146681
  27 C :   -0.095833
  28 C :    0.046517
  29 C :    0.012579
  30 C :   -0.067109
  31 S :    0.141626
  32 C :    0.085551
  33 C :   -0.015568
  34 C :   -0.012265
  35 C :    0.010542
  36 C :    0.035373
  37 N :   -0.066306
  38 C :   -0.080142
  39 N :   -0.042058
  40 C :    0.042276
  41 C :   -0.029394
  42 C :   -0.040936
  43 C :    0.016373
  44 C :   -0.102178
  45 S :    0.246922
  46 C :   -0.073448
  47 C :   -0.004781
  48 C :    0.302870
  49 C :   -0.287659
  50 C :   -0.192296
  51 N :    0.181984
  52 C :   -0.187755
  53 N :    0.168409
  54 C :    0.002190
  55 C :   -0.114403
  56 S :    0.216203
  57 C :    0.078747
  58 C :   -0.137768
  59 C :    0.135054
  60 O :   -0.144015
  61 C :    0.014507
  62 C :   -0.079597
  63 C :    0.099244
  64 C :    0.098749
  65 C :   -0.096214
  66 C :    0.303442
  67 C :   -0.030577
  68 C :   -0.009985
  69 F :   -0.189458
  70 C :   -0.079120
  71 C :    0.031261
  72 C :    0.269992
  73 C :   -0.327200
  74 C :   -0.201888
  75 N :    0.168697
  76 C :   -0.171795
  77 N :    0.157248
  78 H :   -0.001061
  79 H :    0.004666
  80 H :   -0.007438
  81 H :   -0.004477
  82 H :   -0.009740
  83 H :    0.030609
  84 H :   -0.006415
  85 H :    0.042046
  86 H :   -0.013796
  87 H :    0.032395
  88 H :   -0.008646
  89 H :    0.006011
  90 H :    0.010566
  91 H :    0.010394
  92 H :    0.020011
  93 H :    0.024903
  94 H :    0.022179
  95 H :   -0.011269
  96 H :    0.000202
  97 H :    0.003704
  98 H :   -0.008157
  99 H :    0.002639
Sum of atomic charges:   -0.0000000

LOEWDIN ATOMIC CHARGES
----------------------
   0 C :   -0.042828
   1 C :    0.093446
   2 F :   -0.064637
   3 C :   -0.037160
   4 C :    0.004820
   5 C :   -0.019186
   6 C :    0.003742
   7 C :    0.009246
   8 C :   -0.015872
   9 C :   -0.059860
  10 C :    0.034829
  11 C :    0.083266
  12 O :   -0.145708
  13 C :   -0.103046
  14 C :    0.057750
  15 C :   -0.144867
  16 C :   -0.036084
  17 N :   -0.055802
  18 C :   -0.019826
  19 N :   -0.052075
  20 C :    0.045644
  21 C :   -0.184320
  22 C :    0.026843
  23 C :   -0.027151
  24 C :   -0.052996
  25 C :   -0.124566
  26 S :    0.483483
  27 C :   -0.188023
  28 C :   -0.044903
  29 C :   -0.060542
  30 C :   -0.159721
  31 S :    0.431764
  32 C :   -0.023708
  33 C :   -0.009093
  34 C :   -0.022782
  35 C :   -0.074450
  36 C :    0.054074
  37 N :   -0.093775
  38 C :    0.007108
  39 N :   -0.074527
  40 C :    0.058590
  41 C :   -0.179899
  42 C :   -0.002396
  43 C :   -0.063346
  44 C :   -0.181697
  45 S :    0.521068
  46 C :   -0.158145
  47 C :   -0.064605
  48 C :    0.081740
  49 C :   -0.098617
  50 C :   -0.018579
  51 N :   -0.026981
  52 C :   -0.012990
  53 N :   -0.034927
  54 C :    0.008587
  55 C :   -0.181891
  56 S :    0.501650
  57 C :    0.044454
  58 C :   -0.091749
  59 C :    0.082459
  60 O :   -0.145832
  61 C :   -0.060311
  62 C :    0.034641
  63 C :   -0.018630
  64 C :    0.004016
  65 C :   -0.040874
  66 C :    0.093375
  67 C :   -0.036668
  68 C :    0.004223
  69 F :   -0.064125
  70 C :    0.014200
  71 C :   -0.017059
  72 C :    0.065285
  73 C :   -0.134752
  74 C :   -0.015819
  75 N :   -0.046065
  76 C :   -0.018483
  77 N :   -0.046349
  78 H :    0.043186
  79 H :    0.042170
  80 H :    0.036086
  81 H :    0.038971
  82 H :    0.040135
  83 H :    0.050661
  84 H :    0.042177
  85 H :    0.039795
  86 H :    0.032051
  87 H :    0.025873
  88 H :    0.030555
  89 H :    0.033444
  90 H :    0.028693
  91 H :    0.026144
  92 H :    0.046750
  93 H :    0.042618
  94 H :    0.045933
  95 H :    0.039703
  96 H :    0.044155
  97 H :    0.041912
  98 H :    0.035768
  99 H :    0.041216

  Mayer bond orders larger than 0.100000
B(  0-C ,  1-C ) :   1.4394 B(  0-C ,  6-C ) :   1.2054 B(  0-C , 78-H ) :   1.0063
B(  1-C ,  2-F ) :   1.0895 B(  1-C ,  3-C ) :   1.2546 B(  3-C ,  4-C ) :   1.4609
B(  3-C , 79-H ) :   0.9935 B(  4-C ,  5-C ) :   1.2346 B(  4-C , 80-H ) :   0.9970
B(  5-C ,  6-C ) :   1.2549 B(  5-C , 10-C ) :   1.1929 B(  6-C ,  7-C ) :   1.2010
B(  7-C ,  8-C ) :   1.4661 B(  7-C , 81-H ) :   0.9953 B(  8-C ,  9-C ) :   1.2158
B(  8-C , 14-C ) :   1.0015 B(  9-C , 10-C ) :   1.4734 B(  9-C , 11-C ) :   0.9239
B( 10-C , 82-H ) :   1.0148 B( 11-C , 12-O ) :   2.2689 B( 11-C , 13-C ) :   0.9415
B( 13-C , 14-C ) :   1.0458 B( 13-C , 20-C ) :   1.6050 B( 14-C , 15-C ) :   1.6409
B( 15-C , 16-C ) :   1.1514 B( 15-C , 18-C ) :   1.1416 B( 16-C , 17-N ) :   3.0209
B( 18-C , 19-N ) :   2.9858 B( 20-C , 21-C ) :   1.1531 B( 20-C , 83-H ) :   0.9467
B( 21-C , 22-C ) :   1.4600 B( 21-C , 26-S ) :   1.0452 B( 22-C , 23-C ) :   1.2395
B( 22-C , 84-H ) :   0.9769 B( 23-C , 24-C ) :   1.0478 B( 23-C , 32-C ) :   1.3729
B( 24-C , 25-C ) :   1.5919 B( 24-C , 27-C ) :   1.1917 B( 25-C , 26-S ) :   1.1630
B( 25-C , 85-H ) :   0.9418 B( 27-C , 28-C ) :   1.4165 B( 27-C , 31-S ) :   1.0883
B( 28-C , 29-C ) :   1.2087 B( 28-C , 32-C ) :   1.1318 B( 29-C , 30-C ) :   1.5979
B( 29-C , 86-H ) :   0.9995 B( 30-C , 31-S ) :   1.1464 B( 30-C , 87-H ) :   0.9659
B( 32-C , 33-C ) :   1.1324 B( 33-C , 34-C ) :   1.6763 B( 33-C , 88-H ) :   0.9568
B( 34-C , 35-C ) :   1.0765 B( 34-C , 89-H ) :   0.9792 B( 35-C , 36-C ) :   1.3027
B( 35-C , 40-C ) :   1.3012 B( 36-C , 37-N ) :   1.5714 B( 36-C , 90-H ) :   0.9885
B( 37-N , 38-C ) :   1.5759 B( 38-C , 39-N ) :   1.5765 B( 38-C , 41-C ) :   1.0255
B( 39-N , 40-C ) :   1.5816 B( 40-C , 91-H ) :   0.9807 B( 41-C , 42-C ) :   1.4785
B( 41-C , 45-S ) :   1.1190 B( 42-C , 43-C ) :   1.2678 B( 42-C , 92-H ) :   1.0061
B( 43-C , 44-C ) :   1.4250 B( 43-C , 48-C ) :   0.9972 B( 44-C , 45-S ) :   1.1273
B( 44-C , 46-C ) :   1.1965 B( 46-C , 47-C ) :   1.4170 B( 46-C , 56-S ) :   1.1560
B( 47-C , 48-C ) :   0.9963 B( 47-C , 54-C ) :   1.3586 B( 48-C , 49-C ) :   1.7182
B( 49-C , 50-C ) :   1.1326 B( 49-C , 52-C ) :   1.1337 B( 50-C , 51-N ) :   3.0014
B( 52-C , 53-N ) :   2.9830 B( 54-C , 55-C ) :   1.3936 B( 54-C , 93-H ) :   0.9811
B( 55-C , 56-S ) :   1.0906 B( 55-C , 57-C ) :   1.1337 B( 57-C , 58-C ) :   1.6661
B( 57-C , 94-H ) :   0.9299 B( 58-C , 59-C ) :   0.9430 B( 58-C , 72-C ) :   1.0390
B( 59-C , 60-O ) :   2.2684 B( 59-C , 61-C ) :   0.9211 B( 61-C , 62-C ) :   1.4704
B( 61-C , 71-C ) :   1.2173 B( 62-C , 63-C ) :   1.1946 B( 62-C , 95-H ) :   1.0146
B( 63-C , 64-C ) :   1.2517 B( 63-C , 68-C ) :   1.2349 B( 64-C , 65-C ) :   1.2049
B( 64-C , 70-C ) :   1.2062 B( 65-C , 66-C ) :   1.4418 B( 65-C , 96-H ) :   1.0058
B( 66-C , 67-C ) :   1.2535 B( 66-C , 69-F ) :   1.0897 B( 67-C , 68-C ) :   1.4618
B( 67-C , 97-H ) :   0.9933 B( 68-C , 98-H ) :   0.9964 B( 70-C , 71-C ) :   1.4651
B( 70-C , 99-H ) :   0.9936 B( 71-C , 72-C ) :   0.9944 B( 72-C , 73-C ) :   1.6500
B( 73-C , 74-C ) :   1.1712 B( 73-C , 76-C ) :   1.1289 B( 74-C , 75-N ) :   2.9970
B( 76-C , 77-N ) :   2.9905

-----------------------------------------------------------------------------
         ABSORPTION SPECTRUM VIA TRANSITION ELECTRIC DIPOLE MOMENTS
-----------------------------------------------------------------------------
State   Energy  Wavelength   fosc         T2         TX        TY        TZ
        (cm-1)    (nm)                  (au**2)     (au)      (au)      (au)
-----------------------------------------------------------------------------
   0   14162.4    706.1   0.674676350  15.68320  -1.99270  -0.95380  -3.28673
   1   15373.9    650.5   0.523206364  11.20376   0.35547   0.61922  -3.27016
   2   19914.6    502.1   0.748455096  12.37283   2.95767   1.44694   1.23748
   3   20922.2    478.0   0.090376746   1.42208  -1.13397  -0.32296  -0.17860
   4   22109.6    452.3   0.121193173   1.80457  -0.66733  -1.10153   0.38193
   5   23224.6    430.6   0.040435637   0.57318  -0.20771  -0.32747  -0.65023
   6   24794.6    403.3   0.215554889   2.86204   0.77225   0.98887   1.13482
   7   25727.4    388.7   0.070651148   0.90406  -0.87487  -0.34248  -0.14617
   8   26048.0    383.9   0.005241589   0.06625   0.00015   0.02582   0.25609
   9   26386.4    379.0   0.120558818   1.50416   0.11111   0.53863   1.09622
  10   26973.3    370.7   0.090499748   1.10456   0.85230   0.56230   0.24894
  11   27560.3    362.8   0.021172603   0.25291   0.04553  -0.43546  -0.24740
  12   27622.0    362.0   0.079970543   0.95313   0.60200  -0.33294  -0.69273
  13   28320.6    353.1   0.287186228   3.33839  -1.25678  -0.81570  -1.04572
  14   28680.2    348.7   0.416662022   4.78274  -1.66187  -1.05574  -0.95203
  15   29286.0    341.5   0.006938092   0.07799  -0.23383  -0.01938   0.15146
  16   29366.4    340.5   0.069558552   0.77979   0.35065  -0.02895  -0.80993
  17   29669.5    337.0   0.089076654   0.98839   0.40601  -0.80389   0.42107
  18   29940.5    334.0   0.147134099   1.61782   0.00986   1.24368  -0.26643
  19   30400.3    328.9   0.015182488   0.16441   0.17930   0.01318   0.36344
  20   30738.4    325.3   0.509560238   5.45746  -1.13053  -0.04549  -2.04384
  21   31230.1    320.2   0.059943663   0.63190  -0.20897   0.76553  -0.04687
  22   31958.6    312.9   0.140014573   1.44232   0.94548   0.03413   0.73975
  23   32096.9    311.6   0.315673118   3.23780   1.33042   0.46691   1.11794
  24   32278.9    309.8   0.055266913   0.56367  -0.30466  -0.53989  -0.42351
  25   32926.6    303.7   0.205168940   2.05135   0.38996  -0.17395  -1.36712
  26   33199.8    301.2   0.166484294   1.65087  -0.48727  -0.05634   1.18754
  27   33447.4    299.0   0.085166790   0.83827   0.19036  -0.37343   0.81399
  28   33719.7    296.6   0.127865188   1.24837   1.00897  -0.39852  -0.26744
  29   34053.3    293.7   0.034414732   0.33271   0.25050   0.51389   0.07661
  30   34185.7    292.5   0.035880530   0.34553  -0.28241   0.21663   0.46781
  31   34192.6    292.5   0.775473089   7.46639   0.70445  -0.26342  -2.62693
  32   34273.0    291.8   0.459187694   4.41076  -0.85036  -1.71005   0.87371
  33   34454.3    290.2   0.018498587   0.17675   0.08117   0.39674   0.11298
  34   34856.4    286.9   0.029597791   0.27955  -0.18718  -0.20002   0.45222
  35   34980.0    285.9   0.152656615   1.43672  -0.41136  -0.07416   1.12339
  36   35289.0    283.4   0.264841010   2.47071   0.77584   0.74846   1.14394
  37   35585.6    281.0   0.077317678   0.71529  -0.73407  -0.07972  -0.41240
  38   35914.3    278.4   0.162960931   1.49380  -0.12537   0.45350  -1.12802
  39   36219.4    276.1   0.026445553   0.24037  -0.35091  -0.34208  -0.01482
  40   36445.5    274.4   0.004218990   0.03811  -0.14148   0.13134   0.02904
  41   36872.3    271.2   0.042331756   0.37796  -0.33193  -0.37360  -0.35805
  42   37006.3    270.2   0.033088189   0.29436   0.39293   0.13500   0.34891
  43   37266.0    268.3   0.016180096   0.14294  -0.24824   0.23567   0.16055
  44   37373.0    267.6   0.044172994   0.38911  -0.47430   0.19607   0.35455
  45   37642.6    265.7   0.005096704   0.04457  -0.18465   0.07118   0.07356
  46   37789.3    264.6   0.062794505   0.54705   0.41122  -0.34011   0.51213
  47   38119.5    262.3   0.040176798   0.34698   0.34561   0.30263  -0.36872
  48   38151.4    262.1   0.013742234   0.11858   0.12413  -0.03251  -0.31956
  49   38280.3    261.2   0.035381191   0.30428   0.07752  -0.43520  -0.32996
  50   38511.4    259.7   0.070486785   0.60255  -0.74292   0.02286   0.22384
  51   38763.8    258.0   0.100313759   0.85194  -0.51409  -0.75779  -0.11577
  52   39104.5    255.7   0.171935564   1.44749  -0.62364   1.01785   0.15015
  53   39186.6    255.2   0.095084008   0.79881  -0.86191   0.22013  -0.08646
  54   39466.4    253.4   0.152516660   1.27223   0.17042   0.60650  -0.93560
  55   39681.2    252.0   0.026720630   0.22169   0.40151  -0.19123  -0.15462
  56   39798.3    251.3   0.008197354   0.06781  -0.19260   0.04957   0.16810

FINAL SINGLE POINT ENERGY     -4752.143802522412

DIPOLE MOMENT
-------------
                                X             Y             Z
Electronic contribution:     -8.53125      -7.34861      -5.96844
Nuclear contribution   :     10.16196       7.52485       6.54684
                        -----------------------------------------
Total Dipole Moment    :      1.63071       0.17624       0.57840
                        -----------------------------------------
Magnitude (a.u.)       :      1.73920
Magnitude (Debye)      :      4.42070

Rotational constants in cm-1:     0.001300     0.000173     0.000159
Rotational constants in MHz :    38.977735     5.197810     4.778801

                             ****ORCA TERMINATED NORMALLY****
TOTAL RUN TIME: 0 days 0 hours 11 minutes 9 seconds 531 msec
