                         Program Version 4.2.0 -  RELEASE  -
|  1> # ORCA input file
|  2> # SCF done       -184.351167697299          0.000517815390
|  3> ! CAM-B3LYP def2-SVP def2/J RIJCOSX Grid4 TightSCF
|  4> %maxcore 5000
|  5> %tddft
|  6>     Mode sTDDFT
|  7>     Ethresh 5.0
|  8>     maxcore 5000
|  9> end
| 10>
| 11> %pal
| 12>   nprocs 6
| 13>   end
| 14> * xyz 0 1
| 15>    C        8.69086         6.85300       -12.24082
| 16>    C        8.88202         7.16196       -13.55891
| 17>    F        9.00740         8.45083       -13.92559
| 18>    C        8.95459         6.18194       -14.55773
| 19>    C        8.82960         4.86710       -14.20391
| 20>    C        8.63104         4.49189       -12.85965
| 21>    C        8.55850         5.50412       -11.85879
| 22>    C        8.34965         5.15280       -10.50412
| 23>    C        8.22292         3.83350       -10.16638
| 24>    C        8.31110         2.82428       -11.16894
| 25>    C        8.50395         3.13537       -12.48351
| 26>    C        8.17245         1.49752       -10.53735
| 27>    O        8.14306         0.41358       -11.07633
| 28>    C        8.13375         1.76537        -9.07503
| 29>    C        7.96371         3.18515        -8.88414
| 30>    C        7.38895         3.78694        -7.79141
| 31>    C        6.85922         3.05813        -6.70804
| 32>    N        6.37118         2.48343        -5.84128
| 33>    C        7.16997         5.17331        -7.68421
| 34>    N        6.98707         6.29794        -7.54198
| 35>    C        8.31061         0.73311        -8.19921
| 36>    C        8.72075         0.75606        -6.84264
| 37>    C        8.47725        -0.31944        -6.01300
| 38>    C        8.81953        -0.38292        -4.66992
| 39>    C        9.54175         0.71311        -4.01825
| 40>    C        9.93827         1.84071        -4.64759
| 41>    S        9.63574         2.16321        -6.30082
| 42>    C        9.70134         0.30413        -2.66777
| 43>    C        9.11667        -0.95352        -2.47247
| 44>    C        9.28164        -1.39753        -1.13896
| 45>    C        9.95595        -0.49178        -0.38510
| 46>    S       10.42496         0.93451        -1.24727
| 47>    C        8.55252        -1.39596        -3.71890
| 48>    C        7.84284        -2.58712        -3.99949
| 49>    C        7.41302        -3.49413        -3.08622
| 50>    C        6.67168        -4.66432        -3.40545
| 51>    C        6.34094        -5.19080        -4.62713
| 52>    C        5.55448        -6.36190        -4.55053
| 53>    C        5.27783        -6.73577        -3.20649
| 54>    S        6.02300        -5.63182        -2.08692
| 55>    C        4.50212        -7.82641        -2.88579
| 56>    C        3.97318        -8.58236        -3.93257
| 57>    C        4.26359        -8.21827        -5.27524
| 58>    C        5.04094        -7.13031        -5.59715
| 59>    S        3.49627        -9.30075        -6.40452
| 60>    C        2.77765       -10.21187        -5.08605
| 61>    C        3.12693        -9.71591        -3.86354
| 62>    C        1.91692       -11.31006        -5.37684
| 63>    C        1.60603       -11.81796        -6.60531
| 64>    C        0.68585       -12.89178        -6.55863
| 65>    C        0.29088       -13.19595        -5.22566
| 66>    S        1.08630       -12.15001        -4.07882
| 67>    C       -0.61454       -14.18680        -4.93126
| 68>    C       -1.15889       -14.91347        -5.99528
| 69>    C       -0.75365       -14.61632        -7.32722
| 70>    C        0.15454       -13.62330        -7.61982
| 71>    S       -1.55916       -15.64532        -8.46930
| 72>    C       -2.44625       -16.45579        -7.17323
| 73>    C       -2.11263       -15.95175        -5.94113
| 74>    C       -3.34670       -17.46845        -7.58284
| 75>    C       -4.21248       -18.24578        -6.87792
| 76>    C       -4.51853       -18.30725        -5.45247
| 77>    O       -4.02285       -17.66122        -4.55431
| 78>    N       -5.51067       -19.24998        -5.21020
| 79>    C       -5.99378       -19.92351        -6.28759
| 80>    C       -6.96621       -20.88999        -6.30636
| 81>    C       -7.66961       -21.38164        -5.19275
| 82>    N       -8.27979       -21.82397        -4.32647
| 83>    C       -7.33497       -21.47922        -7.53433
| 84>    N       -7.64182       -21.96224        -8.52798
| 85>    S       -5.20582       -19.40753        -7.75623
| 86>    C       -5.97131       -19.46602        -3.85943
| 87>    H        8.63620         7.63441       -11.49903
| 88>    H        9.10682         6.48535       -15.58137
| 89>    H        8.88194         4.09385       -14.95560
| 90>    H        8.30370         5.93694        -9.76485
| 91>    H        8.55788         2.35689       -13.22978
| 92>    H        8.18604        -0.25428        -8.63447
| 93>    H        7.93071        -1.14304        -6.45242
| 94>    H       10.47771         2.62879        -4.14616
| 95>    H        8.93857        -2.33448        -0.74130
| 96>    H       10.21795        -0.56942         0.65200
| 97>    H        7.60230        -2.75704        -5.03957
| 98>    H        7.59281        -3.32669        -2.03587
| 99>    H        6.64743        -4.76071        -5.56325
|100>    H        4.29741        -8.08974        -1.86031
|101>    H        5.24290        -6.86720        -6.62318
|102>    H        2.78197       -10.14594        -2.93957
|103>    H        2.02062       -11.42927        -7.51869
|104>    H       -0.90903       -14.40210        -3.91677
|105>    H        0.44612       -13.40833        -8.63533
|106>    H       -2.54307       -16.31367        -5.02630
|107>    H       -3.34787       -17.64155        -8.65391
|108>    H       -5.40363       -18.78802        -3.22148
|109>    H       -5.79281       -20.49602        -3.54987
|110>    H       -7.03539       -19.24479        -3.77380
|111> *
|112>
|113>                          ****END OF INPUT****

CARTESIAN COORDINATES (ANGSTROEM)
---------------------------------
  C      8.690860    6.853000  -12.240820
  C      8.882020    7.161960  -13.558910
  F      9.007400    8.450830  -13.925590
  C      8.954590    6.181940  -14.557730
  C      8.829600    4.867100  -14.203910
  C      8.631040    4.491890  -12.859650
  C      8.558500    5.504120  -11.858790
  C      8.349650    5.152800  -10.504120
  C      8.222920    3.833500  -10.166380
  C      8.311100    2.824280  -11.168940
  C      8.503950    3.135370  -12.483510
  C      8.172450    1.497520  -10.537350
  O      8.143060    0.413580  -11.076330
  C      8.133750    1.765370   -9.075030
  C      7.963710    3.185150   -8.884140
  C      7.388950    3.786940   -7.791410
  C      6.859220    3.058130   -6.708040
  N      6.371180    2.483430   -5.841280
  C      7.169970    5.173310   -7.684210
  N      6.987070    6.297940   -7.541980
  C      8.310610    0.733110   -8.199210
  C      8.720750    0.756060   -6.842640
  C      8.477250   -0.319440   -6.013000
  C      8.819530   -0.382920   -4.669920
  C      9.541750    0.713110   -4.018250
  C      9.938270    1.840710   -4.647590
  S      9.635740    2.163210   -6.300820
  C      9.701340    0.304130   -2.667770
  C      9.116670   -0.953520   -2.472470
  C      9.281640   -1.397530   -1.138960
  C      9.955950   -0.491780   -0.385100
  S     10.424960    0.934510   -1.247270
  C      8.552520   -1.395960   -3.718900
  C      7.842840   -2.587120   -3.999490
  C      7.413020   -3.494130   -3.086220
  C      6.671680   -4.664320   -3.405450
  C      6.340940   -5.190800   -4.627130
  C      5.554480   -6.361900   -4.550530
  C      5.277830   -6.735770   -3.206490
  S      6.023000   -5.631820   -2.086920
  C      4.502120   -7.826410   -2.885790
  C      3.973180   -8.582360   -3.932570
  C      4.263590   -8.218270   -5.275240
  C      5.040940   -7.130310   -5.597150
  S      3.496270   -9.300750   -6.404520
  C      2.777650  -10.211870   -5.086050
  C      3.126930   -9.715910   -3.863540
  C      1.916920  -11.310060   -5.376840
  C      1.606030  -11.817960   -6.605310
  C      0.685850  -12.891780   -6.558630
  C      0.290880  -13.195950   -5.225660
  S      1.086300  -12.150010   -4.078820
  C     -0.614540  -14.186800   -4.931260
  C     -1.158890  -14.913470   -5.995280
  C     -0.753650  -14.616320   -7.327220
  C      0.154540  -13.623300   -7.619820
  S     -1.559160  -15.645320   -8.469300
  C     -2.446250  -16.455790   -7.173230
  C     -2.112630  -15.951750   -5.941130
  C     -3.346700  -17.468450   -7.582840
  C     -4.212480  -18.245780   -6.877920
  C     -4.518530  -18.307250   -5.452470
  O     -4.022850  -17.661220   -4.554310
  N     -5.510670  -19.249980   -5.210200
  C     -5.993780  -19.923510   -6.287590
  C     -6.966210  -20.889990   -6.306360
  C     -7.669610  -21.381640   -5.192750
  N     -8.279790  -21.823970   -4.326470
  C     -7.334970  -21.479220   -7.534330
  N     -7.641820  -21.962240   -8.527980
  S     -5.205820  -19.407530   -7.756230
  C     -5.971310  -19.466020   -3.859430
  H      8.636200    7.634410  -11.499030
  H      9.106820    6.485350  -15.581370
  H      8.881940    4.093850  -14.955600
  H      8.303700    5.936940   -9.764850
  H      8.557880    2.356890  -13.229780
  H      8.186040   -0.254280   -8.634470
  H      7.930710   -1.143040   -6.452420
  H     10.477710    2.628790   -4.146160
  H      8.938570   -2.334480   -0.741300
  H     10.217950   -0.569420    0.652000
  H      7.602300   -2.757040   -5.039570
  H      7.592810   -3.326690   -2.035870
  H      6.647430   -4.760710   -5.563250
  H      4.297410   -8.089740   -1.860310
  H      5.242900   -6.867200   -6.623180
  H      2.781970  -10.145940   -2.939570
  H      2.020620  -11.429270   -7.518690
  H     -0.909030  -14.402100   -3.916770
  H      0.446120  -13.408330   -8.635330
  H     -2.543070  -16.313670   -5.026300
  H     -3.347870  -17.641550   -8.653910
  H     -5.403630  -18.788020   -3.221480
  H     -5.792810  -20.496020   -3.549870
  H     -7.035390  -19.244790   -3.773800

 Total Charge           Charge          ....    0
 Multiplicity           Mult            ....    1
 Number of Electrons    NEL             ....  538
 Basis Dimension        Dim             .... 1156

ORBITAL ENERGIES
----------------

  NO   OCC          E(Eh)            E(eV)
   0   2.0000     -88.984209     -2421.3834
   1   2.0000     -88.978914     -2421.2393
   2   2.0000     -88.966641     -2420.9054
   3   2.0000     -88.959181     -2420.7024
   4   2.0000     -88.957948     -2420.6688
   5   2.0000     -88.953889     -2420.5584
   6   2.0000     -88.950870     -2420.4762
   7   2.0000     -24.784944      -674.4326
   8   2.0000     -19.230105      -523.2778
   9   2.0000     -19.212573      -522.8007
  10   2.0000     -14.501511      -394.6062
  11   2.0000     -14.413971      -392.2241
  12   2.0000     -14.410880      -392.1400
  13   2.0000     -14.406697      -392.0261
  14   2.0000     -14.406219      -392.0131
  15   2.0000     -10.418277      -283.4957
  16   2.0000     -10.399948      -282.9970
  17   2.0000     -10.368587      -282.1436
  18   2.0000     -10.364459      -282.0313
  19   2.0000     -10.340477      -281.3787
  20   2.0000     -10.338443      -281.3233
  21   2.0000     -10.337237      -281.2905
  22   2.0000     -10.337152      -281.2882
  23   2.0000     -10.335624      -281.2466
  24   2.0000     -10.333038      -281.1763
  25   2.0000     -10.328358      -281.0489
  26   2.0000     -10.321778      -280.8699
  27   2.0000     -10.321199      -280.8541
  28   2.0000     -10.321065      -280.8504
  29   2.0000     -10.320672      -280.8398
  30   2.0000     -10.316580      -280.7284
  31   2.0000     -10.316279      -280.7202
  32   2.0000     -10.315361      -280.6953
  33   2.0000     -10.313673      -280.6493
  34   2.0000     -10.313541      -280.6457
  35   2.0000     -10.313322      -280.6398
  36   2.0000     -10.311110      -280.5796
  37   2.0000     -10.310008      -280.5496
  38   2.0000     -10.309983      -280.5489
  39   2.0000     -10.305838      -280.4361
  40   2.0000     -10.305105      -280.4162
  41   2.0000     -10.305078      -280.4154
  42   2.0000     -10.304577      -280.4018
  43   2.0000     -10.304310      -280.3945
  44   2.0000     -10.304073      -280.3881
  45   2.0000     -10.301274      -280.3119
  46   2.0000     -10.299970      -280.2764
  47   2.0000     -10.298995      -280.2499
  48   2.0000     -10.296977      -280.1950
  49   2.0000     -10.296528      -280.1828
  50   2.0000     -10.296147      -280.1724
  51   2.0000     -10.295827      -280.1637
  52   2.0000     -10.295660      -280.1592
  53   2.0000     -10.293697      -280.1057
  54   2.0000     -10.293690      -280.1056
  55   2.0000     -10.293469      -280.0995
  56   2.0000     -10.292632      -280.0767
  57   2.0000     -10.291381      -280.0427
  58   2.0000     -10.290516      -280.0192
  59   2.0000     -10.289865      -280.0015
  60   2.0000     -10.288752      -279.9712
  61   2.0000     -10.288713      -279.9701
  62   2.0000     -10.288142      -279.9546
  63   2.0000     -10.288142      -279.9546
  64   2.0000     -10.287561      -279.9388
  65   2.0000     -10.286072      -279.8982
  66   2.0000     -10.285588      -279.8851
  67   2.0000     -10.284972      -279.8683
  68   2.0000     -10.284908      -279.8666
  69   2.0000     -10.284540      -279.8566
  70   2.0000     -10.284382      -279.8523
  71   2.0000     -10.278015      -279.6790
  72   2.0000      -8.080586      -219.8839
  73   2.0000      -8.073799      -219.6992
  74   2.0000      -8.062190      -219.3834
  75   2.0000      -8.055234      -219.1941
  76   2.0000      -8.053706      -219.1525
  77   2.0000      -8.049707      -219.0437
  78   2.0000      -8.046970      -218.9692
  79   2.0000      -6.050446      -164.6410
  80   2.0000      -6.046568      -164.5355
  81   2.0000      -6.043447      -164.4505
  82   2.0000      -6.040819      -164.3791
  83   2.0000      -6.038860      -164.3257
  84   2.0000      -6.035554      -164.2358
  85   2.0000      -6.031591      -164.1279
  86   2.0000      -6.027319      -164.0117
  87   2.0000      -6.024817      -163.9436
  88   2.0000      -6.024270      -163.9287
  89   2.0000      -6.023420      -163.9056
  90   2.0000      -6.020882      -163.8365
  91   2.0000      -6.019406      -163.7964
  92   2.0000      -6.019371      -163.7954
  93   2.0000      -6.016544      -163.7185
  94   2.0000      -6.016449      -163.7159
  95   2.0000      -6.015383      -163.6869
  96   2.0000      -6.014792      -163.6708
  97   2.0000      -6.012602      -163.6112
  98   2.0000      -6.010797      -163.5621
  99   2.0000      -6.008217      -163.4919
 100   2.0000      -1.299693       -35.3665
 101   2.0000      -1.175450       -31.9856
 102   2.0000      -1.127458       -30.6797
 103   2.0000      -1.102152       -29.9911
 104   2.0000      -1.019038       -27.7294
 105   2.0000      -1.014582       -27.6082
 106   2.0000      -1.012077       -27.5400
 107   2.0000      -1.003740       -27.3132
 108   2.0000      -1.003170       -27.2976
 109   2.0000      -0.998622       -27.1739
 110   2.0000      -0.992231       -27.0000
 111   2.0000      -0.990744       -26.9595
 112   2.0000      -0.986519       -26.8445
 113   2.0000      -0.981545       -26.7092
 114   2.0000      -0.977023       -26.5862
 115   2.0000      -0.973046       -26.4779
 116   2.0000      -0.966655       -26.3040
 117   2.0000      -0.940968       -25.6050
 118   2.0000      -0.932584       -25.3769
 119   2.0000      -0.926864       -25.2213
 120   2.0000      -0.922963       -25.1151
 121   2.0000      -0.914112       -24.8743
 122   2.0000      -0.908019       -24.7084
 123   2.0000      -0.892949       -24.2984
 124   2.0000      -0.886362       -24.1191
 125   2.0000      -0.884568       -24.0703
 126   2.0000      -0.882931       -24.0258
 127   2.0000      -0.877743       -23.8846
 128   2.0000      -0.872093       -23.7309
 129   2.0000      -0.860610       -23.4184
 130   2.0000      -0.850359       -23.1395
 131   2.0000      -0.842099       -22.9147
 132   2.0000      -0.838188       -22.8083
 133   2.0000      -0.833596       -22.6833
 134   2.0000      -0.827960       -22.5299
 135   2.0000      -0.824950       -22.4480
 136   2.0000      -0.817987       -22.2585
 137   2.0000      -0.811599       -22.0847
 138   2.0000      -0.798259       -21.7217
 139   2.0000      -0.793603       -21.5950
 140   2.0000      -0.786327       -21.3970
 141   2.0000      -0.781263       -21.2592
 142   2.0000      -0.771822       -21.0024
 143   2.0000      -0.759435       -20.6653
 144   2.0000      -0.750295       -20.4166
 145   2.0000      -0.734339       -19.9824
 146   2.0000      -0.730229       -19.8705
 147   2.0000      -0.719276       -19.5725
 148   2.0000      -0.712211       -19.3803
 149   2.0000      -0.708085       -19.2680
 150   2.0000      -0.700603       -19.0644
 151   2.0000      -0.695971       -18.9383
 152   2.0000      -0.688266       -18.7287
 153   2.0000      -0.685970       -18.6662
 154   2.0000      -0.678934       -18.4747
 155   2.0000      -0.675625       -18.3847
 156   2.0000      -0.673207       -18.3189
 157   2.0000      -0.667194       -18.1553
 158   2.0000      -0.660831       -17.9821
 159   2.0000      -0.652238       -17.7483
 160   2.0000      -0.644123       -17.5275
 161   2.0000      -0.642733       -17.4896
 162   2.0000      -0.635112       -17.2823
 163   2.0000      -0.629406       -17.1270
 164   2.0000      -0.628742       -17.1089
 165   2.0000      -0.624241       -16.9865
 166   2.0000      -0.623507       -16.9665
 167   2.0000      -0.619571       -16.8594
 168   2.0000      -0.607478       -16.5303
 169   2.0000      -0.602832       -16.4039
 170   2.0000      -0.600214       -16.3327
 171   2.0000      -0.590150       -16.0588
 172   2.0000      -0.586827       -15.9684
 173   2.0000      -0.580522       -15.7968
 174   2.0000      -0.578183       -15.7332
 175   2.0000      -0.577188       -15.7061
 176   2.0000      -0.571717       -15.5572
 177   2.0000      -0.570087       -15.5129
 178   2.0000      -0.568486       -15.4693
 179   2.0000      -0.562558       -15.3080
 180   2.0000      -0.557514       -15.1707
 181   2.0000      -0.557393       -15.1674
 182   2.0000      -0.549822       -14.9614
 183   2.0000      -0.548643       -14.9293
 184   2.0000      -0.544690       -14.8218
 185   2.0000      -0.542359       -14.7583
 186   2.0000      -0.541981       -14.7481
 187   2.0000      -0.537632       -14.6297
 188   2.0000      -0.532956       -14.5025
 189   2.0000      -0.532313       -14.4850
 190   2.0000      -0.527198       -14.3458
 191   2.0000      -0.524443       -14.2708
 192   2.0000      -0.522694       -14.2232
 193   2.0000      -0.522369       -14.2144
 194   2.0000      -0.520054       -14.1514
 195   2.0000      -0.519418       -14.1341
 196   2.0000      -0.514497       -14.0002
 197   2.0000      -0.513396       -13.9702
 198   2.0000      -0.509626       -13.8676
 199   2.0000      -0.507438       -13.8081
 200   2.0000      -0.506997       -13.7961
 201   2.0000      -0.503446       -13.6995
 202   2.0000      -0.502643       -13.6776
 203   2.0000      -0.500219       -13.6116
 204   2.0000      -0.499157       -13.5828
 205   2.0000      -0.492478       -13.4010
 206   2.0000      -0.489473       -13.3192
 207   2.0000      -0.486524       -13.2390
 208   2.0000      -0.485710       -13.2169
 209   2.0000      -0.483864       -13.1666
 210   2.0000      -0.480424       -13.0730
 211   2.0000      -0.473098       -12.8736
 212   2.0000      -0.469962       -12.7883
 213   2.0000      -0.468869       -12.7586
 214   2.0000      -0.467552       -12.7227
 215   2.0000      -0.466342       -12.6898
 216   2.0000      -0.464165       -12.6306
 217   2.0000      -0.459172       -12.4947
 218   2.0000      -0.455703       -12.4003
 219   2.0000      -0.454641       -12.3714
 220   2.0000      -0.450315       -12.2537
 221   2.0000      -0.447993       -12.1905
 222   2.0000      -0.447163       -12.1679
 223   2.0000      -0.446678       -12.1547
 224   2.0000      -0.440705       -11.9922
 225   2.0000      -0.440556       -11.9881
 226   2.0000      -0.440427       -11.9846
 227   2.0000      -0.438880       -11.9425
 228   2.0000      -0.437302       -11.8996
 229   2.0000      -0.436398       -11.8750
 230   2.0000      -0.435888       -11.8611
 231   2.0000      -0.430990       -11.7278
 232   2.0000      -0.430559       -11.7161
 233   2.0000      -0.428572       -11.6620
 234   2.0000      -0.425886       -11.5890
 235   2.0000      -0.425588       -11.5808
 236   2.0000      -0.423511       -11.5243
 237   2.0000      -0.422853       -11.5064
 238   2.0000      -0.420361       -11.4386
 239   2.0000      -0.419728       -11.4214
 240   2.0000      -0.419020       -11.4021
 241   2.0000      -0.415131       -11.2963
 242   2.0000      -0.413100       -11.2410
 243   2.0000      -0.408112       -11.1053
 244   2.0000      -0.406059       -11.0494
 245   2.0000      -0.405455       -11.0330
 246   2.0000      -0.402442       -10.9510
 247   2.0000      -0.388454       -10.5704
 248   2.0000      -0.387219       -10.5368
 249   2.0000      -0.383346       -10.4314
 250   2.0000      -0.378856       -10.3092
 251   2.0000      -0.376111       -10.2345
 252   2.0000      -0.375407       -10.2153
 253   2.0000      -0.361904        -9.8479
 254   2.0000      -0.347854        -9.4656
 255   2.0000      -0.342250        -9.3131
 256   2.0000      -0.339107        -9.2276
 257   2.0000      -0.334383        -9.0990
 258   2.0000      -0.329410        -8.9637
 259   2.0000      -0.326130        -8.8744
 260   2.0000      -0.312077        -8.4920
 261   2.0000      -0.311079        -8.4649
 262   2.0000      -0.297843        -8.1047
 263   2.0000      -0.292069        -7.9476
 264   2.0000      -0.285901        -7.7798
 265   2.0000      -0.282179        -7.6785
 266   2.0000      -0.269765        -7.3407
 267   2.0000      -0.257909        -7.0181
 268   2.0000      -0.232667        -6.3312
 269   0.0000      -0.104968        -2.8563
 270   0.0000      -0.085070        -2.3149
 271   0.0000      -0.059930        -1.6308
 272   0.0000      -0.051135        -1.3915
 273   0.0000      -0.040389        -1.0990

MULLIKEN ATOMIC CHARGES
-----------------------
   0 C :   -0.098437
   1 C :    0.302488
   2 F :   -0.191646
   3 C :   -0.032165
   4 C :   -0.010649
   5 C :    0.099474
   6 C :    0.102591
   7 C :   -0.085874
   8 C :    0.040859
   9 C :    0.006981
  10 C :   -0.080005
  11 C :    0.141446
  12 O :   -0.147534
  13 C :   -0.130617
  14 C :    0.260982
  15 C :   -0.319112
  16 C :   -0.214106
  17 N :    0.164796
  18 C :   -0.173451
  19 N :    0.148521
  20 C :    0.023099
  21 C :   -0.092254
  22 C :    0.002923
  23 C :    0.056621
  24 C :    0.074125
  25 C :   -0.112854
  26 S :    0.143384
  27 C :   -0.100692
  28 C :    0.042302
  29 C :    0.001759
  30 C :   -0.066569
  31 S :    0.141221
  32 C :    0.112214
  33 C :   -0.015156
  34 C :    0.061837
  35 C :   -0.057842
  36 C :   -0.034980
  37 C :    0.116104
  38 C :   -0.045170
  39 S :    0.106211
  40 C :   -0.056857
  41 C :    0.118404
  42 C :   -0.038150
  43 C :   -0.058909
  44 S :    0.105613
  45 C :   -0.024775
  46 C :   -0.054142
  47 C :   -0.015076
  48 C :   -0.060455
  49 C :    0.125691
  50 C :   -0.040499
  51 S :    0.114679
  52 C :   -0.043034
  53 C :    0.089950
  54 C :   -0.034435
  55 C :   -0.055527
  56 S :    0.105277
  57 C :   -0.105935
  58 C :   -0.001339
  59 C :    0.114031
  60 C :   -0.176362
  61 C :    0.245548
  62 O :   -0.184543
  63 N :   -0.240304
  64 C :    0.127156
  65 C :   -0.305354
  66 C :   -0.197029
  67 N :    0.169542
  68 C :   -0.219471
  69 N :    0.148217
  70 S :    0.148406
  71 C :    0.115018
  72 H :   -0.001699
  73 H :    0.003520
  74 H :   -0.008173
  75 H :   -0.004506
  76 H :   -0.011357
  77 H :    0.028442
  78 H :   -0.010215
  79 H :    0.040392
  80 H :   -0.008362
  81 H :    0.029996
  82 H :   -0.032456
  83 H :   -0.036199
  84 H :   -0.026295
  85 H :   -0.030391
  86 H :   -0.031096
  87 H :   -0.012949
  88 H :   -0.010734
  89 H :   -0.021849
  90 H :   -0.028142
  91 H :    0.007376
  92 H :    0.010315
  93 H :    0.066521
  94 H :    0.065755
  95 H :    0.065943
Sum of atomic charges:   -0.0000000

LOEWDIN ATOMIC CHARGES
----------------------
   0 C :   -0.042744
   1 C :    0.093175
   2 F :   -0.065735
   3 C :   -0.038167
   4 C :    0.004350
   5 C :   -0.019697
   6 C :    0.003628
   7 C :    0.008407
   8 C :   -0.015403
   9 C :   -0.059657
  10 C :    0.033724
  11 C :    0.082905
  12 O :   -0.149395
  13 C :   -0.104437
  14 C :    0.056757
  15 C :   -0.145062
  16 C :   -0.037174
  17 N :   -0.055035
  18 C :   -0.019253
  19 N :   -0.054562
  20 C :    0.044417
  21 C :   -0.184111
  22 C :    0.029599
  23 C :   -0.029536
  24 C :   -0.053596
  25 C :   -0.125516
  26 S :    0.478977
  27 C :   -0.182151
  28 C :   -0.042953
  29 C :   -0.062080
  30 C :   -0.161519
  31 S :    0.435070
  32 C :   -0.015080
  33 C :   -0.008222
  34 C :   -0.037255
  35 C :   -0.147653
  36 C :   -0.054863
  37 C :   -0.039975
  38 C :   -0.153534
  39 S :    0.390812
  40 C :   -0.034290
  41 C :   -0.045363
  42 C :   -0.148873
  43 C :   -0.038465
  44 S :    0.393721
  45 C :   -0.167173
  46 C :   -0.050062
  47 C :   -0.154833
  48 C :   -0.060292
  49 C :   -0.032302
  50 C :   -0.151286
  51 S :    0.397623
  52 C :   -0.022284
  53 C :   -0.052633
  54 C :   -0.147038
  55 C :   -0.038897
  56 S :    0.392748
  57 C :   -0.170985
  58 C :   -0.007788
  59 C :    0.001145
  60 C :   -0.210681
  61 C :    0.077302
  62 O :   -0.163293
  63 N :   -0.004874
  64 C :   -0.033449
  65 C :   -0.211696
  66 C :   -0.034453
  67 N :   -0.061907
  68 C :   -0.041092
  69 N :   -0.050081
  70 S :    0.426837
  71 C :    0.037769
  72 H :    0.043032
  73 H :    0.041729
  74 H :    0.035626
  75 H :    0.038854
  76 H :    0.039438
  77 H :    0.049270
  78 H :    0.040961
  79 H :    0.038929
  80 H :    0.030266
  81 H :    0.025660
  82 H :    0.026976
  83 H :    0.026223
  84 H :    0.027276
  85 H :    0.031350
  86 H :    0.030690
  87 H :    0.028460
  88 H :    0.028487
  89 H :    0.034849
  90 H :    0.032273
  91 H :    0.034176
  92 H :    0.039594
  93 H :    0.042906
  94 H :    0.041130
  95 H :    0.041335

  Mayer bond orders larger than 0.100000
B(  0-C ,  1-C ) :   1.4409 B(  0-C ,  6-C ) :   1.2050 B(  0-C , 72-H ) :   1.0063
B(  1-C ,  2-F ) :   1.0873 B(  1-C ,  3-C ) :   1.2543 B(  3-C ,  4-C ) :   1.4607
B(  3-C , 73-H ) :   0.9935 B(  4-C ,  5-C ) :   1.2360 B(  4-C , 74-H ) :   0.9968
B(  5-C ,  6-C ) :   1.2539 B(  5-C , 10-C ) :   1.1914 B(  6-C ,  7-C ) :   1.2012
B(  7-C ,  8-C ) :   1.4672 B(  7-C , 75-H ) :   0.9949 B(  8-C ,  9-C ) :   1.2157
B(  8-C , 14-C ) :   0.9990 B(  9-C , 10-C ) :   1.4753 B(  9-C , 11-C ) :   0.9223
B( 10-C , 76-H ) :   1.0147 B( 11-C , 12-O ) :   2.2648 B( 11-C , 13-C ) :   0.9464
B( 13-C , 14-C ) :   1.0525 B( 13-C , 20-C ) :   1.5895 B( 14-C , 15-C ) :   1.6361
B( 15-C , 16-C ) :   1.1551 B( 15-C , 18-C ) :   1.1405 B( 16-C , 17-N ) :   3.0192
B( 18-C , 19-N ) :   2.9841 B( 20-C , 21-C ) :   1.1565 B( 20-C , 77-H ) :   0.9473
B( 21-C , 22-C ) :   1.4613 B( 21-C , 26-S ) :   1.0431 B( 22-C , 23-C ) :   1.2530
B( 22-C , 78-H ) :   0.9744 B( 23-C , 24-C ) :   1.0451 B( 23-C , 32-C ) :   1.3362
B( 24-C , 25-C ) :   1.5989 B( 24-C , 27-C ) :   1.1889 B( 25-C , 26-S ) :   1.1545
B( 25-C , 79-H ) :   0.9405 B( 27-C , 28-C ) :   1.4307 B( 27-C , 31-S ) :   1.0936
B( 28-C , 29-C ) :   1.2045 B( 28-C , 32-C ) :   1.0995 B( 29-C , 30-C ) :   1.6003
B( 29-C , 80-H ) :   0.9987 B( 30-C , 31-S ) :   1.1470 B( 30-C , 81-H ) :   0.9645
B( 32-C , 33-C ) :   1.1881 B( 33-C , 34-C ) :   1.6461 B( 33-C , 82-H ) :   0.9583
B( 34-C , 35-C ) :   1.1124 B( 34-C , 83-H ) :   0.9659 B( 35-C , 36-C ) :   1.5534
B( 35-C , 39-S ) :   1.0711 B( 36-C , 37-C ) :   1.1702 B( 36-C , 84-H ) :   0.9954
B( 37-C , 38-C ) :   1.2760 B( 37-C , 43-C ) :   1.3067 B( 38-C , 39-S ) :   1.0447
B( 38-C , 40-C ) :   1.3888 B( 40-C , 41-C ) :   1.3167 B( 40-C , 85-H ) :   1.0028
B( 41-C , 42-C ) :   1.2802 B( 41-C , 46-C ) :   1.1513 B( 42-C , 43-C ) :   1.3949
B( 42-C , 44-S ) :   1.0392 B( 43-C , 86-H ) :   1.0014 B( 44-S , 45-C ) :   1.0743
B( 45-C , 46-C ) :   1.5723 B( 45-C , 47-C ) :   1.1479 B( 46-C , 87-H ) :   0.9970
B( 47-C , 48-C ) :   1.5688 B( 47-C , 51-S ) :   1.0784 B( 48-C , 49-C ) :   1.1539
B( 48-C , 88-H ) :   0.9970 B( 49-C , 50-C ) :   1.2672 B( 49-C , 55-C ) :   1.3264
B( 50-C , 51-S ) :   1.0368 B( 50-C , 52-C ) :   1.4082 B( 52-C , 53-C ) :   1.2965
B( 52-C , 89-H ) :   1.0023 B( 53-C , 54-C ) :   1.2714 B( 53-C , 58-C ) :   1.1599
B( 54-C , 55-C ) :   1.3754 B( 54-C , 56-S ) :   1.0578 B( 55-C , 90-H ) :   1.0032
B( 56-S , 57-C ) :   1.0510 B( 57-C , 58-C ) :   1.5315 B( 57-C , 59-C ) :   1.1898
B( 58-C , 91-H ) :   0.9826 B( 59-C , 60-C ) :   1.7054 B( 59-C , 92-H ) :   0.9264
B( 60-C , 61-C ) :   0.9668 B( 60-C , 70-S ) :   1.0110 B( 61-C , 62-O ) :   2.0687
B( 61-C , 63-N ) :   1.0655 B( 63-N , 64-C ) :   1.1982 B( 63-N , 71-C ) :   0.9343
B( 64-C , 65-C ) :   1.5525 B( 64-C , 70-S ) :   1.0936 B( 65-C , 66-C ) :   1.1687
B( 65-C , 68-C ) :   1.1501 B( 66-C , 67-N ) :   3.0117 B( 68-C , 69-N ) :   3.0339
B( 71-C , 93-H ) :   0.9430 B( 71-C , 94-H ) :   0.9693 B( 71-C , 95-H ) :   0.9691

-----------------------------------------------------------------------------
         ABSORPTION SPECTRUM VIA TRANSITION ELECTRIC DIPOLE MOMENTS
-----------------------------------------------------------------------------
State   Energy  Wavelength   fosc         T2         TX        TY        TZ
        (cm-1)    (nm)                  (au**2)     (au)      (au)      (au)
-----------------------------------------------------------------------------
   0   13586.5    736.0   1.107484241  26.83532  -1.12210  -4.43045   2.43872
   1   20799.0    480.8   1.857128562  29.39504   3.73172   3.44515   1.89745
   2   21225.4    471.1   0.475145015   7.36964   1.22077   2.34624  -0.61197
   3   22523.2    444.0   0.021972465   0.32116   0.36614   0.25458   0.34970
   4   23106.8    432.8   0.008697376   0.12392  -0.17837  -0.10093   0.28621
   5   23908.0    418.3   0.056444992   0.77724   0.39654   0.45967  -0.63930
   6   24840.6    402.6   0.023633620   0.31322  -0.21720  -0.33860  -0.38909
   7   26051.4    383.9   0.201684097   2.54869  -0.96499  -1.26445   0.13650
   8   26248.3    381.0   0.023616459   0.29620   0.04202   0.09985  -0.53336
   9   26832.7    372.7   0.291613274   3.57783   1.13593   0.89994  -1.21556
  10   27430.8    364.6   0.060270467   0.72334   0.41264   0.09732  -0.73729
  11   27987.9    357.3   0.635963970   7.48063   1.59317   2.09104   0.75498
  12   29157.3    343.0   0.026810952   0.30272   0.04296   0.12151  -0.53489
  13   29350.7    340.7   0.177946990   1.99594   0.78880   1.13413  -0.29575
  14   29614.6    337.7   0.091958874   1.02226  -0.07279  -0.51104  -0.86937
  15   31205.5    320.5   0.233765941   2.46619   0.32010   1.32385   0.78177
  16   31816.2    314.3   0.019125319   0.19790  -0.41867  -0.05908   0.13829
  17   32052.4    312.0   0.013799438   0.14173   0.09759  -0.22504  -0.28560
  18   32283.1    309.8   0.032239547   0.32877   0.45668   0.19156  -0.28898
  19   32632.1    306.4   0.039495912   0.39846   0.13235   0.07390  -0.61276
  20   33343.0    299.9   0.658191529   6.49865   0.24669   0.96497  -2.34662
  21   33807.9    295.8   0.044831144   0.43655  -0.11772   0.26850  -0.59211
  22   34000.8    294.1   0.769279902   7.44854   0.15628   1.48508  -2.28444
  23   34232.5    292.1   0.017320711   0.16657   0.03060   0.10029  -0.39443
  24   34442.4    290.3   0.001895525   0.01812   0.09121  -0.08542   0.05003
  25   34946.3    286.2   0.011992898   0.11298   0.19195   0.26134  -0.08854
  26   35161.9    284.4   0.007395812   0.06925   0.16527   0.04597   0.19954
  27   36090.4    277.1   0.022593453   0.20609   0.05692   0.12397   0.43300
  28   36121.0    276.8   0.010612377   0.09672   0.11533  -0.01443   0.28847
  29   36353.5    275.1   0.003386737   0.03067  -0.06802  -0.07419  -0.14331
  30   36419.6    274.6   0.047064557   0.42544   0.06774   0.16279   0.62797
  31   36659.4    272.8   0.043282981   0.38869  -0.13420  -0.14263  -0.59190
  32   37029.8    270.1   0.050017953   0.44468  -0.44388  -0.08831  -0.48975
  33   37290.6    268.2   0.027452821   0.24236  -0.05660   0.45265   0.18511
  34   38133.5    262.2   0.086320421   0.74522   0.37787   0.02927  -0.77561
  35   38279.7    261.2   0.053210352   0.45762   0.12741  -0.01158  -0.66427
  36   38559.7    259.3   0.004604955   0.03932   0.15780   0.00619  -0.11990
  37   38957.6    256.7   0.095456595   0.80666  -0.35580   0.19708   0.80076
  38   39104.5    255.7   0.109754273   0.92400   0.16299  -0.94611   0.04808
  39   39297.5    254.5   0.044964409   0.37669  -0.18052   0.47727  -0.34105
  40   39581.3    252.6   0.001325648   0.01103   0.08159  -0.04959   0.04371
  41   39672.7    252.1   0.155721508   1.29221   0.47872   1.02416  -0.11885
  42   39726.8    251.7   0.031078627   0.25755   0.04020  -0.38542   0.32769
  43   40195.7    248.8   0.098403236   0.80595   0.70276   0.55690   0.04405

FINAL SINGLE POINT ENERGY     -5493.585649494107

DIPOLE MOMENT
-------------
                                X             Y             Z
Electronic contribution:     -1.28497       7.78030      -9.25731
Nuclear contribution   :      5.21509      -5.96512       9.47883
                        -----------------------------------------
Total Dipole Moment    :      3.93013       1.81517       0.22152
                        -----------------------------------------
Magnitude (a.u.)       :      4.33472
Magnitude (Debye)      :     11.01799

Rotational constants in cm-1:     0.001303     0.000140     0.000128
Rotational constants in MHz :    39.075795     4.187659     3.845832

                             ****ORCA TERMINATED NORMALLY****
TOTAL RUN TIME: 0 days 0 hours 9 minutes 43 seconds 321 msec
