                         Program Version 4.2.0 -  RELEASE  -
|  1> # ORCA input file
|  2> # SCF done       -202.980044541227          0.000782321315
|  3> ! CAM-B3LYP def2-SVP def2/J RIJCOSX Grid4 TightSCF
|  4> %maxcore 5000
|  5> %tddft
|  6>     Mode sTDDFT
|  7>     Ethresh 5.0
|  8>     maxcore 5000
|  9> end
| 10>
| 11> %pal
| 12>   nprocs 6
| 13>   end
| 14> * xyz 0 1
| 15>    C        8.84345        -0.78403        -9.59700
| 16>    C        9.15755        -0.43286       -10.87958
| 17>    F        8.53872        -1.05959       -11.90433
| 18>    C       10.09196         0.56600       -11.17932
| 19>    C       10.74293         1.18748       -10.14940
| 20>    C       10.46326         0.86033        -8.80680
| 21>    C        9.46160        -0.11334        -8.52532
| 22>    C        9.09110        -0.38648        -7.18825
| 23>    C        9.75658         0.24391        -6.17548
| 24>    C       10.84703         1.11748        -6.45525
| 25>    C       11.17404         1.45347        -7.73751
| 26>    C       11.50473         1.48701        -5.18582
| 27>    O       12.44760         2.22368        -5.01583
| 28>    C       10.80753         0.68334        -4.13591
| 29>    C        9.59037         0.17198        -4.72765
| 30>    C        8.39795        -0.05529        -4.08918
| 31>    C        8.23597         0.07930        -2.69606
| 32>    N        8.07989         0.18885        -1.56405
| 33>    C        7.19812        -0.36942        -4.75690
| 34>    N        6.18994        -0.63604        -5.23618
| 35>    C       11.41788         0.48696        -2.93202
| 36>    C       11.15688        -0.50382        -1.95135
| 37>    C       10.41360        -1.64462        -2.18029
| 38>    C       10.12838        -2.61366        -1.23373
| 39>    C       10.67412        -2.54854         0.12122
| 40>    C       11.47131        -1.54594         0.56060
| 41>    S       11.92550        -0.20330        -0.39816
| 42>    C       10.17861        -3.70680         0.77753
| 43>    C        9.35043        -4.43571        -0.08618
| 44>    C        8.83123        -5.59059         0.54113
| 45>    C        9.26400        -5.70412         1.82381
| 46>    S       10.31225        -4.42395         2.33049
| 47>    C        9.29575        -3.75753        -1.35228
| 48>    C        8.51411        -4.02429        -2.48666
| 49>    C        7.57616        -4.99983        -2.67422
| 50>    C        6.78773        -5.04781        -3.83631
| 51>    S        6.94563        -3.84660        -5.09259
| 52>    C        5.64549        -4.51560        -6.05124
| 53>    C        5.14350        -5.63839        -5.41642
| 54>    C        5.76764        -5.94486        -4.17542
| 55>    C        5.19835        -7.08360        -3.56600
| 56>    C        4.18712        -7.61682        -4.31077
| 57>    C        3.38733        -8.79021        -3.96520
| 58>    O        3.54029        -9.45005        -2.96627
| 59>    O        2.45996        -9.03949        -4.90087
| 60>    C        1.61998       -10.15812        -4.66410
| 61>    S        3.87626        -6.75388        -5.80139
| 62>    C        5.26931        -3.88797        -7.25730
| 63>    C        4.36619        -4.31553        -8.22832
| 64>    C        4.27824        -3.46256        -9.31483
| 65>    C        5.09795        -2.34229        -9.21368
| 66>    S        5.97752        -2.37816        -7.69855
| 67>    C        5.38017        -1.24235       -10.04090
| 68>    C        5.09802        -0.98468       -11.35725
| 69>    C        5.63848         0.15389       -12.07579
| 70>    C        6.36067         1.20345       -11.56690
| 71>    C        6.97658         2.19980       -12.35415
| 72>    N        7.54539         3.02576       -12.91329
| 73>    C        6.65059         1.45769       -10.20960
| 74>    N        6.94963         1.76531        -9.14291
| 75>    C        5.30305        -0.01485       -13.48881
| 76>    C        4.54357        -1.18807       -13.63644
| 77>    C        4.36015        -1.83289       -12.31629
| 78>    O        3.72401        -2.84336       -12.10380
| 79>    C        4.08115        -1.60741       -14.86526
| 80>    C        4.38880        -0.83328       -15.98308
| 81>    C        5.13589         0.34095       -15.84299
| 82>    C        5.59455         0.76126       -14.59998
| 83>    C        5.38578         1.20655       -17.04879
| 84>    O        4.59110         2.00670       -17.46257
| 85>    O        6.61317         1.02240       -17.52220
| 86>    C        6.93885         1.75401       -18.69782
| 87>    C        3.97389        -1.23240       -17.35269
| 88>    O        4.45477        -0.77137       -18.35898
| 89>    O        3.01834        -2.16316       -17.34730
| 90>    C        2.56389        -2.59127       -18.62355
| 91>    H        8.12277        -1.56231        -9.40285
| 92>    H       10.28297         0.81791       -12.21034
| 93>    H       11.48241         1.94607       -10.35597
| 94>    H        8.30162        -1.09576        -6.99469
| 95>    H       11.97323         2.15104        -7.93781
| 96>    H       12.25843         1.14538        -2.73577
| 97>    H       10.05975        -1.79527        -3.19017
| 98>    H       11.86424        -1.51607         1.56475
| 99>    H        8.17921        -6.31057         0.08268
|100>    H        9.02916        -6.47875         2.52742
|101>    H        8.63756        -3.32795        -3.30832
|102>    H        7.38258        -5.74604        -1.91990
|103>    H        5.50317        -7.50383        -2.62536
|104>    H        0.91150       -10.18466        -5.48766
|105>    H        1.09965       -10.04535        -3.71073
|106>    H        2.21108       -11.07589        -4.63512
|107>    H        3.80898        -5.23009        -8.13114
|108>    H        3.64437        -3.63049       -10.16618
|109>    H        5.98764        -0.49504        -9.54323
|110>    H        3.50366        -2.51347       -14.95940
|111>    H        6.16244         1.67421       -14.52583
|112>    H        6.75886         2.81972       -18.54323
|113>    H        6.32244         1.40345       -19.52734
|114>    H        7.99091         1.56338       -18.89253
|115>    H        3.38163        -3.05200       -19.18170
|116>    H        2.18496        -1.74094       -19.19405
|117>    H        1.77232        -3.31239       -18.43736
|118> *
|119>
|120>                          ****END OF INPUT****

CARTESIAN COORDINATES (ANGSTROEM)
---------------------------------
  C      8.843450   -0.784030   -9.597000
  C      9.157550   -0.432860  -10.879580
  F      8.538720   -1.059590  -11.904330
  C     10.091960    0.566000  -11.179320
  C     10.742930    1.187480  -10.149400
  C     10.463260    0.860330   -8.806800
  C      9.461600   -0.113340   -8.525320
  C      9.091100   -0.386480   -7.188250
  C      9.756580    0.243910   -6.175480
  C     10.847030    1.117480   -6.455250
  C     11.174040    1.453470   -7.737510
  C     11.504730    1.487010   -5.185820
  O     12.447600    2.223680   -5.015830
  C     10.807530    0.683340   -4.135910
  C      9.590370    0.171980   -4.727650
  C      8.397950   -0.055290   -4.089180
  C      8.235970    0.079300   -2.696060
  N      8.079890    0.188850   -1.564050
  C      7.198120   -0.369420   -4.756900
  N      6.189940   -0.636040   -5.236180
  C     11.417880    0.486960   -2.932020
  C     11.156880   -0.503820   -1.951350
  C     10.413600   -1.644620   -2.180290
  C     10.128380   -2.613660   -1.233730
  C     10.674120   -2.548540    0.121220
  C     11.471310   -1.545940    0.560600
  S     11.925500   -0.203300   -0.398160
  C     10.178610   -3.706800    0.777530
  C      9.350430   -4.435710   -0.086180
  C      8.831230   -5.590590    0.541130
  C      9.264000   -5.704120    1.823810
  S     10.312250   -4.423950    2.330490
  C      9.295750   -3.757530   -1.352280
  C      8.514110   -4.024290   -2.486660
  C      7.576160   -4.999830   -2.674220
  C      6.787730   -5.047810   -3.836310
  S      6.945630   -3.846600   -5.092590
  C      5.645490   -4.515600   -6.051240
  C      5.143500   -5.638390   -5.416420
  C      5.767640   -5.944860   -4.175420
  C      5.198350   -7.083600   -3.566000
  C      4.187120   -7.616820   -4.310770
  C      3.387330   -8.790210   -3.965200
  O      3.540290   -9.450050   -2.966270
  O      2.459960   -9.039490   -4.900870
  C      1.619980  -10.158120   -4.664100
  S      3.876260   -6.753880   -5.801390
  C      5.269310   -3.887970   -7.257300
  C      4.366190   -4.315530   -8.228320
  C      4.278240   -3.462560   -9.314830
  C      5.097950   -2.342290   -9.213680
  S      5.977520   -2.378160   -7.698550
  C      5.380170   -1.242350  -10.040900
  C      5.098020   -0.984680  -11.357250
  C      5.638480    0.153890  -12.075790
  C      6.360670    1.203450  -11.566900
  C      6.976580    2.199800  -12.354150
  N      7.545390    3.025760  -12.913290
  C      6.650590    1.457690  -10.209600
  N      6.949630    1.765310   -9.142910
  C      5.303050   -0.014850  -13.488810
  C      4.543570   -1.188070  -13.636440
  C      4.360150   -1.832890  -12.316290
  O      3.724010   -2.843360  -12.103800
  C      4.081150   -1.607410  -14.865260
  C      4.388800   -0.833280  -15.983080
  C      5.135890    0.340950  -15.842990
  C      5.594550    0.761260  -14.599980
  C      5.385780    1.206550  -17.048790
  O      4.591100    2.006700  -17.462570
  O      6.613170    1.022400  -17.522200
  C      6.938850    1.754010  -18.697820
  C      3.973890   -1.232400  -17.352690
  O      4.454770   -0.771370  -18.358980
  O      3.018340   -2.163160  -17.347300
  C      2.563890   -2.591270  -18.623550
  H      8.122770   -1.562310   -9.402850
  H     10.282970    0.817910  -12.210340
  H     11.482410    1.946070  -10.355970
  H      8.301620   -1.095760   -6.994690
  H     11.973230    2.151040   -7.937810
  H     12.258430    1.145380   -2.735770
  H     10.059750   -1.795270   -3.190170
  H     11.864240   -1.516070    1.564750
  H      8.179210   -6.310570    0.082680
  H      9.029160   -6.478750    2.527420
  H      8.637560   -3.327950   -3.308320
  H      7.382580   -5.746040   -1.919900
  H      5.503170   -7.503830   -2.625360
  H      0.911500  -10.184660   -5.487660
  H      1.099650  -10.045350   -3.710730
  H      2.211080  -11.075890   -4.635120
  H      3.808980   -5.230090   -8.131140
  H      3.644370   -3.630490  -10.166180
  H      5.987640   -0.495040   -9.543230
  H      3.503660   -2.513470  -14.959400
  H      6.162440    1.674210  -14.525830
  H      6.758860    2.819720  -18.543230
  H      6.322440    1.403450  -19.527340
  H      7.990910    1.563380  -18.892530
  H      3.381630   -3.052000  -19.181700
  H      2.184960   -1.740940  -19.194050
  H      1.772320   -3.312390  -18.437360

 Total Charge           Charge          ....    0
 Multiplicity           Mult            ....    1
 Number of Electrons    NEL             ....  556
 Basis Dimension        Dim             .... 1219

ORBITAL ENERGIES
----------------

  NO   OCC          E(Eh)            E(eV)
   0   2.0000     -88.985787     -2421.4264
   1   2.0000     -88.972172     -2421.0559
   2   2.0000     -88.968137     -2420.9461
   3   2.0000     -88.967663     -2420.9332
   4   2.0000     -88.964759     -2420.8542
   5   2.0000     -24.787579      -674.5043
   6   2.0000     -19.268717      -524.3285
   7   2.0000     -19.266932      -524.2799
   8   2.0000     -19.250341      -523.8284
   9   2.0000     -19.215883      -522.8908
  10   2.0000     -19.214403      -522.8505
  11   2.0000     -19.212309      -522.7935
  12   2.0000     -19.207347      -522.6585
  13   2.0000     -19.192850      -522.2640
  14   2.0000     -14.418028      -392.3345
  15   2.0000     -14.415253      -392.2590
  16   2.0000     -14.414145      -392.2288
  17   2.0000     -14.411356      -392.1529
  18   2.0000     -10.408026      -283.2168
  19   2.0000     -10.407991      -283.2158
  20   2.0000     -10.393948      -282.8337
  21   2.0000     -10.367015      -282.1008
  22   2.0000     -10.366729      -282.0930
  23   2.0000     -10.366179      -282.0781
  24   2.0000     -10.345477      -281.5147
  25   2.0000     -10.344401      -281.4854
  26   2.0000     -10.340238      -281.3722
  27   2.0000     -10.338516      -281.3253
  28   2.0000     -10.337936      -281.3095
  29   2.0000     -10.332835      -281.1707
  30   2.0000     -10.329735      -281.0864
  31   2.0000     -10.326838      -281.0076
  32   2.0000     -10.326660      -281.0027
  33   2.0000     -10.325647      -280.9752
  34   2.0000     -10.324231      -280.9366
  35   2.0000     -10.321229      -280.8549
  36   2.0000     -10.319532      -280.8087
  37   2.0000     -10.318501      -280.7807
  38   2.0000     -10.318112      -280.7701
  39   2.0000     -10.317563      -280.7552
  40   2.0000     -10.317085      -280.7422
  41   2.0000     -10.315556      -280.7006
  42   2.0000     -10.315026      -280.6861
  43   2.0000     -10.313339      -280.6402
  44   2.0000     -10.311522      -280.5908
  45   2.0000     -10.310519      -280.5635
  46   2.0000     -10.309285      -280.5299
  47   2.0000     -10.309255      -280.5291
  48   2.0000     -10.307381      -280.4781
  49   2.0000     -10.306525      -280.4548
  50   2.0000     -10.305176      -280.4181
  51   2.0000     -10.304246      -280.3928
  52   2.0000     -10.303042      -280.3600
  53   2.0000     -10.302591      -280.3477
  54   2.0000     -10.302295      -280.3397
  55   2.0000     -10.299558      -280.2652
  56   2.0000     -10.299455      -280.2624
  57   2.0000     -10.298938      -280.2484
  58   2.0000     -10.297867      -280.2192
  59   2.0000     -10.297823      -280.2180
  60   2.0000     -10.297552      -280.2106
  61   2.0000     -10.296458      -280.1809
  62   2.0000     -10.296331      -280.1774
  63   2.0000     -10.296136      -280.1721
  64   2.0000     -10.294104      -280.1168
  65   2.0000     -10.293807      -280.1087
  66   2.0000     -10.293460      -280.0993
  67   2.0000     -10.292688      -280.0783
  68   2.0000     -10.291350      -280.0419
  69   2.0000     -10.290482      -280.0182
  70   2.0000     -10.288884      -279.9748
  71   2.0000     -10.288202      -279.9562
  72   2.0000     -10.287074      -279.9255
  73   2.0000     -10.286393      -279.9070
  74   2.0000     -10.285928      -279.8943
  75   2.0000     -10.285138      -279.8728
  76   2.0000      -8.081225      -219.9013
  77   2.0000      -8.066882      -219.5110
  78   2.0000      -8.063284      -219.4131
  79   2.0000      -8.063040      -219.4065
  80   2.0000      -8.059733      -219.3165
  81   2.0000      -6.050665      -164.6470
  82   2.0000      -6.046181      -164.5249
  83   2.0000      -6.043253      -164.4453
  84   2.0000      -6.036288      -164.2558
  85   2.0000      -6.032701      -164.1581
  86   2.0000      -6.032278      -164.1466
  87   2.0000      -6.032143      -164.1430
  88   2.0000      -6.029506      -164.0712
  89   2.0000      -6.028862      -164.0537
  90   2.0000      -6.028434      -164.0420
  91   2.0000      -6.028101      -164.0330
  92   2.0000      -6.025300      -163.9567
  93   2.0000      -6.025267      -163.9559
  94   2.0000      -6.025224      -163.9547
  95   2.0000      -6.020993      -163.8396
  96   2.0000      -1.299585       -35.3635
  97   2.0000      -1.201546       -32.6957
  98   2.0000      -1.197193       -32.5773
  99   2.0000      -1.183079       -32.1932
 100   2.0000      -1.130319       -30.7575
 101   2.0000      -1.130091       -30.7513
 102   2.0000      -1.106183       -30.1008
 103   2.0000      -1.101699       -29.9788
 104   2.0000      -1.088578       -29.6217
 105   2.0000      -1.023117       -27.8404
 106   2.0000      -1.021599       -27.7991
 107   2.0000      -1.017541       -27.6887
 108   2.0000      -1.016949       -27.6726
 109   2.0000      -1.000361       -27.2212
 110   2.0000      -0.997973       -27.1562
 111   2.0000      -0.996169       -27.1071
 112   2.0000      -0.995116       -27.0785
 113   2.0000      -0.990965       -26.9655
 114   2.0000      -0.985520       -26.8174
 115   2.0000      -0.973995       -26.5038
 116   2.0000      -0.960826       -26.1454
 117   2.0000      -0.955020       -25.9874
 118   2.0000      -0.942781       -25.6544
 119   2.0000      -0.928623       -25.2691
 120   2.0000      -0.918021       -24.9806
 121   2.0000      -0.910707       -24.7816
 122   2.0000      -0.901248       -24.5242
 123   2.0000      -0.894912       -24.3518
 124   2.0000      -0.891436       -24.2572
 125   2.0000      -0.883552       -24.0427
 126   2.0000      -0.875707       -23.8292
 127   2.0000      -0.869975       -23.6732
 128   2.0000      -0.860373       -23.4119
 129   2.0000      -0.857553       -23.3352
 130   2.0000      -0.848930       -23.1006
 131   2.0000      -0.842645       -22.9295
 132   2.0000      -0.840236       -22.8640
 133   2.0000      -0.833138       -22.6708
 134   2.0000      -0.824328       -22.4311
 135   2.0000      -0.822297       -22.3758
 136   2.0000      -0.814630       -22.1672
 137   2.0000      -0.807363       -21.9695
 138   2.0000      -0.806040       -21.9335
 139   2.0000      -0.792992       -21.5784
 140   2.0000      -0.785588       -21.3769
 141   2.0000      -0.766923       -20.8690
 142   2.0000      -0.764120       -20.7928
 143   2.0000      -0.758240       -20.6328
 144   2.0000      -0.742600       -20.2072
 145   2.0000      -0.737123       -20.0581
 146   2.0000      -0.720198       -19.5976
 147   2.0000      -0.719203       -19.5705
 148   2.0000      -0.713372       -19.4118
 149   2.0000      -0.707753       -19.2589
 150   2.0000      -0.705351       -19.1936
 151   2.0000      -0.698095       -18.9961
 152   2.0000      -0.684259       -18.6196
 153   2.0000      -0.683204       -18.5909
 154   2.0000      -0.677421       -18.4336
 155   2.0000      -0.672131       -18.2896
 156   2.0000      -0.665715       -18.1150
 157   2.0000      -0.664064       -18.0701
 158   2.0000      -0.654545       -17.8111
 159   2.0000      -0.646955       -17.6045
 160   2.0000      -0.642827       -17.4922
 161   2.0000      -0.640201       -17.4208
 162   2.0000      -0.638598       -17.3771
 163   2.0000      -0.634839       -17.2748
 164   2.0000      -0.631049       -17.1717
 165   2.0000      -0.627738       -17.0816
 166   2.0000      -0.626542       -17.0491
 167   2.0000      -0.623224       -16.9588
 168   2.0000      -0.615350       -16.7445
 169   2.0000      -0.608521       -16.5587
 170   2.0000      -0.603625       -16.4255
 171   2.0000      -0.594656       -16.1814
 172   2.0000      -0.592069       -16.1110
 173   2.0000      -0.583930       -15.8895
 174   2.0000      -0.580564       -15.7979
 175   2.0000      -0.578233       -15.7345
 176   2.0000      -0.576547       -15.6886
 177   2.0000      -0.574588       -15.6353
 178   2.0000      -0.571430       -15.5494
 179   2.0000      -0.570022       -15.5111
 180   2.0000      -0.566763       -15.4224
 181   2.0000      -0.565450       -15.3867
 182   2.0000      -0.564427       -15.3588
 183   2.0000      -0.562723       -15.3125
 184   2.0000      -0.561934       -15.2910
 185   2.0000      -0.551495       -15.0069
 186   2.0000      -0.550189       -14.9714
 187   2.0000      -0.544484       -14.8162
 188   2.0000      -0.543849       -14.7989
 189   2.0000      -0.541140       -14.7252
 190   2.0000      -0.540314       -14.7027
 191   2.0000      -0.533569       -14.5192
 192   2.0000      -0.532442       -14.4885
 193   2.0000      -0.531512       -14.4632
 194   2.0000      -0.530495       -14.4355
 195   2.0000      -0.526724       -14.3329
 196   2.0000      -0.524643       -14.2763
 197   2.0000      -0.524302       -14.2670
 198   2.0000      -0.522187       -14.2094
 199   2.0000      -0.520969       -14.1763
 200   2.0000      -0.520609       -14.1665
 201   2.0000      -0.519449       -14.1349
 202   2.0000      -0.515032       -14.0147
 203   2.0000      -0.508883       -13.8474
 204   2.0000      -0.506350       -13.7785
 205   2.0000      -0.504146       -13.7185
 206   2.0000      -0.501398       -13.6437
 207   2.0000      -0.499366       -13.5884
 208   2.0000      -0.497649       -13.5417
 209   2.0000      -0.495585       -13.4856
 210   2.0000      -0.493971       -13.4416
 211   2.0000      -0.493169       -13.4198
 212   2.0000      -0.488776       -13.3003
 213   2.0000      -0.487261       -13.2591
 214   2.0000      -0.485052       -13.1989
 215   2.0000      -0.481864       -13.1122
 216   2.0000      -0.480144       -13.0654
 217   2.0000      -0.476492       -12.9660
 218   2.0000      -0.475122       -12.9287
 219   2.0000      -0.473896       -12.8954
 220   2.0000      -0.468098       -12.7376
 221   2.0000      -0.464886       -12.6502
 222   2.0000      -0.464161       -12.6305
 223   2.0000      -0.460407       -12.5283
 224   2.0000      -0.458279       -12.4704
 225   2.0000      -0.454468       -12.3667
 226   2.0000      -0.453398       -12.3376
 227   2.0000      -0.450173       -12.2498
 228   2.0000      -0.449500       -12.2315
 229   2.0000      -0.448552       -12.2057
 230   2.0000      -0.447766       -12.1843
 231   2.0000      -0.447156       -12.1677
 232   2.0000      -0.445388       -12.1196
 233   2.0000      -0.442447       -12.0396
 234   2.0000      -0.440961       -11.9992
 235   2.0000      -0.440615       -11.9898
 236   2.0000      -0.438864       -11.9421
 237   2.0000      -0.437910       -11.9161
 238   2.0000      -0.433537       -11.7971
 239   2.0000      -0.429697       -11.6927
 240   2.0000      -0.429116       -11.6768
 241   2.0000      -0.427741       -11.6394
 242   2.0000      -0.426210       -11.5978
 243   2.0000      -0.424830       -11.5602
 244   2.0000      -0.422998       -11.5104
 245   2.0000      -0.421321       -11.4647
 246   2.0000      -0.420364       -11.4387
 247   2.0000      -0.419620       -11.4184
 248   2.0000      -0.415383       -11.3031
 249   2.0000      -0.414003       -11.2656
 250   2.0000      -0.406540       -11.0625
 251   2.0000      -0.405755       -11.0412
 252   2.0000      -0.403514       -10.9802
 253   2.0000      -0.400668       -10.9027
 254   2.0000      -0.386824       -10.5260
 255   2.0000      -0.383993       -10.4490
 256   2.0000      -0.381398       -10.3784
 257   2.0000      -0.374149       -10.1811
 258   2.0000      -0.367434        -9.9984
 259   2.0000      -0.365401        -9.9431
 260   2.0000      -0.362610        -9.8671
 261   2.0000      -0.360623        -9.8130
 262   2.0000      -0.356826        -9.7097
 263   2.0000      -0.354772        -9.6538
 264   2.0000      -0.342465        -9.3190
 265   2.0000      -0.337764        -9.1910
 266   2.0000      -0.336723        -9.1627
 267   2.0000      -0.333938        -9.0869
 268   2.0000      -0.332899        -9.0586
 269   2.0000      -0.329890        -8.9768
 270   2.0000      -0.320059        -8.7092
 271   2.0000      -0.317534        -8.6405
 272   2.0000      -0.311710        -8.4821
 273   2.0000      -0.301172        -8.1953
 274   2.0000      -0.296330        -8.0636
 275   2.0000      -0.288931        -7.8622
 276   2.0000      -0.268175        -7.2974
 277   2.0000      -0.225387        -6.1331
 278   0.0000      -0.110366        -3.0032
 279   0.0000      -0.089928        -2.4471
 280   0.0000      -0.071132        -1.9356
 281   0.0000      -0.060185        -1.6377
 282   0.0000      -0.050148        -1.3646

MULLIKEN ATOMIC CHARGES
-----------------------
   0 C :   -0.107489
   1 C :    0.295765
   2 F :   -0.197457
   3 C :   -0.019027
   4 C :   -0.005209
   5 C :    0.097954
   6 C :    0.137236
   7 C :   -0.048818
   8 C :    0.033945
   9 C :    0.021134
  10 C :   -0.077678
  11 C :    0.140650
  12 O :   -0.141100
  13 C :   -0.123608
  14 C :    0.223281
  15 C :   -0.347262
  16 C :   -0.197061
  17 N :    0.174769
  18 C :   -0.160960
  19 N :    0.164357
  20 C :    0.087286
  21 C :   -0.111230
  22 C :   -0.010314
  23 C :    0.043806
  24 C :    0.069130
  25 C :   -0.115725
  26 S :    0.167915
  27 C :   -0.108295
  28 C :    0.047724
  29 C :   -0.002254
  30 C :   -0.063221
  31 S :    0.139584
  32 C :    0.132211
  33 C :   -0.035241
  34 C :    0.003124
  35 C :   -0.074965
  36 S :    0.117616
  37 C :   -0.087942
  38 C :   -0.032874
  39 C :    0.119005
  40 C :   -0.006460
  41 C :   -0.124082
  42 C :    0.201027
  43 O :   -0.200094
  44 O :   -0.308814
  45 C :    0.187770
  46 S :    0.159596
  47 C :   -0.034124
  48 C :   -0.019764
  49 C :    0.041032
  50 C :   -0.088069
  51 S :    0.132968
  52 C :    0.032189
  53 C :   -0.086148
  54 C :    0.339292
  55 C :   -0.369258
  56 C :   -0.193277
  57 N :    0.152043
  58 C :   -0.199428
  59 N :    0.158263
  60 C :    0.045584
  61 C :    0.003702
  62 C :    0.155982
  63 O :   -0.151808
  64 C :   -0.058264
  65 C :    0.020622
  66 C :    0.027834
  67 C :   -0.045421
  68 C :    0.184173
  69 O :   -0.211991
  70 O :   -0.292424
  71 C :    0.189716
  72 C :    0.199517
  73 O :   -0.207510
  74 O :   -0.290053
  75 C :    0.186847
  76 H :   -0.024974
  77 H :    0.009634
  78 H :   -0.005708
  79 H :   -0.031165
  80 H :   -0.009222
  81 H :    0.022870
  82 H :   -0.000144
  83 H :    0.041007
  84 H :   -0.011297
  85 H :    0.031730
  86 H :   -0.023004
  87 H :   -0.031176
  88 H :    0.003250
  89 H :    0.038800
  90 H :    0.036687
  91 H :    0.035032
  92 H :   -0.010662
  93 H :    0.019210
  94 H :    0.003643
  95 H :    0.002578
  96 H :    0.003121
  97 H :    0.034735
  98 H :    0.037582
  99 H :    0.031684
 100 H :    0.035331
 101 H :    0.040515
 102 H :    0.040013
Sum of atomic charges:   -0.0000000

LOEWDIN ATOMIC CHARGES
----------------------
   0 C :   -0.046462
   1 C :    0.089059
   2 F :   -0.068878
   3 C :   -0.032677
   4 C :    0.011011
   5 C :   -0.012098
   6 C :    0.012011
   7 C :    0.013004
   8 C :   -0.015771
   9 C :   -0.058511
  10 C :    0.038794
  11 C :    0.084518
  12 O :   -0.141393
  13 C :   -0.084394
  14 C :    0.061894
  15 C :   -0.143512
  16 C :   -0.020045
  17 N :   -0.039356
  18 C :   -0.024907
  19 N :   -0.058362
  20 C :    0.037970
  21 C :   -0.183105
  22 C :    0.018714
  23 C :   -0.011265
  24 C :   -0.050937
  25 C :   -0.129967
  26 S :    0.478581
  27 C :   -0.188948
  28 C :   -0.037171
  29 C :   -0.062931
  30 C :   -0.158320
  31 S :    0.433279
  32 C :   -0.033558
  33 C :   -0.008271
  34 C :   -0.051482
  35 C :   -0.138203
  36 S :    0.458732
  37 C :   -0.217623
  38 C :   -0.170856
  39 C :   -0.082527
  40 C :   -0.002148
  41 C :   -0.203404
  42 C :    0.066672
  43 O :   -0.176626
  44 O :   -0.099573
  45 C :    0.083211
  46 S :    0.428797
  47 C :   -0.154612
  48 C :   -0.065168
  49 C :    0.002636
  50 C :   -0.186111
  51 S :    0.486454
  52 C :    0.046058
  53 C :   -0.106340
  54 C :    0.079829
  55 C :   -0.145117
  56 C :   -0.018657
  57 N :   -0.058694
  58 C :   -0.023673
  59 N :   -0.054066
  60 C :    0.003520
  61 C :   -0.042417
  62 C :    0.087067
  63 O :   -0.141890
  64 C :    0.038015
  65 C :   -0.045536
  66 C :    0.002500
  67 C :    0.012442
  68 C :    0.077314
  69 O :   -0.165221
  70 O :   -0.079167
  71 C :    0.083981
  72 C :    0.093417
  73 O :   -0.159585
  74 O :   -0.080580
  75 C :    0.083906
  76 H :    0.027537
  77 H :    0.044575
  78 H :    0.037549
  79 H :    0.022514
  80 H :    0.040665
  81 H :    0.043798
  82 H :    0.039646
  83 H :    0.039436
  84 H :    0.030144
  85 H :    0.026424
  86 H :    0.017406
  87 H :    0.032303
  88 H :    0.040491
  89 H :    0.027876
  90 H :    0.025268
  91 H :    0.024810
  92 H :    0.026775
  93 H :    0.037806
  94 H :    0.039567
  95 H :    0.043067
  96 H :    0.043051
  97 H :    0.023459
  98 H :    0.026899
  99 H :    0.025035
 100 H :    0.025137
 101 H :    0.027411
 102 H :    0.028082

  Mayer bond orders larger than 0.100000
B(  0-C ,  1-C ) :   1.4419 B(  0-C ,  6-C ) :   1.2014 B(  0-C , 76-H ) :   0.9971
B(  1-C ,  2-F ) :   1.0602 B(  1-C ,  3-C ) :   1.2646 B(  3-C ,  4-C ) :   1.4575
B(  3-C , 77-H ) :   0.9914 B(  4-C ,  5-C ) :   1.2343 B(  4-C , 78-H ) :   0.9979
B(  5-C ,  6-C ) :   1.2582 B(  5-C , 10-C ) :   1.1923 B(  6-C ,  7-C ) :   1.2056
B(  7-C ,  8-C ) :   1.4789 B(  7-C , 79-H ) :   0.9959 B(  8-C ,  9-C ) :   1.2140
B(  8-C , 14-C ) :   0.9891 B(  9-C , 10-C ) :   1.4708 B(  9-C , 11-C ) :   0.9200
B( 10-C , 80-H ) :   1.0150 B( 11-C , 12-O ) :   2.2682 B( 11-C , 13-C ) :   0.9396
B( 13-C , 14-C ) :   1.0383 B( 13-C , 20-C ) :   1.6690 B( 14-C , 15-C ) :   1.6500
B( 15-C , 16-C ) :   1.1603 B( 15-C , 18-C ) :   1.1418 B( 16-C , 17-N ) :   3.0026
B( 18-C , 19-N ) :   2.9759 B( 20-C , 21-C ) :   1.1361 B( 20-C , 81-H ) :   0.9275
B( 21-C , 22-C ) :   1.4697 B( 21-C , 26-S ) :   1.0546 B( 22-C , 23-C ) :   1.3187
B( 22-C , 82-H ) :   0.9531 B( 23-C , 24-C ) :   1.0610 B( 23-C , 32-C ) :   1.3181
B( 24-C , 25-C ) :   1.5816 B( 24-C , 27-C ) :   1.1919 B( 25-C , 26-S ) :   1.1659
B( 25-C , 83-H ) :   0.9390 B( 27-C , 28-C ) :   1.4278 B( 27-C , 31-S ) :   1.0860
B( 28-C , 29-C ) :   1.2122 B( 28-C , 32-C ) :   1.0942 B( 29-C , 30-C ) :   1.5923
B( 29-C , 84-H ) :   1.0015 B( 30-C , 31-S ) :   1.1526 B( 30-C , 85-H ) :   0.9646
B( 32-C , 33-C ) :   1.2147 B( 33-C , 34-C ) :   1.5533 B( 33-C , 86-H ) :   0.9496
B( 34-C , 35-C ) :   1.2195 B( 34-C , 87-H ) :   0.9781 B( 35-C , 36-S ) :   1.1348
B( 35-C , 37-C ) :   0.1009 B( 35-C , 39-C ) :   1.3228 B( 36-S , 37-C ) :   1.1038
B( 37-C , 38-C ) :   1.5062 B( 37-C , 47-C ) :   1.1727 B( 38-C , 39-C ) :   1.2509
B( 38-C , 46-S ) :   1.0633 B( 39-C , 40-C ) :   1.1450 B( 40-C , 41-C ) :   1.6281
B( 40-C , 88-H ) :   1.0038 B( 41-C , 42-C ) :   0.9602 B( 41-C , 46-S ) :   1.0503
B( 42-C , 43-O ) :   2.1409 B( 42-C , 44-O ) :   1.2332 B( 44-O , 45-C ) :   0.9192
B( 45-C , 89-H ) :   0.9813 B( 45-C , 90-H ) :   0.9762 B( 45-C , 91-H ) :   0.9775
B( 47-C , 48-C ) :   1.4034 B( 47-C , 51-S ) :   1.1726 B( 48-C , 49-C ) :   1.3286
B( 48-C , 92-H ) :   0.9936 B( 49-C , 50-C ) :   1.4033 B( 49-C , 93-H ) :   0.9803
B( 50-C , 51-S ) :   1.0871 B( 50-C , 52-C ) :   1.2465 B( 52-C , 53-C ) :   1.5630
B( 52-C , 94-H ) :   0.9043 B( 53-C , 54-C ) :   1.1018 B( 53-C , 62-C ) :   0.9440
B( 54-C , 55-C ) :   1.6015 B( 54-C , 60-C ) :   0.9735 B( 55-C , 56-C ) :   1.1580
B( 55-C , 58-C ) :   1.1424 B( 56-C , 57-N ) :   2.9568 B( 58-C , 59-N ) :   2.9443
B( 60-C , 61-C ) :   1.3378 B( 60-C , 67-C ) :   1.3499 B( 61-C , 62-C ) :   0.9404
B( 61-C , 64-C ) :   1.3416 B( 62-C , 63-O ) :   2.1880 B( 64-C , 65-C ) :   1.3061
B( 64-C , 95-H ) :   1.0173 B( 65-C , 66-C ) :   1.4592 B( 65-C , 72-C ) :   0.9050
B( 66-C , 67-C ) :   1.4066 B( 66-C , 68-C ) :   0.8448 B( 67-C , 96-H ) :   0.9853
B( 68-C , 69-O ) :   2.1113 B( 68-C , 70-O ) :   1.2269 B( 70-O , 71-C ) :   0.9177
B( 71-C , 97-H ) :   0.9730 B( 71-C , 98-H ) :   0.9759 B( 71-C , 99-H ) :   0.9809
B( 72-C , 73-O ) :   2.0461 B( 72-C , 74-O ) :   1.2585 B( 74-O , 75-C ) :   0.9149
B( 75-C ,100-H ) :   0.9764 B( 75-C ,101-H ) :   0.9754 B( 75-C ,102-H ) :   0.9808

-----------------------------------------------------------------------------
         ABSORPTION SPECTRUM VIA TRANSITION ELECTRIC DIPOLE MOMENTS
-----------------------------------------------------------------------------
State   Energy  Wavelength   fosc         T2         TX        TY        TZ
        (cm-1)    (nm)                  (au**2)     (au)      (au)      (au)
-----------------------------------------------------------------------------
   0    9569.9   1044.9   0.183362498   6.30783  -1.66413  -1.20637  -1.44332
   1   15195.3    658.1   0.652609859  14.13901  -0.94929   1.65422  -3.24059
   2   19239.0    519.8   0.602661761  10.31256  -0.01352   2.22048  -2.31988
   3   19758.3    506.1   0.353811102   5.89520  -1.70221  -1.64316  -0.54561
   4   21760.6    459.5   0.031683145   0.47933   0.36199   0.49782  -0.31697
   5   22081.5    452.9   0.396049151   5.90468  -0.52028   0.98940  -2.15756
   6   23488.6    425.7   0.117902699   1.65250  -0.90616  -0.40589  -0.81648
   7   24062.7    415.6   0.009757918   0.13350   0.19774  -0.11808  -0.28365
   8   24412.3    409.6   0.186374825   2.51335  -1.06722  -0.70341  -0.93787
   9   24893.0    401.7   0.124695577   1.64911  -0.44984  -0.86544   0.83532
  10   26383.1    379.0   0.110926473   1.38415   0.41946   0.22925  -1.07501
  11   27052.8    369.6   0.162148311   1.97322  -0.80276  -1.09023   0.37444
  12   27738.1    360.5   0.033373446   0.39610  -0.28162  -0.42922  -0.36408
  13   28187.6    354.8   0.029806870   0.34812   0.17823  -0.07963   0.55679
  14   28576.2    349.9   0.072920074   0.84008  -0.11727  -0.04748   0.90778
  15   28718.7    348.2   0.005904944   0.06769  -0.21003  -0.04820  -0.14578
  16   29611.3    337.7   0.083103343   0.92393  -0.30909  -0.89493   0.16578
  17   29821.3    335.3   0.025180821   0.27798   0.23113   0.41524  -0.22833
  18   30294.4    330.1   0.011391522   0.12379  -0.10709   0.28185  -0.18134
  19   30682.2    325.9   0.034628307   0.37155   0.03250   0.29070  -0.53478
  20   31137.4    321.2   0.072324017   0.76467   0.23238  -0.02443   0.84266
  21   31615.9    316.3   0.035594491   0.37064  -0.29111  -0.43205  -0.31501
  22   31723.7    315.2   0.006293563   0.06531   0.10540   0.12173   0.19845
  23   31918.6    313.3   0.030974301   0.31947   0.06787   0.40983  -0.38328
  24   32326.1    309.3   0.094066388   0.95798   0.48631  -0.01501   0.84927
  25   32532.4    307.4   0.068886521   0.69710   0.71446   0.19559  -0.38521
  26   32750.2    305.3   0.374801091   3.76758  -0.12800   0.66341  -1.81964
  27   32956.0    303.4   0.192753200   1.92550   0.88083   0.62111   0.87399
  28   33305.0    300.3   0.456143542   4.50886  -0.22416   0.24937   2.09677
  29   33498.2    298.5   0.035537301   0.34925  -0.49280   0.02675  -0.32509
  30   33738.5    296.4   0.005742789   0.05604   0.11108   0.16152  -0.13270
  31   34000.1    294.1   0.104098334   1.00795  -0.11412  -0.27900   0.95765
  32   34324.0    291.3   0.153611135   1.47333   0.55094   0.42863   0.99301
  33   34396.3    290.7   0.098971329   0.94727   0.62847   0.56464  -0.48319
  34   34599.1    289.0   0.019822007   0.18861   0.08868  -0.09020   0.41546
  35   34700.8    288.2   0.004371449   0.04147  -0.01908  -0.07401  -0.18876
  36   35159.4    284.4   0.251528172   2.35516  -0.00673  -0.14279   1.52798
  37   35511.3    281.6   0.067431514   0.62513   0.02576   0.73913  -0.27956
  38   35907.4    278.5   0.203581410   1.86651  -0.56836  -0.52834  -1.12442
  39   36162.5    276.5   0.151156249   1.37608   0.82707   0.54413   0.62926
  40   36279.3    275.6   0.241672823   2.19303   0.36070   0.56272   1.32146
  41   36432.9    274.5   0.025064058   0.22648  -0.08240   0.04630  -0.46642
  42   37013.4    270.2   0.059111410   0.52576   0.41386   0.28553  -0.52245
  43   37058.3    269.8   0.076616323   0.68063  -0.34446  -0.71316   0.23106
  44   37643.6    265.6   0.190684160   1.66763   0.93454   0.88964   0.05296
  45   37880.2    264.0   0.209408464   1.81994  -0.75093  -0.88539   0.68711
  46   38187.5    261.9   0.054373401   0.46875   0.27334   0.29393   0.55466
  47   38382.0    260.5   0.035477506   0.30430  -0.33817   0.18451   0.39484
  48   38465.3    260.0   0.046982435   0.40211  -0.20366  -0.44889   0.39891
  49   38664.7    258.6   0.010169785   0.08659   0.25969  -0.12867   0.05098
  50   38943.3    256.8   0.128624612   1.08735  -0.32598   0.04162  -0.98962
  51   39372.9    254.0   0.069487647   0.58101  -0.36071  -0.65559   0.14528
  52   39545.6    252.9   0.015704637   0.13074  -0.20134  -0.29994   0.01556
  53   39726.2    251.7   0.046814960   0.38796   0.38685   0.30655   0.37991
  54   39824.1    251.1   0.197578953   1.63331   0.56931   1.13309  -0.15908
  55   40033.6    249.8   0.027422038   0.22550  -0.28798  -0.36245  -0.10583
  56   40127.4    249.2   0.103298473   0.84748   0.52162   0.61014  -0.45069
  57   40306.6    248.1   0.034536441   0.28208  -0.32754  -0.31681   0.27281

FINAL SINGLE POINT ENERGY     -5133.444346661318

DIPOLE MOMENT
-------------
                                X             Y             Z
Electronic contribution:     16.62051      15.08957      34.65852
Nuclear contribution   :    -15.58141     -18.49699     -33.78939
                        -----------------------------------------
Total Dipole Moment    :      1.03910      -3.40742       0.86913
                        -----------------------------------------
Magnitude (a.u.)       :      3.66683
Magnitude (Debye)      :      9.32034

Rotational constants in cm-1:     0.001161     0.000417     0.000317
Rotational constants in MHz :    34.799581    12.508892     9.497743

                             ****ORCA TERMINATED NORMALLY****
TOTAL RUN TIME: 0 days 0 hours 13 minutes 46 seconds 222 msec
