                         Program Version 4.2.0 -  RELEASE  -
|  1> # ORCA input file
|  2> # SCF done       -197.723139570013          0.000964274782
|  3> ! CAM-B3LYP def2-SVP def2/J RIJCOSX Grid4 TightSCF
|  4> %maxcore 5000
|  5> %tddft
|  6>     Mode sTDDFT
|  7>     Ethresh 5.0
|  8>     maxcore 5000
|  9> end
| 10>
| 11> %pal
| 12>   nprocs 6
| 13>   end
| 14> * xyz 0 1
| 15>    C       12.46407         7.03487        -7.61028
| 16>    C       12.77782         7.79436        -8.70280
| 17>    F       13.19103         9.06380        -8.53042
| 18>    C       12.68670         7.30204       -10.01151
| 19>    C       12.26904         6.01462       -10.20571
| 20>    C       11.93445         5.18644        -9.11503
| 21>    C       12.03181         5.70692        -7.79184
| 22>    C       11.69546         4.89692        -6.68191
| 23>    C       11.28350         3.60919        -6.89151
| 24>    C       11.20791         3.08679        -8.21543
| 25>    C       11.51467         3.84993        -9.30437
| 26>    C       10.78918         1.67081        -8.15727
| 27>    O       10.58116         0.91950        -9.08250
| 28>    C       10.74484         1.33941        -6.70899
| 29>    C       10.84091         2.57255        -5.96408
| 30>    C       10.33923         2.79906        -4.70803
| 31>    C        9.62741         1.84257        -3.95651
| 32>    N        9.01043         1.11866        -3.31326
| 33>    C       10.36104         4.05697        -4.07731
| 34>    N       10.35760         5.06250        -3.52165
| 35>    C       10.66083         0.04536        -6.29928
| 36>    C       10.94407        -0.48191        -5.00733
| 37>    C       10.24809        -1.55411        -4.50869
| 38>    C       10.33090        -2.00125        -3.19246
| 39>    C       11.24588        -1.38457        -2.22183
| 40>    C       12.11950        -0.40398        -2.53379
| 41>    S       12.22449         0.31122        -4.08890
| 42>    C       10.92638        -1.98726        -0.97437
| 43>    C        9.84754        -2.86423        -1.13918
| 44>    C        9.45738        -3.46595         0.07854
| 45>    C       10.22916        -3.04152         1.11172
| 46>    S       11.45272        -1.90006         0.65637
| 47>    C        9.48574        -2.89696        -2.52236
| 48>    C        8.37640        -3.57656        -3.11643
| 49>    C        8.40479        -4.18189        -4.32029
| 50>    C        7.20980        -4.60471        -5.00515
| 51>    C        6.10979        -3.79291        -5.06942
| 52>    C        4.93216        -4.10437        -5.75156
| 53>    C        4.73215        -5.42790        -6.34400
| 54>    C        5.69319        -6.37526        -6.41904
| 55>    S        7.28194        -6.16765        -5.80009
| 56>    C        3.39879        -5.41245        -6.83957
| 57>    C        2.81980        -4.15969        -6.62507
| 58>    C        1.50776        -4.09970        -7.14672
| 59>    C        1.13638        -5.27605        -7.71738
| 60>    S        2.35391        -6.50180        -7.65987
| 61>    C        3.78743        -3.31293        -5.96306
| 62>    C        3.71169        -1.93177        -5.68706
| 63>    C        2.58727        -1.16649        -5.77649
| 64>    C        2.52517         0.23464        -5.65992
| 65>    S        0.94103         0.96063        -5.51293
| 66>    C        1.56764         2.59156        -5.49568
| 67>    C        2.94271         2.54354        -5.60771
| 68>    C        3.50481         1.23712        -5.69859
| 69>    C        4.90634         1.29518        -5.88288
| 70>    C        5.37641         2.57702        -5.92468
| 71>    C        6.73827         3.03490        -6.17006
| 72>    O        7.71436         2.33142        -6.29741
| 73>    O        6.75639         4.37483        -6.27196
| 74>    C        7.99253         4.99961        -6.56503
| 75>    S        4.13393         3.79491        -5.72532
| 76>    C        0.70656         3.70650        -5.40383
| 77>    C       -0.67680         3.68608        -5.31662
| 78>    C       -1.21132         4.97032        -5.25837
| 79>    C       -0.23381         5.97447        -5.29984
| 80>    S        1.35251         5.33967        -5.40934
| 81>    C       -0.88598         7.23640        -5.24225
| 82>    C       -2.26967         7.02564        -5.16434
| 83>    C       -2.52557         5.60160        -5.17064
| 84>    C       -3.73473         4.96989        -5.11107
| 85>    C       -3.85196         3.56523        -5.12872
| 86>    N       -3.95601         2.42304        -5.14221
| 87>    C       -4.95017         5.67988        -5.03000
| 88>    N       -5.94309         6.25073        -4.96565
| 89>    C       -2.99516         8.23260        -5.10771
| 90>    C       -2.16763         9.31143        -5.14284
| 91>    S       -0.48477         8.89543        -5.24543
| 92>    H       12.54387         7.44777        -6.61683
| 93>    H       12.94855         7.94736       -10.83493
| 94>    H       12.19226         5.61235       -11.20470
| 95>    H       11.78672         5.31188        -5.69049
| 96>    H       11.44208         3.43921       -10.30036
| 97>    H       10.36737        -0.66984        -7.06111
| 98>    H        9.49362        -1.98974        -5.15046
| 99>    H       12.79760         0.02760        -1.81447
|100>    H        8.65327        -4.17132         0.18421
|101>    H       10.16292        -3.32853         2.14297
|102>    H        7.45306        -3.56847        -2.54957
|103>    H        9.35070        -4.38541        -4.80431
|104>    H        6.18834        -2.83179        -4.57962
|105>    H        5.53519        -7.32923        -6.89643
|106>    H        0.85794        -3.24481        -7.11766
|107>    H        0.19912        -5.51014        -8.18319
|108>    H        4.63677        -1.45269        -5.39986
|109>    H        1.63541        -1.65309        -5.92903
|110>    H        5.55818         0.45071        -6.00863
|111>    H        7.75552         5.94067        -7.05650
|112>    H        8.58986         4.36441        -7.22315
|113>    H        8.54572         5.19220        -5.64319
|114>    H       -1.24134         2.77114        -5.29980
|115>    H       -4.06573         8.30246        -5.04460
|116>    H       -2.43564        10.34845        -5.11492
|117> *
|118>
|119>                          ****END OF INPUT****

CARTESIAN COORDINATES (ANGSTROEM)
---------------------------------
  C     12.464070    7.034870   -7.610280
  C     12.777820    7.794360   -8.702800
  F     13.191030    9.063800   -8.530420
  C     12.686700    7.302040  -10.011510
  C     12.269040    6.014620  -10.205710
  C     11.934450    5.186440   -9.115030
  C     12.031810    5.706920   -7.791840
  C     11.695460    4.896920   -6.681910
  C     11.283500    3.609190   -6.891510
  C     11.207910    3.086790   -8.215430
  C     11.514670    3.849930   -9.304370
  C     10.789180    1.670810   -8.157270
  O     10.581160    0.919500   -9.082500
  C     10.744840    1.339410   -6.708990
  C     10.840910    2.572550   -5.964080
  C     10.339230    2.799060   -4.708030
  C      9.627410    1.842570   -3.956510
  N      9.010430    1.118660   -3.313260
  C     10.361040    4.056970   -4.077310
  N     10.357600    5.062500   -3.521650
  C     10.660830    0.045360   -6.299280
  C     10.944070   -0.481910   -5.007330
  C     10.248090   -1.554110   -4.508690
  C     10.330900   -2.001250   -3.192460
  C     11.245880   -1.384570   -2.221830
  C     12.119500   -0.403980   -2.533790
  S     12.224490    0.311220   -4.088900
  C     10.926380   -1.987260   -0.974370
  C      9.847540   -2.864230   -1.139180
  C      9.457380   -3.465950    0.078540
  C     10.229160   -3.041520    1.111720
  S     11.452720   -1.900060    0.656370
  C      9.485740   -2.896960   -2.522360
  C      8.376400   -3.576560   -3.116430
  C      8.404790   -4.181890   -4.320290
  C      7.209800   -4.604710   -5.005150
  C      6.109790   -3.792910   -5.069420
  C      4.932160   -4.104370   -5.751560
  C      4.732150   -5.427900   -6.344000
  C      5.693190   -6.375260   -6.419040
  S      7.281940   -6.167650   -5.800090
  C      3.398790   -5.412450   -6.839570
  C      2.819800   -4.159690   -6.625070
  C      1.507760   -4.099700   -7.146720
  C      1.136380   -5.276050   -7.717380
  S      2.353910   -6.501800   -7.659870
  C      3.787430   -3.312930   -5.963060
  C      3.711690   -1.931770   -5.687060
  C      2.587270   -1.166490   -5.776490
  C      2.525170    0.234640   -5.659920
  S      0.941030    0.960630   -5.512930
  C      1.567640    2.591560   -5.495680
  C      2.942710    2.543540   -5.607710
  C      3.504810    1.237120   -5.698590
  C      4.906340    1.295180   -5.882880
  C      5.376410    2.577020   -5.924680
  C      6.738270    3.034900   -6.170060
  O      7.714360    2.331420   -6.297410
  O      6.756390    4.374830   -6.271960
  C      7.992530    4.999610   -6.565030
  S      4.133930    3.794910   -5.725320
  C      0.706560    3.706500   -5.403830
  C     -0.676800    3.686080   -5.316620
  C     -1.211320    4.970320   -5.258370
  C     -0.233810    5.974470   -5.299840
  S      1.352510    5.339670   -5.409340
  C     -0.885980    7.236400   -5.242250
  C     -2.269670    7.025640   -5.164340
  C     -2.525570    5.601600   -5.170640
  C     -3.734730    4.969890   -5.111070
  C     -3.851960    3.565230   -5.128720
  N     -3.956010    2.423040   -5.142210
  C     -4.950170    5.679880   -5.030000
  N     -5.943090    6.250730   -4.965650
  C     -2.995160    8.232600   -5.107710
  C     -2.167630    9.311430   -5.142840
  S     -0.484770    8.895430   -5.245430
  H     12.543870    7.447770   -6.616830
  H     12.948550    7.947360  -10.834930
  H     12.192260    5.612350  -11.204700
  H     11.786720    5.311880   -5.690490
  H     11.442080    3.439210  -10.300360
  H     10.367370   -0.669840   -7.061110
  H      9.493620   -1.989740   -5.150460
  H     12.797600    0.027600   -1.814470
  H      8.653270   -4.171320    0.184210
  H     10.162920   -3.328530    2.142970
  H      7.453060   -3.568470   -2.549570
  H      9.350700   -4.385410   -4.804310
  H      6.188340   -2.831790   -4.579620
  H      5.535190   -7.329230   -6.896430
  H      0.857940   -3.244810   -7.117660
  H      0.199120   -5.510140   -8.183190
  H      4.636770   -1.452690   -5.399860
  H      1.635410   -1.653090   -5.929030
  H      5.558180    0.450710   -6.008630
  H      7.755520    5.940670   -7.056500
  H      8.589860    4.364410   -7.223150
  H      8.545720    5.192200   -5.643190
  H     -1.241340    2.771140   -5.299800
  H     -4.065730    8.302460   -5.044600
  H     -2.435640   10.348450   -5.114920

 Total Charge           Charge          ....    0
 Multiplicity           Mult            ....    1
 Number of Electrons    NEL             ....  580
 Basis Dimension        Dim             .... 1235

ORBITAL ENERGIES
----------------

  NO   OCC          E(Eh)            E(eV)
   0   2.0000     -88.977142     -2421.1911
   1   2.0000     -88.975069     -2421.1347
   2   2.0000     -88.974376     -2421.1159
   3   2.0000     -88.972558     -2421.0664
   4   2.0000     -88.960476     -2420.7376
   5   2.0000     -88.959516     -2420.7115
   6   2.0000     -88.954638     -2420.5787
   7   2.0000     -88.952341     -2420.5162
   8   2.0000     -24.786520      -674.4755
   9   2.0000     -19.260805      -524.1132
  10   2.0000     -19.210807      -522.7526
  11   2.0000     -19.205954      -522.6206
  12   2.0000     -14.418543      -392.3485
  13   2.0000     -14.418437      -392.3456
  14   2.0000     -14.415966      -392.2784
  15   2.0000     -14.406688      -392.0259
  16   2.0000     -10.405446      -283.1466
  17   2.0000     -10.370229      -282.1883
  18   2.0000     -10.362354      -281.9740
  19   2.0000     -10.350670      -281.6561
  20   2.0000     -10.339061      -281.3402
  21   2.0000     -10.337391      -281.2947
  22   2.0000     -10.334841      -281.2253
  23   2.0000     -10.330291      -281.1015
  24   2.0000     -10.325828      -280.9801
  25   2.0000     -10.322159      -280.8802
  26   2.0000     -10.319448      -280.8065
  27   2.0000     -10.319264      -280.8015
  28   2.0000     -10.319221      -280.8003
  29   2.0000     -10.318674      -280.7854
  30   2.0000     -10.318464      -280.7797
  31   2.0000     -10.318267      -280.7743
  32   2.0000     -10.316816      -280.7348
  33   2.0000     -10.316632      -280.7298
  34   2.0000     -10.312573      -280.6194
  35   2.0000     -10.311820      -280.5989
  36   2.0000     -10.309743      -280.5424
  37   2.0000     -10.308100      -280.4977
  38   2.0000     -10.306623      -280.4575
  39   2.0000     -10.305172      -280.4180
  40   2.0000     -10.304474      -280.3990
  41   2.0000     -10.303668      -280.3771
  42   2.0000     -10.301657      -280.3223
  43   2.0000     -10.301217      -280.3104
  44   2.0000     -10.299614      -280.2667
  45   2.0000     -10.298777      -280.2440
  46   2.0000     -10.298490      -280.2361
  47   2.0000     -10.298466      -280.2355
  48   2.0000     -10.298213      -280.2286
  49   2.0000     -10.297283      -280.2033
  50   2.0000     -10.296225      -280.1745
  51   2.0000     -10.294745      -280.1343
  52   2.0000     -10.293435      -280.0986
  53   2.0000     -10.293139      -280.0905
  54   2.0000     -10.292923      -280.0847
  55   2.0000     -10.291406      -280.0434
  56   2.0000     -10.291374      -280.0425
  57   2.0000     -10.289656      -279.9958
  58   2.0000     -10.289446      -279.9901
  59   2.0000     -10.289126      -279.9813
  60   2.0000     -10.288876      -279.9745
  61   2.0000     -10.287308      -279.9319
  62   2.0000     -10.286861      -279.9197
  63   2.0000     -10.285764      -279.8899
  64   2.0000     -10.285511      -279.8830
  65   2.0000     -10.284667      -279.8600
  66   2.0000     -10.284596      -279.8581
  67   2.0000     -10.284495      -279.8553
  68   2.0000     -10.284315      -279.8504
  69   2.0000     -10.282859      -279.8108
  70   2.0000     -10.279835      -279.7285
  71   2.0000     -10.277694      -279.6703
  72   2.0000     -10.276617      -279.6410
  73   2.0000     -10.276234      -279.6306
  74   2.0000     -10.272823      -279.5377
  75   2.0000     -10.272627      -279.5324
  76   2.0000     -10.272258      -279.5223
  77   2.0000      -8.071449      -219.6353
  78   2.0000      -8.070180      -219.6008
  79   2.0000      -8.069294      -219.5767
  80   2.0000      -8.068265      -219.5486
  81   2.0000      -8.055541      -219.2024
  82   2.0000      -8.055008      -219.1879
  83   2.0000      -8.049993      -219.0514
  84   2.0000      -8.047345      -218.9794
  85   2.0000      -6.040790      -164.3782
  86   2.0000      -6.039441      -164.3415
  87   2.0000      -6.038991      -164.3293
  88   2.0000      -6.037800      -164.2969
  89   2.0000      -6.036596      -164.2641
  90   2.0000      -6.035015      -164.2211
  91   2.0000      -6.034297      -164.2016
  92   2.0000      -6.033674      -164.1846
  93   2.0000      -6.033233      -164.1726
  94   2.0000      -6.032735      -164.1591
  95   2.0000      -6.031063      -164.1136
  96   2.0000      -6.030189      -164.0898
  97   2.0000      -6.024932      -163.9467
  98   2.0000      -6.024436      -163.9332
  99   2.0000      -6.020796      -163.8342
 100   2.0000      -6.020198      -163.8179
 101   2.0000      -6.019404      -163.7963
 102   2.0000      -6.017500      -163.7445
 103   2.0000      -6.017142      -163.7348
 104   2.0000      -6.017012      -163.7312
 105   2.0000      -6.015166      -163.6810
 106   2.0000      -6.012848      -163.6179
 107   2.0000      -6.012127      -163.5983
 108   2.0000      -6.008557      -163.5011
 109   2.0000      -1.301196       -35.4073
 110   2.0000      -1.191378       -32.4191
 111   2.0000      -1.125547       -30.6277
 112   2.0000      -1.097561       -29.8662
 113   2.0000      -1.029813       -28.0226
 114   2.0000      -1.017170       -27.6786
 115   2.0000      -1.010887       -27.5076
 116   2.0000      -1.009002       -27.4563
 117   2.0000      -1.006475       -27.3876
 118   2.0000      -1.003390       -27.3036
 119   2.0000      -0.999372       -27.1943
 120   2.0000      -0.996130       -27.1061
 121   2.0000      -0.990604       -26.9557
 122   2.0000      -0.979735       -26.6600
 123   2.0000      -0.977303       -26.5938
 124   2.0000      -0.970778       -26.4162
 125   2.0000      -0.970327       -26.4039
 126   2.0000      -0.949351       -25.8332
 127   2.0000      -0.942406       -25.6442
 128   2.0000      -0.936365       -25.4798
 129   2.0000      -0.927768       -25.2458
 130   2.0000      -0.922869       -25.1125
 131   2.0000      -0.910797       -24.7840
 132   2.0000      -0.904288       -24.6069
 133   2.0000      -0.899035       -24.4640
 134   2.0000      -0.891238       -24.2518
 135   2.0000      -0.884213       -24.0607
 136   2.0000      -0.882736       -24.0205
 137   2.0000      -0.863271       -23.4908
 138   2.0000      -0.857047       -23.3214
 139   2.0000      -0.856400       -23.3038
 140   2.0000      -0.851482       -23.1700
 141   2.0000      -0.847100       -23.0508
 142   2.0000      -0.840386       -22.8681
 143   2.0000      -0.838906       -22.8278
 144   2.0000      -0.834053       -22.6957
 145   2.0000      -0.830763       -22.6062
 146   2.0000      -0.813544       -22.1377
 147   2.0000      -0.811293       -22.0764
 148   2.0000      -0.807175       -21.9643
 149   2.0000      -0.798189       -21.7198
 150   2.0000      -0.793276       -21.5861
 151   2.0000      -0.786096       -21.3908
 152   2.0000      -0.770803       -20.9746
 153   2.0000      -0.764340       -20.7987
 154   2.0000      -0.758808       -20.6482
 155   2.0000      -0.753768       -20.5111
 156   2.0000      -0.737394       -20.0655
 157   2.0000      -0.727666       -19.8008
 158   2.0000      -0.726658       -19.7734
 159   2.0000      -0.714584       -19.4448
 160   2.0000      -0.711250       -19.3541
 161   2.0000      -0.708621       -19.2826
 162   2.0000      -0.702100       -19.1051
 163   2.0000      -0.691077       -18.8052
 164   2.0000      -0.687613       -18.7109
 165   2.0000      -0.677007       -18.4223
 166   2.0000      -0.676523       -18.4091
 167   2.0000      -0.669367       -18.2144
 168   2.0000      -0.664864       -18.0919
 169   2.0000      -0.661734       -18.0067
 170   2.0000      -0.650910       -17.7121
 171   2.0000      -0.646650       -17.5963
 172   2.0000      -0.639431       -17.3998
 173   2.0000      -0.638284       -17.3686
 174   2.0000      -0.637085       -17.3360
 175   2.0000      -0.631938       -17.1959
 176   2.0000      -0.628152       -17.0929
 177   2.0000      -0.625391       -17.0177
 178   2.0000      -0.624515       -16.9939
 179   2.0000      -0.616387       -16.7727
 180   2.0000      -0.605664       -16.4810
 181   2.0000      -0.604039       -16.4367
 182   2.0000      -0.603456       -16.4209
 183   2.0000      -0.599243       -16.3062
 184   2.0000      -0.592733       -16.1291
 185   2.0000      -0.585637       -15.9360
 186   2.0000      -0.583728       -15.8841
 187   2.0000      -0.573637       -15.6094
 188   2.0000      -0.572080       -15.5671
 189   2.0000      -0.570913       -15.5353
 190   2.0000      -0.567330       -15.4378
 191   2.0000      -0.564721       -15.3669
 192   2.0000      -0.562299       -15.3009
 193   2.0000      -0.560826       -15.2609
 194   2.0000      -0.558835       -15.2067
 195   2.0000      -0.557337       -15.1659
 196   2.0000      -0.555030       -15.1031
 197   2.0000      -0.549385       -14.9495
 198   2.0000      -0.544414       -14.8143
 199   2.0000      -0.541846       -14.7444
 200   2.0000      -0.541451       -14.7336
 201   2.0000      -0.535292       -14.5660
 202   2.0000      -0.532926       -14.5017
 203   2.0000      -0.531109       -14.4522
 204   2.0000      -0.527192       -14.3456
 205   2.0000      -0.523587       -14.2475
 206   2.0000      -0.519560       -14.1379
 207   2.0000      -0.517753       -14.0888
 208   2.0000      -0.516561       -14.0563
 209   2.0000      -0.512590       -13.9483
 210   2.0000      -0.510464       -13.8904
 211   2.0000      -0.509326       -13.8595
 212   2.0000      -0.507105       -13.7990
 213   2.0000      -0.504711       -13.7339
 214   2.0000      -0.503701       -13.7064
 215   2.0000      -0.501520       -13.6471
 216   2.0000      -0.497306       -13.5324
 217   2.0000      -0.495482       -13.4828
 218   2.0000      -0.492950       -13.4138
 219   2.0000      -0.491272       -13.3682
 220   2.0000      -0.488083       -13.2814
 221   2.0000      -0.486661       -13.2427
 222   2.0000      -0.484141       -13.1742
 223   2.0000      -0.483402       -13.1540
 224   2.0000      -0.481094       -13.0912
 225   2.0000      -0.477085       -12.9821
 226   2.0000      -0.472715       -12.8632
 227   2.0000      -0.471404       -12.8276
 228   2.0000      -0.468048       -12.7362
 229   2.0000      -0.464185       -12.6311
 230   2.0000      -0.461429       -12.5561
 231   2.0000      -0.460542       -12.5320
 232   2.0000      -0.458990       -12.4898
 233   2.0000      -0.456228       -12.4146
 234   2.0000      -0.454924       -12.3791
 235   2.0000      -0.452060       -12.3012
 236   2.0000      -0.450590       -12.2612
 237   2.0000      -0.448492       -12.2041
 238   2.0000      -0.448127       -12.1942
 239   2.0000      -0.446128       -12.1398
 240   2.0000      -0.444272       -12.0892
 241   2.0000      -0.439946       -11.9715
 242   2.0000      -0.438767       -11.9394
 243   2.0000      -0.436935       -11.8896
 244   2.0000      -0.435474       -11.8499
 245   2.0000      -0.434265       -11.8170
 246   2.0000      -0.431979       -11.7547
 247   2.0000      -0.429354       -11.6833
 248   2.0000      -0.429151       -11.6778
 249   2.0000      -0.427243       -11.6259
 250   2.0000      -0.426961       -11.6182
 251   2.0000      -0.425079       -11.5670
 252   2.0000      -0.424184       -11.5426
 253   2.0000      -0.422127       -11.4867
 254   2.0000      -0.421363       -11.4659
 255   2.0000      -0.419529       -11.4160
 256   2.0000      -0.417574       -11.3628
 257   2.0000      -0.416669       -11.3381
 258   2.0000      -0.414505       -11.2793
 259   2.0000      -0.413636       -11.2556
 260   2.0000      -0.412084       -11.2134
 261   2.0000      -0.411175       -11.1887
 262   2.0000      -0.404608       -11.0099
 263   2.0000      -0.402417       -10.9503
 264   2.0000      -0.400779       -10.9058
 265   2.0000      -0.397335       -10.8120
 266   2.0000      -0.389112       -10.5883
 267   2.0000      -0.383876       -10.4458
 268   2.0000      -0.382652       -10.4125
 269   2.0000      -0.378054       -10.2874
 270   2.0000      -0.374344       -10.1864
 271   2.0000      -0.357867        -9.7381
 272   2.0000      -0.354020        -9.6334
 273   2.0000      -0.348635        -9.4868
 274   2.0000      -0.341493        -9.2925
 275   2.0000      -0.337139        -9.1740
 276   2.0000      -0.334588        -9.1046
 277   2.0000      -0.330183        -8.9847
 278   2.0000      -0.326642        -8.8884
 279   2.0000      -0.322814        -8.7842
 280   2.0000      -0.310535        -8.4501
 281   2.0000      -0.309366        -8.4183
 282   2.0000      -0.306883        -8.3507
 283   2.0000      -0.298110        -8.1120
 284   2.0000      -0.291458        -7.9310
 285   2.0000      -0.281349        -7.6559
 286   2.0000      -0.276232        -7.5166
 287   2.0000      -0.257340        -7.0026
 288   2.0000      -0.243008        -6.6126
 289   2.0000      -0.210679        -5.7329
 290   0.0000      -0.096138        -2.6161
 291   0.0000      -0.090589        -2.4651
 292   0.0000      -0.067734        -1.8431
 293   0.0000      -0.054153        -1.4736
 294   0.0000      -0.043252        -1.1769

MULLIKEN ATOMIC CHARGES
-----------------------
   0 C :   -0.102259
   1 C :    0.304948
   2 F :   -0.191005
   3 C :   -0.028265
   4 C :   -0.012781
   5 C :    0.102854
   6 C :    0.103749
   7 C :   -0.103639
   8 C :    0.019922
   9 C :    0.012409
  10 C :   -0.090172
  11 C :    0.146456
  12 O :   -0.142880
  13 C :   -0.110134
  14 C :    0.287449
  15 C :   -0.335809
  16 C :   -0.181842
  17 N :    0.174293
  18 C :   -0.185238
  19 N :    0.141677
  20 C :    0.046559
  21 C :   -0.136963
  22 C :    0.024184
  23 C :    0.050425
  24 C :    0.086773
  25 C :   -0.128603
  26 S :    0.145216
  27 C :   -0.097619
  28 C :    0.051387
  29 C :    0.014863
  30 C :   -0.071493
  31 S :    0.136080
  32 C :    0.061701
  33 C :   -0.037093
  34 C :   -0.002445
  35 C :   -0.105220
  36 C :   -0.028615
  37 C :    0.041634
  38 C :    0.070504
  39 C :   -0.135284
  40 S :    0.141297
  41 C :   -0.116175
  42 C :    0.060228
  43 C :   -0.010032
  44 C :   -0.065851
  45 S :    0.126740
  46 C :    0.080229
  47 C :   -0.032088
  48 C :    0.034462
  49 C :   -0.102113
  50 S :    0.145933
  51 C :   -0.117530
  52 C :   -0.067850
  53 C :    0.124063
  54 C :   -0.009629
  55 C :   -0.123986
  56 C :    0.227525
  57 O :   -0.211247
  58 O :   -0.313280
  59 C :    0.170975
  60 S :    0.146003
  61 C :   -0.058634
  62 C :   -0.083135
  63 C :    0.027910
  64 C :   -0.109033
  65 S :    0.175689
  66 C :   -0.108152
  67 C :   -0.042978
  68 C :    0.299134
  69 C :   -0.299871
  70 C :   -0.189727
  71 N :    0.166708
  72 C :   -0.192729
  73 N :    0.169296
  74 C :    0.038996
  75 C :   -0.088019
  76 S :    0.172212
  77 H :   -0.004904
  78 H :    0.003357
  79 H :   -0.008648
  80 H :   -0.004316
  81 H :   -0.011866
  82 H :    0.030829
  83 H :   -0.003377
  84 H :    0.038998
  85 H :   -0.014475
  86 H :    0.029450
  87 H :    0.015918
  88 H :    0.017190
  89 H :   -0.004625
  90 H :    0.035024
  91 H :   -0.011330
  92 H :    0.025580
  93 H :   -0.034480
  94 H :   -0.033649
  95 H :    0.005094
  96 H :    0.034039
  97 H :    0.041071
  98 H :    0.043011
  99 H :    0.008959
 100 H :    0.010223
 101 H :    0.031857
Sum of atomic charges:   -0.0000000

LOEWDIN ATOMIC CHARGES
----------------------
   0 C :   -0.044563
   1 C :    0.092981
   2 F :   -0.065768
   3 C :   -0.038513
   4 C :    0.004645
   5 C :   -0.020945
   6 C :    0.001546
   7 C :    0.002139
   8 C :   -0.015356
   9 C :   -0.059420
  10 C :    0.032616
  11 C :    0.086300
  12 O :   -0.143905
  13 C :   -0.087480
  14 C :    0.063940
  15 C :   -0.139353
  16 C :   -0.026828
  17 N :   -0.054819
  18 C :   -0.017035
  19 N :   -0.062782
  20 C :    0.052451
  21 C :   -0.188075
  22 C :    0.024641
  23 C :   -0.022897
  24 C :   -0.050511
  25 C :   -0.126507
  26 S :    0.466364
  27 C :   -0.187999
  28 C :   -0.044631
  29 C :   -0.059391
  30 C :   -0.163212
  31 S :    0.428843
  32 C :   -0.028059
  33 C :   -0.005369
  34 C :   -0.051149
  35 C :   -0.171031
  36 C :   -0.024429
  37 C :   -0.017786
  38 C :   -0.048338
  39 C :   -0.142353
  40 S :    0.448606
  41 C :   -0.202956
  42 C :   -0.036476
  43 C :   -0.066415
  44 C :   -0.165861
  45 S :    0.423459
  46 C :   -0.053872
  47 C :   -0.004649
  48 C :   -0.067539
  49 C :   -0.144787
  50 S :    0.457392
  51 C :   -0.223318
  52 C :   -0.188456
  53 C :   -0.084368
  54 C :   -0.000382
  55 C :   -0.204366
  56 C :    0.078520
  57 O :   -0.185961
  58 O :   -0.097747
  59 C :    0.076733
  60 S :    0.410855
  61 C :   -0.174201
  62 C :   -0.046121
  63 C :   -0.064254
  64 C :   -0.197741
  65 S :    0.469697
  66 C :   -0.175449
  67 C :   -0.086731
  68 C :    0.086497
  69 C :   -0.108960
  70 C :   -0.016119
  71 N :   -0.039858
  72 C :   -0.016414
  73 N :   -0.038938
  74 C :   -0.034372
  75 C :   -0.185368
  76 S :    0.469176
  77 H :    0.042373
  78 H :    0.041845
  79 H :    0.035819
  80 H :    0.037927
  81 H :    0.039650
  82 H :    0.050582
  83 H :    0.042121
  84 H :    0.037890
  85 H :    0.032478
  86 H :    0.024448
  87 H :    0.035448
  88 H :    0.029756
  89 H :    0.038159
  90 H :    0.035370
  91 H :    0.029278
  92 H :    0.023668
  93 H :    0.026841
  94 H :    0.025549
  95 H :    0.038424
  96 H :    0.028467
  97 H :    0.020489
  98 H :    0.024827
  99 H :    0.034431
 100 H :    0.041565
 101 H :    0.025374

  Mayer bond orders larger than 0.100000
B(  0-C ,  1-C ) :   1.4395 B(  0-C ,  6-C ) :   1.1994 B(  0-C , 77-H ) :   1.0085
B(  1-C ,  2-F ) :   1.0884 B(  1-C ,  3-C ) :   1.2553 B(  3-C ,  4-C ) :   1.4586
B(  3-C , 78-H ) :   0.9931 B(  4-C ,  5-C ) :   1.2339 B(  4-C , 79-H ) :   0.9979
B(  5-C ,  6-C ) :   1.2606 B(  5-C , 10-C ) :   1.1859 B(  6-C ,  7-C ) :   1.1926
B(  7-C ,  8-C ) :   1.4534 B(  7-C , 80-H ) :   1.0010 B(  8-C ,  9-C ) :   1.2222
B(  8-C , 14-C ) :   0.9957 B(  9-C , 10-C ) :   1.4679 B(  9-C , 11-C ) :   0.9164
B( 10-C , 81-H ) :   1.0170 B( 11-C , 12-O ) :   2.2781 B( 11-C , 13-C ) :   0.9419
B( 13-C , 14-C ) :   1.0472 B( 13-C , 20-C ) :   1.6446 B( 14-C , 15-C ) :   1.6482
B( 15-C , 16-C ) :   1.1578 B( 15-C , 18-C ) :   1.1623 B( 16-C , 17-N ) :   3.0020
B( 18-C , 19-N ) :   2.9172 B( 20-C , 21-C ) :   1.1026 B( 20-C , 82-H ) :   0.9474
B( 21-C , 22-C ) :   1.4850 B( 21-C , 26-S ) :   1.0515 B( 22-C , 23-C ) :   1.2303
B( 22-C , 83-H ) :   0.9700 B( 23-C , 24-C ) :   1.0440 B( 23-C , 32-C ) :   1.4286
B( 24-C , 25-C ) :   1.5971 B( 24-C , 27-C ) :   1.1852 B( 25-C , 26-S ) :   1.1497
B( 25-C , 84-H ) :   0.9413 B( 27-C , 28-C ) :   1.4174 B( 27-C , 31-S ) :   1.0879
B( 28-C , 29-C ) :   1.2151 B( 28-C , 32-C ) :   1.1270 B( 29-C , 30-C ) :   1.5896
B( 29-C , 85-H ) :   1.0012 B( 30-C , 31-S ) :   1.1480 B( 30-C , 86-H ) :   0.9669
B( 32-C , 33-C ) :   1.0873 B( 33-C , 34-C ) :   1.7631 B( 33-C , 87-H ) :   0.9599
B( 34-C , 35-C ) :   1.0204 B( 34-C , 88-H ) :   0.9629 B( 35-C , 36-C ) :   1.5801
B( 35-C , 40-S ) :   1.0563 B( 36-C , 37-C ) :   1.2152 B( 36-C , 89-H ) :   0.9688
B( 37-C , 38-C ) :   1.0588 B( 37-C , 46-C ) :   1.3718 B( 38-C , 39-C ) :   1.6090
B( 38-C , 41-C ) :   1.1732 B( 39-C , 40-S ) :   1.1365 B( 39-C , 90-H ) :   0.9407
B( 41-C , 42-C ) :   1.4584 B( 41-C , 45-S ) :   1.0786 B( 42-C , 43-C ) :   1.2144
B( 42-C , 46-C ) :   1.0719 B( 43-C , 44-C ) :   1.5850 B( 43-C , 91-H ) :   1.0001
B( 44-C , 45-S ) :   1.1581 B( 44-C , 92-H ) :   0.9644 B( 46-C , 47-C ) :   1.2038
B( 47-C , 48-C ) :   1.5893 B( 47-C , 93-H ) :   0.9624 B( 48-C , 49-C ) :   1.1715
B( 48-C , 94-H ) :   0.9556 B( 49-C , 50-S ) :   1.1320 B( 49-C , 53-C ) :   1.3475
B( 50-S , 51-C ) :   1.1135 B( 51-C , 52-C ) :   1.4907 B( 51-C , 61-C ) :   1.1899
B( 52-C , 53-C ) :   1.2461 B( 52-C , 60-S ) :   1.0449 B( 53-C , 54-C ) :   1.1468
B( 54-C , 55-C ) :   1.6234 B( 54-C , 95-H ) :   1.0002 B( 55-C , 56-C ) :   0.9672
B( 55-C , 60-S ) :   1.0523 B( 56-C , 57-O ) :   2.0748 B( 56-C , 58-O ) :   1.2282
B( 58-O , 59-C ) :   0.9137 B( 59-C , 96-H ) :   0.9744 B( 59-C , 97-H ) :   0.9671
B( 59-C , 98-H ) :   0.9765 B( 61-C , 62-C ) :   1.4312 B( 61-C , 65-S ) :   1.1110
B( 62-C , 63-C ) :   1.3054 B( 62-C , 99-H ) :   0.9927 B( 63-C , 64-C ) :   1.4534
B( 63-C , 68-C ) :   0.9855 B( 64-C , 65-S ) :   1.1103 B( 64-C , 66-C ) :   1.1850
B( 66-C , 67-C ) :   1.4502 B( 66-C , 76-S ) :   1.1397 B( 67-C , 68-C ) :   1.0288
B( 67-C , 74-C ) :   1.2689 B( 68-C , 69-C ) :   1.7022 B( 69-C , 70-C ) :   1.1365
B( 69-C , 72-C ) :   1.1301 B( 70-C , 71-N ) :   2.9905 B( 72-C , 73-N ) :   3.0031
B( 74-C , 75-C ) :   1.5554 B( 74-C ,100-H ) :   0.9959 B( 75-C , 76-S ) :   1.1367
B( 75-C ,101-H ) :   0.9651

-----------------------------------------------------------------------------
         ABSORPTION SPECTRUM VIA TRANSITION ELECTRIC DIPOLE MOMENTS
-----------------------------------------------------------------------------
State   Energy  Wavelength   fosc         T2         TX        TY        TZ
        (cm-1)    (nm)                  (au**2)     (au)      (au)      (au)
-----------------------------------------------------------------------------
   0   10713.8    933.4   0.231471183   7.11262  -1.91424   1.85008   0.15964
   1   12160.0    822.4   0.095332135   2.58097   1.49879   0.49199  -0.30423
   2   16125.5    620.1   0.213268163   4.35400  -1.82590   0.69326   0.73449
   3   17135.7    583.6   1.231042088  23.65084  -1.26154   4.52279  -1.26639
   4   20275.8    493.2   0.001583163   0.02571   0.02766  -0.10753   0.11566
   5   21399.5    467.3   0.022969281   0.35336  -0.25370   0.51824   0.14293
   6   22037.6    453.8   0.187591211   2.80236  -0.80964  -1.40145  -0.42753
   7   22181.8    450.8   0.076368013   1.13342   0.50700  -0.64521   0.67829
   8   23000.7    434.8   0.088984176   1.27364  -0.08345  -1.04433  -0.41957
   9   23327.0    428.7   0.027187786   0.38370  -0.39799   0.21254   0.42442
  10   23805.0    420.1   0.006717639   0.09290  -0.09608  -0.19951   0.20945
  11   25122.7    398.0   0.094882633   1.24336   0.69133   0.16421   0.85933
  12   25965.5    385.1   0.056605312   0.71769   0.74702  -0.15718  -0.36734
  13   26080.4    383.4   0.069097921   0.87222  -0.83762  -0.40057  -0.10077
  14   26625.6    375.6   0.031020239   0.38355   0.40557  -0.36291   0.29557
  15   27485.1    363.8   0.103822249   1.24357  -0.03012   0.29827  -1.07410
  16   27557.2    362.9   0.082682441   0.98777   0.88881   0.36352   0.25620
  17   27680.3    361.3   0.313111626   3.72395   1.46158  -1.20467  -0.36948
  18   28091.0    356.0   0.026823174   0.31435  -0.27988   0.28627   0.39251
  19   28394.1    352.2   0.148136782   1.71755  -1.03219   0.75791   0.27874
  20   28795.5    347.3   0.030284792   0.34624   0.40640  -0.40300  -0.13664
  21   29654.4    337.2   0.047469507   0.52699  -0.10575  -0.61804   0.36583
  22   29864.1    334.9   0.020782098   0.22909   0.41435  -0.06020  -0.23191
  23   30128.0    331.9   0.028027554   0.30626   0.27786   0.32123  -0.35477
  24   30738.0    325.3   0.058222833   0.62358   0.76267   0.20078  -0.04008
  25   31453.4    317.9   0.074260749   0.77726  -0.39330  -0.50419  -0.60693
  26   31584.9    316.6   0.046687871   0.48663   0.62070   0.30067  -0.10471
  27   31877.0    313.7   0.150624979   1.55559  -1.09486  -0.56718  -0.18754
  28   32167.2    310.9   0.521396818   5.33618   1.53881   1.72267  -0.02616
  29   32220.8    310.4   0.081625873   0.83400   0.88379   0.16298  -0.16236
  30   32546.8    307.2   0.180178640   1.82251  -0.63620  -0.50881  -1.07651
  31   32810.4    304.8   0.095296407   0.95618   0.17989   0.44493  -0.85197
  32   33104.0    302.1   0.097832770   0.97292   0.22722  -0.00978  -0.95979
  33   33579.2    297.8   0.020883637   0.20474  -0.21996  -0.28872   0.27018
  34   33827.7    295.6   0.082220442   0.80017   0.89232  -0.05998  -0.01834
  35   33882.3    295.1   0.177719295   1.72678   1.23325   0.09781  -0.44306
  36   33911.3    294.9   0.265214025   2.57471  -0.31072   1.30434  -0.88140
  37   34015.7    294.0   0.872378743   8.44307  -2.00443  -1.93979   0.81398
  38   34383.6    290.8   0.023350514   0.22357  -0.37846   0.03805   0.28088
  39   34647.9    288.6   0.255095015   2.42382   0.00742  -1.40478   0.67110
  40   34794.4    287.4   0.021441715   0.20287   0.00203   0.09179   0.44096
  41   35044.9    285.3   0.011979561   0.11254   0.10259  -0.17256   0.26877
  42   35266.5    283.6   0.153553627   1.43342   0.34416   0.93372  -0.66569
  43   35528.0    281.5   0.292586329   2.71118  -0.05578  -0.70912   1.48500
  44   35738.7    279.8   0.166471648   1.53348  -0.73648   0.11840  -0.98846
  45   35860.3    278.9   0.005602109   0.05143   0.20745  -0.00609   0.09141
  46   36415.2    274.6   0.031141782   0.28154  -0.29653  -0.27877  -0.34044
  47   36651.6    272.8   0.034701898   0.31170   0.23254   0.50756  -0.00223
  48   36778.0    271.9   0.005413985   0.04846  -0.06303   0.21005  -0.01923
  49   36903.3    271.0   0.022297836   0.19892   0.40568  -0.08020   0.16706
  50   37055.9    269.9   0.148124426   1.31597  -1.11240   0.04539   0.27654
  51   37367.7    267.6   0.120215907   1.05911  -1.01578  -0.16216  -0.03154
  52   37505.9    266.6   0.014060553   0.12342  -0.34459  -0.04761  -0.04906
  53   37851.7    264.2   0.005017635   0.04364  -0.15645  -0.01956   0.13705
  54   37952.2    263.5   0.039464384   0.34233   0.48795  -0.14020   0.29083
  55   38017.5    263.0   0.139580213   1.20869   1.02112  -0.22368  -0.34056
  56   38080.8    262.6   0.025468487   0.22018  -0.05108  -0.23543   0.40267
  57   38247.9    261.5   0.035708993   0.30736   0.28381   0.28126  -0.38432
  58   38574.5    259.2   0.046771631   0.39917   0.11809   0.60819  -0.12382
  59   38789.4    257.8   0.001845334   0.01566   0.09771   0.06683   0.04059
  60   38919.4    256.9   0.023932569   0.20244  -0.23729   0.34230  -0.17020
  61   39196.4    255.1   0.266770073   2.24061   0.47931  -0.33145   1.37877
  62   39389.9    253.9   0.120882794   1.01031  -0.57570   0.77860   0.26955
  63   39556.8    252.8   0.096787673   0.80552  -0.59979  -0.14234  -0.65231
  64   39655.5    252.2   0.107549721   0.89286  -0.71226   0.52908  -0.32499
  65   39877.4    250.8   0.133166328   1.09937  -0.84680  -0.58868  -0.18907
  66   40141.0    249.1   0.011461551   0.09400   0.29204   0.03302   0.08731
  67   40240.7    248.5   0.021134660   0.17290   0.40804   0.05987  -0.05311

FINAL SINGLE POINT ENERGY     -6064.829784534370

DIPOLE MOMENT
-------------
                                X             Y             Z
Electronic contribution:    -12.47743      14.38457       3.61387
Nuclear contribution   :     15.75790     -15.22389      -4.32030
                        -----------------------------------------
Total Dipole Moment    :      3.28047      -0.83933      -0.70643
                        -----------------------------------------
Magnitude (a.u.)       :      3.45905
Magnitude (Debye)      :      8.79219

Rotational constants in cm-1:     0.000655     0.000438     0.000312
Rotational constants in MHz :    19.639572    13.128016     9.359436

                             ****ORCA TERMINATED NORMALLY****
TOTAL RUN TIME: 0 days 0 hours 12 minutes 16 seconds 443 msec
