                         Program Version 4.2.0 -  RELEASE  -
|  1> # ORCA input file
|  2> # SCF done       -201.470296386455          0.000764153785
|  3> ! CAM-B3LYP def2-SVP def2/J RIJCOSX Grid4 TightSCF
|  4> %maxcore 5000
|  5> %tddft
|  6>     Mode sTDDFT
|  7>     Ethresh 5.0
|  8>     maxcore 5000
|  9> end
| 10>
| 11> %pal
| 12>   nprocs 6
| 13>   end
| 14> * xyz 0 1
| 15>    C        5.13812         0.91313         8.69946
| 16>    C        4.49349         1.94776         9.31850
| 17>    F        4.61574         2.10239        10.64980
| 18>    C        3.70088         2.86634         8.61750
| 19>    C        3.56587         2.72566         7.26409
| 20>    C        4.20890         1.67762         6.57457
| 21>    C        5.00829         0.75197         7.30657
| 22>    C        5.65338        -0.31552         6.63889
| 23>    C        5.50535        -0.44586         5.28533
| 24>    C        4.71988         0.49286         4.55524
| 25>    C        4.07974         1.52639         5.17513
| 26>    C        4.75260         0.14429         3.12115
| 27>    O        4.16401         0.67954         2.20952
| 28>    C        5.71800        -0.98389         3.01734
| 29>    C        6.00456        -1.45151         4.35270
| 30>    C        6.40673        -2.71937         4.69547
| 31>    C        6.57437        -3.75572         3.75589
| 32>    N        6.66600        -4.63326         3.02000
| 33>    C        6.59326        -3.15180         6.02232
| 34>    N        6.78065        -3.54591         7.08442
| 35>    C        6.19788        -1.35486         1.79522
| 36>    C        7.36879        -2.09419         1.48299
| 37>    C        7.47633        -2.79322         0.29913
| 38>    C        8.55081        -3.60088        -0.04733
| 39>    C        9.72171        -3.72681         0.82364
| 40>    C        9.87199        -3.06882         1.99387
| 41>    S        8.69115        -2.01610         2.64654
| 42>    C       10.57653        -4.65625         0.17181
| 43>    C        9.98276        -5.10580        -1.01276
| 44>    C       10.82187        -6.01191        -1.70259
| 45>    C       11.98542        -6.22739        -1.03607
| 46>    S       12.12207        -5.34531         0.44722
| 47>    C        8.70826        -4.45632        -1.16382
| 48>    C        7.75327        -4.62654        -2.18931
| 49>    C        7.72383        -5.66322        -3.07097
| 50>    C        6.74039        -5.82888        -4.07254
| 51>    C        5.77816        -4.93233        -4.51851
| 52>    C        4.96582        -5.47862        -5.50553
| 53>    C        5.29471        -6.81312        -5.81901
| 54>    S        6.62851        -7.37441        -4.91224
| 55>    C        4.39030        -7.28315        -6.79656
| 56>    C        3.49653        -6.24320        -7.11956
| 57>    C        3.83622        -5.07347        -6.32729
| 58>    C        3.22774        -3.85225        -6.35310
| 59>    C        3.64359        -2.79265        -5.52065
| 60>    N        3.98873        -1.93466        -4.84242
| 61>    C        2.15047        -3.57245        -7.21908
| 62>    N        1.27922        -3.34372        -7.92899
| 63>    C        2.53533        -6.61623        -8.05355
| 64>    C        2.67468        -7.93878        -8.44718
| 65>    S        4.03656        -8.72294        -7.64727
| 66>    C        1.85803        -8.67661        -9.33044
| 67>    S        1.98818       -10.41352        -9.40526
| 68>    C        0.68770       -10.56640       -10.55952
| 69>    C        0.20750        -9.30799       -10.87496
| 70>    C        0.85430        -8.23510       -10.19585
| 71>    C        0.32990        -6.98077       -10.58757
| 72>    C       -0.66902        -7.10361       -11.50609
| 73>    C       -1.44484        -6.03426       -12.14243
| 74>    O       -2.32613        -6.21805       -12.94389
| 75>    O       -1.04865        -4.82563       -11.71965
| 76>    C       -1.74563        -3.71853       -12.27314
| 77>    S       -1.03366        -8.75327       -11.95118
| 78>    C        0.25110       -11.83341       -11.01203
| 79>    C       -0.79314       -12.10555       -11.88122
| 80>    C       -0.96166       -13.47623       -12.07256
| 81>    C       -0.04209       -14.25154       -11.35174
| 82>    S        1.03513       -13.29609       -10.43440
| 83>    C       -0.31007       -15.62474       -11.60726
| 84>    C       -1.39800       -15.71291       -12.48496
| 85>    C       -1.84666       -14.37284       -12.81004
| 86>    C       -2.88147       -14.01825       -13.62474
| 87>    C       -3.22591       -12.67118       -13.86518
| 88>    N       -3.51534       -11.57963       -14.06301
| 89>    C       -3.67974       -14.97699       -14.28340
| 90>    N       -4.33333       -15.75314       -14.81762
| 91>    C       -1.73719       -17.04598       -12.78721
| 92>    C       -0.91730       -17.92377       -12.14659
| 93>    S        0.28748       -17.16031       -11.16078
| 94>    H        5.73699         0.22191         9.27166
| 95>    H        3.21557         3.66240         9.15954
| 96>    H        2.96038         3.42097         6.70238
| 97>    H        6.25653        -0.99981         7.21453
| 98>    H        3.47989         2.22090         4.60625
| 99>    H        5.63149        -0.98133         0.94724
|100>    H        6.62009        -2.74996        -0.36038
|101>    H       10.75029        -3.17035         2.61165
|102>    H       10.60184        -6.47447        -2.64691
|103>    H       12.79817        -6.86387        -1.32689
|104>    H        6.96028        -3.89313        -2.23114
|105>    H        8.44889        -6.45799        -2.98136
|106>    H        5.69146        -3.92959        -4.14345
|107>    H        1.74887        -5.97736        -8.40558
|108>    H        0.66333        -6.02267       -10.23687
|109>    H       -1.34903        -2.83642       -11.77764
|110>    H       -2.81766        -3.81568       -12.09050
|111>    H       -1.57656        -3.66475       -13.35068
|112>    H       -1.39098       -11.33795       -12.33643
|113>    H       -2.53893       -17.34391       -13.43774
|114>    H       -0.94006       -18.99427       -12.18748
|115> *
|116>
|117>                          ****END OF INPUT****

CARTESIAN COORDINATES (ANGSTROEM)
---------------------------------
  C      5.138120    0.913130    8.699460
  C      4.493490    1.947760    9.318500
  F      4.615740    2.102390   10.649800
  C      3.700880    2.866340    8.617500
  C      3.565870    2.725660    7.264090
  C      4.208900    1.677620    6.574570
  C      5.008290    0.751970    7.306570
  C      5.653380   -0.315520    6.638890
  C      5.505350   -0.445860    5.285330
  C      4.719880    0.492860    4.555240
  C      4.079740    1.526390    5.175130
  C      4.752600    0.144290    3.121150
  O      4.164010    0.679540    2.209520
  C      5.718000   -0.983890    3.017340
  C      6.004560   -1.451510    4.352700
  C      6.406730   -2.719370    4.695470
  C      6.574370   -3.755720    3.755890
  N      6.666000   -4.633260    3.020000
  C      6.593260   -3.151800    6.022320
  N      6.780650   -3.545910    7.084420
  C      6.197880   -1.354860    1.795220
  C      7.368790   -2.094190    1.482990
  C      7.476330   -2.793220    0.299130
  C      8.550810   -3.600880   -0.047330
  C      9.721710   -3.726810    0.823640
  C      9.871990   -3.068820    1.993870
  S      8.691150   -2.016100    2.646540
  C     10.576530   -4.656250    0.171810
  C      9.982760   -5.105800   -1.012760
  C     10.821870   -6.011910   -1.702590
  C     11.985420   -6.227390   -1.036070
  S     12.122070   -5.345310    0.447220
  C      8.708260   -4.456320   -1.163820
  C      7.753270   -4.626540   -2.189310
  C      7.723830   -5.663220   -3.070970
  C      6.740390   -5.828880   -4.072540
  C      5.778160   -4.932330   -4.518510
  C      4.965820   -5.478620   -5.505530
  C      5.294710   -6.813120   -5.819010
  S      6.628510   -7.374410   -4.912240
  C      4.390300   -7.283150   -6.796560
  C      3.496530   -6.243200   -7.119560
  C      3.836220   -5.073470   -6.327290
  C      3.227740   -3.852250   -6.353100
  C      3.643590   -2.792650   -5.520650
  N      3.988730   -1.934660   -4.842420
  C      2.150470   -3.572450   -7.219080
  N      1.279220   -3.343720   -7.928990
  C      2.535330   -6.616230   -8.053550
  C      2.674680   -7.938780   -8.447180
  S      4.036560   -8.722940   -7.647270
  C      1.858030   -8.676610   -9.330440
  S      1.988180  -10.413520   -9.405260
  C      0.687700  -10.566400  -10.559520
  C      0.207500   -9.307990  -10.874960
  C      0.854300   -8.235100  -10.195850
  C      0.329900   -6.980770  -10.587570
  C     -0.669020   -7.103610  -11.506090
  C     -1.444840   -6.034260  -12.142430
  O     -2.326130   -6.218050  -12.943890
  O     -1.048650   -4.825630  -11.719650
  C     -1.745630   -3.718530  -12.273140
  S     -1.033660   -8.753270  -11.951180
  C      0.251100  -11.833410  -11.012030
  C     -0.793140  -12.105550  -11.881220
  C     -0.961660  -13.476230  -12.072560
  C     -0.042090  -14.251540  -11.351740
  S      1.035130  -13.296090  -10.434400
  C     -0.310070  -15.624740  -11.607260
  C     -1.398000  -15.712910  -12.484960
  C     -1.846660  -14.372840  -12.810040
  C     -2.881470  -14.018250  -13.624740
  C     -3.225910  -12.671180  -13.865180
  N     -3.515340  -11.579630  -14.063010
  C     -3.679740  -14.976990  -14.283400
  N     -4.333330  -15.753140  -14.817620
  C     -1.737190  -17.045980  -12.787210
  C     -0.917300  -17.923770  -12.146590
  S      0.287480  -17.160310  -11.160780
  H      5.736990    0.221910    9.271660
  H      3.215570    3.662400    9.159540
  H      2.960380    3.420970    6.702380
  H      6.256530   -0.999810    7.214530
  H      3.479890    2.220900    4.606250
  H      5.631490   -0.981330    0.947240
  H      6.620090   -2.749960   -0.360380
  H     10.750290   -3.170350    2.611650
  H     10.601840   -6.474470   -2.646910
  H     12.798170   -6.863870   -1.326890
  H      6.960280   -3.893130   -2.231140
  H      8.448890   -6.457990   -2.981360
  H      5.691460   -3.929590   -4.143450
  H      1.748870   -5.977360   -8.405580
  H      0.663330   -6.022670  -10.236870
  H     -1.349030   -2.836420  -11.777640
  H     -2.817660   -3.815680  -12.090500
  H     -1.576560   -3.664750  -13.350680
  H     -1.390980  -11.337950  -12.336430
  H     -2.538930  -17.343910  -13.437740
  H     -0.940060  -18.994270  -12.187480

 Total Charge           Charge          ....    0
 Multiplicity           Mult            ....    1
 Number of Electrons    NEL             ....  590
 Basis Dimension        Dim             .... 1243

ORBITAL ENERGIES
----------------

  NO   OCC          E(Eh)            E(eV)
   0   2.0000     -88.991635     -2421.5855
   1   2.0000     -88.988475     -2421.4995
   2   2.0000     -88.987518     -2421.4735
   3   2.0000     -88.984206     -2421.3833
   4   2.0000     -88.979478     -2421.2547
   5   2.0000     -88.978937     -2421.2400
   6   2.0000     -88.966669     -2420.9061
   7   2.0000     -88.961826     -2420.7743
   8   2.0000     -24.784388      -674.4175
   9   2.0000     -19.259008      -524.0642
  10   2.0000     -19.211787      -522.7793
  11   2.0000     -19.204159      -522.5717
  12   2.0000     -14.433487      -392.7552
  13   2.0000     -14.432732      -392.7346
  14   2.0000     -14.425011      -392.5245
  15   2.0000     -14.423768      -392.4907
  16   2.0000     -14.413859      -392.2210
  17   2.0000     -14.411290      -392.1511
  18   2.0000     -10.403699      -283.0990
  19   2.0000     -10.367952      -282.1263
  20   2.0000     -10.366562      -282.0885
  21   2.0000     -10.363606      -282.0081
  22   2.0000     -10.359039      -281.8838
  23   2.0000     -10.353834      -281.7422
  24   2.0000     -10.346290      -281.5369
  25   2.0000     -10.340341      -281.3750
  26   2.0000     -10.338176      -281.3161
  27   2.0000     -10.335032      -281.2305
  28   2.0000     -10.333953      -281.2011
  29   2.0000     -10.333598      -281.1915
  30   2.0000     -10.333267      -281.1825
  31   2.0000     -10.331474      -281.1337
  32   2.0000     -10.331114      -281.1239
  33   2.0000     -10.329415      -281.0777
  34   2.0000     -10.327973      -281.0384
  35   2.0000     -10.327072      -281.0139
  36   2.0000     -10.326333      -280.9938
  37   2.0000     -10.326069      -280.9866
  38   2.0000     -10.325854      -280.9808
  39   2.0000     -10.325374      -280.9677
  40   2.0000     -10.323763      -280.9239
  41   2.0000     -10.322670      -280.8941
  42   2.0000     -10.320472      -280.8343
  43   2.0000     -10.318919      -280.7921
  44   2.0000     -10.316538      -280.7273
  45   2.0000     -10.314099      -280.6609
  46   2.0000     -10.313910      -280.6558
  47   2.0000     -10.313756      -280.6516
  48   2.0000     -10.313238      -280.6375
  49   2.0000     -10.307758      -280.4883
  50   2.0000     -10.305481      -280.4264
  51   2.0000     -10.304408      -280.3972
  52   2.0000     -10.304339      -280.3953
  53   2.0000     -10.303978      -280.3855
  54   2.0000     -10.303942      -280.3845
  55   2.0000     -10.303852      -280.3821
  56   2.0000     -10.303000      -280.3589
  57   2.0000     -10.300664      -280.2953
  58   2.0000     -10.299542      -280.2648
  59   2.0000     -10.299417      -280.2614
  60   2.0000     -10.299261      -280.2571
  61   2.0000     -10.298857      -280.2461
  62   2.0000     -10.298146      -280.2268
  63   2.0000     -10.297298      -280.2037
  64   2.0000     -10.296245      -280.1751
  65   2.0000     -10.296186      -280.1735
  66   2.0000     -10.296007      -280.1686
  67   2.0000     -10.295887      -280.1653
  68   2.0000     -10.295785      -280.1626
  69   2.0000     -10.294737      -280.1340
  70   2.0000     -10.294576      -280.1297
  71   2.0000     -10.293668      -280.1049
  72   2.0000     -10.293337      -280.0959
  73   2.0000     -10.292789      -280.0810
  74   2.0000     -10.291829      -280.0549
  75   2.0000     -10.288024      -279.9514
  76   2.0000     -10.287441      -279.9355
  77   2.0000     -10.285442      -279.8811
  78   2.0000     -10.285063      -279.8708
  79   2.0000      -8.086381      -220.0416
  80   2.0000      -8.083276      -219.9571
  81   2.0000      -8.082193      -219.9276
  82   2.0000      -8.079123      -219.8441
  83   2.0000      -8.074653      -219.7225
  84   2.0000      -8.073809      -219.6995
  85   2.0000      -8.062227      -219.3844
  86   2.0000      -8.056518      -219.2290
  87   2.0000      -6.055726      -164.7847
  88   2.0000      -6.052457      -164.6957
  89   2.0000      -6.051540      -164.6708
  90   2.0000      -6.051525      -164.6704
  91   2.0000      -6.048545      -164.5893
  92   2.0000      -6.048407      -164.5855
  93   2.0000      -6.048362      -164.5843
  94   2.0000      -6.047320      -164.5559
  95   2.0000      -6.045682      -164.5114
  96   2.0000      -6.044441      -164.4776
  97   2.0000      -6.044135      -164.4693
  98   2.0000      -6.043936      -164.4639
  99   2.0000      -6.043427      -164.4500
 100   2.0000      -6.041751      -164.4044
 101   2.0000      -6.039918      -164.3545
 102   2.0000      -6.038857      -164.3256
 103   2.0000      -6.036535      -164.2625
 104   2.0000      -6.035617      -164.2375
 105   2.0000      -6.031605      -164.1283
 106   2.0000      -6.027379      -164.0133
 107   2.0000      -6.026346      -163.9852
 108   2.0000      -6.024305      -163.9297
 109   2.0000      -6.022023      -163.8676
 110   2.0000      -6.017721      -163.7505
 111   2.0000      -1.299115       -35.3507
 112   2.0000      -1.190879       -32.4055
 113   2.0000      -1.126910       -30.6648
 114   2.0000      -1.097959       -29.8770
 115   2.0000      -1.045528       -28.4503
 116   2.0000      -1.039377       -28.2829
 117   2.0000      -1.025478       -27.9047
 118   2.0000      -1.021733       -27.8028
 119   2.0000      -1.019038       -27.7294
 120   2.0000      -1.015639       -27.6369
 121   2.0000      -1.014304       -27.6006
 122   2.0000      -1.010676       -27.5019
 123   2.0000      -1.001948       -27.2644
 124   2.0000      -0.998293       -27.1649
 125   2.0000      -0.996944       -27.1282
 126   2.0000      -0.992424       -27.0052
 127   2.0000      -0.990006       -26.9394
 128   2.0000      -0.981259       -26.7014
 129   2.0000      -0.972562       -26.4648
 130   2.0000      -0.964932       -26.2571
 131   2.0000      -0.957033       -26.0422
 132   2.0000      -0.948562       -25.8117
 133   2.0000      -0.940685       -25.5973
 134   2.0000      -0.926411       -25.2089
 135   2.0000      -0.920478       -25.0475
 136   2.0000      -0.912138       -24.8205
 137   2.0000      -0.906222       -24.6596
 138   2.0000      -0.893276       -24.3073
 139   2.0000      -0.888650       -24.1814
 140   2.0000      -0.883110       -24.0306
 141   2.0000      -0.880315       -23.9546
 142   2.0000      -0.866606       -23.5815
 143   2.0000      -0.860087       -23.4041
 144   2.0000      -0.858091       -23.3499
 145   2.0000      -0.857403       -23.3311
 146   2.0000      -0.853135       -23.2150
 147   2.0000      -0.847371       -23.0581
 148   2.0000      -0.845858       -23.0170
 149   2.0000      -0.832948       -22.6657
 150   2.0000      -0.826831       -22.4992
 151   2.0000      -0.817550       -22.2467
 152   2.0000      -0.814285       -22.1578
 153   2.0000      -0.801274       -21.8038
 154   2.0000      -0.798092       -21.7172
 155   2.0000      -0.786996       -21.4152
 156   2.0000      -0.776962       -21.1422
 157   2.0000      -0.772051       -21.0086
 158   2.0000      -0.763768       -20.7832
 159   2.0000      -0.758326       -20.6351
 160   2.0000      -0.745966       -20.2988
 161   2.0000      -0.729807       -19.8591
 162   2.0000      -0.723778       -19.6950
 163   2.0000      -0.717979       -19.5372
 164   2.0000      -0.714603       -19.4453
 165   2.0000      -0.707444       -19.2505
 166   2.0000      -0.703369       -19.1396
 167   2.0000      -0.697826       -18.9888
 168   2.0000      -0.696890       -18.9633
 169   2.0000      -0.681972       -18.5574
 170   2.0000      -0.681307       -18.5393
 171   2.0000      -0.678295       -18.4573
 172   2.0000      -0.673393       -18.3239
 173   2.0000      -0.671525       -18.2731
 174   2.0000      -0.659955       -17.9583
 175   2.0000      -0.653405       -17.7800
 176   2.0000      -0.646002       -17.5786
 177   2.0000      -0.638066       -17.3627
 178   2.0000      -0.636275       -17.3139
 179   2.0000      -0.635718       -17.2988
 180   2.0000      -0.634087       -17.2544
 181   2.0000      -0.629596       -17.1322
 182   2.0000      -0.628440       -17.1007
 183   2.0000      -0.622207       -16.9311
 184   2.0000      -0.618783       -16.8380
 185   2.0000      -0.615704       -16.7542
 186   2.0000      -0.610399       -16.6098
 187   2.0000      -0.605938       -16.4884
 188   2.0000      -0.598872       -16.2961
 189   2.0000      -0.590026       -16.0554
 190   2.0000      -0.586904       -15.9705
 191   2.0000      -0.581716       -15.8293
 192   2.0000      -0.574803       -15.6412
 193   2.0000      -0.570358       -15.5202
 194   2.0000      -0.569800       -15.5050
 195   2.0000      -0.568993       -15.4831
 196   2.0000      -0.565660       -15.3924
 197   2.0000      -0.561792       -15.2871
 198   2.0000      -0.556800       -15.1513
 199   2.0000      -0.554652       -15.0928
 200   2.0000      -0.552833       -15.0434
 201   2.0000      -0.548610       -14.9284
 202   2.0000      -0.547594       -14.9008
 203   2.0000      -0.543350       -14.7853
 204   2.0000      -0.541977       -14.7479
 205   2.0000      -0.540085       -14.6965
 206   2.0000      -0.534625       -14.5479
 207   2.0000      -0.532509       -14.4903
 208   2.0000      -0.529750       -14.4152
 209   2.0000      -0.524080       -14.2609
 210   2.0000      -0.522416       -14.2157
 211   2.0000      -0.521960       -14.2033
 212   2.0000      -0.521122       -14.1804
 213   2.0000      -0.518966       -14.1218
 214   2.0000      -0.516144       -14.0450
 215   2.0000      -0.509830       -13.8732
 216   2.0000      -0.507728       -13.8160
 217   2.0000      -0.506098       -13.7716
 218   2.0000      -0.503290       -13.6952
 219   2.0000      -0.499758       -13.5991
 220   2.0000      -0.499206       -13.5841
 221   2.0000      -0.498346       -13.5607
 222   2.0000      -0.496666       -13.5150
 223   2.0000      -0.495684       -13.4883
 224   2.0000      -0.494428       -13.4541
 225   2.0000      -0.489529       -13.3208
 226   2.0000      -0.487766       -13.2728
 227   2.0000      -0.486905       -13.2493
 228   2.0000      -0.484309       -13.1787
 229   2.0000      -0.483731       -13.1630
 230   2.0000      -0.482103       -13.1187
 231   2.0000      -0.474900       -12.9227
 232   2.0000      -0.472547       -12.8587
 233   2.0000      -0.469745       -12.7824
 234   2.0000      -0.469502       -12.7758
 235   2.0000      -0.465876       -12.6771
 236   2.0000      -0.464944       -12.6518
 237   2.0000      -0.464488       -12.6394
 238   2.0000      -0.461118       -12.5477
 239   2.0000      -0.460924       -12.5424
 240   2.0000      -0.455698       -12.4002
 241   2.0000      -0.455080       -12.3834
 242   2.0000      -0.453414       -12.3380
 243   2.0000      -0.452384       -12.3100
 244   2.0000      -0.451088       -12.2747
 245   2.0000      -0.448538       -12.2054
 246   2.0000      -0.447611       -12.1801
 247   2.0000      -0.444476       -12.0948
 248   2.0000      -0.443385       -12.0651
 249   2.0000      -0.441471       -12.0130
 250   2.0000      -0.440748       -11.9934
 251   2.0000      -0.440047       -11.9743
 252   2.0000      -0.439492       -11.9592
 253   2.0000      -0.437677       -11.9098
 254   2.0000      -0.436913       -11.8890
 255   2.0000      -0.434699       -11.8287
 256   2.0000      -0.433304       -11.7908
 257   2.0000      -0.432721       -11.7749
 258   2.0000      -0.431335       -11.7372
 259   2.0000      -0.429701       -11.6927
 260   2.0000      -0.428923       -11.6716
 261   2.0000      -0.425927       -11.5901
 262   2.0000      -0.425495       -11.5783
 263   2.0000      -0.425212       -11.5706
 264   2.0000      -0.423578       -11.5262
 265   2.0000      -0.422777       -11.5043
 266   2.0000      -0.421328       -11.4649
 267   2.0000      -0.418197       -11.3797
 268   2.0000      -0.415353       -11.3023
 269   2.0000      -0.412956       -11.2371
 270   2.0000      -0.404837       -11.0162
 271   2.0000      -0.401418       -10.9231
 272   2.0000      -0.395156       -10.7527
 273   2.0000      -0.384747       -10.4695
 274   2.0000      -0.382594       -10.4109
 275   2.0000      -0.376990       -10.2584
 276   2.0000      -0.375707       -10.2235
 277   2.0000      -0.360033        -9.7970
 278   2.0000      -0.357739        -9.7346
 279   2.0000      -0.350746        -9.5443
 280   2.0000      -0.348757        -9.4901
 281   2.0000      -0.344149        -9.3648
 282   2.0000      -0.339226        -9.2308
 283   2.0000      -0.335094        -9.1184
 284   2.0000      -0.328915        -8.9502
 285   2.0000      -0.325175        -8.8485
 286   2.0000      -0.319705        -8.6996
 287   2.0000      -0.316853        -8.6220
 288   2.0000      -0.311009        -8.4630
 289   2.0000      -0.305256        -8.3064
 290   2.0000      -0.297350        -8.0913
 291   2.0000      -0.287805        -7.8316
 292   2.0000      -0.278767        -7.5856
 293   2.0000      -0.246433        -6.7058
 294   2.0000      -0.223901        -6.0926
 295   0.0000      -0.112146        -3.0517
 296   0.0000      -0.099275        -2.7014
 297   0.0000      -0.097828        -2.6620
 298   0.0000      -0.066360        -1.8058
 299   0.0000      -0.056350        -1.5334

MULLIKEN ATOMIC CHARGES
-----------------------
   0 C :   -0.099310
   1 C :    0.303954
   2 F :   -0.191443
   3 C :   -0.030509
   4 C :   -0.009765
   5 C :    0.100733
   6 C :    0.102460
   7 C :   -0.087787
   8 C :    0.041248
   9 C :    0.009956
  10 C :   -0.081303
  11 C :    0.140482
  12 O :   -0.141314
  13 C :   -0.134640
  14 C :    0.258553
  15 C :   -0.323546
  16 C :   -0.209460
  17 N :    0.169120
  18 C :   -0.178100
  19 N :    0.149562
  20 C :    0.035711
  21 C :   -0.110366
  22 C :    0.010763
  23 C :    0.060219
  24 C :    0.077637
  25 C :   -0.118215
  26 S :    0.146377
  27 C :   -0.099059
  28 C :    0.043879
  29 C :    0.002124
  30 C :   -0.068689
  31 S :    0.141709
  32 C :    0.104787
  33 C :   -0.030017
  34 C :    0.040365
  35 C :   -0.078403
  36 C :   -0.035783
  37 C :    0.007911
  38 C :   -0.106727
  39 S :    0.185822
  40 C :   -0.096585
  41 C :    0.003250
  42 C :    0.306139
  43 C :   -0.292124
  44 C :   -0.184732
  45 N :    0.167529
  46 C :   -0.186444
  47 N :    0.168765
  48 C :   -0.053132
  49 C :   -0.059718
  50 S :    0.181938
  51 C :   -0.087501
  52 S :    0.139378
  53 C :   -0.115225
  54 C :   -0.049798
  55 C :    0.125130
  56 C :   -0.014296
  57 C :   -0.135440
  58 C :    0.207136
  59 O :   -0.191937
  60 O :   -0.299151
  61 C :    0.188556
  62 S :    0.167854
  63 C :   -0.066988
  64 C :   -0.056760
  65 C :    0.007019
  66 C :   -0.102953
  67 S :    0.175653
  68 C :   -0.116282
  69 C :   -0.032493
  70 C :    0.298537
  71 C :   -0.298437
  72 C :   -0.185944
  73 N :    0.176434
  74 C :   -0.192781
  75 N :    0.175355
  76 C :    0.037001
  77 C :   -0.084043
  78 S :    0.176477
  79 H :   -0.003253
  80 H :    0.003010
  81 H :   -0.008493
  82 H :   -0.004666
  83 H :   -0.011061
  84 H :    0.034142
  85 H :   -0.005370
  86 H :    0.040045
  87 H :   -0.013527
  88 H :    0.029584
  89 H :   -0.018194
  90 H :   -0.024613
  91 H :    0.006180
  92 H :   -0.003019
  93 H :    0.010869
  94 H :    0.041408
  95 H :    0.036556
  96 H :    0.033812
  97 H :    0.010931
  98 H :    0.011436
  99 H :    0.035898
Sum of atomic charges:   -0.0000000

LOEWDIN ATOMIC CHARGES
----------------------
   0 C :   -0.042833
   1 C :    0.093229
   2 F :   -0.065696
   3 C :   -0.037914
   4 C :    0.004695
   5 C :   -0.019447
   6 C :    0.003651
   7 C :    0.008269
   8 C :   -0.015675
   9 C :   -0.059613
  10 C :    0.034268
  11 C :    0.082388
  12 O :   -0.144423
  13 C :   -0.102513
  14 C :    0.057042
  15 C :   -0.144940
  16 C :   -0.035407
  17 N :   -0.055674
  18 C :   -0.019146
  19 N :   -0.054774
  20 C :    0.045520
  21 C :   -0.183744
  22 C :    0.029976
  23 C :   -0.026953
  24 C :   -0.052071
  25 C :   -0.126169
  26 S :    0.478974
  27 C :   -0.183181
  28 C :   -0.043839
  29 C :   -0.063911
  30 C :   -0.162534
  31 S :    0.435273
  32 C :   -0.018542
  33 C :   -0.010156
  34 C :   -0.045412
  35 C :   -0.159359
  36 C :   -0.029000
  37 C :   -0.066803
  38 C :   -0.187491
  39 S :    0.471524
  40 C :   -0.179131
  41 C :   -0.069926
  42 C :    0.084879
  43 C :   -0.103000
  44 C :   -0.015059
  45 N :   -0.034579
  46 C :   -0.014863
  47 N :   -0.035570
  48 C :   -0.029699
  49 C :   -0.177682
  50 S :    0.462844
  51 C :   -0.185537
  52 S :    0.433979
  53 C :   -0.211683
  54 C :   -0.180321
  55 C :   -0.071245
  56 C :   -0.018959
  57 C :   -0.191235
  58 C :    0.063197
  59 O :   -0.169966
  60 O :   -0.089668
  61 C :    0.083923
  62 S :    0.448609
  63 C :   -0.181025
  64 C :   -0.035840
  65 C :   -0.066223
  66 C :   -0.185043
  67 S :    0.461638
  68 C :   -0.182662
  69 C :   -0.078763
  70 C :    0.082501
  71 C :   -0.101559
  72 C :   -0.019375
  73 N :   -0.027769
  74 C :   -0.016292
  75 N :   -0.033801
  76 C :   -0.033885
  77 C :   -0.180110
  78 S :    0.473229
  79 H :    0.042766
  80 H :    0.041687
  81 H :    0.035776
  82 H :    0.038751
  83 H :    0.039783
  84 H :    0.051480
  85 H :    0.043041
  86 H :    0.038705
  87 H :    0.029185
  88 H :    0.025244
  89 H :    0.029748
  90 H :    0.027660
  91 H :    0.038304
  92 H :    0.038230
  93 H :    0.038946
  94 H :    0.029038
  95 H :    0.025054
  96 H :    0.024175
  97 H :    0.030944
  98 H :    0.042398
  99 H :    0.027166

  Mayer bond orders larger than 0.100000
B(  0-C ,  1-C ) :   1.4401 B(  0-C ,  6-C ) :   1.2039 B(  0-C , 79-H ) :   1.0070
B(  1-C ,  2-F ) :   1.0874 B(  1-C ,  3-C ) :   1.2560 B(  3-C ,  4-C ) :   1.4601
B(  3-C , 80-H ) :   0.9928 B(  4-C ,  5-C ) :   1.2350 B(  4-C , 81-H ) :   0.9973
B(  5-C ,  6-C ) :   1.2572 B(  5-C , 10-C ) :   1.1897 B(  6-C ,  7-C ) :   1.2010
B(  7-C ,  8-C ) :   1.4640 B(  7-C , 82-H ) :   0.9950 B(  8-C ,  9-C ) :   1.2167
B(  8-C , 14-C ) :   0.9999 B(  9-C , 10-C ) :   1.4723 B(  9-C , 11-C ) :   0.9215
B( 10-C , 83-H ) :   1.0159 B( 11-C , 12-O ) :   2.2737 B( 11-C , 13-C ) :   0.9418
B( 13-C , 14-C ) :   1.0525 B( 13-C , 20-C ) :   1.6044 B( 14-C , 15-C ) :   1.6364
B( 15-C , 16-C ) :   1.1558 B( 15-C , 18-C ) :   1.1440 B( 16-C , 17-N ) :   3.0170
B( 18-C , 19-N ) :   2.9837 B( 20-C , 21-C ) :   1.1389 B( 20-C , 84-H ) :   0.9486
B( 21-C , 22-C ) :   1.4667 B( 21-C , 26-S ) :   1.0488 B( 22-C , 23-C ) :   1.2543
B( 22-C , 85-H ) :   0.9740 B( 23-C , 24-C ) :   1.0465 B( 23-C , 32-C ) :   1.3391
B( 24-C , 25-C ) :   1.5945 B( 24-C , 27-C ) :   1.1862 B( 25-C , 26-S ) :   1.1544
B( 25-C , 86-H ) :   0.9421 B( 27-C , 28-C ) :   1.4320 B( 27-C , 31-S ) :   1.0924
B( 28-C , 29-C ) :   1.2057 B( 28-C , 32-C ) :   1.1045 B( 29-C , 30-C ) :   1.5937
B( 29-C , 87-H ) :   0.9985 B( 30-C , 31-S ) :   1.1496 B( 30-C , 88-H ) :   0.9659
B( 32-C , 33-C ) :   1.1879 B( 33-C , 34-C ) :   1.6333 B( 33-C , 89-H ) :   0.9587
B( 34-C , 35-C ) :   1.1306 B( 34-C , 90-H ) :   0.9628 B( 35-C , 36-C ) :   1.4396
B( 35-C , 39-S ) :   1.1005 B( 36-C , 37-C ) :   1.3122 B( 36-C , 91-H ) :   0.9883
B( 37-C , 38-C ) :   1.4210 B( 37-C , 42-C ) :   0.9976 B( 38-C , 39-S ) :   1.1190
B( 38-C , 40-C ) :   1.2080 B( 40-C , 41-C ) :   1.4305 B( 40-C , 50-S ) :   1.1168
B( 41-C , 42-C ) :   0.9968 B( 41-C , 48-C ) :   1.3029 B( 42-C , 43-C ) :   1.7102
B( 43-C , 44-C ) :   1.1348 B( 43-C , 46-C ) :   1.1292 B( 44-C , 45-N ) :   2.9851
B( 46-C , 47-N ) :   2.9969 B( 48-C , 49-C ) :   1.4556 B( 48-C , 92-H ) :   0.9918
B( 49-C , 50-S ) :   1.0895 B( 49-C , 51-C ) :   1.1631 B( 51-C , 52-S ) :   1.1188
B( 51-C , 53-C ) :   0.1258 B( 51-C , 55-C ) :   1.4160 B( 52-S , 53-C ) :   1.1099
B( 53-C , 54-C ) :   1.5412 B( 53-C , 63-C ) :   1.1574 B( 54-C , 55-C ) :   1.2405
B( 54-C , 62-S ) :   1.0576 B( 55-C , 56-C ) :   1.1215 B( 56-C , 57-C ) :   1.6246
B( 56-C , 93-H ) :   0.9983 B( 57-C , 58-C ) :   0.9534 B( 57-C , 62-S ) :   1.0698
B( 58-C , 59-O ) :   2.1480 B( 58-C , 60-O ) :   1.2450 B( 60-O , 61-C ) :   0.9173
B( 61-C , 94-H ) :   0.9810 B( 61-C , 95-H ) :   0.9750 B( 61-C , 96-H ) :   0.9773
B( 63-C , 64-C ) :   1.4738 B( 63-C , 67-S ) :   1.0959 B( 64-C , 65-C ) :   1.3050
B( 64-C , 97-H ) :   0.9822 B( 65-C , 66-C ) :   1.4629 B( 65-C , 70-C ) :   0.9906
B( 66-C , 67-S ) :   1.1157 B( 66-C , 68-C ) :   1.1872 B( 68-C , 69-C ) :   1.4559
B( 68-C , 78-S ) :   1.1357 B( 69-C , 70-C ) :   1.0190 B( 69-C , 76-C ) :   1.2755
B( 70-C , 71-C ) :   1.7110 B( 71-C , 72-C ) :   1.1332 B( 71-C , 74-C ) :   1.1317
B( 72-C , 73-N ) :   2.9883 B( 74-C , 75-N ) :   3.0030 B( 76-C , 77-C ) :   1.5498
B( 76-C , 98-H ) :   0.9965 B( 77-C , 78-S ) :   1.1452 B( 77-C , 99-H ) :   0.9643

-----------------------------------------------------------------------------
         ABSORPTION SPECTRUM VIA TRANSITION ELECTRIC DIPOLE MOMENTS
-----------------------------------------------------------------------------
State   Energy  Wavelength   fosc         T2         TX        TY        TZ
        (cm-1)    (nm)                  (au**2)     (au)      (au)      (au)
-----------------------------------------------------------------------------
   0    8761.7   1141.3   0.383368687  14.40468   1.52404   1.92878   2.89168
   1   12224.1    818.1   0.217418259   5.85539  -0.59568  -1.94840  -1.30548
   2   13427.5    744.7   0.825322081  20.23497  -0.12110   1.97016   4.04212
   3   16221.4    616.5   0.025117341   0.50975   0.66120   0.26306  -0.05800
   4   19403.4    515.4   1.088814345  18.47360  -3.02011  -2.18250  -2.14225
   5   20702.8    483.0   0.148529334   2.36189  -0.95137   0.80475   0.89954
   6   21442.9    466.4   0.039520775   0.60676   0.04841   0.56887   0.52991
   7   22260.0    449.2   0.014805021   0.21896  -0.28470  -0.36636  -0.06068
   8   22424.4    445.9   0.056761527   0.83331   0.64095   0.53328   0.37163
   9   23363.1    428.0   0.014311295   0.20166   0.00024   0.14747   0.42416
  10   23688.5    422.1   0.017665700   0.24551  -0.16843  -0.18957  -0.42568
  11   25449.0    392.9   0.040080373   0.51848   0.30966  -0.63219   0.15143
  12   26247.8    381.0   0.047007641   0.58959   0.03300  -0.50953  -0.57348
  13   26892.7    371.8   0.141206925   1.72861   0.97901  -0.81970   0.31344
  14   27117.4    368.8   0.101994072   1.23823  -0.70003   0.32261  -0.80256
  15   27461.6    364.1   0.050706601   0.60788   0.39728  -0.66939   0.04424
  16   28483.6    351.1   0.086982716   1.00534   0.74737  -0.12797   0.65605
  17   28599.2    349.7   0.156854509   1.80559  -1.03670  -0.14990  -0.84164
  18   29048.2    344.3   0.022721215   0.25751  -0.29994   0.33407   0.23651
  19   29155.2    343.0   0.022867889   0.25822  -0.00107  -0.33512  -0.38199
  20   29928.0    334.1   0.311552736   3.42712  -0.49220  -1.70319  -0.53290
  21   30727.9    325.4   0.011777275   0.12618  -0.24360  -0.23007   0.11794
  22   30908.6    323.5   0.014713245   0.15671   0.12231  -0.36450  -0.09431
  23   31033.2    322.2   0.040150964   0.42594   0.58787   0.20072   0.20013
  24   31426.6    318.2   0.288349958   3.02064  -0.21358   1.69657   0.31095
  25   31808.0    314.4   0.647028203   6.69672   1.80922  -1.10196   1.48631
  26   32078.4    311.7   0.005311737   0.05451  -0.13706   0.15067   0.11414
  27   32276.2    309.8   0.140902722   1.43719   0.74336  -0.90912   0.24103
  28   32380.2    308.8   0.141247299   1.43607  -0.37978  -0.34406  -1.08327
  29   32847.0    304.4   0.556387919   5.57644  -0.61224   2.19427   0.62194
  30   32989.5    303.1   0.155628716   1.55307   0.08404   0.02564  -1.24312
  31   33168.4    301.5   0.093466412   0.92770   0.36090  -0.85205  -0.26732
  32   33373.2    299.6   0.223536035   2.20509  -0.65077  -0.59033  -1.19712
  33   33444.8    299.0   0.336541379   3.31272  -0.65924   1.55201   0.68512
  34   33765.7    296.2   0.107137997   1.04458  -0.54939   0.36499  -0.78073
  35   34094.4    293.3   0.140941427   1.36091   1.14367  -0.03439  -0.22748
  36   34231.0    292.1   0.546328444   5.25424  -0.71798   1.35635   1.70267
  37   34365.2    291.0   0.026071046   0.24976   0.20259  -0.12596  -0.43914
  38   34673.6    288.4   0.084786790   0.80502  -0.67607   0.49454   0.32151
  39   34958.4    286.1   0.039936198   0.37609   0.42515  -0.42276  -0.12888
  40   35334.4    283.0   0.086608322   0.80693  -0.46604   0.73233   0.23115
  41   35596.4    280.9   0.129987513   1.20218   0.60834  -0.86432  -0.29164
  42   35666.4    280.4   0.104051595   0.96043  -0.70745   0.63337  -0.24245
  43   35848.6    279.0   0.005321647   0.04887   0.10104  -0.19359   0.03442
  44   36064.3    277.3   0.016421695   0.14991   0.19009   0.31622   0.11739
  45   36436.7    274.4   0.150042004   1.35566  -0.45730   1.06966   0.04870
  46   36656.3    272.8   0.020621315   0.18520   0.39924   0.15584   0.03904
  47   36848.1    271.4   0.008475650   0.07572  -0.06633   0.09511  -0.24956
  48   37488.0    266.8   0.093654801   0.82246   0.71520  -0.46245   0.31159
  49   38140.7    262.2   0.068952997   0.59517  -0.14311   0.66856   0.35737
  50   38356.7    260.7   0.066572162   0.57138   0.11314  -0.16807   0.72824
  51   38607.6    259.0   0.006336209   0.05403   0.21896  -0.07797  -0.00231
  52   38717.0    258.3   0.237077193   2.01587  -0.55180   1.23495  -0.43161
  53   38791.0    257.8   0.034890911   0.29611  -0.13931   0.50092  -0.16059
  54   38848.8    257.4   0.018872342   0.15993   0.22856  -0.25626  -0.20499
  55   39162.8    255.3   0.010082276   0.08475  -0.03747   0.23568  -0.16675
  56   39245.1    254.8   0.046037787   0.38619   0.40240  -0.36845  -0.29751
  57   39445.0    253.5   0.106031926   0.88495   0.51093  -0.47365   0.63211
  58   39555.0    252.8   0.073863300   0.61476  -0.08762  -0.75817  -0.17961
  59   39643.3    252.2   0.032628960   0.27096   0.09905  -0.41941   0.29196
  60   40096.8    249.4   0.022662536   0.18607   0.29137  -0.31637  -0.03290

FINAL SINGLE POINT ENERGY     -6171.780681728406

DIPOLE MOMENT
-------------
                                X             Y             Z
Electronic contribution:     -0.29804     -28.57633      -7.74830
Nuclear contribution   :      3.73545      28.25231       8.74684
                        -----------------------------------------
Total Dipole Moment    :      3.43742      -0.32402       0.99854
                        -----------------------------------------
Magnitude (a.u.)       :      3.59415
Magnitude (Debye)      :      9.13560

Rotational constants in cm-1:     0.001108     0.000165     0.000157
Rotational constants in MHz :    33.221807     4.940299     4.720379

                             ****ORCA TERMINATED NORMALLY****
TOTAL RUN TIME: 0 days 0 hours 11 minutes 28 seconds 83 msec
