                         Program Version 4.2.0 -  RELEASE  -
|  1> # ORCA input file
|  2> # SCF done       -177.942445796329          0.000258025821
|  3> ! CAM-B3LYP def2-SVP def2/J RIJCOSX Grid4 TightSCF
|  4> %maxcore 5000
|  5> %tddft
|  6>     Mode sTDDFT
|  7>     Ethresh 5.0
|  8>     maxcore 5000
|  9> end
| 10>
| 11> %pal
| 12>   nprocs 6
| 13>   end
| 14> * xyz 0 1
| 15>    C       15.80149         0.17925         7.59649
| 16>    C       16.63390         1.12580         8.12610
| 17>    F       17.29094         0.86380         9.27101
| 18>    C       16.83584         2.37293         7.52009
| 19>    C       16.17744         2.65640         6.35571
| 20>    C       15.30783         1.71701         5.76526
| 21>    C       15.11418         0.45493         6.39879
| 22>    C       14.23867        -0.50041         5.83073
| 23>    C       13.58566        -0.20145         4.66666
| 24>    C       13.79548         1.05543         4.02847
| 25>    C       14.62733         1.99824         4.55881
| 26>    C       13.00679         1.10699         2.78188
| 27>    O       12.90104         2.02752         2.00396
| 28>    C       12.41502        -0.25182         2.64083
| 29>    C       12.61362        -0.95815         3.88324
| 30>    C       11.83485        -1.98386         4.36070
| 31>    C       10.70650        -2.47583         3.67489
| 32>    N        9.75553        -2.86164         3.15868
| 33>    C       12.01603        -2.58474         5.62089
| 34>    N       12.13672        -3.12087         6.62903
| 35>    C       11.87642        -0.62894         1.44477
| 36>    C       11.65466        -1.93054         0.92727
| 37>    C       10.76446        -2.14065        -0.10754
| 38>    C       10.47006        -3.37638        -0.66286
| 39>    C       11.14962        -4.59198        -0.21585
| 40>    C       12.10562        -4.62013         0.73924
| 41>    S       12.64212        -3.23313         1.58481
| 42>    C       10.59594        -5.64179        -0.99748
| 43>    C        9.63720        -5.13363        -1.88066
| 44>    C        9.05449        -6.16240        -2.65699
| 45>    C        9.57723        -7.37954        -2.35604
| 46>    S       10.78982        -7.34051        -1.12268
| 47>    C        9.54620        -3.70866        -1.68898
| 48>    C        8.72839        -2.77341        -2.34521
| 49>    C        7.91365        -3.02423        -3.41353
| 50>    C        7.09689        -2.07803        -4.05352
| 51>    S        6.30955        -2.53894        -5.54565
| 52>    C        5.57867        -0.97176        -5.77689
| 53>    C        5.92788        -0.14845        -4.71785
| 54>    C        6.76961        -0.75021        -3.74146
| 55>    C        7.04849         0.14447        -2.68361
| 56>    C        6.46473         1.36394        -2.86263
| 57>    C        6.57153         2.50407        -1.95124
| 58>    O        7.20850         2.49456        -0.92613
| 59>    O        5.87760         3.55397        -2.40517
| 60>    C        5.91172         4.72379        -1.60277
| 61>    S        5.52996         1.49342        -4.33008
| 62>    C        4.78006        -0.67809        -6.90322
| 63>    C        4.16211         0.52871        -7.20104
| 64>    C        3.46125         0.46833        -8.40128
| 65>    C        3.53983        -0.78720        -9.02656
| 66>    S        4.48143        -1.89876        -8.13102
| 67>    C        2.79979        -0.73544       -10.23401
| 68>    C        2.25358         0.55198       -10.37256
| 69>    C        2.64815         1.35164        -9.22969
| 70>    C        2.33253         2.65500        -8.97780
| 71>    C        2.78171         3.33110        -7.82419
| 72>    N        3.14310         3.88830        -6.88938
| 73>    C        1.53442         3.41384        -9.85932
| 74>    N        0.88595         4.03172       -10.57543
| 75>    C        1.50417         0.69819       -11.54488
| 76>    C        1.47567        -0.45567       -12.29445
| 77>    S        2.39475        -1.75678       -11.53696
| 78>    C        0.81518        -0.68312       -13.55055
| 79>    C        0.89958        -1.90590       -14.23161
| 80>    N        0.30047        -2.12584       -15.38341
| 81>    C       -0.40227        -1.12858       -15.89253
| 82>    N       -0.55890         0.06609       -15.34937
| 83>    C        0.03689         0.29072       -14.19679
| 84>    H       15.66698        -0.76909         8.09284
| 85>    H       17.50449         3.08041         7.98422
| 86>    H       16.31676         3.61051         5.87002
| 87>    H       14.11355        -1.45021         6.32637
| 88>    H       14.76527         2.94862         4.06535
| 89>    H       11.65583         0.19109         0.76760
| 90>    H       10.23433        -1.26575        -0.45875
| 91>    H       12.60366        -5.52877         1.03860
| 92>    H        8.28431        -6.03545        -3.39486
| 93>    H        9.32073        -8.32644        -2.78937
| 94>    H        8.78030        -1.76226        -1.97366
| 95>    H        7.90442        -4.01157        -3.84966
| 96>    H        7.62799        -0.06853        -1.80551
| 97>    H        5.33286         5.47248        -2.13670
| 98>    H        6.94221         5.05744        -1.46425
| 99>    H        5.47286         4.52316        -0.62317
|100>    H        4.23074         1.39365        -6.56813
|101>    H        1.00726         1.60578       -11.83417
|102>    H        1.47394        -2.73104       -13.82603
|103>    H       -0.89406        -1.30652       -16.83909
|104>    H       -0.11054         1.27524       -13.77372
|105> *
|106>
|107>                          ****END OF INPUT****

CARTESIAN COORDINATES (ANGSTROEM)
---------------------------------
  C     15.801490    0.179250    7.596490
  C     16.633900    1.125800    8.126100
  F     17.290940    0.863800    9.271010
  C     16.835840    2.372930    7.520090
  C     16.177440    2.656400    6.355710
  C     15.307830    1.717010    5.765260
  C     15.114180    0.454930    6.398790
  C     14.238670   -0.500410    5.830730
  C     13.585660   -0.201450    4.666660
  C     13.795480    1.055430    4.028470
  C     14.627330    1.998240    4.558810
  C     13.006790    1.106990    2.781880
  O     12.901040    2.027520    2.003960
  C     12.415020   -0.251820    2.640830
  C     12.613620   -0.958150    3.883240
  C     11.834850   -1.983860    4.360700
  C     10.706500   -2.475830    3.674890
  N      9.755530   -2.861640    3.158680
  C     12.016030   -2.584740    5.620890
  N     12.136720   -3.120870    6.629030
  C     11.876420   -0.628940    1.444770
  C     11.654660   -1.930540    0.927270
  C     10.764460   -2.140650   -0.107540
  C     10.470060   -3.376380   -0.662860
  C     11.149620   -4.591980   -0.215850
  C     12.105620   -4.620130    0.739240
  S     12.642120   -3.233130    1.584810
  C     10.595940   -5.641790   -0.997480
  C      9.637200   -5.133630   -1.880660
  C      9.054490   -6.162400   -2.656990
  C      9.577230   -7.379540   -2.356040
  S     10.789820   -7.340510   -1.122680
  C      9.546200   -3.708660   -1.688980
  C      8.728390   -2.773410   -2.345210
  C      7.913650   -3.024230   -3.413530
  C      7.096890   -2.078030   -4.053520
  S      6.309550   -2.538940   -5.545650
  C      5.578670   -0.971760   -5.776890
  C      5.927880   -0.148450   -4.717850
  C      6.769610   -0.750210   -3.741460
  C      7.048490    0.144470   -2.683610
  C      6.464730    1.363940   -2.862630
  C      6.571530    2.504070   -1.951240
  O      7.208500    2.494560   -0.926130
  O      5.877600    3.553970   -2.405170
  C      5.911720    4.723790   -1.602770
  S      5.529960    1.493420   -4.330080
  C      4.780060   -0.678090   -6.903220
  C      4.162110    0.528710   -7.201040
  C      3.461250    0.468330   -8.401280
  C      3.539830   -0.787200   -9.026560
  S      4.481430   -1.898760   -8.131020
  C      2.799790   -0.735440  -10.234010
  C      2.253580    0.551980  -10.372560
  C      2.648150    1.351640   -9.229690
  C      2.332530    2.655000   -8.977800
  C      2.781710    3.331100   -7.824190
  N      3.143100    3.888300   -6.889380
  C      1.534420    3.413840   -9.859320
  N      0.885950    4.031720  -10.575430
  C      1.504170    0.698190  -11.544880
  C      1.475670   -0.455670  -12.294450
  S      2.394750   -1.756780  -11.536960
  C      0.815180   -0.683120  -13.550550
  C      0.899580   -1.905900  -14.231610
  N      0.300470   -2.125840  -15.383410
  C     -0.402270   -1.128580  -15.892530
  N     -0.558900    0.066090  -15.349370
  C      0.036890    0.290720  -14.196790
  H     15.666980   -0.769090    8.092840
  H     17.504490    3.080410    7.984220
  H     16.316760    3.610510    5.870020
  H     14.113550   -1.450210    6.326370
  H     14.765270    2.948620    4.065350
  H     11.655830    0.191090    0.767600
  H     10.234330   -1.265750   -0.458750
  H     12.603660   -5.528770    1.038600
  H      8.284310   -6.035450   -3.394860
  H      9.320730   -8.326440   -2.789370
  H      8.780300   -1.762260   -1.973660
  H      7.904420   -4.011570   -3.849660
  H      7.627990   -0.068530   -1.805510
  H      5.332860    5.472480   -2.136700
  H      6.942210    5.057440   -1.464250
  H      5.472860    4.523160   -0.623170
  H      4.230740    1.393650   -6.568130
  H      1.007260    1.605780  -11.834170
  H      1.473940   -2.731040  -13.826030
  H     -0.894060   -1.306520  -16.839090
  H     -0.110540    1.275240  -13.773720

 Total Charge           Charge          ....    0
 Multiplicity           Mult            ....    1
 Number of Electrons    NEL             ....  510
 Basis Dimension        Dim             .... 1095

ORBITAL ENERGIES
----------------

  NO   OCC          E(Eh)            E(eV)
   0   2.0000     -88.991453     -2421.5805
   1   2.0000     -88.991374     -2421.5784
   2   2.0000     -88.979814     -2421.2638
   3   2.0000     -88.976588     -2421.1760
   4   2.0000     -88.967673     -2420.9335
   5   2.0000     -88.964791     -2420.8550
   6   2.0000     -24.784078      -674.4091
   7   2.0000     -19.264821      -524.2224
   8   2.0000     -19.211092      -522.7604
   9   2.0000     -19.206272      -522.6292
  10   2.0000     -14.431599      -392.7038
  11   2.0000     -14.430836      -392.6830
  12   2.0000     -14.415272      -392.2595
  13   2.0000     -14.414316      -392.2335
  14   2.0000     -14.413032      -392.1985
  15   2.0000     -14.410190      -392.1212
  16   2.0000     -10.406778      -283.1828
  17   2.0000     -10.367588      -282.1164
  18   2.0000     -10.365685      -282.0646
  19   2.0000     -10.362859      -281.9877
  20   2.0000     -10.352665      -281.7103
  21   2.0000     -10.339599      -281.3548
  22   2.0000     -10.337503      -281.2977
  23   2.0000     -10.335909      -281.2544
  24   2.0000     -10.335407      -281.2407
  25   2.0000     -10.334890      -281.2267
  26   2.0000     -10.331876      -281.1446
  27   2.0000     -10.331828      -281.1433
  28   2.0000     -10.331004      -281.1209
  29   2.0000     -10.330213      -281.0994
  30   2.0000     -10.328807      -281.0611
  31   2.0000     -10.328062      -281.0408
  32   2.0000     -10.327246      -281.0186
  33   2.0000     -10.325777      -280.9787
  34   2.0000     -10.325308      -280.9659
  35   2.0000     -10.324438      -280.9422
  36   2.0000     -10.323006      -280.9033
  37   2.0000     -10.319642      -280.8117
  38   2.0000     -10.315682      -280.7040
  39   2.0000     -10.315538      -280.7001
  40   2.0000     -10.314790      -280.6797
  41   2.0000     -10.313627      -280.6480
  42   2.0000     -10.312939      -280.6293
  43   2.0000     -10.309148      -280.5262
  44   2.0000     -10.306192      -280.4458
  45   2.0000     -10.304996      -280.4132
  46   2.0000     -10.304988      -280.4130
  47   2.0000     -10.303911      -280.3837
  48   2.0000     -10.303388      -280.3694
  49   2.0000     -10.303129      -280.3624
  50   2.0000     -10.302151      -280.3358
  51   2.0000     -10.301875      -280.3283
  52   2.0000     -10.301132      -280.3081
  53   2.0000     -10.298763      -280.2436
  54   2.0000     -10.298099      -280.2255
  55   2.0000     -10.297780      -280.2169
  56   2.0000     -10.297551      -280.2106
  57   2.0000     -10.296327      -280.1773
  58   2.0000     -10.296028      -280.1692
  59   2.0000     -10.295769      -280.1621
  60   2.0000     -10.295379      -280.1515
  61   2.0000     -10.295292      -280.1491
  62   2.0000     -10.295173      -280.1459
  63   2.0000     -10.292413      -280.0708
  64   2.0000     -10.292405      -280.0706
  65   2.0000     -10.287398      -279.9343
  66   2.0000     -10.287011      -279.9238
  67   2.0000     -10.286714      -279.9157
  68   2.0000     -10.286219      -279.9023
  69   2.0000      -8.086007      -220.0314
  70   2.0000      -8.085873      -220.0278
  71   2.0000      -8.074738      -219.7248
  72   2.0000      -8.071836      -219.6458
  73   2.0000      -8.063171      -219.4101
  74   2.0000      -8.059527      -219.3109
  75   2.0000      -6.055354      -164.7745
  76   2.0000      -6.055118      -164.7681
  77   2.0000      -6.051140      -164.6599
  78   2.0000      -6.050948      -164.6547
  79   2.0000      -6.048299      -164.5826
  80   2.0000      -6.048226      -164.5806
  81   2.0000      -6.044353      -164.4752
  82   2.0000      -6.041207      -164.3896
  83   2.0000      -6.039740      -164.3497
  84   2.0000      -6.037071      -164.2771
  85   2.0000      -6.036571      -164.2635
  86   2.0000      -6.033842      -164.1892
  87   2.0000      -6.032572      -164.1546
  88   2.0000      -6.029293      -164.0654
  89   2.0000      -6.028294      -164.0382
  90   2.0000      -6.025285      -163.9563
  91   2.0000      -6.024969      -163.9477
  92   2.0000      -6.020860      -163.8359
  93   2.0000      -1.298842       -35.3433
  94   2.0000      -1.195770       -32.5386
  95   2.0000      -1.126263       -30.6472
  96   2.0000      -1.100455       -29.9449
  97   2.0000      -1.086559       -29.5668
  98   2.0000      -1.045575       -28.4516
  99   2.0000      -1.024091       -27.8669
 100   2.0000      -1.020456       -27.7680
 101   2.0000      -1.018796       -27.7229
 102   2.0000      -1.014526       -27.6067
 103   2.0000      -1.008718       -27.4486
 104   2.0000      -0.997583       -27.1456
 105   2.0000      -0.997553       -27.1448
 106   2.0000      -0.991621       -26.9834
 107   2.0000      -0.982023       -26.7222
 108   2.0000      -0.981695       -26.7133
 109   2.0000      -0.972294       -26.4575
 110   2.0000      -0.965292       -26.2669
 111   2.0000      -0.956725       -26.0338
 112   2.0000      -0.941221       -25.6119
 113   2.0000      -0.926717       -25.2172
 114   2.0000      -0.923544       -25.1309
 115   2.0000      -0.913953       -24.8699
 116   2.0000      -0.904722       -24.6187
 117   2.0000      -0.891944       -24.2710
 118   2.0000      -0.888910       -24.1885
 119   2.0000      -0.882743       -24.0207
 120   2.0000      -0.873460       -23.7680
 121   2.0000      -0.860388       -23.4124
 122   2.0000      -0.859998       -23.4017
 123   2.0000      -0.858806       -23.3693
 124   2.0000      -0.853163       -23.2157
 125   2.0000      -0.843427       -22.9508
 126   2.0000      -0.832437       -22.6518
 127   2.0000      -0.824249       -22.4290
 128   2.0000      -0.817903       -22.2563
 129   2.0000      -0.807894       -21.9839
 130   2.0000      -0.805311       -21.9136
 131   2.0000      -0.790282       -21.5047
 132   2.0000      -0.781409       -21.2632
 133   2.0000      -0.774627       -21.0787
 134   2.0000      -0.759211       -20.6592
 135   2.0000      -0.754367       -20.5274
 136   2.0000      -0.748697       -20.3731
 137   2.0000      -0.733308       -19.9543
 138   2.0000      -0.730073       -19.8663
 139   2.0000      -0.719281       -19.5726
 140   2.0000      -0.715031       -19.4570
 141   2.0000      -0.706880       -19.2352
 142   2.0000      -0.703863       -19.1531
 143   2.0000      -0.697551       -18.9813
 144   2.0000      -0.688929       -18.7467
 145   2.0000      -0.680220       -18.5097
 146   2.0000      -0.677676       -18.4405
 147   2.0000      -0.674170       -18.3451
 148   2.0000      -0.663037       -18.0422
 149   2.0000      -0.655628       -17.8405
 150   2.0000      -0.648627       -17.6500
 151   2.0000      -0.641861       -17.4659
 152   2.0000      -0.637867       -17.3572
 153   2.0000      -0.635082       -17.2814
 154   2.0000      -0.632739       -17.2177
 155   2.0000      -0.628282       -17.0964
 156   2.0000      -0.625725       -17.0268
 157   2.0000      -0.621384       -16.9087
 158   2.0000      -0.617649       -16.8071
 159   2.0000      -0.611813       -16.6483
 160   2.0000      -0.607651       -16.5350
 161   2.0000      -0.599022       -16.3002
 162   2.0000      -0.589205       -16.0331
 163   2.0000      -0.584717       -15.9110
 164   2.0000      -0.580426       -15.7942
 165   2.0000      -0.574343       -15.6287
 166   2.0000      -0.573900       -15.6166
 167   2.0000      -0.570121       -15.5138
 168   2.0000      -0.567685       -15.4475
 169   2.0000      -0.565386       -15.3849
 170   2.0000      -0.561179       -15.2705
 171   2.0000      -0.556966       -15.1558
 172   2.0000      -0.556428       -15.1412
 173   2.0000      -0.549010       -14.9393
 174   2.0000      -0.547399       -14.8955
 175   2.0000      -0.543006       -14.7760
 176   2.0000      -0.540333       -14.7032
 177   2.0000      -0.534094       -14.5334
 178   2.0000      -0.531817       -14.4715
 179   2.0000      -0.529291       -14.4027
 180   2.0000      -0.526215       -14.3190
 181   2.0000      -0.523978       -14.2582
 182   2.0000      -0.521796       -14.1988
 183   2.0000      -0.521358       -14.1869
 184   2.0000      -0.520868       -14.1735
 185   2.0000      -0.518654       -14.1133
 186   2.0000      -0.512490       -13.9456
 187   2.0000      -0.511715       -13.9245
 188   2.0000      -0.507320       -13.8049
 189   2.0000      -0.505206       -13.7473
 190   2.0000      -0.503703       -13.7065
 191   2.0000      -0.501840       -13.6558
 192   2.0000      -0.499419       -13.5899
 193   2.0000      -0.498761       -13.5720
 194   2.0000      -0.495179       -13.4745
 195   2.0000      -0.494732       -13.4623
 196   2.0000      -0.488456       -13.2916
 197   2.0000      -0.486946       -13.2505
 198   2.0000      -0.483734       -13.1631
 199   2.0000      -0.481879       -13.1126
 200   2.0000      -0.478376       -13.0173
 201   2.0000      -0.477790       -13.0013
 202   2.0000      -0.471744       -12.8368
 203   2.0000      -0.470462       -12.8019
 204   2.0000      -0.464903       -12.6506
 205   2.0000      -0.462380       -12.5820
 206   2.0000      -0.461853       -12.5677
 207   2.0000      -0.458830       -12.4854
 208   2.0000      -0.455505       -12.3949
 209   2.0000      -0.454555       -12.3691
 210   2.0000      -0.447524       -12.1777
 211   2.0000      -0.446779       -12.1575
 212   2.0000      -0.445779       -12.1303
 213   2.0000      -0.443586       -12.0706
 214   2.0000      -0.441406       -12.0113
 215   2.0000      -0.441208       -12.0059
 216   2.0000      -0.440198       -11.9784
 217   2.0000      -0.439952       -11.9717
 218   2.0000      -0.439157       -11.9501
 219   2.0000      -0.436295       -11.8722
 220   2.0000      -0.432876       -11.7792
 221   2.0000      -0.431409       -11.7392
 222   2.0000      -0.429858       -11.6970
 223   2.0000      -0.427063       -11.6210
 224   2.0000      -0.425041       -11.5660
 225   2.0000      -0.424837       -11.5604
 226   2.0000      -0.424586       -11.5536
 227   2.0000      -0.422828       -11.5057
 228   2.0000      -0.418813       -11.3965
 229   2.0000      -0.414467       -11.2782
 230   2.0000      -0.411838       -11.2067
 231   2.0000      -0.401505       -10.9255
 232   2.0000      -0.399078       -10.8595
 233   2.0000      -0.396139       -10.7795
 234   2.0000      -0.388585       -10.5739
 235   2.0000      -0.382378       -10.4050
 236   2.0000      -0.381454       -10.3799
 237   2.0000      -0.376713       -10.2509
 238   2.0000      -0.375198       -10.2097
 239   2.0000      -0.360248        -9.8028
 240   2.0000      -0.359455        -9.7813
 241   2.0000      -0.350450        -9.5362
 242   2.0000      -0.341478        -9.2921
 243   2.0000      -0.338683        -9.2160
 244   2.0000      -0.335302        -9.1240
 245   2.0000      -0.328398        -8.9362
 246   2.0000      -0.325742        -8.8639
 247   2.0000      -0.323961        -8.8154
 248   2.0000      -0.319706        -8.6997
 249   2.0000      -0.310385        -8.4460
 250   2.0000      -0.297950        -8.1076
 251   2.0000      -0.295566        -8.0428
 252   2.0000      -0.283067        -7.7026
 253   2.0000      -0.263124        -7.1600
 254   2.0000      -0.223226        -6.0743
 255   0.0000      -0.112158        -3.0520
 256   0.0000      -0.101401        -2.7593
 257   0.0000      -0.066927        -1.8212
 258   0.0000      -0.051915        -1.4127
 259   0.0000      -0.042468        -1.1556

MULLIKEN ATOMIC CHARGES
-----------------------
   0 C :   -0.098461
   1 C :    0.304749
   2 F :   -0.191015
   3 C :   -0.032395
   4 C :   -0.008025
   5 C :    0.098583
   6 C :    0.101315
   7 C :   -0.083998
   8 C :    0.041204
   9 C :    0.009336
  10 C :   -0.080563
  11 C :    0.141156
  12 O :   -0.143026
  13 C :   -0.127050
  14 C :    0.257609
  15 C :   -0.322819
  16 C :   -0.211478
  17 N :    0.168568
  18 C :   -0.175883
  19 N :    0.149710
  20 C :    0.023642
  21 C :   -0.097870
  22 C :    0.006396
  23 C :    0.058799
  24 C :    0.073702
  25 C :   -0.111452
  26 S :    0.147245
  27 C :   -0.101304
  28 C :    0.047672
  29 C :   -0.006081
  30 C :   -0.063917
  31 S :    0.142783
  32 C :    0.109753
  33 C :   -0.015148
  34 C :    0.060832
  35 C :   -0.108649
  36 S :    0.144052
  37 C :   -0.119489
  38 C :   -0.053554
  39 C :    0.131627
  40 C :   -0.023724
  41 C :   -0.106014
  42 C :    0.200558
  43 O :   -0.199707
  44 O :   -0.304075
  45 C :    0.187707
  46 S :    0.160944
  47 C :   -0.062189
  48 C :   -0.069674
  49 C :    0.012856
  50 C :   -0.104305
  51 S :    0.184401
  52 C :   -0.093572
  53 C :    0.004710
  54 C :    0.307779
  55 C :   -0.299049
  56 C :   -0.185021
  57 N :    0.175372
  58 C :   -0.187651
  59 N :    0.170733
  60 C :   -0.037813
  61 C :   -0.056819
  62 S :    0.169481
  63 C :    0.031024
  64 C :   -0.007018
  65 N :   -0.083043
  66 C :    0.064989
  67 N :   -0.083662
  68 C :    0.018868
  69 H :   -0.003420
  70 H :    0.003301
  71 H :   -0.010222
  72 H :   -0.006286
  73 H :   -0.012661
  74 H :    0.034587
  75 H :   -0.004372
  76 H :    0.039990
  77 H :   -0.007656
  78 H :    0.029162
  79 H :   -0.057608
  80 H :   -0.047713
  81 H :    0.007583
  82 H :    0.042878
  83 H :    0.036851
  84 H :    0.035536
  85 H :    0.011759
  86 H :    0.006725
  87 H :    0.013386
  88 H :    0.021133
  89 H :    0.014406
Sum of atomic charges:   -0.0000000

LOEWDIN ATOMIC CHARGES
----------------------
   0 C :   -0.042857
   1 C :    0.093035
   2 F :   -0.065687
   3 C :   -0.038312
   4 C :    0.004719
   5 C :   -0.019596
   6 C :    0.003518
   7 C :    0.008521
   8 C :   -0.015551
   9 C :   -0.059342
  10 C :    0.033978
  11 C :    0.082775
  12 O :   -0.144983
  13 C :   -0.102279
  14 C :    0.056335
  15 C :   -0.145177
  16 C :   -0.036847
  17 N :   -0.054611
  18 C :   -0.019365
  19 N :   -0.054642
  20 C :    0.044479
  21 C :   -0.181476
  22 C :    0.028607
  23 C :   -0.025106
  24 C :   -0.052743
  25 C :   -0.126154
  26 S :    0.484038
  27 C :   -0.183030
  28 C :   -0.042976
  29 C :   -0.063785
  30 C :   -0.161861
  31 S :    0.436693
  32 C :   -0.018497
  33 C :   -0.012192
  34 C :   -0.045556
  35 C :   -0.153629
  36 S :    0.443144
  37 C :   -0.218004
  38 C :   -0.178395
  39 C :   -0.075003
  40 C :   -0.011683
  41 C :   -0.197980
  42 C :    0.066488
  43 O :   -0.175412
  44 O :   -0.094356
  45 C :    0.084675
  46 S :    0.442407
  47 C :   -0.175029
  48 C :   -0.039396
  49 C :   -0.062031
  50 C :   -0.191338
  51 S :    0.464693
  52 C :   -0.171071
  53 C :   -0.076629
  54 C :    0.082967
  55 C :   -0.100890
  56 C :   -0.017586
  57 N :   -0.030075
  58 C :   -0.015871
  59 N :   -0.033053
  60 C :   -0.023589
  61 C :   -0.166569
  62 S :    0.474180
  63 C :   -0.080891
  64 C :    0.032202
  65 N :   -0.076327
  66 C :    0.042732
  67 N :   -0.074950
  68 C :    0.052034
  69 H :    0.042746
  70 H :    0.041637
  71 H :    0.035406
  72 H :    0.038625
  73 H :    0.039426
  74 H :    0.051776
  75 H :    0.042503
  76 H :    0.038863
  77 H :    0.029481
  78 H :    0.025413
  79 H :    0.026890
  80 H :    0.026514
  81 H :    0.037172
  82 H :    0.029823
  83 H :    0.025345
  84 H :    0.025294
  85 H :    0.029215
  86 H :    0.039758
  87 H :    0.016891
  88 H :    0.019852
  89 H :    0.027527

  Mayer bond orders larger than 0.100000
B(  0-C ,  1-C ) :   1.4407 B(  0-C ,  6-C ) :   1.2027 B(  0-C , 69-H ) :   1.0066
B(  1-C ,  2-F ) :   1.0879 B(  1-C ,  3-C ) :   1.2550 B(  3-C ,  4-C ) :   1.4578
B(  3-C , 70-H ) :   0.9936 B(  4-C ,  5-C ) :   1.2368 B(  4-C , 71-H ) :   0.9972
B(  5-C ,  6-C ) :   1.2567 B(  5-C , 10-C ) :   1.1882 B(  6-C ,  7-C ) :   1.2008
B(  7-C ,  8-C ) :   1.4642 B(  7-C , 72-H ) :   0.9947 B(  8-C ,  9-C ) :   1.2150
B(  8-C , 14-C ) :   0.9996 B(  9-C , 10-C ) :   1.4742 B(  9-C , 11-C ) :   0.9217
B( 10-C , 73-H ) :   1.0154 B( 11-C , 12-O ) :   2.2698 B( 11-C , 13-C ) :   0.9429
B( 13-C , 14-C ) :   1.0520 B( 13-C , 20-C ) :   1.5943 B( 14-C , 15-C ) :   1.6351
B( 15-C , 16-C ) :   1.1561 B( 15-C , 18-C ) :   1.1422 B( 16-C , 17-N ) :   3.0191
B( 18-C , 19-N ) :   2.9832 B( 20-C , 21-C ) :   1.1544 B( 20-C , 74-H ) :   0.9466
B( 21-C , 22-C ) :   1.4574 B( 21-C , 26-S ) :   1.0475 B( 22-C , 23-C ) :   1.2589
B( 22-C , 75-H ) :   0.9750 B( 23-C , 24-C ) :   1.0523 B( 23-C , 32-C ) :   1.3168
B( 24-C , 25-C ) :   1.5910 B( 24-C , 27-C ) :   1.1858 B( 25-C , 26-S ) :   1.1576
B( 25-C , 76-H ) :   0.9422 B( 27-C , 28-C ) :   1.4354 B( 27-C , 31-S ) :   1.0930
B( 28-C , 29-C ) :   1.2039 B( 28-C , 32-C ) :   1.0884 B( 29-C , 30-C ) :   1.5985
B( 29-C , 77-H ) :   1.0000 B( 30-C , 31-S ) :   1.1499 B( 30-C , 78-H ) :   0.9644
B( 32-C , 33-C ) :   1.2313 B( 33-C , 34-C ) :   1.5646 B( 33-C , 79-H ) :   0.9523
B( 34-C , 35-C ) :   1.1908 B( 34-C , 80-H ) :   0.9544 B( 35-C , 36-S ) :   1.1209
B( 35-C , 37-C ) :   0.1096 B( 35-C , 39-C ) :   1.3357 B( 36-S , 37-C ) :   1.1126
B( 37-C , 38-C ) :   1.5153 B( 37-C , 47-C ) :   1.1721 B( 38-C , 39-C ) :   1.2569
B( 38-C , 46-S ) :   1.0609 B( 39-C , 40-C ) :   1.1380 B( 40-C , 41-C ) :   1.6329
B( 40-C , 81-H ) :   0.9969 B( 41-C , 42-C ) :   0.9523 B( 41-C , 46-S ) :   1.0596
B( 42-C , 43-O ) :   2.1310 B( 42-C , 44-O ) :   1.2421 B( 44-O , 45-C ) :   0.9159
B( 45-C , 82-H ) :   0.9813 B( 45-C , 83-H ) :   0.9759 B( 45-C , 84-H ) :   0.9778
B( 47-C , 48-C ) :   1.4579 B( 47-C , 51-S ) :   1.0993 B( 48-C , 49-C ) :   1.3166
B( 48-C , 85-H ) :   0.9801 B( 49-C , 50-C ) :   1.4491 B( 49-C , 54-C ) :   0.9861
B( 50-C , 51-S ) :   1.1074 B( 50-C , 52-C ) :   1.1901 B( 52-C , 53-C ) :   1.4458
B( 52-C , 62-S ) :   1.1290 B( 53-C , 54-C ) :   1.0051 B( 53-C , 60-C ) :   1.2713
B( 54-C , 55-C ) :   1.7100 B( 55-C , 56-C ) :   1.1346 B( 55-C , 58-C ) :   1.1339
B( 56-C , 57-N ) :   2.9867 B( 58-C , 59-N ) :   2.9893 B( 60-C , 61-C ) :   1.5131
B( 60-C , 86-H ) :   0.9878 B( 61-C , 62-S ) :   1.0945 B( 61-C , 63-C ) :   1.0674
B( 63-C , 64-C ) :   1.3264 B( 63-C , 68-C ) :   1.3366 B( 64-C , 65-N ) :   1.5862
B( 64-C , 87-H ) :   0.9823 B( 65-N , 66-C ) :   1.5020 B( 66-C , 67-N ) :   1.5009
B( 66-C , 88-H ) :   0.9758 B( 67-N , 68-C ) :   1.5813 B( 68-C , 89-H ) :   0.9867

-----------------------------------------------------------------------------
         ABSORPTION SPECTRUM VIA TRANSITION ELECTRIC DIPOLE MOMENTS
-----------------------------------------------------------------------------
State   Energy  Wavelength   fosc         T2         TX        TY        TZ
        (cm-1)    (nm)                  (au**2)     (au)      (au)      (au)
-----------------------------------------------------------------------------
   0    9719.1   1028.9   0.610559939  20.68128   2.69382  -0.33646   3.64848
   1   12216.0    818.6   0.700737455  18.88442  -2.63320  -0.08282  -3.45598
   2   18484.5    541.0   0.058334810   1.03895  -0.67295   0.07834  -0.76155
   3   19829.7    504.3   0.448149864   7.44016  -1.73089   1.79449  -1.10634
   4   20474.4    488.4   0.113708613   1.82835  -0.15022   1.20448   0.59583
   5   22121.9    452.0   0.058932898   0.87702   0.58334  -0.50154   0.53404
   6   22913.2    436.4   0.032730065   0.47026   0.19649  -0.50554  -0.41961
   7   24123.0    414.5   0.115202997   1.57220   0.28478  -0.93344   0.78727
   8   25898.5    386.1   0.059305920   0.75387  -0.48382  -0.69160  -0.20365
   9   26040.4    384.0   0.008925776   0.11284  -0.02968  -0.10567  -0.31748
  10   27015.6    370.2   0.614559969   7.48902  -1.27060  -0.44074  -2.38335
  11   27152.6    368.3   0.057224428   0.69382  -0.43963  -0.70711  -0.02323
  12   28383.6    352.3   0.233505455   2.70835   0.34975   0.94467   1.30139
  13   28922.3    345.8   0.016879955   0.19214  -0.43525  -0.05190   0.00214
  14   29425.9    339.8   0.040258400   0.45040  -0.03836   0.60824  -0.28102
  15   29976.1    333.6   0.011375998   0.12494   0.10910   0.14843   0.30167
  16   30197.1    331.2   0.021467958   0.23405  -0.06577   0.18552  -0.44193
  17   30340.6    329.6   0.103489405   1.12292  -0.63908   0.77281  -0.34243
  18   31550.3    317.0   0.520366410   5.42977  -0.38009   2.21565   0.61333
  19   31924.1    313.2   0.167325242   1.72552  -0.31496  -1.21926  -0.37379
  20   31973.0    312.8   0.052909742   0.54479   0.37231  -0.16014  -0.61687
  21   32014.5    312.4   0.033143519   0.34082  -0.14545   0.42994   0.36718
  22   32815.6    304.7   0.190534180   1.91147  -0.82814  -0.74205  -0.82159
  23   33004.5    303.0   0.015950799   0.15911   0.20080  -0.06148   0.33913
  24   33082.6    302.3   0.386854286   3.84966  -1.08200  -0.63411  -1.50893
  25   33549.7    298.1   0.272337570   2.67236   1.01447   0.67001   1.09284
  26   33699.5    296.7   0.045641336   0.44587   0.28455   0.44379   0.40982
  27   33785.5    296.0   0.389603878   3.79637  -1.12870  -1.35737  -0.82459
  28   34102.1    293.2   0.061709177   0.59572   0.37639  -0.20060   0.64328
  29   34278.8    291.7   0.226079459   2.17125   0.51439   0.96347   0.98913
  30   34468.7    290.1   0.054225290   0.51791  -0.50899  -0.12438  -0.49332
  31   34761.9    287.7   0.045007481   0.42624  -0.04924  -0.60948  -0.22882
  32   35194.0    284.1   0.105211826   0.98417  -0.50737  -0.31702  -0.79136
  33   36049.8    277.4   0.376808449   3.44107  -0.94344  -0.24391  -1.57845
  34   36319.3    275.3   0.009110040   0.08258  -0.02654   0.04841   0.28201
  35   36668.8    272.7   0.087969872   0.78979   0.71874  -0.51990   0.05394
  36   36861.2    271.3   0.141487431   1.26364  -0.00283  -1.12324  -0.04430
  37   36913.0    270.9   0.005691264   0.05076   0.05809  -0.21492   0.03453
  38   37072.0    269.7   0.055515663   0.49300  -0.15329  -0.22994   0.64547
  39   37144.6    269.2   0.135506476   1.20099   0.51992   0.91643   0.30139
  40   37652.5    265.6   0.011356774   0.09930  -0.26704  -0.09182   0.13984
  41   38040.7    262.9   0.020454675   0.17702   0.22154   0.24180   0.26357
  42   38314.3    261.0   0.008568145   0.07362  -0.24495   0.06130   0.09930
  43   38712.2    258.3   0.223111484   1.89736  -0.93400  -0.79236  -0.63021
  44   38844.4    257.4   0.104570976   0.88626   0.11891   0.67223  -0.64824
  45   39249.8    254.8   0.000752288   0.00631   0.00380   0.07056  -0.03629
  46   39398.8    253.8   0.001693789   0.01415  -0.08277  -0.03724   0.07692
  47   40132.0    249.2   0.140064888   1.14898  -0.35984  -0.28662  -0.96817

FINAL SINGLE POINT ENERGY     -5071.244348253175

DIPOLE MOMENT
-------------
                                X             Y             Z
Electronic contribution:      0.02250     -11.74620      -2.12994
Nuclear contribution   :      1.89604      10.44527       1.53297
                        -----------------------------------------
Total Dipole Moment    :      1.91854      -1.30093      -0.59697
                        -----------------------------------------
Magnitude (a.u.)       :      2.39366
Magnitude (Debye)      :      6.08419

Rotational constants in cm-1:     0.001954     0.000251     0.000227
Rotational constants in MHz :    58.566448     7.535784     6.808076

                             ****ORCA TERMINATED NORMALLY****
TOTAL RUN TIME: 0 days 0 hours 9 minutes 5 seconds 291 msec
