                         Program Version 4.2.0 -  RELEASE  -
|  1> # ORCA input file
|  2> # SCF done       -189.597108135302          0.000430527444
|  3> ! CAM-B3LYP def2-SVP def2/J RIJCOSX Grid4 TightSCF
|  4> %maxcore 5000
|  5> %tddft
|  6>     Mode sTDDFT
|  7>     Ethresh 5.0
|  8>     maxcore 5000
|  9> end
| 10>
| 11> %pal
| 12>   nprocs 6
| 13>   end
| 14> * xyz 0 1
| 15>    C       20.99839        -7.67815        -5.97351
| 16>    C       21.82558        -8.73396        -6.23878
| 17>    F       23.14958        -8.52400        -6.35980
| 18>    C       21.34842       -10.04243        -6.39143
| 19>    C       20.00624       -10.27491        -6.27132
| 20>    C       19.10810        -9.22354        -5.99757
| 21>    C       19.61350        -7.89939        -5.84749
| 22>    C       18.73081        -6.82613        -5.58112
| 23>    C       17.39101        -7.07449        -5.46369
| 24>    C       16.89223        -8.40264        -5.59956
| 25>    C       17.71964        -9.45438        -5.86603
| 26>    C       15.42998        -8.39598        -5.39610
| 27>    O       14.65977        -9.32600        -5.48741
| 28>    C       15.10005        -7.00341        -4.99399
| 29>    C       16.26029        -6.18058        -5.23274
| 30>    C       16.25537        -4.82850        -5.47814
| 31>    C       15.07496        -4.06321        -5.55038
| 32>    N       14.12579        -3.42621        -5.66672
| 33>    C       17.40841        -4.08300        -5.78840
| 34>    N       18.32071        -3.42729        -6.02631
| 35>    C       13.87670        -6.72629        -4.45294
| 36>    C       13.48476        -5.62863        -3.64679
| 37>    C       12.16089        -5.25137        -3.55052
| 38>    C       11.70166        -4.15159        -2.84105
| 39>    C       12.61452        -3.30664        -2.06754
| 40>    C       13.94100        -3.53224        -1.94928
| 41>    S       14.75412        -4.82570        -2.72088
| 42>    C       11.80298        -2.27145        -1.52997
| 43>    C       10.47772        -2.43406        -1.94785
| 44>    C        9.63573        -1.43734        -1.40121
| 45>    C       10.32657        -0.56654        -0.62080
| 46>    S       12.01880        -0.91287        -0.50613
| 47>    C       10.39648        -3.60805        -2.77531
| 48>    C        9.26369        -4.14216        -3.42499
| 49>    C        8.09901        -3.47522        -3.64797
| 50>    C        6.95894        -4.00866        -4.30201
| 51>    C        5.90206        -3.20283        -4.67240
| 52>    C        4.75004        -3.63383        -5.31995
| 53>    C        4.54127        -5.05109        -5.62878
| 54>    C        5.44169        -6.02286        -5.36580
| 55>    S        6.95886        -5.74124        -4.61914
| 56>    C        3.26296        -5.11444        -6.24549
| 57>    C        2.71103        -3.83337        -6.34328
| 58>    C        1.43276        -3.86772        -6.94762
| 59>    C        1.06578        -5.13162        -7.28385
| 60>    S        2.24244        -6.33638        -6.88814
| 61>    C        3.64104        -2.88778        -5.77872
| 62>    C        3.55510        -1.47914        -5.72115
| 63>    C        2.56527        -0.70778        -6.24110
| 64>    C        2.56277         0.71170        -6.21939
| 65>    C        3.48207         1.59027        -5.70158
| 66>    C        3.15672         2.94716        -5.90743
| 67>    C        1.92861         3.10345        -6.61311
| 68>    S        1.22414         1.55558        -6.98666
| 69>    C        1.41486         4.33336        -6.94077
| 70>    C        2.13960         5.46889        -6.56124
| 71>    C        3.36524         5.31410        -5.85248
| 72>    C        3.87743         4.08047        -5.52309
| 73>    S        4.07692         6.85828        -5.49619
| 74>    C        2.74564         7.70238        -6.29796
| 75>    C        1.81862         6.81979        -6.79651
| 76>    C        2.82340         9.11352        -6.31426
| 77>    C        1.99865        10.05533        -6.85148
| 78>    C        0.75176         9.93957        -7.59619
| 79>    O        0.15173         8.93022        -7.90088
| 80>    N        0.27984        11.19881        -7.95191
| 81>    C        1.02329        12.26612        -7.55950
| 82>    C        0.76861        13.59477        -7.78688
| 83>    C       -0.33276        14.11965        -8.48486
| 84>    N       -1.20762        14.61194        -9.04271
| 85>    C        1.66431        14.56790        -7.29648
| 86>    N        2.38709        15.36566        -6.90061
| 87>    S        2.43647        11.75448        -6.67429
| 88>    C       -0.94791        11.30987        -8.70239
| 89>    H       21.40027        -6.68276        -5.86600
| 90>    H       22.04844       -10.83587        -6.59994
| 91>    H       19.61482       -11.27469        -6.38501
| 92>    H       19.13850        -5.83409        -5.46681
| 93>    H       17.32175       -10.45212        -5.97562
| 94>    H       13.12146        -7.48959        -4.61487
| 95>    H       11.45566        -5.82800        -4.13395
| 96>    H       14.59019        -2.90190        -1.36227
| 97>    H        8.57426        -1.36409        -1.55030
| 98>    H        9.94251         0.28037        -0.08636
| 99>    H        9.35749        -5.14999        -3.80876
|100>    H        8.02440        -2.43670        -3.36114
|101>    H        6.00117        -2.15095        -4.43972
|102>    H        5.27089        -7.05768        -5.61724
|103>    H        0.79820        -3.01981        -7.12695
|104>    H        0.15327        -5.44533        -7.75203
|105>    H        4.38531        -0.98008        -5.24059
|106>    H        1.72465        -1.16955        -6.73392
|107>    H        4.37621         1.28194        -5.19094
|108>    H        0.48547         4.43526        -7.47762
|109>    H        4.80911         3.98320        -4.98877
|110>    H        0.93505         7.13604        -7.31821
|111>    H        3.69992         9.50908        -5.81195
|112>    H       -1.30804        10.29379        -8.86642
|113>    H       -0.77201        11.79578        -9.66231
|114>    H       -1.69296        11.87702        -8.14401
|115> *
|116>
|117>                          ****END OF INPUT****

CARTESIAN COORDINATES (ANGSTROEM)
---------------------------------
  C     20.998390   -7.678150   -5.973510
  C     21.825580   -8.733960   -6.238780
  F     23.149580   -8.524000   -6.359800
  C     21.348420  -10.042430   -6.391430
  C     20.006240  -10.274910   -6.271320
  C     19.108100   -9.223540   -5.997570
  C     19.613500   -7.899390   -5.847490
  C     18.730810   -6.826130   -5.581120
  C     17.391010   -7.074490   -5.463690
  C     16.892230   -8.402640   -5.599560
  C     17.719640   -9.454380   -5.866030
  C     15.429980   -8.395980   -5.396100
  O     14.659770   -9.326000   -5.487410
  C     15.100050   -7.003410   -4.993990
  C     16.260290   -6.180580   -5.232740
  C     16.255370   -4.828500   -5.478140
  C     15.074960   -4.063210   -5.550380
  N     14.125790   -3.426210   -5.666720
  C     17.408410   -4.083000   -5.788400
  N     18.320710   -3.427290   -6.026310
  C     13.876700   -6.726290   -4.452940
  C     13.484760   -5.628630   -3.646790
  C     12.160890   -5.251370   -3.550520
  C     11.701660   -4.151590   -2.841050
  C     12.614520   -3.306640   -2.067540
  C     13.941000   -3.532240   -1.949280
  S     14.754120   -4.825700   -2.720880
  C     11.802980   -2.271450   -1.529970
  C     10.477720   -2.434060   -1.947850
  C      9.635730   -1.437340   -1.401210
  C     10.326570   -0.566540   -0.620800
  S     12.018800   -0.912870   -0.506130
  C     10.396480   -3.608050   -2.775310
  C      9.263690   -4.142160   -3.424990
  C      8.099010   -3.475220   -3.647970
  C      6.958940   -4.008660   -4.302010
  C      5.902060   -3.202830   -4.672400
  C      4.750040   -3.633830   -5.319950
  C      4.541270   -5.051090   -5.628780
  C      5.441690   -6.022860   -5.365800
  S      6.958860   -5.741240   -4.619140
  C      3.262960   -5.114440   -6.245490
  C      2.711030   -3.833370   -6.343280
  C      1.432760   -3.867720   -6.947620
  C      1.065780   -5.131620   -7.283850
  S      2.242440   -6.336380   -6.888140
  C      3.641040   -2.887780   -5.778720
  C      3.555100   -1.479140   -5.721150
  C      2.565270   -0.707780   -6.241100
  C      2.562770    0.711700   -6.219390
  C      3.482070    1.590270   -5.701580
  C      3.156720    2.947160   -5.907430
  C      1.928610    3.103450   -6.613110
  S      1.224140    1.555580   -6.986660
  C      1.414860    4.333360   -6.940770
  C      2.139600    5.468890   -6.561240
  C      3.365240    5.314100   -5.852480
  C      3.877430    4.080470   -5.523090
  S      4.076920    6.858280   -5.496190
  C      2.745640    7.702380   -6.297960
  C      1.818620    6.819790   -6.796510
  C      2.823400    9.113520   -6.314260
  C      1.998650   10.055330   -6.851480
  C      0.751760    9.939570   -7.596190
  O      0.151730    8.930220   -7.900880
  N      0.279840   11.198810   -7.951910
  C      1.023290   12.266120   -7.559500
  C      0.768610   13.594770   -7.786880
  C     -0.332760   14.119650   -8.484860
  N     -1.207620   14.611940   -9.042710
  C      1.664310   14.567900   -7.296480
  N      2.387090   15.365660   -6.900610
  S      2.436470   11.754480   -6.674290
  C     -0.947910   11.309870   -8.702390
  H     21.400270   -6.682760   -5.866000
  H     22.048440  -10.835870   -6.599940
  H     19.614820  -11.274690   -6.385010
  H     19.138500   -5.834090   -5.466810
  H     17.321750  -10.452120   -5.975620
  H     13.121460   -7.489590   -4.614870
  H     11.455660   -5.828000   -4.133950
  H     14.590190   -2.901900   -1.362270
  H      8.574260   -1.364090   -1.550300
  H      9.942510    0.280370   -0.086360
  H      9.357490   -5.149990   -3.808760
  H      8.024400   -2.436700   -3.361140
  H      6.001170   -2.150950   -4.439720
  H      5.270890   -7.057680   -5.617240
  H      0.798200   -3.019810   -7.126950
  H      0.153270   -5.445330   -7.752030
  H      4.385310   -0.980080   -5.240590
  H      1.724650   -1.169550   -6.733920
  H      4.376210    1.281940   -5.190940
  H      0.485470    4.435260   -7.477620
  H      4.809110    3.983200   -4.988770
  H      0.935050    7.136040   -7.318210
  H      3.699920    9.509080   -5.811950
  H     -1.308040   10.293790   -8.866420
  H     -0.772010   11.795780   -9.662310
  H     -1.692960   11.877020   -8.144010

 Total Charge           Charge          ....    0
 Multiplicity           Mult            ....    1
 Number of Electrons    NEL             ....  552
 Basis Dimension        Dim             .... 1194

ORBITAL ENERGIES
----------------

  NO   OCC          E(Eh)            E(eV)
   0   2.0000     -88.980129     -2421.2724
   1   2.0000     -88.979921     -2421.2667
   2   2.0000     -88.977607     -2421.2038
   3   2.0000     -88.968566     -2420.9578
   4   2.0000     -88.960349     -2420.7342
   5   2.0000     -88.953278     -2420.5417
   6   2.0000     -88.948874     -2420.4219
   7   2.0000     -24.785385      -674.4446
   8   2.0000     -19.225195      -523.1442
   9   2.0000     -19.213307      -522.8207
  10   2.0000     -14.497199      -394.4888
  11   2.0000     -14.414627      -392.2420
  12   2.0000     -14.412117      -392.1736
  13   2.0000     -14.402988      -391.9252
  14   2.0000     -14.402626      -391.9154
  15   2.0000     -10.413327      -283.3610
  16   2.0000     -10.395959      -282.8884
  17   2.0000     -10.369105      -282.1577
  18   2.0000     -10.365112      -282.0490
  19   2.0000     -10.341073      -281.3949
  20   2.0000     -10.339041      -281.3396
  21   2.0000     -10.336741      -281.2770
  22   2.0000     -10.332931      -281.1734
  23   2.0000     -10.331881      -281.1448
  24   2.0000     -10.331606      -281.1373
  25   2.0000     -10.329518      -281.0805
  26   2.0000     -10.328640      -281.0566
  27   2.0000     -10.325848      -280.9806
  28   2.0000     -10.322209      -280.8816
  29   2.0000     -10.317997      -280.7670
  30   2.0000     -10.317285      -280.7476
  31   2.0000     -10.316242      -280.7192
  32   2.0000     -10.314984      -280.6850
  33   2.0000     -10.314609      -280.6748
  34   2.0000     -10.309847      -280.5452
  35   2.0000     -10.309714      -280.5416
  36   2.0000     -10.307943      -280.4934
  37   2.0000     -10.307370      -280.4778
  38   2.0000     -10.306624      -280.4575
  39   2.0000     -10.305541      -280.4280
  40   2.0000     -10.305517      -280.4274
  41   2.0000     -10.305030      -280.4141
  42   2.0000     -10.303261      -280.3660
  43   2.0000     -10.302912      -280.3565
  44   2.0000     -10.301224      -280.3105
  45   2.0000     -10.301023      -280.3051
  46   2.0000     -10.300425      -280.2888
  47   2.0000     -10.299455      -280.2624
  48   2.0000     -10.299411      -280.2612
  49   2.0000     -10.297365      -280.2056
  50   2.0000     -10.297241      -280.2022
  51   2.0000     -10.297199      -280.2010
  52   2.0000     -10.296881      -280.1924
  53   2.0000     -10.296096      -280.1710
  54   2.0000     -10.294896      -280.1384
  55   2.0000     -10.293944      -280.1124
  56   2.0000     -10.292836      -280.0823
  57   2.0000     -10.291646      -280.0499
  58   2.0000     -10.290638      -280.0225
  59   2.0000     -10.289423      -279.9894
  60   2.0000     -10.289232      -279.9842
  61   2.0000     -10.288518      -279.9648
  62   2.0000     -10.287607      -279.9400
  63   2.0000     -10.287386      -279.9340
  64   2.0000     -10.287035      -279.9245
  65   2.0000     -10.286100      -279.8990
  66   2.0000     -10.285828      -279.8916
  67   2.0000     -10.283815      -279.8368
  68   2.0000     -10.282958      -279.8135
  69   2.0000     -10.281170      -279.7648
  70   2.0000     -10.280147      -279.7370
  71   2.0000     -10.279249      -279.7126
  72   2.0000     -10.278769      -279.6995
  73   2.0000     -10.272582      -279.5312
  74   2.0000      -8.076280      -219.7668
  75   2.0000      -8.074990      -219.7316
  76   2.0000      -8.072900      -219.6748
  77   2.0000      -8.064122      -219.4359
  78   2.0000      -8.055943      -219.2133
  79   2.0000      -8.049397      -219.0352
  80   2.0000      -8.045014      -218.9160
  81   2.0000      -6.046170      -164.5246
  82   2.0000      -6.044656      -164.4835
  83   2.0000      -6.042418      -164.4226
  84   2.0000      -6.042254      -164.4181
  85   2.0000      -6.040033      -164.3577
  86   2.0000      -6.037960      -164.3013
  87   2.0000      -6.036744      -164.2682
  88   2.0000      -6.036498      -164.2615
  89   2.0000      -6.034825      -164.2159
  90   2.0000      -6.033537      -164.1809
  91   2.0000      -6.029253      -164.0643
  92   2.0000      -6.026176      -163.9806
  93   2.0000      -6.025349      -163.9581
  94   2.0000      -6.021109      -163.8427
  95   2.0000      -6.018973      -163.7846
  96   2.0000      -6.017984      -163.7577
  97   2.0000      -6.015097      -163.6791
  98   2.0000      -6.014596      -163.6655
  99   2.0000      -6.010659      -163.5584
 100   2.0000      -6.010555      -163.5555
 101   2.0000      -6.006226      -163.4377
 102   2.0000      -1.300072       -35.3768
 103   2.0000      -1.170607       -31.8538
 104   2.0000      -1.128033       -30.6953
 105   2.0000      -1.097634       -29.8681
 106   2.0000      -1.020361       -27.7654
 107   2.0000      -1.015901       -27.6441
 108   2.0000      -1.009861       -27.4797
 109   2.0000      -1.003442       -27.3051
 110   2.0000      -0.999429       -27.1959
 111   2.0000      -0.999341       -27.1934
 112   2.0000      -0.993252       -27.0278
 113   2.0000      -0.983248       -26.7555
 114   2.0000      -0.982734       -26.7415
 115   2.0000      -0.981114       -26.6975
 116   2.0000      -0.977128       -26.5890
 117   2.0000      -0.973831       -26.4993
 118   2.0000      -0.962421       -26.1888
 119   2.0000      -0.943193       -25.6656
 120   2.0000      -0.934714       -25.4349
 121   2.0000      -0.927638       -25.2423
 122   2.0000      -0.925554       -25.1856
 123   2.0000      -0.917456       -24.9652
 124   2.0000      -0.913385       -24.8545
 125   2.0000      -0.906050       -24.6549
 126   2.0000      -0.893167       -24.3043
 127   2.0000      -0.885305       -24.0904
 128   2.0000      -0.884350       -24.0644
 129   2.0000      -0.877479       -23.8774
 130   2.0000      -0.873424       -23.7671
 131   2.0000      -0.863877       -23.5073
 132   2.0000      -0.861594       -23.4452
 133   2.0000      -0.847552       -23.0631
 134   2.0000      -0.842314       -22.9205
 135   2.0000      -0.834068       -22.6961
 136   2.0000      -0.831772       -22.6337
 137   2.0000      -0.822525       -22.3821
 138   2.0000      -0.819186       -22.2912
 139   2.0000      -0.815566       -22.1927
 140   2.0000      -0.813577       -22.1386
 141   2.0000      -0.798752       -21.7351
 142   2.0000      -0.793091       -21.5811
 143   2.0000      -0.784986       -21.3606
 144   2.0000      -0.778705       -21.1896
 145   2.0000      -0.767471       -20.8839
 146   2.0000      -0.759873       -20.6772
 147   2.0000      -0.746642       -20.3172
 148   2.0000      -0.736995       -20.0547
 149   2.0000      -0.731349       -19.9010
 150   2.0000      -0.722875       -19.6704
 151   2.0000      -0.717234       -19.5169
 152   2.0000      -0.708546       -19.2805
 153   2.0000      -0.703952       -19.1555
 154   2.0000      -0.697767       -18.9872
 155   2.0000      -0.691527       -18.8174
 156   2.0000      -0.685377       -18.6500
 157   2.0000      -0.679584       -18.4924
 158   2.0000      -0.675809       -18.3897
 159   2.0000      -0.668778       -18.1984
 160   2.0000      -0.664049       -18.0697
 161   2.0000      -0.661567       -18.0022
 162   2.0000      -0.659123       -17.9356
 163   2.0000      -0.653482       -17.7822
 164   2.0000      -0.640326       -17.4242
 165   2.0000      -0.638834       -17.3836
 166   2.0000      -0.633995       -17.2519
 167   2.0000      -0.632421       -17.2091
 168   2.0000      -0.629410       -17.1271
 169   2.0000      -0.623700       -16.9717
 170   2.0000      -0.620805       -16.8930
 171   2.0000      -0.614357       -16.7175
 172   2.0000      -0.608076       -16.5466
 173   2.0000      -0.600136       -16.3305
 174   2.0000      -0.595996       -16.2179
 175   2.0000      -0.593474       -16.1492
 176   2.0000      -0.591138       -16.0857
 177   2.0000      -0.582028       -15.8378
 178   2.0000      -0.579891       -15.7796
 179   2.0000      -0.574457       -15.6318
 180   2.0000      -0.571135       -15.5414
 181   2.0000      -0.570701       -15.5296
 182   2.0000      -0.564002       -15.3473
 183   2.0000      -0.562625       -15.3098
 184   2.0000      -0.562222       -15.2988
 185   2.0000      -0.557980       -15.1834
 186   2.0000      -0.557801       -15.1785
 187   2.0000      -0.549938       -14.9646
 188   2.0000      -0.547876       -14.9085
 189   2.0000      -0.545064       -14.8319
 190   2.0000      -0.541052       -14.7228
 191   2.0000      -0.537928       -14.6378
 192   2.0000      -0.537441       -14.6245
 193   2.0000      -0.533235       -14.5101
 194   2.0000      -0.525892       -14.3102
 195   2.0000      -0.524614       -14.2755
 196   2.0000      -0.523865       -14.2551
 197   2.0000      -0.522993       -14.2314
 198   2.0000      -0.520711       -14.1693
 199   2.0000      -0.519263       -14.1299
 200   2.0000      -0.515658       -14.0318
 201   2.0000      -0.514348       -13.9961
 202   2.0000      -0.513511       -13.9733
 203   2.0000      -0.510135       -13.8815
 204   2.0000      -0.508455       -13.8358
 205   2.0000      -0.505602       -13.7581
 206   2.0000      -0.504338       -13.7237
 207   2.0000      -0.500434       -13.6175
 208   2.0000      -0.498727       -13.5711
 209   2.0000      -0.498348       -13.5607
 210   2.0000      -0.494121       -13.4457
 211   2.0000      -0.488580       -13.2949
 212   2.0000      -0.487184       -13.2570
 213   2.0000      -0.484214       -13.1761
 214   2.0000      -0.479811       -13.0563
 215   2.0000      -0.475060       -12.9270
 216   2.0000      -0.472897       -12.8682
 217   2.0000      -0.472613       -12.8604
 218   2.0000      -0.468746       -12.7552
 219   2.0000      -0.466658       -12.6984
 220   2.0000      -0.464866       -12.6496
 221   2.0000      -0.464179       -12.6310
 222   2.0000      -0.458679       -12.4813
 223   2.0000      -0.456607       -12.4249
 224   2.0000      -0.456085       -12.4107
 225   2.0000      -0.452485       -12.3127
 226   2.0000      -0.448491       -12.2041
 227   2.0000      -0.444888       -12.1060
 228   2.0000      -0.443425       -12.0662
 229   2.0000      -0.442911       -12.0522
 230   2.0000      -0.441630       -12.0174
 231   2.0000      -0.438121       -11.9219
 232   2.0000      -0.437165       -11.8959
 233   2.0000      -0.436374       -11.8743
 234   2.0000      -0.435543       -11.8517
 235   2.0000      -0.433823       -11.8049
 236   2.0000      -0.433132       -11.7861
 237   2.0000      -0.432520       -11.7695
 238   2.0000      -0.432014       -11.7557
 239   2.0000      -0.427107       -11.6222
 240   2.0000      -0.426409       -11.6032
 241   2.0000      -0.424994       -11.5647
 242   2.0000      -0.423420       -11.5218
 243   2.0000      -0.421743       -11.4762
 244   2.0000      -0.420896       -11.4532
 245   2.0000      -0.419192       -11.4068
 246   2.0000      -0.418360       -11.3842
 247   2.0000      -0.416230       -11.3262
 248   2.0000      -0.415581       -11.3085
 249   2.0000      -0.414739       -11.2856
 250   2.0000      -0.407772       -11.0960
 251   2.0000      -0.402715       -10.9584
 252   2.0000      -0.401836       -10.9345
 253   2.0000      -0.401574       -10.9274
 254   2.0000      -0.394082       -10.7235
 255   2.0000      -0.383937       -10.4475
 256   2.0000      -0.381212       -10.3733
 257   2.0000      -0.376908       -10.2562
 258   2.0000      -0.370582       -10.0840
 259   2.0000      -0.363233        -9.8841
 260   2.0000      -0.358172        -9.7464
 261   2.0000      -0.343083        -9.3358
 262   2.0000      -0.340840        -9.2747
 263   2.0000      -0.336017        -9.1435
 264   2.0000      -0.333294        -9.0694
 265   2.0000      -0.330232        -8.9861
 266   2.0000      -0.322141        -8.7659
 267   2.0000      -0.312077        -8.4920
 268   2.0000      -0.303561        -8.2603
 269   2.0000      -0.298729        -8.1288
 270   2.0000      -0.289628        -7.8812
 271   2.0000      -0.282377        -7.6839
 272   2.0000      -0.280562        -7.6345
 273   2.0000      -0.266429        -7.2499
 274   2.0000      -0.249186        -6.7807
 275   2.0000      -0.220438        -5.9984
 276   0.0000      -0.107858        -2.9350
 277   0.0000      -0.082261        -2.2384
 278   0.0000      -0.065120        -1.7720
 279   0.0000      -0.054394        -1.4801
 280   0.0000      -0.046413        -1.2630

MULLIKEN ATOMIC CHARGES
-----------------------
   0 C :   -0.097469
   1 C :    0.303077
   2 F :   -0.191432
   3 C :   -0.029522
   4 C :   -0.008582
   5 C :    0.098364
   6 C :    0.100445
   7 C :   -0.084804
   8 C :    0.041005
   9 C :    0.008655
  10 C :   -0.080875
  11 C :    0.140838
  12 O :   -0.145542
  13 C :   -0.133580
  14 C :    0.266046
  15 C :   -0.327299
  16 C :   -0.210976
  17 N :    0.165975
  18 C :   -0.173745
  19 N :    0.149295
  20 C :    0.028169
  21 C :   -0.104307
  22 C :    0.009468
  23 C :    0.057207
  24 C :    0.076395
  25 C :   -0.113798
  26 S :    0.144121
  27 C :   -0.100000
  28 C :    0.039133
  29 C :   -0.001975
  30 C :   -0.067036
  31 S :    0.143246
  32 C :    0.110479
  33 C :   -0.028162
  34 C :   -0.015854
  35 C :   -0.024377
  36 C :   -0.050372
  37 C :    0.060531
  38 C :    0.065048
  39 C :   -0.117943
  40 S :    0.110789
  41 C :   -0.112592
  42 C :    0.053356
  43 C :   -0.009370
  44 C :   -0.065924
  45 S :    0.130468
  46 C :    0.094172
  47 C :   -0.004680
  48 C :    0.049521
  49 C :   -0.047010
  50 C :   -0.047132
  51 C :    0.123019
  52 C :   -0.044875
  53 S :    0.106049
  54 C :   -0.041954
  55 C :    0.087502
  56 C :   -0.028889
  57 C :   -0.060748
  58 S :    0.099264
  59 C :   -0.105245
  60 C :   -0.005535
  61 C :    0.116558
  62 C :   -0.179932
  63 C :    0.247676
  64 O :   -0.190508
  65 N :   -0.241260
  66 C :    0.128736
  67 C :   -0.308131
  68 C :   -0.194529
  69 N :    0.166100
  70 C :   -0.219053
  71 N :    0.142685
  72 S :    0.146413
  73 C :    0.116176
  74 H :   -0.003400
  75 H :    0.003360
  76 H :   -0.010079
  77 H :   -0.005314
  78 H :   -0.012945
  79 H :    0.029746
  80 H :   -0.009576
  81 H :    0.040688
  82 H :   -0.011685
  83 H :    0.029974
  84 H :   -0.008421
  85 H :   -0.015803
  86 H :   -0.025969
  87 H :    0.036665
  88 H :   -0.008629
  89 H :    0.026207
  90 H :   -0.038955
  91 H :   -0.047066
  92 H :   -0.031600
  93 H :   -0.024942
  94 H :   -0.034890
  95 H :    0.007640
  96 H :    0.008322
  97 H :    0.065770
  98 H :    0.065108
  99 H :    0.064832
Sum of atomic charges:   -0.0000000

LOEWDIN ATOMIC CHARGES
----------------------
   0 C :   -0.042545
   1 C :    0.093344
   2 F :   -0.065747
   3 C :   -0.037969
   4 C :    0.004561
   5 C :   -0.019665
   6 C :    0.003600
   7 C :    0.008486
   8 C :   -0.015514
   9 C :   -0.059730
  10 C :    0.033892
  11 C :    0.082407
  12 O :   -0.148538
  13 C :   -0.104035
  14 C :    0.056529
  15 C :   -0.145800
  16 C :   -0.035921
  17 N :   -0.056273
  18 C :   -0.019338
  19 N :   -0.054746
  20 C :    0.044122
  21 C :   -0.183954
  22 C :    0.030398
  23 C :   -0.029047
  24 C :   -0.052740
  25 C :   -0.125163
  26 S :    0.478525
  27 C :   -0.181958
  28 C :   -0.044110
  29 C :   -0.064309
  30 C :   -0.162225
  31 S :    0.436214
  32 C :   -0.015813
  33 C :   -0.028992
  34 C :   -0.038365
  35 C :   -0.161422
  36 C :   -0.019920
  37 C :   -0.017672
  38 C :   -0.051808
  39 C :   -0.137915
  40 S :    0.449568
  41 C :   -0.198344
  42 C :   -0.037609
  43 C :   -0.065540
  44 C :   -0.164906
  45 S :    0.425711
  46 C :   -0.048272
  47 C :    0.003856
  48 C :   -0.063973
  49 C :   -0.133450
  50 C :   -0.071646
  51 C :   -0.028382
  52 C :   -0.156243
  53 S :    0.390463
  54 C :   -0.021902
  55 C :   -0.057095
  56 C :   -0.145315
  57 C :   -0.047080
  58 S :    0.386206
  59 C :   -0.174370
  60 C :   -0.005582
  61 C :    0.002477
  62 C :   -0.214875
  63 C :    0.077352
  64 O :   -0.166279
  65 N :   -0.005176
  66 C :   -0.033364
  67 C :   -0.214108
  68 C :   -0.034371
  69 N :   -0.064547
  70 C :   -0.040743
  71 N :   -0.052671
  72 S :    0.424873
  73 C :    0.037639
  74 H :    0.042854
  75 H :    0.041773
  76 H :    0.035398
  77 H :    0.038815
  78 H :    0.039255
  79 H :    0.049607
  80 H :    0.041924
  81 H :    0.038913
  82 H :    0.029458
  83 H :    0.025411
  84 H :    0.019861
  85 H :    0.033540
  86 H :    0.034614
  87 H :    0.036699
  88 H :    0.029401
  89 H :    0.024048
  90 H :    0.025658
  91 H :    0.023659
  92 H :    0.025203
  93 H :    0.033992
  94 H :    0.029528
  95 H :    0.033887
  96 H :    0.039143
  97 H :    0.042546
  98 H :    0.040907
  99 H :    0.040760

  Mayer bond orders larger than 0.100000
B(  0-C ,  1-C ) :   1.4400 B(  0-C ,  6-C ) :   1.2036 B(  0-C , 74-H ) :   1.0072
B(  1-C ,  2-F ) :   1.0878 B(  1-C ,  3-C ) :   1.2561 B(  3-C ,  4-C ) :   1.4598
B(  3-C , 75-H ) :   0.9922 B(  4-C ,  5-C ) :   1.2354 B(  4-C , 76-H ) :   0.9970
B(  5-C ,  6-C ) :   1.2589 B(  5-C , 10-C ) :   1.1893 B(  6-C ,  7-C ) :   1.1991
B(  7-C ,  8-C ) :   1.4653 B(  7-C , 77-H ) :   0.9951 B(  8-C ,  9-C ) :   1.2175
B(  8-C , 14-C ) :   0.9987 B(  9-C , 10-C ) :   1.4727 B(  9-C , 11-C ) :   0.9206
B( 10-C , 78-H ) :   1.0159 B( 11-C , 12-O ) :   2.2700 B( 11-C , 13-C ) :   0.9448
B( 13-C , 14-C ) :   1.0540 B( 13-C , 20-C ) :   1.5938 B( 14-C , 15-C ) :   1.6308
B( 15-C , 16-C ) :   1.1572 B( 15-C , 18-C ) :   1.1436 B( 16-C , 17-N ) :   3.0152
B( 18-C , 19-N ) :   2.9816 B( 20-C , 21-C ) :   1.1524 B( 20-C , 79-H ) :   0.9475
B( 21-C , 22-C ) :   1.4580 B( 21-C , 26-S ) :   1.0458 B( 22-C , 23-C ) :   1.2558
B( 22-C , 80-H ) :   0.9751 B( 23-C , 24-C ) :   1.0459 B( 23-C , 32-C ) :   1.3385
B( 24-C , 25-C ) :   1.5981 B( 24-C , 27-C ) :   1.1870 B( 25-C , 26-S ) :   1.1535
B( 25-C , 81-H ) :   0.9416 B( 27-C , 28-C ) :   1.4289 B( 27-C , 31-S ) :   1.0934
B( 28-C , 29-C ) :   1.2078 B( 28-C , 32-C ) :   1.1080 B( 29-C , 30-C ) :   1.5949
B( 29-C , 82-H ) :   0.9971 B( 30-C , 31-S ) :   1.1485 B( 30-C , 83-H ) :   0.9658
B( 32-C , 33-C ) :   1.1993 B( 33-C , 34-C ) :   1.5856 B( 33-C , 84-H ) :   0.9450
B( 34-C , 35-C ) :   1.1621 B( 34-C , 85-H ) :   0.9897 B( 35-C , 36-C ) :   1.4981
B( 35-C , 40-S ) :   1.0427 B( 36-C , 37-C ) :   1.2284 B( 36-C , 86-H ) :   0.9769
B( 37-C , 38-C ) :   1.0503 B( 37-C , 46-C ) :   1.3579 B( 38-C , 39-C ) :   1.6073
B( 38-C , 41-C ) :   1.1784 B( 39-C , 40-S ) :   1.1402 B( 39-C , 87-H ) :   0.9411
B( 41-C , 42-C ) :   1.4514 B( 41-C , 45-S ) :   1.0816 B( 42-C , 43-C ) :   1.2091
B( 42-C , 46-C ) :   1.0764 B( 43-C , 44-C ) :   1.5905 B( 43-C , 88-H ) :   1.0006
B( 44-C , 45-S ) :   1.1549 B( 44-C , 89-H ) :   0.9642 B( 46-C , 47-C ) :   1.1964
B( 47-C , 48-C ) :   1.6376 B( 47-C , 90-H ) :   0.9572 B( 48-C , 49-C ) :   1.1186
B( 48-C , 91-H ) :   0.9647 B( 49-C , 50-C ) :   1.5447 B( 49-C , 53-S ) :   1.0751
B( 50-C , 51-C ) :   1.1755 B( 50-C , 92-H ) :   0.9940 B( 51-C , 52-C ) :   1.2577
B( 51-C , 57-C ) :   1.3158 B( 52-C , 53-S ) :   1.0389 B( 52-C , 54-C ) :   1.4097
B( 54-C , 55-C ) :   1.2946 B( 54-C , 93-H ) :   1.0018 B( 55-C , 56-C ) :   1.2665
B( 55-C , 60-C ) :   1.1651 B( 56-C , 57-C ) :   1.3804 B( 56-C , 58-S ) :   1.0566
B( 57-C , 94-H ) :   1.0009 B( 58-S , 59-C ) :   1.0451 B( 59-C , 60-C ) :   1.5233
B( 59-C , 61-C ) :   1.2013 B( 60-C , 95-H ) :   0.9810 B( 61-C , 62-C ) :   1.6917
B( 61-C , 96-H ) :   0.9264 B( 62-C , 63-C ) :   0.9742 B( 62-C , 72-S ) :   1.0088
B( 63-C , 64-O ) :   2.0585 B( 63-C , 65-N ) :   1.0631 B( 65-N , 66-C ) :   1.2005
B( 65-N , 73-C ) :   0.9348 B( 66-C , 67-C ) :   1.5457 B( 66-C , 72-S ) :   1.0968
B( 67-C , 68-C ) :   1.1686 B( 67-C , 70-C ) :   1.1516 B( 68-C , 69-N ) :   3.0105
B( 70-C , 71-N ) :   3.0327 B( 73-C , 97-H ) :   0.9428 B( 73-C , 98-H ) :   0.9691
B( 73-C , 99-H ) :   0.9693

-----------------------------------------------------------------------------
         ABSORPTION SPECTRUM VIA TRANSITION ELECTRIC DIPOLE MOMENTS
-----------------------------------------------------------------------------
State   Energy  Wavelength   fosc         T2         TX        TY        TZ
        (cm-1)    (nm)                  (au**2)     (au)      (au)      (au)
-----------------------------------------------------------------------------
   0   11796.4    847.7   1.375797555  38.39563  -5.36044   3.10171  -0.20190
   1   17481.2    572.0   0.906377461  17.06918  -0.61689   3.75437  -1.61038
   2   18085.5    552.9   0.212250839   3.86363  -1.51155   1.10367   0.60063
   3   20771.6    481.4   0.481514011   7.63159  -0.84127  -2.57464  -0.54324
   4   21607.8    462.8   0.119202665   1.81615  -0.31761   0.99441   0.85230
   5   21974.5    455.1   0.054861756   0.82192   0.55244   0.30748   0.64976
   6   22937.5    436.0   0.093898940   1.34769   0.86917   0.51458   0.57222
   7   23780.0    420.5   0.093128553   1.28928  -0.09440   1.12762   0.09405
   8   24997.5    400.0   0.017075305   0.22488  -0.35020  -0.18373  -0.26169
   9   25652.5    389.8   0.141585237   1.81704  -0.27032  -1.23879  -0.45756
  10   25711.0    388.9   0.507943408   6.50388  -1.06534   2.30246  -0.26003
  11   26160.7    382.3   0.010919975   0.13742  -0.02299  -0.23892   0.28250
  12   26636.3    375.4   0.033695045   0.41645   0.36469  -0.49510   0.19580
  13   27106.9    368.9   0.239975800   2.91450   0.86834  -1.18631   0.86785
  14   27296.6    366.3   0.093608939   1.12897  -0.39092   0.96896  -0.19306
  15   28973.3    345.1   0.029028250   0.32984  -0.53068   0.21873   0.01926
  16   29368.9    340.5   0.187114318   2.09746   0.16314   1.40782   0.29815
  17   30023.2    333.1   0.060601082   0.66451  -0.46864  -0.50630  -0.43422
  18   30195.9    331.2   0.000985305   0.01074   0.04420   0.06952  -0.06289
  19   30325.9    329.8   0.068413295   0.74268  -0.23139  -0.82875   0.04804
  20   30623.5    326.5   0.099036379   1.06467  -0.12243   1.02328   0.05079
  21   31484.2    317.6   0.095089053   0.99429   0.21843   0.93801   0.25832
  22   31658.3    315.9   0.102374442   1.06458   0.99418   0.27230  -0.04510
  23   31988.9    312.6   0.133686412   1.37583   1.09783  -0.33168   0.24613
  24   32651.1    306.3   0.079184852   0.79840  -0.42324  -0.73873  -0.27119
  25   32996.6    303.1   0.404160509   4.03236  -1.66887   1.11019  -0.12134
  26   33379.1    299.6   0.109143166   1.07646   0.55905  -0.86425   0.13036
  27   33711.3    296.6   0.472899186   4.61816   1.65859  -1.16566  -0.71306
  28   33899.9    295.0   0.622032734   6.04074  -2.38994   0.34152  -0.46075
  29   34353.7    291.1   0.088459838   0.84771   0.78329  -0.42091  -0.23874
  30   34702.6    288.2   0.239363540   2.27076  -0.01661   1.15864   0.96335
  31   34887.0    286.6   0.017371089   0.16392   0.04236  -0.38346   0.12284
  32   35411.9    282.4   0.059200789   0.55037  -0.23509  -0.63374  -0.30573
  33   35696.0    280.1   0.024191131   0.22311  -0.13364   0.32978   0.31063
  34   35948.1    278.2   0.011575146   0.10600  -0.11423   0.17148  -0.25209
  35   36233.8    276.0   0.096215011   0.87419  -0.78461   0.47794   0.17361
  36   36863.9    271.3   0.074419024   0.66460  -0.46920  -0.64735  -0.15932
  37   37042.2    270.0   0.050440364   0.44829   0.09028  -0.66333  -0.01144
  38   37146.6    269.2   0.150820204   1.33665   0.78675  -0.81096   0.24497
  39   37536.3    266.4   0.026781878   0.23489  -0.18036   0.14274  -0.42660
  40   37772.3    264.7   0.091106400   0.79406   0.73059  -0.50133   0.09468
  41   37881.8    264.0   0.118879139   1.03312   0.85115  -0.51650   0.20466
  42   38287.8    261.2   0.008139673   0.06999   0.08140  -0.00456  -0.25168
  43   38471.7    259.9   0.040590569   0.34734   0.11300  -0.37834  -0.43753
  44   38751.0    258.1   0.138069243   1.17298   0.30144   1.02693   0.16594
  45   38889.7    257.1   0.025484282   0.21573   0.32246   0.30333  -0.14049
  46   39098.4    255.8   0.049748920   0.41889   0.53341  -0.28316   0.23277
  47   39141.2    255.5   0.019580113   0.16469  -0.17267   0.25821  -0.26115
  48   39236.9    254.9   0.149603414   1.25523  -0.11949  -1.10448   0.14516
  49   39419.2    253.7   0.132780671   1.10893   1.00808  -0.26442   0.15091
  50   40132.3    249.2   0.057481533   0.47153  -0.09732   0.61454   0.29051

FINAL SINGLE POINT ENERGY     -5570.838053000039

DIPOLE MOMENT
-------------
                                X             Y             Z
Electronic contribution:     25.53969       2.54259       3.06328
Nuclear contribution   :    -25.02274      -8.03527      -1.10235
                        -----------------------------------------
Total Dipole Moment    :      0.51695      -5.49268       1.96093
                        -----------------------------------------
Magnitude (a.u.)       :      5.85508
Magnitude (Debye)      :     14.88244

Rotational constants in cm-1:     0.000973     0.000174     0.000156
Rotational constants in MHz :    29.160741     5.212279     4.675002

                             ****ORCA TERMINATED NORMALLY****
TOTAL RUN TIME: 0 days 0 hours 9 minutes 51 seconds 55 msec
