                         Program Version 4.2.0 -  RELEASE  -
|  1> # ORCA input file
|  2> # SCF done       -175.140413725884          0.000667554026
|  3> ! CAM-B3LYP def2-SVP def2/J RIJCOSX Grid4 TightSCF
|  4> %maxcore 5000
|  5> %tddft
|  6>     Mode sTDDFT
|  7>     Ethresh 5.0
|  8>     maxcore 5000
|  9> end
| 10>
| 11> %pal
| 12>   nprocs 6
| 13>   end
| 14> * xyz 0 1
| 15>    C       18.70735        -3.61048        -8.98639
| 16>    C       19.18895        -4.21462       -10.11437
| 17>    F       20.51213        -4.20235       -10.35852
| 18>    C       18.35320        -4.85454       -11.03930
| 19>    C       17.00603        -4.87870       -10.80702
| 20>    C       16.45533        -4.27173        -9.66007
| 21>    C       17.32218        -3.62205        -8.73368
| 22>    C       16.79141        -2.99110        -7.58396
| 23>    C       15.44068        -3.01524        -7.37032
| 24>    C       14.58002        -3.68422        -8.28863
| 25>    C       15.06449        -4.29364        -9.40946
| 26>    C       13.18784        -3.59039        -7.80750
| 27>    O       12.18246        -3.99593        -8.34641
| 28>    C       13.27969        -2.93552        -6.47488
| 29>    C       14.61873        -2.41979        -6.32135
| 30>    C       14.98751        -1.35857        -5.53134
| 31>    C       14.06440        -0.61357        -4.77123
| 32>    N       13.32032         0.03655        -4.18514
| 33>    C       16.29488        -0.83923        -5.47575
| 34>    N       17.34809        -0.39221        -5.38013
| 35>    C       12.20334        -2.96141        -5.63555
| 36>    C       12.15636        -2.79268        -4.22817
| 37>    C       10.98302        -2.43845        -3.59289
| 38>    C       10.85582        -2.19791        -2.23164
| 39>    C       12.02434        -2.27245        -1.34411
| 40>    C       13.24849        -2.69190        -1.73081
| 41>    S       13.63160        -3.15200        -3.33352
| 42>    C       11.57128        -1.82529        -0.07341
| 43>    C       10.21697        -1.49392        -0.15018
| 44>    C        9.70919        -1.03997         1.08785
| 45>    C       10.67022        -1.03639         2.04744
| 46>    S       12.21940        -1.58320         1.49612
| 47>    C        9.74233        -1.74972        -1.48221
| 48>    C        8.39240        -1.56026        -1.85219
| 49>    C        7.74116        -2.09865        -2.92057
| 50>    C        6.38594        -1.84622        -3.22560
| 51>    S        5.53355        -2.84372        -4.38471
| 52>    C        4.00922        -2.02727        -4.17832
| 53>    C        4.16575        -0.98441        -3.26235
| 54>    C        5.49722        -0.89583        -2.74041
| 55>    N        5.54967         0.16324        -1.89094
| 56>    C        4.30764         0.74879        -1.87190
| 57>    N        4.09772         1.88298        -1.06651
| 58>    O        5.06023         2.27050        -0.42105
| 59>    O        2.99669         2.39189        -1.06410
| 60>    C        3.42714         0.07860        -2.69196
| 61>    C        2.84592        -2.46738        -4.87247
| 62>    C        1.54007        -2.06865        -4.52421
| 63>    N        0.47729        -2.48258        -5.16494
| 64>    C        0.65634        -3.33162        -6.18319
| 65>    N        1.84680        -3.79273        -6.58809
| 66>    C        2.90809        -3.36891        -5.95272
| 67>    C       -0.50039        -3.79215        -6.88544
| 68>    C       -1.81977        -3.45696        -6.65465
| 69>    C       -2.67355        -4.11084        -7.54249
| 70>    C       -1.98471        -4.94149        -8.44369
| 71>    S       -0.29788        -4.92033        -8.20381
| 72>    C       -2.94128        -5.55781        -9.30194
| 73>    C       -4.21939        -5.11545        -8.94298
| 74>    C       -4.09985        -4.19330        -7.82671
| 75>    C       -5.10932        -3.54239        -7.18028
| 76>    C       -4.87546        -2.66828        -6.09753
| 77>    N       -4.70177        -1.95661        -5.21574
| 78>    C       -6.46177        -3.69895        -7.55039
| 79>    N       -7.56224        -3.82090        -7.84857
| 80>    C       -5.22919        -5.67886        -9.74581
| 81>    C       -4.70564        -6.52200       -10.67899
| 82>    S       -2.98042        -6.65413       -10.60971
| 83>    H       19.38007        -3.12312        -8.29807
| 84>    H       18.78980        -5.31278       -11.91241
| 85>    H       16.34213        -5.36593       -11.50522
| 86>    H       17.46845        -2.50970        -6.89598
| 87>    H       14.39563        -4.78582       -10.09953
| 88>    H       11.26192        -3.21758        -6.11276
| 89>    H       10.13446        -2.25488        -4.23645
| 90>    H       14.07913        -2.76877        -1.04715
| 91>    H        8.69567        -0.73048         1.26768
| 92>    H       10.57083        -0.74080         3.07347
| 93>    H        7.81506        -0.97498        -1.14865
| 94>    H        8.23903        -2.81638        -3.55469
| 95>    H        6.34120         0.55239        -1.40292
| 96>    H        2.40548         0.35447        -2.85178
| 97>    H        1.35656        -1.41595        -3.68312
| 98>    H        3.86141        -3.74546        -6.30462
| 99>    H       -2.10910        -2.77425        -5.87714
|100>    H       -6.28007        -5.47818        -9.64497
|101>    H       -5.23344        -7.08799       -11.42023
|102> *
|103>
|104>                          ****END OF INPUT****

CARTESIAN COORDINATES (ANGSTROEM)
---------------------------------
  C     18.707350   -3.610480   -8.986390
  C     19.188950   -4.214620  -10.114370
  F     20.512130   -4.202350  -10.358520
  C     18.353200   -4.854540  -11.039300
  C     17.006030   -4.878700  -10.807020
  C     16.455330   -4.271730   -9.660070
  C     17.322180   -3.622050   -8.733680
  C     16.791410   -2.991100   -7.583960
  C     15.440680   -3.015240   -7.370320
  C     14.580020   -3.684220   -8.288630
  C     15.064490   -4.293640   -9.409460
  C     13.187840   -3.590390   -7.807500
  O     12.182460   -3.995930   -8.346410
  C     13.279690   -2.935520   -6.474880
  C     14.618730   -2.419790   -6.321350
  C     14.987510   -1.358570   -5.531340
  C     14.064400   -0.613570   -4.771230
  N     13.320320    0.036550   -4.185140
  C     16.294880   -0.839230   -5.475750
  N     17.348090   -0.392210   -5.380130
  C     12.203340   -2.961410   -5.635550
  C     12.156360   -2.792680   -4.228170
  C     10.983020   -2.438450   -3.592890
  C     10.855820   -2.197910   -2.231640
  C     12.024340   -2.272450   -1.344110
  C     13.248490   -2.691900   -1.730810
  S     13.631600   -3.152000   -3.333520
  C     11.571280   -1.825290   -0.073410
  C     10.216970   -1.493920   -0.150180
  C      9.709190   -1.039970    1.087850
  C     10.670220   -1.036390    2.047440
  S     12.219400   -1.583200    1.496120
  C      9.742330   -1.749720   -1.482210
  C      8.392400   -1.560260   -1.852190
  C      7.741160   -2.098650   -2.920570
  C      6.385940   -1.846220   -3.225600
  S      5.533550   -2.843720   -4.384710
  C      4.009220   -2.027270   -4.178320
  C      4.165750   -0.984410   -3.262350
  C      5.497220   -0.895830   -2.740410
  N      5.549670    0.163240   -1.890940
  C      4.307640    0.748790   -1.871900
  N      4.097720    1.882980   -1.066510
  O      5.060230    2.270500   -0.421050
  O      2.996690    2.391890   -1.064100
  C      3.427140    0.078600   -2.691960
  C      2.845920   -2.467380   -4.872470
  C      1.540070   -2.068650   -4.524210
  N      0.477290   -2.482580   -5.164940
  C      0.656340   -3.331620   -6.183190
  N      1.846800   -3.792730   -6.588090
  C      2.908090   -3.368910   -5.952720
  C     -0.500390   -3.792150   -6.885440
  C     -1.819770   -3.456960   -6.654650
  C     -2.673550   -4.110840   -7.542490
  C     -1.984710   -4.941490   -8.443690
  S     -0.297880   -4.920330   -8.203810
  C     -2.941280   -5.557810   -9.301940
  C     -4.219390   -5.115450   -8.942980
  C     -4.099850   -4.193300   -7.826710
  C     -5.109320   -3.542390   -7.180280
  C     -4.875460   -2.668280   -6.097530
  N     -4.701770   -1.956610   -5.215740
  C     -6.461770   -3.698950   -7.550390
  N     -7.562240   -3.820900   -7.848570
  C     -5.229190   -5.678860   -9.745810
  C     -4.705640   -6.522000  -10.678990
  S     -2.980420   -6.654130  -10.609710
  H     19.380070   -3.123120   -8.298070
  H     18.789800   -5.312780  -11.912410
  H     16.342130   -5.365930  -11.505220
  H     17.468450   -2.509700   -6.895980
  H     14.395630   -4.785820  -10.099530
  H     11.261920   -3.217580   -6.112760
  H     10.134460   -2.254880   -4.236450
  H     14.079130   -2.768770   -1.047150
  H      8.695670   -0.730480    1.267680
  H     10.570830   -0.740800    3.073470
  H      7.815060   -0.974980   -1.148650
  H      8.239030   -2.816380   -3.554690
  H      6.341200    0.552390   -1.402920
  H      2.405480    0.354470   -2.851780
  H      1.356560   -1.415950   -3.683120
  H      3.861410   -3.745460   -6.304620
  H     -2.109100   -2.774250   -5.877140
  H     -6.280070   -5.478180   -9.644970
  H     -5.233440   -7.087990  -11.420230

 Total Charge           Charge          ....    0
 Multiplicity           Mult            ....    1
 Number of Electrons    NEL             ....  494
 Basis Dimension        Dim             .... 1067

ORBITAL ENERGIES
----------------

  NO   OCC          E(Eh)            E(eV)
   0   2.0000     -88.985625     -2421.4219
   1   2.0000     -88.984369     -2421.3878
   2   2.0000     -88.983447     -2421.3627
   3   2.0000     -88.978548     -2421.2294
   4   2.0000     -88.966819     -2420.9102
   5   2.0000     -24.784976      -674.4335
   6   2.0000     -19.254916      -523.9529
   7   2.0000     -19.254684      -523.9466
   8   2.0000     -19.212534      -522.7996
   9   2.0000     -14.664851      -399.0509
  10   2.0000     -14.490250      -394.2998
  11   2.0000     -14.426986      -392.5782
  12   2.0000     -14.424887      -392.5211
  13   2.0000     -14.424280      -392.5046
  14   2.0000     -14.423738      -392.4899
  15   2.0000     -14.413706      -392.2169
  16   2.0000     -14.410850      -392.1392
  17   2.0000     -10.372504      -282.2502
  18   2.0000     -10.368531      -282.1421
  19   2.0000     -10.364311      -282.0272
  20   2.0000     -10.360072      -281.9119
  21   2.0000     -10.358392      -281.8662
  22   2.0000     -10.346382      -281.5394
  23   2.0000     -10.339958      -281.3646
  24   2.0000     -10.339137      -281.3422
  25   2.0000     -10.337926      -281.3093
  26   2.0000     -10.337723      -281.3037
  27   2.0000     -10.336621      -281.2738
  28   2.0000     -10.334585      -281.2183
  29   2.0000     -10.333136      -281.1789
  30   2.0000     -10.327975      -281.0385
  31   2.0000     -10.327458      -281.0244
  32   2.0000     -10.325997      -280.9847
  33   2.0000     -10.325426      -280.9691
  34   2.0000     -10.324056      -280.9318
  35   2.0000     -10.323869      -280.9268
  36   2.0000     -10.320598      -280.8377
  37   2.0000     -10.316389      -280.7232
  38   2.0000     -10.314485      -280.6714
  39   2.0000     -10.313708      -280.6503
  40   2.0000     -10.312969      -280.6301
  41   2.0000     -10.310571      -280.5649
  42   2.0000     -10.309727      -280.5419
  43   2.0000     -10.309723      -280.5418
  44   2.0000     -10.306155      -280.4447
  45   2.0000     -10.305718      -280.4328
  46   2.0000     -10.305222      -280.4193
  47   2.0000     -10.304951      -280.4120
  48   2.0000     -10.304556      -280.4012
  49   2.0000     -10.304388      -280.3967
  50   2.0000     -10.300600      -280.2936
  51   2.0000     -10.299835      -280.2728
  52   2.0000     -10.298847      -280.2459
  53   2.0000     -10.297666      -280.2137
  54   2.0000     -10.297465      -280.2083
  55   2.0000     -10.296849      -280.1915
  56   2.0000     -10.296627      -280.1855
  57   2.0000     -10.296181      -280.1733
  58   2.0000     -10.296174      -280.1731
  59   2.0000     -10.296092      -280.1709
  60   2.0000     -10.295777      -280.1623
  61   2.0000     -10.295335      -280.1503
  62   2.0000     -10.294429      -280.1257
  63   2.0000     -10.293431      -280.0985
  64   2.0000     -10.288631      -279.9679
  65   2.0000     -10.287948      -279.9493
  66   2.0000     -10.285423      -279.8806
  67   2.0000     -10.283688      -279.8334
  68   2.0000      -8.080589      -219.8840
  69   2.0000      -8.078431      -219.8253
  70   2.0000      -8.078125      -219.8169
  71   2.0000      -8.073439      -219.6895
  72   2.0000      -8.062199      -219.3836
  73   2.0000      -6.049822      -164.6240
  74   2.0000      -6.047599      -164.5635
  75   2.0000      -6.047424      -164.5588
  76   2.0000      -6.045405      -164.5038
  77   2.0000      -6.043352      -164.4480
  78   2.0000      -6.043275      -164.4459
  79   2.0000      -6.043247      -164.4451
  80   2.0000      -6.043070      -164.4403
  81   2.0000      -6.041089      -164.3864
  82   2.0000      -6.040402      -164.3677
  83   2.0000      -6.038511      -164.3162
  84   2.0000      -6.035224      -164.2268
  85   2.0000      -6.031661      -164.1298
  86   2.0000      -6.027338      -164.0122
  87   2.0000      -6.024264      -163.9286
  88   2.0000      -1.335316       -36.3358
  89   2.0000      -1.299823       -35.3700
  90   2.0000      -1.155412       -31.4403
  91   2.0000      -1.127508       -30.6810
  92   2.0000      -1.115064       -30.3424
  93   2.0000      -1.099758       -29.9259
  94   2.0000      -1.038324       -28.2542
  95   2.0000      -1.019071       -27.7303
  96   2.0000      -1.016089       -27.6492
  97   2.0000      -1.014651       -27.6101
  98   2.0000      -1.001990       -27.2655
  99   2.0000      -1.001449       -27.2508
 100   2.0000      -0.998468       -27.1697
 101   2.0000      -0.995106       -27.0782
 102   2.0000      -0.992297       -27.0018
 103   2.0000      -0.989723       -26.9317
 104   2.0000      -0.981357       -26.7041
 105   2.0000      -0.972837       -26.4723
 106   2.0000      -0.952690       -25.9240
 107   2.0000      -0.944128       -25.6910
 108   2.0000      -0.934703       -25.4346
 109   2.0000      -0.924915       -25.1682
 110   2.0000      -0.916345       -24.9350
 111   2.0000      -0.913610       -24.8606
 112   2.0000      -0.904433       -24.6109
 113   2.0000      -0.897630       -24.4258
 114   2.0000      -0.892366       -24.2825
 115   2.0000      -0.884623       -24.0718
 116   2.0000      -0.881721       -23.9928
 117   2.0000      -0.862391       -23.4669
 118   2.0000      -0.860554       -23.4169
 119   2.0000      -0.854326       -23.2474
 120   2.0000      -0.848307       -23.0836
 121   2.0000      -0.834338       -22.7035
 122   2.0000      -0.833207       -22.6727
 123   2.0000      -0.817755       -22.2522
 124   2.0000      -0.807233       -21.9659
 125   2.0000      -0.798317       -21.7233
 126   2.0000      -0.790999       -21.5242
 127   2.0000      -0.778306       -21.1788
 128   2.0000      -0.772168       -21.0117
 129   2.0000      -0.760851       -20.7038
 130   2.0000      -0.758623       -20.6432
 131   2.0000      -0.756117       -20.5750
 132   2.0000      -0.739698       -20.1282
 133   2.0000      -0.730053       -19.8657
 134   2.0000      -0.716980       -19.5100
 135   2.0000      -0.711601       -19.3637
 136   2.0000      -0.707832       -19.2611
 137   2.0000      -0.698581       -19.0093
 138   2.0000      -0.696159       -18.9434
 139   2.0000      -0.695022       -18.9125
 140   2.0000      -0.681775       -18.5520
 141   2.0000      -0.678725       -18.4690
 142   2.0000      -0.672664       -18.3041
 143   2.0000      -0.671560       -18.2741
 144   2.0000      -0.660105       -17.9624
 145   2.0000      -0.656490       -17.8640
 146   2.0000      -0.647523       -17.6200
 147   2.0000      -0.645301       -17.5595
 148   2.0000      -0.643429       -17.5086
 149   2.0000      -0.634211       -17.2578
 150   2.0000      -0.633163       -17.2293
 151   2.0000      -0.630081       -17.1454
 152   2.0000      -0.628459       -17.1012
 153   2.0000      -0.622073       -16.9275
 154   2.0000      -0.613982       -16.7073
 155   2.0000      -0.610155       -16.6032
 156   2.0000      -0.609686       -16.5904
 157   2.0000      -0.603100       -16.4112
 158   2.0000      -0.598301       -16.2806
 159   2.0000      -0.593495       -16.1498
 160   2.0000      -0.590161       -16.0591
 161   2.0000      -0.585256       -15.9256
 162   2.0000      -0.572915       -15.5898
 163   2.0000      -0.569758       -15.5039
 164   2.0000      -0.562485       -15.3060
 165   2.0000      -0.560173       -15.2431
 166   2.0000      -0.557470       -15.1695
 167   2.0000      -0.554617       -15.0919
 168   2.0000      -0.552375       -15.0309
 169   2.0000      -0.549747       -14.9594
 170   2.0000      -0.547944       -14.9103
 171   2.0000      -0.544734       -14.8230
 172   2.0000      -0.544167       -14.8075
 173   2.0000      -0.542650       -14.7663
 174   2.0000      -0.535230       -14.5643
 175   2.0000      -0.534048       -14.5322
 176   2.0000      -0.530713       -14.4414
 177   2.0000      -0.529955       -14.4208
 178   2.0000      -0.522494       -14.2178
 179   2.0000      -0.522195       -14.2096
 180   2.0000      -0.519533       -14.1372
 181   2.0000      -0.518821       -14.1178
 182   2.0000      -0.509285       -13.8584
 183   2.0000      -0.505983       -13.7685
 184   2.0000      -0.504671       -13.7328
 185   2.0000      -0.499982       -13.6052
 186   2.0000      -0.499201       -13.5840
 187   2.0000      -0.497730       -13.5439
 188   2.0000      -0.494034       -13.4433
 189   2.0000      -0.488724       -13.2989
 190   2.0000      -0.487282       -13.2596
 191   2.0000      -0.485699       -13.2165
 192   2.0000      -0.483619       -13.1599
 193   2.0000      -0.479888       -13.0584
 194   2.0000      -0.476256       -12.9596
 195   2.0000      -0.470881       -12.8133
 196   2.0000      -0.470323       -12.7981
 197   2.0000      -0.465340       -12.6625
 198   2.0000      -0.464838       -12.6489
 199   2.0000      -0.462337       -12.5808
 200   2.0000      -0.456873       -12.4321
 201   2.0000      -0.455935       -12.4066
 202   2.0000      -0.455461       -12.3937
 203   2.0000      -0.451860       -12.2957
 204   2.0000      -0.447503       -12.1772
 205   2.0000      -0.447364       -12.1734
 206   2.0000      -0.443052       -12.0561
 207   2.0000      -0.441787       -12.0216
 208   2.0000      -0.440428       -11.9846
 209   2.0000      -0.439985       -11.9726
 210   2.0000      -0.438505       -11.9323
 211   2.0000      -0.437011       -11.8917
 212   2.0000      -0.434688       -11.8285
 213   2.0000      -0.433429       -11.7942
 214   2.0000      -0.431430       -11.7398
 215   2.0000      -0.427130       -11.6228
 216   2.0000      -0.425597       -11.5811
 217   2.0000      -0.423929       -11.5357
 218   2.0000      -0.420700       -11.4478
 219   2.0000      -0.420342       -11.4381
 220   2.0000      -0.415141       -11.2966
 221   2.0000      -0.411203       -11.1894
 222   2.0000      -0.409379       -11.1398
 223   2.0000      -0.402938       -10.9645
 224   2.0000      -0.401916       -10.9367
 225   2.0000      -0.401480       -10.9248
 226   2.0000      -0.396947       -10.8015
 227   2.0000      -0.393114       -10.6972
 228   2.0000      -0.384570       -10.4647
 229   2.0000      -0.383297       -10.4300
 230   2.0000      -0.380715       -10.3598
 231   2.0000      -0.376218       -10.2374
 232   2.0000      -0.364442        -9.9170
 233   2.0000      -0.351622        -9.5681
 234   2.0000      -0.342333        -9.3153
 235   2.0000      -0.341707        -9.2983
 236   2.0000      -0.338644        -9.2150
 237   2.0000      -0.335942        -9.1414
 238   2.0000      -0.329262        -8.9597
 239   2.0000      -0.326506        -8.8847
 240   2.0000      -0.316098        -8.6015
 241   2.0000      -0.311311        -8.4712
 242   2.0000      -0.298472        -8.1218
 243   2.0000      -0.293916        -7.9979
 244   2.0000      -0.281176        -7.6512
 245   2.0000      -0.265938        -7.2366
 246   2.0000      -0.230901        -6.2831
 247   0.0000      -0.108812        -2.9609
 248   0.0000      -0.097614        -2.6562
 249   0.0000      -0.081709        -2.2234
 250   0.0000      -0.057569        -1.5665
 251   0.0000      -0.049984        -1.3601

MULLIKEN ATOMIC CHARGES
-----------------------
   0 C :   -0.098734
   1 C :    0.303636
   2 F :   -0.191271
   3 C :   -0.030838
   4 C :   -0.009016
   5 C :    0.099922
   6 C :    0.101211
   7 C :   -0.085193
   8 C :    0.041198
   9 C :    0.009004
  10 C :   -0.081810
  11 C :    0.141566
  12 O :   -0.146777
  13 C :   -0.134937
  14 C :    0.257651
  15 C :   -0.325762
  16 C :   -0.207888
  17 N :    0.166886
  18 C :   -0.174811
  19 N :    0.149004
  20 C :    0.030774
  21 C :   -0.103155
  22 C :    0.002403
  23 C :    0.050006
  24 C :    0.072545
  25 C :   -0.120999
  26 S :    0.142832
  27 C :   -0.089823
  28 C :    0.038999
  29 C :    0.013556
  30 C :   -0.066954
  31 S :    0.143180
  32 C :    0.101921
  33 C :   -0.048118
  34 C :    0.056192
  35 C :   -0.190223
  36 S :    0.152117
  37 C :   -0.117178
  38 C :    0.108882
  39 C :    0.128907
  40 N :   -0.038499
  41 C :    0.140979
  42 N :    0.288683
  43 O :   -0.264283
  44 O :   -0.229656
  45 C :   -0.105237
  46 C :    0.026372
  47 C :    0.023700
  48 N :   -0.038006
  49 C :   -0.080210
  50 N :   -0.061745
  51 C :    0.017461
  52 C :   -0.040796
  53 C :   -0.037774
  54 C :    0.006641
  55 C :   -0.095300
  56 S :    0.232936
  57 C :   -0.123323
  58 C :   -0.026817
  59 C :    0.297324
  60 C :   -0.297358
  61 C :   -0.192162
  62 N :    0.176647
  63 C :   -0.191908
  64 N :    0.171304
  65 C :    0.034585
  66 C :   -0.081354
  67 S :    0.183090
  68 H :   -0.003366
  69 H :    0.002652
  70 H :   -0.009166
  71 H :   -0.004873
  72 H :   -0.012741
  73 H :    0.025695
  74 H :   -0.011003
  75 H :    0.041002
  76 H :   -0.014559
  77 H :    0.032001
  78 H :   -0.050360
  79 H :   -0.019101
  80 H :    0.147462
  81 H :    0.005036
  82 H :    0.002105
  83 H :    0.015389
  84 H :    0.019544
  85 H :    0.013462
  86 H :    0.036621
Sum of atomic charges:   -0.0000000

LOEWDIN ATOMIC CHARGES
----------------------
   0 C :   -0.042760
   1 C :    0.093144
   2 F :   -0.065474
   3 C :   -0.038262
   4 C :    0.004344
   5 C :   -0.019893
   6 C :    0.003625
   7 C :    0.008089
   8 C :   -0.015265
   9 C :   -0.059806
  10 C :    0.033548
  11 C :    0.082511
  12 O :   -0.149535
  13 C :   -0.104862
  14 C :    0.056391
  15 C :   -0.145678
  16 C :   -0.035609
  17 N :   -0.056799
  18 C :   -0.019571
  19 N :   -0.054982
  20 C :    0.042793
  21 C :   -0.185694
  22 C :    0.026244
  23 C :   -0.033435
  24 C :   -0.049581
  25 C :   -0.126447
  26 S :    0.477927
  27 C :   -0.184064
  28 C :   -0.046554
  29 C :   -0.061916
  30 C :   -0.159787
  31 S :    0.435141
  32 C :   -0.016550
  33 C :   -0.035295
  34 C :   -0.033304
  35 C :   -0.204800
  36 S :    0.469375
  37 C :   -0.166889
  38 C :   -0.065146
  39 C :    0.002073
  40 N :    0.071044
  41 C :    0.000264
  42 N :    0.280273
  43 O :   -0.223222
  44 O :   -0.191853
  45 C :   -0.030367
  46 C :   -0.092508
  47 C :    0.055591
  48 N :   -0.072765
  49 C :    0.011794
  50 N :   -0.092275
  51 C :    0.047192
  52 C :   -0.193606
  53 C :    0.001321
  54 C :   -0.076954
  55 C :   -0.173504
  56 S :    0.510953
  57 C :   -0.187398
  58 C :   -0.072094
  59 C :    0.081948
  60 C :   -0.104271
  61 C :   -0.018443
  62 N :   -0.031541
  63 C :   -0.016583
  64 N :   -0.035799
  65 C :   -0.035088
  66 C :   -0.176098
  67 S :    0.478593
  68 H :    0.042824
  69 H :    0.041539
  70 H :    0.035509
  71 H :    0.038835
  72 H :    0.039200
  73 H :    0.048088
  74 H :    0.039780
  75 H :    0.038885
  76 H :    0.030539
  77 H :    0.026008
  78 H :    0.022073
  79 H :    0.028967
  80 H :    0.090816
  81 H :    0.040395
  82 H :    0.026859
  83 H :    0.021273
  84 H :    0.046018
  85 H :    0.042784
  86 H :    0.027755

  Mayer bond orders larger than 0.100000
B(  0-C ,  1-C ) :   1.4388 B(  0-C ,  6-C ) :   1.2055 B(  0-C , 68-H ) :   1.0068
B(  1-C ,  2-F ) :   1.0875 B(  1-C ,  3-C ) :   1.2569 B(  3-C ,  4-C ) :   1.4595
B(  3-C , 69-H ) :   0.9924 B(  4-C ,  5-C ) :   1.2343 B(  4-C , 70-H ) :   0.9971
B(  5-C ,  6-C ) :   1.2567 B(  5-C , 10-C ) :   1.1903 B(  6-C ,  7-C ) :   1.1990
B(  7-C ,  8-C ) :   1.4659 B(  7-C , 71-H ) :   0.9950 B(  8-C ,  9-C ) :   1.2161
B(  8-C , 14-C ) :   0.9996 B(  9-C , 10-C ) :   1.4712 B(  9-C , 11-C ) :   0.9229
B( 10-C , 72-H ) :   1.0157 B( 11-C , 12-O ) :   2.2668 B( 11-C , 13-C ) :   0.9448
B( 13-C , 14-C ) :   1.0536 B( 13-C , 20-C ) :   1.5907 B( 14-C , 15-C ) :   1.6347
B( 15-C , 16-C ) :   1.1577 B( 15-C , 18-C ) :   1.1432 B( 16-C , 17-N ) :   3.0148
B( 18-C , 19-N ) :   2.9826 B( 20-C , 21-C ) :   1.1558 B( 20-C , 73-H ) :   0.9470
B( 21-C , 22-C ) :   1.4515 B( 21-C , 26-S ) :   1.0472 B( 22-C , 23-C ) :   1.2525
B( 22-C , 74-H ) :   0.9747 B( 23-C , 24-C ) :   1.0514 B( 23-C , 32-C ) :   1.3359
B( 24-C , 25-C ) :   1.5974 B( 24-C , 27-C ) :   1.1871 B( 25-C , 26-S ) :   1.1515
B( 25-C , 75-H ) :   0.9422 B( 27-C , 28-C ) :   1.4214 B( 27-C , 31-S ) :   1.0910
B( 28-C , 29-C ) :   1.2121 B( 28-C , 32-C ) :   1.1204 B( 29-C , 30-C ) :   1.5979
B( 29-C , 76-H ) :   0.9970 B( 30-C , 31-S ) :   1.1486 B( 30-C , 77-H ) :   0.9659
B( 32-C , 33-C ) :   1.1976 B( 33-C , 34-C ) :   1.5909 B( 33-C , 78-H ) :   0.9501
B( 34-C , 35-C ) :   1.1677 B( 34-C , 79-H ) :   0.9496 B( 35-C , 36-S ) :   1.0965
B( 35-C , 37-C ) :   0.1142 B( 35-C , 39-C ) :   1.3736 B( 36-S , 37-C ) :   1.1637
B( 37-C , 38-C ) :   1.3551 B( 37-C , 46-C ) :   1.1099 B( 38-C , 39-C ) :   1.2359
B( 38-C , 45-C ) :   1.1319 B( 39-C , 40-N ) :   1.1876 B( 40-N , 41-C ) :   1.1716
B( 40-N , 80-H ) :   0.9009 B( 41-C , 42-N ) :   0.9240 B( 41-C , 45-C ) :   1.5340
B( 42-N , 43-O ) :   1.4776 B( 42-N , 44-O ) :   1.5435 B( 43-O , 44-O ) :   0.2720
B( 45-C , 81-H ) :   1.0140 B( 46-C , 47-C ) :   1.2902 B( 46-C , 51-C ) :   1.2891
B( 47-C , 48-N ) :   1.5881 B( 47-C , 82-H ) :   0.9896 B( 48-N , 49-C ) :   1.5723
B( 49-C , 50-N ) :   1.5602 B( 49-C , 52-C ) :   1.0419 B( 50-N , 51-C ) :   1.5975
B( 51-C , 83-H ) :   0.9814 B( 52-C , 53-C ) :   1.4748 B( 52-C , 56-S ) :   1.1043
B( 53-C , 54-C ) :   1.2660 B( 53-C , 84-H ) :   1.0066 B( 54-C , 55-C ) :   1.4380
B( 54-C , 59-C ) :   0.9971 B( 55-C , 56-S ) :   1.1396 B( 55-C , 57-C ) :   1.1867
B( 57-C , 58-C ) :   1.4607 B( 57-C , 67-S ) :   1.1349 B( 58-C , 59-C ) :   1.0158
B( 58-C , 65-C ) :   1.2789 B( 59-C , 60-C ) :   1.7102 B( 60-C , 61-C ) :   1.1330
B( 60-C , 63-C ) :   1.1313 B( 61-C , 62-N ) :   3.0001 B( 63-C , 64-N ) :   3.0013
B( 65-C , 66-C ) :   1.5457 B( 65-C , 85-H ) :   0.9957 B( 66-C , 67-S ) :   1.1543
B( 66-C , 86-H ) :   0.9641

-----------------------------------------------------------------------------
         ABSORPTION SPECTRUM VIA TRANSITION ELECTRIC DIPOLE MOMENTS
-----------------------------------------------------------------------------
State   Energy  Wavelength   fosc         T2         TX        TY        TZ
        (cm-1)    (nm)                  (au**2)     (au)      (au)      (au)
-----------------------------------------------------------------------------
   0   12190.5    820.3   1.071729983  28.94265   5.29134  -0.00977  -0.97174
   1   15639.6    639.4   0.120553592   2.53764   0.59878   0.62951   1.33523
   2   17592.3    568.4   0.255153867   4.77480   1.32361   0.52559   1.65729
   3   20332.1    491.8   0.374258681   6.05991  -0.88445  -0.19022  -2.28943
   4   21703.5    460.8   0.008056537   0.12221  -0.11593   0.26073  -0.20196
   5   22113.5    452.2   0.091244361   1.35839   1.11724  -0.19778   0.26656
   6   22804.1    438.5   0.170813813   2.46596  -1.26282  -0.56156  -0.74559
   7   23713.1    421.7   0.122132078   1.69557  -0.17707  -1.02602  -0.78199
   8   25780.9    387.9   0.414840337   5.29736   2.10479   0.14223   0.92032
   9   26286.1    380.4   0.264128417   3.30800   1.05677   0.51048   1.38948
  10   26807.7    373.0   0.101805980   1.25023   0.71475   0.85064   0.12554
  11   27358.8    365.5   0.076799639   0.92414  -0.21870  -0.66036  -0.66350
  12   27826.9    359.4   0.077934071   0.92201   0.87681   0.15010   0.36151
  13   29135.2    343.2   0.046194512   0.52197  -0.39268   0.36308   0.48574
  14   30161.8    331.5   0.041043148   0.44798  -0.49903   0.24453   0.37304
  15   30198.8    331.1   0.067825104   0.73940   0.46773   0.66337   0.28384
  16   30529.4    327.6   0.004083162   0.04403   0.00514  -0.12946  -0.16506
  17   31144.2    321.1   0.021575202   0.22806  -0.45593   0.14104   0.01729
  18   31720.1    315.3   0.393651189   4.08557   1.39816  -1.01630  -1.04779
  19   31801.8    314.4   0.247180511   2.55881   1.42686  -0.57037  -0.44448
  20   31971.4    312.8   0.169572660   1.74610   0.18257   0.78371   1.04813
  21   32389.8    308.7   0.133478929   1.35669  -0.61487   0.55517   0.81878
  22   32654.6    306.2   0.266631384   2.68809  -0.64012   1.21716   0.89266
  23   33024.1    302.8   0.167832446   1.67310  -1.02692   0.45198   0.64362
  24   33303.9    300.3   0.206341320   2.03970  -0.93500   0.74161   0.78453
  25   33694.0    296.8   0.643617386   6.28856  -0.94158   0.89339   2.14566
  26   33881.6    295.1   0.169196501   1.64400  -1.19190  -0.25812   0.39591
  27   34142.1    292.9   0.064195642   0.61900   0.22277   0.60935   0.44505
  28   34673.3    288.4   0.034251385   0.32521  -0.23235   0.23382   0.46534
  29   34835.7    287.1   0.027070947   0.25583   0.29029  -0.23637  -0.34014
  30   35056.9    285.3   0.110905190   1.04149  -0.38086   0.13953   0.93646
  31   35513.4    281.6   0.010747330   0.09963   0.14100   0.06282   0.27532
  32   35611.4    280.8   0.048461636   0.44801   0.51743  -0.38815   0.17209
  33   36084.9    277.1   0.094034392   0.85790   0.89114   0.21566   0.13139
  34   36250.2    275.9   0.006221120   0.05650  -0.23352  -0.01600   0.04136
  35   36515.6    273.9   0.259874310   2.34294   0.95020  -1.07075  -0.54180
  36   36858.2    271.3   0.138056740   1.23310  -0.20743  -0.68568  -0.84848
  37   37418.5    267.2   0.157668814   1.38719  -0.14344  -0.48621  -1.06312
  38   37750.9    264.9   0.053583359   0.46728  -0.09403   0.35018   0.57949
  39   38164.7    262.0   0.163915139   1.41394  -0.28982   0.75667   0.87028
  40   38379.7    260.6   0.143070794   1.22723   0.97895   0.48874   0.17323
  41   38728.9    258.2   0.011414769   0.09703  -0.21231  -0.11855   0.19468
  42   38890.0    257.1   0.060382857   0.51115  -0.26854  -0.59919  -0.28286
  43   39065.1    256.0   0.054209906   0.45684  -0.07769  -0.12695  -0.65931
  44   39235.9    254.9   0.035162320   0.29503   0.04165  -0.30853  -0.44509
  45   39321.5    254.3   0.044446304   0.37212  -0.55184  -0.23261  -0.11611
  46   39696.5    251.9   0.011040487   0.09156  -0.00588  -0.16682  -0.25238
  47   39776.1    251.4   0.014995255   0.12411  -0.05079   0.25981  -0.23244
  48   40075.7    249.5   0.050565321   0.41538  -0.55537  -0.08225  -0.31651
  49   40303.9    248.1   0.023928937   0.19546  -0.37577   0.10165   0.20958

FINAL SINGLE POINT ENERGY     -4705.126105577002

DIPOLE MOMENT
-------------
                                X             Y             Z
Electronic contribution:     -8.45753      -2.58667      -6.10815
Nuclear contribution   :      9.87775      -0.54898       5.26737
                        -----------------------------------------
Total Dipole Moment    :      1.42022      -3.13566      -0.84079
                        -----------------------------------------
Magnitude (a.u.)       :      3.54349
Magnitude (Debye)      :      9.00683

Rotational constants in cm-1:     0.001133     0.000284     0.000234
Rotational constants in MHz :    33.972890     8.501554     7.007097

                             ****ORCA TERMINATED NORMALLY****
TOTAL RUN TIME: 0 days 0 hours 8 minutes 55 seconds 258 msec
