                         Program Version 4.2.0 -  RELEASE  -
|  1> # ORCA input file
|  2> # SCF done       -212.243526447309          0.000675779038
|  3> ! CAM-B3LYP def2-SVP def2/J RIJCOSX Grid4 TightSCF
|  4> %maxcore 5000
|  5> %tddft
|  6>     Mode sTDDFT
|  7>     Ethresh 5.0
|  8>     maxcore 5000
|  9> end
| 10>
| 11> %pal
| 12>   nprocs 6
| 13>   end
| 14> * xyz 0 1
| 15>    C        3.99119        -7.35765         8.59403
| 16>    C        3.42555        -8.07528         9.61089
| 17>    F        3.03606        -7.44129        10.73185
| 18>    C        3.22972        -9.46099         9.53505
| 19>    C        3.61945       -10.12265         8.40402
| 20>    C        4.20804        -9.43220         7.32463
| 21>    C        4.39799        -8.02273         7.42102
| 22>    C        4.98827        -7.30821         6.35221
| 23>    C        5.37136        -7.98174         5.22422
| 24>    C        5.16839        -9.38951         5.12972
| 25>    C        4.60777       -10.10482         6.14842
| 26>    C        5.62092        -9.86113         3.80753
| 27>    O        5.64183       -10.99447         3.38549
| 28>    C        5.98664        -8.62470         3.06191
| 29>    C        6.02165        -7.52309         3.99808
| 30>    C        6.71897        -6.35386         3.85970
| 31>    C        7.60407        -6.07991         2.79528
| 32>    N        8.41988        -5.83107         2.02642
| 33>    C        6.72474        -5.32620         4.82426
| 34>    N        6.74101        -4.44584         5.56132
| 35>    C        6.04774        -8.66979         1.70093
| 36>    C        5.97984        -7.59704         0.79586
| 37>    S        6.10619        -7.92437        -0.95872
| 38>    C        5.85868        -6.25919        -1.22208
| 39>    C        5.69904        -5.58536         0.00617
| 40>    N        5.76484        -6.33718         1.08566
| 41>    C        5.50601        -4.12046        -0.21023
| 42>    C        5.54499        -4.04409        -1.70758
| 43>    C        5.75548        -5.31412        -2.26226
| 44>    S        5.78415        -5.28349        -3.97486
| 45>    C        5.50923        -3.55404        -3.96174
| 46>    C        5.41252        -3.05445        -2.66926
| 47>    C        5.37784        -2.87655        -5.20181
| 48>    C        5.19577        -1.54571        -5.35176
| 49>    C        5.00153        -0.95727        -6.63510
| 50>    O        4.83473         0.40048        -6.71479
| 51>    C        4.62943         0.64548        -8.02701
| 52>    C        4.68497        -0.60704        -8.70881
| 53>    N        4.92650        -1.57599        -7.77531
| 54>    C        4.48935        -0.70864       -10.07639
| 55>    C        4.23328         0.49347       -10.71686
| 56>    C        4.19128         1.73343       -10.01151
| 57>    C        4.38829         1.85364        -8.64987
| 58>    O        3.91223         2.70045       -10.91088
| 59>    C        3.78534         2.04180       -12.10510
| 60>    N        3.96934         0.75675       -12.03129
| 61>    C        3.44954         2.79438       -13.26698
| 62>    C        3.24611         2.21215       -14.46968
| 63>    C        2.86910         2.94075       -15.62371
| 64>    S        2.54641         2.07521       -17.15050
| 65>    C        2.16890         3.59049       -17.85012
| 66>    C        2.31714         4.61604       -16.90176
| 67>    N        2.69915         4.23428       -15.69303
| 68>    C        1.98365         5.94607       -17.49649
| 69>    C        1.61743         5.55100       -18.89585
| 70>    C        1.73870         4.16422       -19.06503
| 71>    S        1.30222         3.66118       -20.63873
| 72>    C        0.97733         5.33142       -21.10549
| 73>    C        1.18854         6.20195       -20.04024
| 74>    C        0.50472         5.54292       -22.42233
| 75>    C        0.42083         6.69951       -23.14578
| 76>    C        0.96268         7.94134       -22.76505
| 77>    C        0.81831         9.17458       -23.33806
| 78>    C        1.20580        10.34998       -22.51200
| 79>    O        1.86019        10.32693       -21.49145
| 80>    C        0.56222        11.51117       -23.14911
| 81>    C        0.51476        12.80737       -22.72426
| 82>    C       -0.21397        13.75332       -23.47878
| 83>    C       -0.89083        13.32948       -24.65911
| 84>    C       -1.62817        14.27372       -25.39956
| 85>    C       -1.67468        15.57213       -24.97406
| 86>    C       -1.01278        16.00911       -23.81857
| 87>    C       -0.29424        15.10522       -23.08675
| 88>    F       -2.37879        16.47571       -25.68010
| 89>    C       -0.81663        11.98037       -25.07912
| 90>    C       -0.09158        11.08501       -24.34072
| 91>    C        0.18950         9.66225       -24.54418
| 92>    C        0.06104         9.01494       -25.74624
| 93>    C        0.58343         7.73949       -26.04062
| 94>    N        1.02346         6.72900       -26.36285
| 95>    C       -0.51972         9.59708       -26.89244
| 96>    N       -0.99723        10.00819       -27.85219
| 97>    H        4.12900        -6.29192         8.68845
| 98>    H        2.77686        -9.97363        10.36878
| 99>    H        3.47924       -11.18990         8.32180
|100>    H        5.11238        -6.24125         6.44850
|101>    H        4.46866       -11.17163         6.05735
|102>    H        6.05329        -9.66197         1.26333
|103>    H        6.31101        -3.54788         0.25532
|104>    H        4.56147        -3.76314         0.20343
|105>    H        5.24158        -2.01574        -2.45590
|106>    H        5.41100        -3.48089        -6.09774
|107>    H        5.17061        -0.86522        -4.51486
|108>    H        4.52279        -1.64780       -10.59853
|109>    H        4.34856         2.79304        -8.12646
|110>    H        3.34142         3.86111       -13.14477
|111>    H        3.35544         1.14207       -14.56624
|112>    H        2.83612         6.62724       -17.46858
|113>    H        1.15803         6.42958       -16.97149
|114>    H        0.98941         7.25640       -20.08200
|115>    H        0.15867         4.64244       -22.91563
|116>    H       -0.08481         6.63226       -24.09642
|117>    H        1.55226         7.96484       -21.85702
|118>    H        1.02594        13.10745       -21.82177
|119>    H       -2.14692        13.97401       -26.29673
|120>    H       -1.08496        17.04644       -23.53255
|121>    H        0.22405        15.41716       -22.19244
|122>    H       -1.34670        11.68953       -25.97189
|123> *
|124>
|125>                          ****END OF INPUT****

CARTESIAN COORDINATES (ANGSTROEM)
---------------------------------
  C      3.991190   -7.357650    8.594030
  C      3.425550   -8.075280    9.610890
  F      3.036060   -7.441290   10.731850
  C      3.229720   -9.460990    9.535050
  C      3.619450  -10.122650    8.404020
  C      4.208040   -9.432200    7.324630
  C      4.397990   -8.022730    7.421020
  C      4.988270   -7.308210    6.352210
  C      5.371360   -7.981740    5.224220
  C      5.168390   -9.389510    5.129720
  C      4.607770  -10.104820    6.148420
  C      5.620920   -9.861130    3.807530
  O      5.641830  -10.994470    3.385490
  C      5.986640   -8.624700    3.061910
  C      6.021650   -7.523090    3.998080
  C      6.718970   -6.353860    3.859700
  C      7.604070   -6.079910    2.795280
  N      8.419880   -5.831070    2.026420
  C      6.724740   -5.326200    4.824260
  N      6.741010   -4.445840    5.561320
  C      6.047740   -8.669790    1.700930
  C      5.979840   -7.597040    0.795860
  S      6.106190   -7.924370   -0.958720
  C      5.858680   -6.259190   -1.222080
  C      5.699040   -5.585360    0.006170
  N      5.764840   -6.337180    1.085660
  C      5.506010   -4.120460   -0.210230
  C      5.544990   -4.044090   -1.707580
  C      5.755480   -5.314120   -2.262260
  S      5.784150   -5.283490   -3.974860
  C      5.509230   -3.554040   -3.961740
  C      5.412520   -3.054450   -2.669260
  C      5.377840   -2.876550   -5.201810
  C      5.195770   -1.545710   -5.351760
  C      5.001530   -0.957270   -6.635100
  O      4.834730    0.400480   -6.714790
  C      4.629430    0.645480   -8.027010
  C      4.684970   -0.607040   -8.708810
  N      4.926500   -1.575990   -7.775310
  C      4.489350   -0.708640  -10.076390
  C      4.233280    0.493470  -10.716860
  C      4.191280    1.733430  -10.011510
  C      4.388290    1.853640   -8.649870
  O      3.912230    2.700450  -10.910880
  C      3.785340    2.041800  -12.105100
  N      3.969340    0.756750  -12.031290
  C      3.449540    2.794380  -13.266980
  C      3.246110    2.212150  -14.469680
  C      2.869100    2.940750  -15.623710
  S      2.546410    2.075210  -17.150500
  C      2.168900    3.590490  -17.850120
  C      2.317140    4.616040  -16.901760
  N      2.699150    4.234280  -15.693030
  C      1.983650    5.946070  -17.496490
  C      1.617430    5.551000  -18.895850
  C      1.738700    4.164220  -19.065030
  S      1.302220    3.661180  -20.638730
  C      0.977330    5.331420  -21.105490
  C      1.188540    6.201950  -20.040240
  C      0.504720    5.542920  -22.422330
  C      0.420830    6.699510  -23.145780
  C      0.962680    7.941340  -22.765050
  C      0.818310    9.174580  -23.338060
  C      1.205800   10.349980  -22.512000
  O      1.860190   10.326930  -21.491450
  C      0.562220   11.511170  -23.149110
  C      0.514760   12.807370  -22.724260
  C     -0.213970   13.753320  -23.478780
  C     -0.890830   13.329480  -24.659110
  C     -1.628170   14.273720  -25.399560
  C     -1.674680   15.572130  -24.974060
  C     -1.012780   16.009110  -23.818570
  C     -0.294240   15.105220  -23.086750
  F     -2.378790   16.475710  -25.680100
  C     -0.816630   11.980370  -25.079120
  C     -0.091580   11.085010  -24.340720
  C      0.189500    9.662250  -24.544180
  C      0.061040    9.014940  -25.746240
  C      0.583430    7.739490  -26.040620
  N      1.023460    6.729000  -26.362850
  C     -0.519720    9.597080  -26.892440
  N     -0.997230   10.008190  -27.852190
  H      4.129000   -6.291920    8.688450
  H      2.776860   -9.973630   10.368780
  H      3.479240  -11.189900    8.321800
  H      5.112380   -6.241250    6.448500
  H      4.468660  -11.171630    6.057350
  H      6.053290   -9.661970    1.263330
  H      6.311010   -3.547880    0.255320
  H      4.561470   -3.763140    0.203430
  H      5.241580   -2.015740   -2.455900
  H      5.411000   -3.480890   -6.097740
  H      5.170610   -0.865220   -4.514860
  H      4.522790   -1.647800  -10.598530
  H      4.348560    2.793040   -8.126460
  H      3.341420    3.861110  -13.144770
  H      3.355440    1.142070  -14.566240
  H      2.836120    6.627240  -17.468580
  H      1.158030    6.429580  -16.971490
  H      0.989410    7.256400  -20.082000
  H      0.158670    4.642440  -22.915630
  H     -0.084810    6.632260  -24.096420
  H      1.552260    7.964840  -21.857020
  H      1.025940   13.107450  -21.821770
  H     -2.146920   13.974010  -26.296730
  H     -1.084960   17.046440  -23.532550
  H      0.224050   15.417160  -22.192440
  H     -1.346700   11.689530  -25.971890

 Total Charge           Charge          ....    0
 Multiplicity           Mult            ....    1
 Number of Electrons    NEL             ....  580
 Basis Dimension        Dim             .... 1294

ORBITAL ENERGIES
----------------

  NO   OCC          E(Eh)            E(eV)
   0   2.0000     -88.986743     -2421.4524
   1   2.0000     -88.981365     -2421.3060
   2   2.0000     -88.979178     -2421.2465
   3   2.0000     -88.978592     -2421.2306
   4   2.0000     -24.784594      -674.4231
   5   2.0000     -24.784015      -674.4073
   6   2.0000     -19.297760      -525.1188
   7   2.0000     -19.297591      -525.1141
   8   2.0000     -19.213143      -522.8162
   9   2.0000     -19.210614      -522.7474
  10   2.0000     -14.433772      -392.7629
  11   2.0000     -14.424407      -392.5081
  12   2.0000     -14.413995      -392.2247
  13   2.0000     -14.412528      -392.1848
  14   2.0000     -14.411508      -392.1571
  15   2.0000     -14.407094      -392.0370
  16   2.0000     -14.407036      -392.0354
  17   2.0000     -14.404730      -391.9726
  18   2.0000     -10.370115      -282.1852
  19   2.0000     -10.369780      -282.1760
  20   2.0000     -10.368196      -282.1330
  21   2.0000     -10.367654      -282.1182
  22   2.0000     -10.364506      -282.0325
  23   2.0000     -10.361261      -281.9442
  24   2.0000     -10.349422      -281.6221
  25   2.0000     -10.348840      -281.6062
  26   2.0000     -10.340541      -281.3804
  27   2.0000     -10.340485      -281.3789
  28   2.0000     -10.340455      -281.3781
  29   2.0000     -10.339637      -281.3558
  30   2.0000     -10.338776      -281.3324
  31   2.0000     -10.335683      -281.2482
  32   2.0000     -10.329164      -281.0708
  33   2.0000     -10.325780      -280.9788
  34   2.0000     -10.323846      -280.9261
  35   2.0000     -10.322007      -280.8761
  36   2.0000     -10.321813      -280.8708
  37   2.0000     -10.320920      -280.8465
  38   2.0000     -10.319894      -280.8186
  39   2.0000     -10.319839      -280.8171
  40   2.0000     -10.319445      -280.8064
  41   2.0000     -10.316178      -280.7175
  42   2.0000     -10.315197      -280.6908
  43   2.0000     -10.313775      -280.6521
  44   2.0000     -10.312834      -280.6265
  45   2.0000     -10.311855      -280.5999
  46   2.0000     -10.309271      -280.5295
  47   2.0000     -10.305043      -280.4145
  48   2.0000     -10.304998      -280.4133
  49   2.0000     -10.304465      -280.3988
  50   2.0000     -10.303936      -280.3844
  51   2.0000     -10.303901      -280.3834
  52   2.0000     -10.303430      -280.3706
  53   2.0000     -10.303397      -280.3697
  54   2.0000     -10.300960      -280.3034
  55   2.0000     -10.300139      -280.2810
  56   2.0000     -10.300118      -280.2805
  57   2.0000     -10.299922      -280.2751
  58   2.0000     -10.299474      -280.2629
  59   2.0000     -10.299314      -280.2586
  60   2.0000     -10.298939      -280.2484
  61   2.0000     -10.298441      -280.2348
  62   2.0000     -10.298171      -280.2275
  63   2.0000     -10.297700      -280.2147
  64   2.0000     -10.296399      -280.1793
  65   2.0000     -10.296034      -280.1693
  66   2.0000     -10.296033      -280.1693
  67   2.0000     -10.295249      -280.1480
  68   2.0000     -10.295233      -280.1475
  69   2.0000     -10.295196      -280.1465
  70   2.0000     -10.294759      -280.1346
  71   2.0000     -10.293476      -280.0997
  72   2.0000     -10.292969      -280.0859
  73   2.0000     -10.292713      -280.0790
  74   2.0000     -10.292202      -280.0650
  75   2.0000     -10.292084      -280.0618
  76   2.0000     -10.288206      -279.9563
  77   2.0000     -10.287426      -279.9351
  78   2.0000     -10.287191      -279.9287
  79   2.0000     -10.287133      -279.9271
  80   2.0000     -10.285996      -279.8962
  81   2.0000     -10.279208      -279.7115
  82   2.0000      -8.081741      -219.9154
  83   2.0000      -8.076447      -219.7713
  84   2.0000      -8.074232      -219.7110
  85   2.0000      -8.073642      -219.6950
  86   2.0000      -6.050736      -164.6489
  87   2.0000      -6.046905      -164.5447
  88   2.0000      -6.045555      -164.5079
  89   2.0000      -6.044177      -164.4704
  90   2.0000      -6.043535      -164.4529
  91   2.0000      -6.042927      -164.4364
  92   2.0000      -6.041658      -164.4019
  93   2.0000      -6.039428      -164.3412
  94   2.0000      -6.038859      -164.3257
  95   2.0000      -6.038746      -164.3226
  96   2.0000      -6.036392      -164.2586
  97   2.0000      -6.035799      -164.2424
  98   2.0000      -1.299501       -35.3612
  99   2.0000      -1.298872       -35.3441
 100   2.0000      -1.226672       -33.3795
 101   2.0000      -1.225423       -33.3455
 102   2.0000      -1.128493       -30.7079
 103   2.0000      -1.125177       -30.6176
 104   2.0000      -1.087991       -29.6057
 105   2.0000      -1.081403       -29.4265
 106   2.0000      -1.022103       -27.8128
 107   2.0000      -1.016927       -27.6720
 108   2.0000      -1.015889       -27.6438
 109   2.0000      -1.015217       -27.6254
 110   2.0000      -1.012662       -27.5559
 111   2.0000      -1.012170       -27.5425
 112   2.0000      -0.997923       -27.1549
 113   2.0000      -0.997821       -27.1521
 114   2.0000      -0.990406       -26.9503
 115   2.0000      -0.988707       -26.9041
 116   2.0000      -0.974257       -26.5109
 117   2.0000      -0.973427       -26.4883
 118   2.0000      -0.957956       -26.0673
 119   2.0000      -0.948477       -25.8094
 120   2.0000      -0.946644       -25.7595
 121   2.0000      -0.926612       -25.2144
 122   2.0000      -0.926019       -25.1983
 123   2.0000      -0.917430       -24.9646
 124   2.0000      -0.917049       -24.9542
 125   2.0000      -0.910846       -24.7854
 126   2.0000      -0.907407       -24.6918
 127   2.0000      -0.900654       -24.5080
 128   2.0000      -0.895870       -24.3779
 129   2.0000      -0.889947       -24.2167
 130   2.0000      -0.885313       -24.0906
 131   2.0000      -0.882562       -24.0157
 132   2.0000      -0.875110       -23.8129
 133   2.0000      -0.858777       -23.3685
 134   2.0000      -0.856366       -23.3029
 135   2.0000      -0.851998       -23.1840
 136   2.0000      -0.847050       -23.0494
 137   2.0000      -0.840675       -22.8759
 138   2.0000      -0.832872       -22.6636
 139   2.0000      -0.832119       -22.6431
 140   2.0000      -0.819739       -22.3062
 141   2.0000      -0.810855       -22.0645
 142   2.0000      -0.806898       -21.9568
 143   2.0000      -0.792977       -21.5780
 144   2.0000      -0.787014       -21.4157
 145   2.0000      -0.776486       -21.1293
 146   2.0000      -0.766070       -20.8458
 147   2.0000      -0.759928       -20.6787
 148   2.0000      -0.755005       -20.5447
 149   2.0000      -0.743801       -20.2398
 150   2.0000      -0.729943       -19.8628
 151   2.0000      -0.724302       -19.7093
 152   2.0000      -0.722054       -19.6481
 153   2.0000      -0.717120       -19.5138
 154   2.0000      -0.707413       -19.2497
 155   2.0000      -0.707055       -19.2400
 156   2.0000      -0.704043       -19.1580
 157   2.0000      -0.702200       -19.1078
 158   2.0000      -0.694377       -18.8949
 159   2.0000      -0.684750       -18.6330
 160   2.0000      -0.678928       -18.4746
 161   2.0000      -0.676402       -18.4058
 162   2.0000      -0.671054       -18.2603
 163   2.0000      -0.667893       -18.1743
 164   2.0000      -0.663949       -18.0670
 165   2.0000      -0.657917       -17.9028
 166   2.0000      -0.650731       -17.7073
 167   2.0000      -0.649029       -17.6610
 168   2.0000      -0.644939       -17.5497
 169   2.0000      -0.640418       -17.4267
 170   2.0000      -0.634272       -17.2594
 171   2.0000      -0.633088       -17.2272
 172   2.0000      -0.630475       -17.1561
 173   2.0000      -0.627347       -17.0710
 174   2.0000      -0.626597       -17.0506
 175   2.0000      -0.620997       -16.8982
 176   2.0000      -0.618226       -16.8228
 177   2.0000      -0.607362       -16.5272
 178   2.0000      -0.602077       -16.3833
 179   2.0000      -0.596726       -16.2377
 180   2.0000      -0.592700       -16.1282
 181   2.0000      -0.585540       -15.9334
 182   2.0000      -0.582213       -15.8428
 183   2.0000      -0.581338       -15.8190
 184   2.0000      -0.578838       -15.7510
 185   2.0000      -0.575048       -15.6479
 186   2.0000      -0.569948       -15.5091
 187   2.0000      -0.568623       -15.4730
 188   2.0000      -0.568084       -15.4584
 189   2.0000      -0.565444       -15.3865
 190   2.0000      -0.564417       -15.3586
 191   2.0000      -0.563073       -15.3220
 192   2.0000      -0.560035       -15.2393
 193   2.0000      -0.558270       -15.1913
 194   2.0000      -0.557006       -15.1569
 195   2.0000      -0.556411       -15.1407
 196   2.0000      -0.555414       -15.1136
 197   2.0000      -0.550865       -14.9898
 198   2.0000      -0.546537       -14.8720
 199   2.0000      -0.545582       -14.8461
 200   2.0000      -0.541721       -14.7410
 201   2.0000      -0.540833       -14.7168
 202   2.0000      -0.537215       -14.6184
 203   2.0000      -0.535228       -14.5643
 204   2.0000      -0.531351       -14.4588
 205   2.0000      -0.530571       -14.4376
 206   2.0000      -0.528639       -14.3850
 207   2.0000      -0.524198       -14.2642
 208   2.0000      -0.522005       -14.2045
 209   2.0000      -0.521684       -14.1957
 210   2.0000      -0.517242       -14.0749
 211   2.0000      -0.514583       -14.0025
 212   2.0000      -0.512220       -13.9382
 213   2.0000      -0.511481       -13.9181
 214   2.0000      -0.506650       -13.7867
 215   2.0000      -0.504188       -13.7197
 216   2.0000      -0.502524       -13.6744
 217   2.0000      -0.498364       -13.5612
 218   2.0000      -0.496189       -13.5020
 219   2.0000      -0.494127       -13.4459
 220   2.0000      -0.491555       -13.3759
 221   2.0000      -0.490581       -13.3494
 222   2.0000      -0.489582       -13.3222
 223   2.0000      -0.486694       -13.2436
 224   2.0000      -0.485228       -13.2037
 225   2.0000      -0.484597       -13.1865
 226   2.0000      -0.483710       -13.1624
 227   2.0000      -0.481164       -13.0931
 228   2.0000      -0.479513       -13.0482
 229   2.0000      -0.478753       -13.0275
 230   2.0000      -0.473445       -12.8831
 231   2.0000      -0.471427       -12.8282
 232   2.0000      -0.467593       -12.7239
 233   2.0000      -0.465993       -12.6803
 234   2.0000      -0.460652       -12.5350
 235   2.0000      -0.456691       -12.4272
 236   2.0000      -0.455554       -12.3963
 237   2.0000      -0.455205       -12.3867
 238   2.0000      -0.449829       -12.2405
 239   2.0000      -0.447265       -12.1707
 240   2.0000      -0.445506       -12.1228
 241   2.0000      -0.444933       -12.1072
 242   2.0000      -0.444207       -12.0875
 243   2.0000      -0.443712       -12.0740
 244   2.0000      -0.440249       -11.9798
 245   2.0000      -0.439454       -11.9581
 246   2.0000      -0.438989       -11.9455
 247   2.0000      -0.438217       -11.9245
 248   2.0000      -0.437580       -11.9072
 249   2.0000      -0.436120       -11.8674
 250   2.0000      -0.435937       -11.8624
 251   2.0000      -0.434168       -11.8143
 252   2.0000      -0.431843       -11.7510
 253   2.0000      -0.427817       -11.6415
 254   2.0000      -0.425758       -11.5855
 255   2.0000      -0.425375       -11.5750
 256   2.0000      -0.424525       -11.5519
 257   2.0000      -0.421015       -11.4564
 258   2.0000      -0.418939       -11.3999
 259   2.0000      -0.416354       -11.3296
 260   2.0000      -0.414235       -11.2719
 261   2.0000      -0.405100       -11.0233
 262   2.0000      -0.404383       -11.0038
 263   2.0000      -0.400759       -10.9052
 264   2.0000      -0.391175       -10.6444
 265   2.0000      -0.382272       -10.4022
 266   2.0000      -0.379527       -10.3274
 267   2.0000      -0.376625       -10.2485
 268   2.0000      -0.372350       -10.1322
 269   2.0000      -0.369837       -10.0638
 270   2.0000      -0.369108       -10.0439
 271   2.0000      -0.364978        -9.9315
 272   2.0000      -0.363810        -9.8998
 273   2.0000      -0.363443        -9.8898
 274   2.0000      -0.359005        -9.7690
 275   2.0000      -0.350314        -9.5325
 276   2.0000      -0.339919        -9.2497
 277   2.0000      -0.338291        -9.2054
 278   2.0000      -0.336773        -9.1641
 279   2.0000      -0.334801        -9.1104
 280   2.0000      -0.328257        -8.9323
 281   2.0000      -0.317279        -8.6336
 282   2.0000      -0.310710        -8.4548
 283   2.0000      -0.309658        -8.4262
 284   2.0000      -0.298456        -8.1214
 285   2.0000      -0.296916        -8.0795
 286   2.0000      -0.292258        -7.9527
 287   2.0000      -0.283624        -7.7178
 288   2.0000      -0.253855        -6.9078
 289   2.0000      -0.244587        -6.6555
 290   0.0000      -0.102658        -2.7935
 291   0.0000      -0.100011        -2.7214
 292   0.0000      -0.069287        -1.8854
 293   0.0000      -0.060799        -1.6544
 294   0.0000      -0.052416        -1.4263

MULLIKEN ATOMIC CHARGES
-----------------------
   0 C :   -0.100972
   1 C :    0.302481
   2 F :   -0.191211
   3 C :   -0.029714
   4 C :   -0.010652
   5 C :    0.101713
   6 C :    0.106259
   7 C :   -0.092576
   8 C :    0.045619
   9 C :    0.004836
  10 C :   -0.081670
  11 C :    0.136694
  12 O :   -0.144899
  13 C :   -0.117795
  14 C :    0.278629
  15 C :   -0.300174
  16 C :   -0.183936
  17 N :    0.152057
  18 C :   -0.186722
  19 N :    0.149000
  20 C :    0.095818
  21 C :   -0.113047
  22 S :    0.166976
  23 C :   -0.047438
  24 C :   -0.208749
  25 N :   -0.017816
  26 C :    0.388074
  27 C :   -0.153256
  28 C :   -0.101449
  29 S :    0.179061
  30 C :   -0.079174
  31 C :   -0.005282
  32 C :    0.064759
  33 C :   -0.027063
  34 C :    0.114724
  35 O :   -0.204812
  36 C :    0.211771
  37 C :    0.029438
  38 N :   -0.059406
  39 C :   -0.093450
  40 C :    0.026519
  41 C :    0.211135
  42 C :   -0.161346
  43 O :   -0.202896
  44 C :    0.120936
  45 N :   -0.056086
  46 C :   -0.010898
  47 C :    0.067908
  48 C :   -0.100606
  49 S :    0.153298
  50 C :   -0.066828
  51 C :   -0.218928
  52 N :   -0.008138
  53 C :    0.390059
  54 C :   -0.181680
  55 C :   -0.085573
  56 S :    0.167299
  57 C :   -0.114440
  58 C :    0.013905
  59 C :    0.077274
  60 C :    0.004917
  61 C :    0.026491
  62 C :   -0.114784
  63 C :    0.137176
  64 O :   -0.161719
  65 C :    0.007323
  66 C :   -0.080181
  67 C :    0.101115
  68 C :    0.101727
  69 C :   -0.098195
  70 C :    0.304075
  71 C :   -0.031560
  72 C :   -0.009518
  73 F :   -0.190882
  74 C :   -0.086663
  75 C :    0.040694
  76 C :    0.291341
  77 C :   -0.338767
  78 C :   -0.209699
  79 N :    0.171487
  80 C :   -0.176776
  81 N :    0.146157
  82 H :   -0.002108
  83 H :    0.003031
  84 H :   -0.008742
  85 H :   -0.004879
  86 H :   -0.011632
  87 H :    0.016773
  88 H :    0.053406
  89 H :    0.041901
  90 H :   -0.015027
  91 H :    0.015672
  92 H :    0.000119
  93 H :   -0.027879
  94 H :   -0.016455
  95 H :    0.020826
  96 H :    0.017367
  97 H :    0.047593
  98 H :    0.042499
  99 H :    0.000053
 100 H :    0.012337
 101 H :    0.002503
 102 H :    0.010322
 103 H :   -0.014589
 104 H :   -0.002780
 105 H :    0.002946
 106 H :   -0.010105
 107 H :   -0.004470
Sum of atomic charges:    0.0000000

LOEWDIN ATOMIC CHARGES
----------------------
   0 C :   -0.043148
   1 C :    0.093079
   2 F :   -0.065401
   3 C :   -0.038272
   4 C :    0.004579
   5 C :   -0.019832
   6 C :    0.004162
   7 C :    0.007574
   8 C :   -0.014049
   9 C :   -0.060664
  10 C :    0.034155
  11 C :    0.081838
  12 O :   -0.145728
  13 C :   -0.074492
  14 C :    0.066317
  15 C :   -0.119500
  16 C :   -0.016251
  17 N :   -0.060560
  18 C :   -0.016935
  19 N :   -0.054719
  20 C :    0.027417
  21 C :   -0.139800
  22 S :    0.448057
  23 C :   -0.193789
  24 C :   -0.023829
  25 N :   -0.046856
  26 C :   -0.010383
  27 C :   -0.033222
  28 C :   -0.202965
  29 S :    0.459984
  30 C :   -0.163456
  31 C :   -0.041863
  32 C :    0.004258
  33 C :   -0.051328
  34 C :    0.062174
  35 O :   -0.013404
  36 C :    0.034245
  37 C :   -0.034122
  38 N :   -0.111113
  39 C :   -0.022493
  40 C :   -0.035746
  41 C :    0.033878
  42 C :   -0.064770
  43 O :   -0.009891
  44 C :    0.057944
  45 N :   -0.105225
  46 C :   -0.019137
  47 C :   -0.016400
  48 C :   -0.121606
  49 S :    0.429034
  50 C :   -0.219475
  51 C :   -0.026222
  52 N :   -0.081685
  53 C :   -0.010744
  54 C :   -0.048407
  55 C :   -0.184581
  56 S :    0.454750
  57 C :   -0.176503
  58 C :   -0.029991
  59 C :    0.014501
  60 C :   -0.049434
  61 C :    0.063910
  62 C :   -0.094919
  63 C :    0.081732
  64 O :   -0.158183
  65 C :   -0.059298
  66 C :    0.032818
  67 C :   -0.019517
  68 C :    0.003313
  69 C :   -0.042006
  70 C :    0.092856
  71 C :   -0.037889
  72 C :    0.003975
  73 F :   -0.065420
  74 C :    0.009693
  75 C :   -0.015581
  76 C :    0.070153
  77 C :   -0.138266
  78 C :   -0.023586
  79 N :   -0.048749
  80 C :   -0.018189
  81 N :   -0.053649
  82 H :    0.043000
  83 H :    0.041628
  84 H :    0.035646
  85 H :    0.038839
  86 H :    0.039525
  87 H :    0.046245
  88 H :    0.064641
  89 H :    0.058113
  90 H :    0.033893
  91 H :    0.040309
  92 H :    0.035288
  93 H :    0.041233
  94 H :    0.042934
  95 H :    0.044245
  96 H :    0.040372
  97 H :    0.060972
  98 H :    0.058983
  99 H :    0.038652
 100 H :    0.040006
 101 H :    0.035879
 102 H :    0.038748
 103 H :    0.038739
 104 H :    0.043141
 105 H :    0.041571
 106 H :    0.035221
 107 H :    0.039022

  Mayer bond orders larger than 0.100000
B(  0-C ,  1-C ) :   1.4413 B(  0-C ,  6-C ) :   1.2016 B(  0-C , 82-H ) :   1.0069
B(  1-C ,  2-F ) :   1.0875 B(  1-C ,  3-C ) :   1.2551 B(  3-C ,  4-C ) :   1.4605
B(  3-C , 83-H ) :   0.9922 B(  4-C ,  5-C ) :   1.2342 B(  4-C , 84-H ) :   0.9973
B(  5-C ,  6-C ) :   1.2566 B(  5-C , 10-C ) :   1.1912 B(  6-C ,  7-C ) :   1.2014
B(  7-C ,  8-C ) :   1.4632 B(  7-C , 85-H ) :   0.9941 B(  8-C ,  9-C ) :   1.2168
B(  8-C , 14-C ) :   0.9970 B(  9-C , 10-C ) :   1.4723 B(  9-C , 11-C ) :   0.9193
B( 10-C , 86-H ) :   1.0153 B( 11-C , 12-O ) :   2.2682 B( 11-C , 13-C ) :   0.9405
B( 13-C , 14-C ) :   1.0420 B( 13-C , 20-C ) :   1.6420 B( 14-C , 15-C ) :   1.6789
B( 15-C , 16-C ) :   1.1564 B( 15-C , 18-C ) :   1.1407 B( 16-C , 17-N ) :   2.9811
B( 18-C , 19-N ) :   2.9791 B( 20-C , 21-C ) :   1.1456 B( 20-C , 87-H ) :   0.9299
B( 21-C , 22-S ) :   1.0524 B( 21-C , 25-N ) :   1.5508 B( 22-S , 23-C ) :   1.1355
B( 22-S , 25-N ) :   0.1068 B( 23-C , 24-C ) :   1.4154 B( 23-C , 28-C ) :   1.2057
B( 24-C , 25-N ) :   1.4823 B( 24-C , 26-C ) :   1.0429 B( 26-C , 27-C ) :   0.9828
B( 26-C , 88-H ) :   0.8558 B( 26-C , 89-H ) :   0.8656 B( 27-C , 28-C ) :   1.4949
B( 27-C , 31-C ) :   1.3301 B( 28-C , 29-S ) :   1.0911 B( 29-S , 30-C ) :   1.1153
B( 30-C , 31-C ) :   1.4506 B( 30-C , 32-C ) :   1.1091 B( 31-C , 90-H ) :   0.9967
B( 32-C , 33-C ) :   1.7037 B( 32-C , 91-H ) :   0.9638 B( 33-C , 34-C ) :   1.1093
B( 33-C , 92-H ) :   0.9556 B( 34-C , 35-O ) :   1.1256 B( 34-C , 38-N ) :   1.7449
B( 35-O , 36-C ) :   1.1085 B( 36-C , 37-C ) :   1.2489 B( 36-C , 42-C ) :   1.3180
B( 37-C , 38-N ) :   1.2913 B( 37-C , 39-C ) :   1.2837 B( 39-C , 40-C ) :   1.2784
B( 39-C , 42-C ) :   0.1486 B( 39-C , 93-H ) :   1.0536 B( 40-C , 41-C ) :   1.2520
B( 40-C , 45-N ) :   1.2948 B( 41-C , 42-C ) :   1.3104 B( 41-C , 43-O ) :   1.1115
B( 42-C , 94-H ) :   1.0480 B( 43-O , 44-C ) :   1.1203 B( 44-C , 45-N ) :   1.7428
B( 44-C , 46-C ) :   1.0927 B( 46-C , 47-C ) :   1.7140 B( 46-C , 95-H ) :   0.9624
B( 47-C , 48-C ) :   1.0996 B( 47-C , 96-H ) :   0.9526 B( 48-C , 49-S ) :   1.0801
B( 48-C , 52-N ) :   1.6458 B( 49-S , 50-C ) :   1.0950 B( 50-C , 51-C ) :   1.4613
B( 50-C , 55-C ) :   1.1966 B( 51-C , 52-N ) :   1.4584 B( 51-C , 53-C ) :   1.0422
B( 53-C , 54-C ) :   0.9780 B( 53-C , 97-H ) :   0.8613 B( 53-C , 98-H ) :   0.8636
B( 54-C , 55-C ) :   1.4869 B( 54-C , 58-C ) :   1.3566 B( 55-C , 56-S ) :   1.1122
B( 56-S , 57-C ) :   1.0916 B( 57-C , 58-C ) :   1.4061 B( 57-C , 59-C ) :   1.1588
B( 58-C , 99-H ) :   0.9905 B( 59-C , 60-C ) :   1.6716 B( 59-C ,100-H ) :   0.9495
B( 60-C , 61-C ) :   1.1593 B( 60-C ,101-H ) :   0.9535 B( 61-C , 62-C ) :   1.6224
B( 61-C ,102-H ) :   0.9256 B( 62-C , 63-C ) :   0.9530 B( 62-C , 76-C ) :   1.0278
B( 63-C , 64-O ) :   2.2232 B( 63-C , 65-C ) :   0.9296 B( 65-C , 66-C ) :   1.4752
B( 65-C , 75-C ) :   1.2155 B( 66-C , 67-C ) :   1.1885 B( 66-C ,103-H ) :   1.0156
B( 67-C , 68-C ) :   1.2557 B( 67-C , 72-C ) :   1.2346 B( 68-C , 69-C ) :   1.2026
B( 68-C , 74-C ) :   1.2036 B( 69-C , 70-C ) :   1.4414 B( 69-C ,104-H ) :   1.0067
B( 70-C , 71-C ) :   1.2552 B( 70-C , 73-F ) :   1.0878 B( 71-C , 72-C ) :   1.4592
B( 71-C ,105-H ) :   0.9932 B( 72-C ,106-H ) :   0.9974 B( 74-C , 75-C ) :   1.4622
B( 74-C ,107-H ) :   0.9929 B( 75-C , 76-C ) :   0.9960 B( 76-C , 77-C ) :   1.6427
B( 77-C , 78-C ) :   1.1705 B( 77-C , 80-C ) :   1.1272 B( 78-C , 79-N ) :   2.9999
B( 80-C , 81-N ) :   2.9806

-----------------------------------------------------------------------------
         ABSORPTION SPECTRUM VIA TRANSITION ELECTRIC DIPOLE MOMENTS
-----------------------------------------------------------------------------
State   Energy  Wavelength   fosc         T2         TX        TY        TZ
        (cm-1)    (nm)                  (au**2)     (au)      (au)      (au)
-----------------------------------------------------------------------------
   0   16788.2    595.7   3.576776224  70.13945  -1.40609   4.43485  -6.96379
   1   17650.1    566.6   0.068122190   1.27063   0.35920  -0.12185  -1.06149
   2   23855.0    419.2   0.546378410   7.54031   0.61406  -1.27387   2.35383
   3   25307.7    395.1   0.027213471   0.35400   0.19263   0.18365   0.53213
   4   25818.4    387.3   0.024013297   0.30620   0.28887  -0.46213   0.09586
   5   26070.9    383.6   0.051027326   0.64435   0.31602   0.10490   0.73039
   6   26805.4    373.1   0.240880115   2.95839  -0.38397  -1.21799   1.15216
   7   27064.3    369.5   0.230443318   2.80313  -0.37224   1.03739  -1.26031
   8   27510.3    363.5   0.145056908   1.73587  -0.21447  -0.98648   0.84660
   9   27778.3    360.0   0.051601374   0.61155  -0.30290  -0.53164  -0.48699
  10   28039.3    356.6   0.048782569   0.57276   0.08544   0.66487   0.35129
  11   29161.6    342.9   0.002674335   0.03019  -0.02251   0.12663  -0.11683
  12   29269.5    341.7   0.088105873   0.99098   0.29941   0.62268  -0.71666
  13   29476.9    339.2   0.054181483   0.60513  -0.25547  -0.66768  -0.30670
  14   29989.7    333.4   0.154240785   1.69318   0.09177   1.22292   0.43499
  15   30136.3    331.8   0.111162756   1.21435   0.54915  -0.35631  -0.88647
  16   31600.2    316.5   0.019656525   0.20478   0.17998  -0.40841  -0.07477
  17   32134.8    311.2   0.031256710   0.32022  -0.00161   0.41298   0.38686
  18   32572.0    307.0   0.006618838   0.06690   0.16458  -0.03699   0.19607
  19   32991.4    303.1   0.083946878   0.83768   0.17148   0.77945  -0.44803
  20   33663.8    297.1   0.126461848   1.23672  -0.07257   0.98558   0.50999
  21   34121.7    293.1   0.194753432   1.87901  -1.09070   0.30449   0.77244
  22   34262.9    291.9   0.202342399   1.94419  -0.53116   0.19533   1.27433
  23   34604.9    289.0   0.507140667   4.82466  -0.42670  -2.06394   0.61866
  24   34665.0    288.5   0.013121039   0.12461  -0.27526   0.22095  -0.00498
  25   35000.2    285.7   0.284407852   2.67514   0.45184  -0.95328  -1.24989
  26   35131.2    284.6   0.014328160   0.13427  -0.03281   0.36081  -0.05486
  27   35257.7    283.6   0.352017596   3.28689  -0.23250   1.79649   0.07382
  28   35519.6    281.5   0.053944082   0.49998   0.10038  -0.69961  -0.02118
  29   35804.9    279.3   0.241133661   2.21713   0.36725   0.45639  -1.36893
  30   35980.2    277.9   0.070465305   0.64474   0.10483   0.34453   0.71767
  31   36458.8    274.3   0.009132916   0.08247  -0.25208   0.12286   0.06190
  32   37048.2    269.9   0.012498378   0.11106  -0.31143   0.02381   0.11621
  33   37511.5    266.6   0.020753654   0.18214  -0.30302  -0.11430   0.27794
  34   37773.9    264.7   0.003602216   0.03139  -0.02300   0.17151   0.03806
  35   38344.8    260.8   0.011544896   0.09912   0.20062   0.21431  -0.11378
  36   38681.1    258.5   0.026732081   0.22751   0.12486   0.36738  -0.27741
  37   38888.7    257.1   0.106835891   0.90442  -0.12153  -0.19784   0.92223
  38   38961.1    256.7   0.180125867   1.52202   0.43189   1.13169   0.23403
  39   39113.7    255.7   0.119701863   1.00751  -0.10636  -0.60214  -0.79601
  40   39454.5    253.5   0.007580719   0.06325   0.09245   0.14488   0.18362
  41   40018.7    249.9   0.029840215   0.24548  -0.07851  -0.48881  -0.01946
  42   40073.9    249.5   0.016661651   0.13688   0.06379  -0.17195  -0.32131
  43   40198.1    248.8   0.017068703   0.13979  -0.09758   0.25401  -0.25641
  44   40243.2    248.5   0.012207477   0.09986  -0.14315  -0.05178  -0.27693

FINAL SINGLE POINT ENERGY     -4981.023300179349

DIPOLE MOMENT
-------------
                                X             Y             Z
Electronic contribution:      5.04609     -18.33457      11.00858
Nuclear contribution   :     -6.75538      18.31280      -8.75552
                        -----------------------------------------
Total Dipole Moment    :     -1.70930      -0.02177       2.25306
                        -----------------------------------------
Magnitude (a.u.)       :      2.82815
Magnitude (Debye)      :      7.18859

Rotational constants in cm-1:     0.002377     0.000073     0.000072
Rotational constants in MHz :    71.258603     2.202707     2.163144

                             ****ORCA TERMINATED NORMALLY****
TOTAL RUN TIME: 0 days 0 hours 26 minutes 52 seconds 508 msec
