                         Program Version 4.2.0 -  RELEASE  -
|  1> # ORCA input file
|  2> # SCF done       -192.524002252524          0.000521159165
|  3> ! CAM-B3LYP def2-SVP def2/J RIJCOSX Grid4 TightSCF
|  4> %maxcore 5000
|  5> %tddft
|  6>     Mode sTDDFT
|  7>     Ethresh 5.0
|  8>     maxcore 5000
|  9> end
| 10>
| 11> %pal
| 12>   nprocs 6
| 13>   end
| 14> * xyz 0 1
| 15>    C        8.69322         7.76639         7.48850
| 16>    C        8.46030         9.07317         7.81603
| 17>    F        8.96228         9.56811         8.96254
| 18>    C        7.71263         9.93140         6.99871
| 19>    C        7.19596         9.44648         5.82944
| 20>    C        7.40654         8.10751         5.44188
| 21>    C        8.16792         7.24978         6.28831
| 22>    C        8.38636         5.90009         5.92395
| 23>    C        7.86638         5.43153         4.74876
| 24>    C        7.11941         6.29784         3.89830
| 25>    C        6.88417         7.60011         4.23074
| 26>    C        6.71459         5.56162         2.68377
| 27>    O        6.03183         5.95630         1.76583
| 28>    C        7.38380         4.23958         2.79571
| 29>    C        7.89951         4.10599         4.13720
| 30>    C        8.11384         2.92481         4.80224
| 31>    C        7.81811         1.66652         4.24030
| 32>    N        7.53340         0.63431         3.82479
| 33>    C        8.54934         2.84603         6.13872
| 34>    N        8.92246         2.73304         7.21867
| 35>    C        7.50956         3.44928         1.69119
| 36>    C        8.44064         2.42712         1.43256
| 37>    C        8.35807         1.50970         0.38450
| 38>    C        9.47523         0.65748         0.29917
| 39>    S        9.65707        -0.68133        -0.82690
| 40>    C        7.91363        -0.96795        -1.26899
| 41>    C        7.30568         0.27647        -1.87194
| 42>    S        6.90192         1.49995        -0.58146
| 43>    C       10.44421         0.94732         1.25437
| 44>    S        9.94995         2.25429         2.28527
| 45>    C       11.69896         0.30964         1.48043
| 46>    C       12.39581        -0.35473         0.50088
| 47>    C       13.59193        -1.03664         0.70382
| 48>    C       14.23219        -1.08614         2.01910
| 49>    C       13.74998        -0.45844         3.11525
| 50>    S       12.29392         0.44693         3.13240
| 51>    C       15.40141        -1.87307         1.83271
| 52>    C       15.49564        -2.29021         0.50048
| 53>    C       16.65195        -3.07369         0.28354
| 54>    C       17.37909        -3.22604         1.42126
| 55>    S       16.70364        -2.43175         2.80118
| 56>    C       14.36686        -1.76424        -0.22557
| 57>    C       14.02394        -1.89047        -1.58724
| 58>    C       14.68773        -2.60535        -2.53480
| 59>    C       14.34447        -2.70277        -3.90247
| 60>    C       13.25786        -2.22707        -4.64392
| 61>    C       13.37439        -2.49373        -6.01895
| 62>    S       12.16400        -2.18487        -7.24722
| 63>    C       11.24415        -0.82150        -6.46999
| 64>    C       10.65675        -1.27158        -5.15591
| 65>    S       11.92972        -1.38388        -3.85526
| 66>    C       14.53738        -3.19220        -6.36143
| 67>    S       15.45281        -3.56550        -4.92580
| 68>    C       15.04827        -3.66013        -7.58308
| 69>    C       14.87069        -3.28600        -8.89067
| 70>    C       15.26530        -4.26535        -9.94117
| 71>    O       15.86833        -5.30178        -9.77245
| 72>    C       14.73059        -3.72428       -11.20510
| 73>    C       14.72758        -4.28313       -12.44939
| 74>    C       14.12929        -3.57901       -13.51965
| 75>    C       13.54499        -2.30293       -13.27410
| 76>    C       12.94667        -1.60847       -14.34290
| 77>    C       12.94043        -2.17055       -15.58925
| 78>    C       13.50978        -3.42335       -15.85131
| 79>    C       14.09474        -4.11127       -14.82420
| 80>    F       12.36856        -1.50711       -16.61199
| 81>    C       13.57118        -1.74510       -11.97368
| 82>    C       14.15672        -2.44545       -10.95527
| 83>    C       14.34524        -2.12100        -9.54295
| 84>    C       14.20563        -0.86480        -8.99931
| 85>    C       14.63842        -0.51583        -7.70841
| 86>    N       14.98008        -0.18032        -6.66370
| 87>    C       13.66609         0.24235        -9.68076
| 88>    N       13.19663         1.17707       -10.15617
| 89>    H        9.27085         7.13365         8.14409
| 90>    H        7.56164        10.95321         7.30881
| 91>    H        6.61671        10.08813         5.18256
| 92>    H        8.97053         5.27212         6.57827
| 93>    H        6.30829         8.23783         3.57694
| 94>    H        6.85747         3.70349         0.85902
| 95>    H        7.37167        -1.29071        -0.37976
| 96>    H        7.94520        -1.78192        -1.99321
| 97>    H        6.34990         0.06024        -2.34976
| 98>    H        7.97860         0.73614        -2.59684
| 99>    H       11.99401        -0.31790        -0.50062
|100>    H       14.24995        -0.48749         4.07057
|101>    H       16.94899        -3.50802        -0.65286
|102>    H       18.29588        -3.76888         1.54391
|103>    H       13.14180        -1.34617        -1.88397
|104>    H       15.58002        -3.14871        -2.26175
|105>    H       10.46548        -0.56089        -7.18678
|106>    H       11.92407         0.02232        -6.34281
|107>    H       10.16171        -2.23865        -5.25270
|108>    H        9.94867        -0.53841        -4.76836
|109>    H       15.71137        -4.51721        -7.47931
|110>    H       15.17504        -5.25122       -12.61784
|111>    H       12.50071        -0.63992       -14.17837
|112>    H       13.47460        -3.81704       -16.85471
|113>    H       14.54020        -5.07868       -15.00136
|114>    H       13.11703        -0.77958       -11.81677
|115> *
|116>
|117>                          ****END OF INPUT****

CARTESIAN COORDINATES (ANGSTROEM)
---------------------------------
  C      8.693220    7.766390    7.488500
  C      8.460300    9.073170    7.816030
  F      8.962280    9.568110    8.962540
  C      7.712630    9.931400    6.998710
  C      7.195960    9.446480    5.829440
  C      7.406540    8.107510    5.441880
  C      8.167920    7.249780    6.288310
  C      8.386360    5.900090    5.923950
  C      7.866380    5.431530    4.748760
  C      7.119410    6.297840    3.898300
  C      6.884170    7.600110    4.230740
  C      6.714590    5.561620    2.683770
  O      6.031830    5.956300    1.765830
  C      7.383800    4.239580    2.795710
  C      7.899510    4.105990    4.137200
  C      8.113840    2.924810    4.802240
  C      7.818110    1.666520    4.240300
  N      7.533400    0.634310    3.824790
  C      8.549340    2.846030    6.138720
  N      8.922460    2.733040    7.218670
  C      7.509560    3.449280    1.691190
  C      8.440640    2.427120    1.432560
  C      8.358070    1.509700    0.384500
  C      9.475230    0.657480    0.299170
  S      9.657070   -0.681330   -0.826900
  C      7.913630   -0.967950   -1.268990
  C      7.305680    0.276470   -1.871940
  S      6.901920    1.499950   -0.581460
  C     10.444210    0.947320    1.254370
  S      9.949950    2.254290    2.285270
  C     11.698960    0.309640    1.480430
  C     12.395810   -0.354730    0.500880
  C     13.591930   -1.036640    0.703820
  C     14.232190   -1.086140    2.019100
  C     13.749980   -0.458440    3.115250
  S     12.293920    0.446930    3.132400
  C     15.401410   -1.873070    1.832710
  C     15.495640   -2.290210    0.500480
  C     16.651950   -3.073690    0.283540
  C     17.379090   -3.226040    1.421260
  S     16.703640   -2.431750    2.801180
  C     14.366860   -1.764240   -0.225570
  C     14.023940   -1.890470   -1.587240
  C     14.687730   -2.605350   -2.534800
  C     14.344470   -2.702770   -3.902470
  C     13.257860   -2.227070   -4.643920
  C     13.374390   -2.493730   -6.018950
  S     12.164000   -2.184870   -7.247220
  C     11.244150   -0.821500   -6.469990
  C     10.656750   -1.271580   -5.155910
  S     11.929720   -1.383880   -3.855260
  C     14.537380   -3.192200   -6.361430
  S     15.452810   -3.565500   -4.925800
  C     15.048270   -3.660130   -7.583080
  C     14.870690   -3.286000   -8.890670
  C     15.265300   -4.265350   -9.941170
  O     15.868330   -5.301780   -9.772450
  C     14.730590   -3.724280  -11.205100
  C     14.727580   -4.283130  -12.449390
  C     14.129290   -3.579010  -13.519650
  C     13.544990   -2.302930  -13.274100
  C     12.946670   -1.608470  -14.342900
  C     12.940430   -2.170550  -15.589250
  C     13.509780   -3.423350  -15.851310
  C     14.094740   -4.111270  -14.824200
  F     12.368560   -1.507110  -16.611990
  C     13.571180   -1.745100  -11.973680
  C     14.156720   -2.445450  -10.955270
  C     14.345240   -2.121000   -9.542950
  C     14.205630   -0.864800   -8.999310
  C     14.638420   -0.515830   -7.708410
  N     14.980080   -0.180320   -6.663700
  C     13.666090    0.242350   -9.680760
  N     13.196630    1.177070  -10.156170
  H      9.270850    7.133650    8.144090
  H      7.561640   10.953210    7.308810
  H      6.616710   10.088130    5.182560
  H      8.970530    5.272120    6.578270
  H      6.308290    8.237830    3.576940
  H      6.857470    3.703490    0.859020
  H      7.371670   -1.290710   -0.379760
  H      7.945200   -1.781920   -1.993210
  H      6.349900    0.060240   -2.349760
  H      7.978600    0.736140   -2.596840
  H     11.994010   -0.317900   -0.500620
  H     14.249950   -0.487490    4.070570
  H     16.948990   -3.508020   -0.652860
  H     18.295880   -3.768880    1.543910
  H     13.141800   -1.346170   -1.883970
  H     15.580020   -3.148710   -2.261750
  H     10.465480   -0.560890   -7.186780
  H     11.924070    0.022320   -6.342810
  H     10.161710   -2.238650   -5.252700
  H      9.948670   -0.538410   -4.768360
  H     15.711370   -4.517210   -7.479310
  H     15.175040   -5.251220  -12.617840
  H     12.500710   -0.639920  -14.178370
  H     13.474600   -3.817040  -16.854710
  H     14.540200   -5.078680  -15.001360
  H     13.117030   -0.779580  -11.816770

 Total Charge           Charge          ....    0
 Multiplicity           Mult            ....    1
 Number of Electrons    NEL             ....  564
 Basis Dimension        Dim             .... 1198

ORBITAL ENERGIES
----------------

  NO   OCC          E(Eh)            E(eV)
   0   2.0000     -88.981780     -2421.3173
   1   2.0000     -88.975104     -2421.1357
   2   2.0000     -88.961226     -2420.7580
   3   2.0000     -88.960307     -2420.7330
   4   2.0000     -88.955307     -2420.5970
   5   2.0000     -88.951844     -2420.5027
   6   2.0000     -88.949145     -2420.4293
   7   2.0000     -88.943045     -2420.2633
   8   2.0000     -24.783872      -674.4034
   9   2.0000     -24.780182      -674.3030
  10   2.0000     -19.209521      -522.7176
  11   2.0000     -19.205171      -522.5993
  12   2.0000     -14.413335      -392.2068
  13   2.0000     -14.410401      -392.1269
  14   2.0000     -14.409416      -392.1001
  15   2.0000     -14.407153      -392.0386
  16   2.0000     -10.367387      -282.1110
  17   2.0000     -10.363109      -281.9945
  18   2.0000     -10.361661      -281.9551
  19   2.0000     -10.355560      -281.7891
  20   2.0000     -10.339767      -281.3594
  21   2.0000     -10.338297      -281.3194
  22   2.0000     -10.336102      -281.2596
  23   2.0000     -10.335403      -281.2406
  24   2.0000     -10.334455      -281.2148
  25   2.0000     -10.334063      -281.2042
  26   2.0000     -10.332276      -281.1555
  27   2.0000     -10.327487      -281.0252
  28   2.0000     -10.326959      -281.0108
  29   2.0000     -10.326855      -281.0080
  30   2.0000     -10.326287      -280.9926
  31   2.0000     -10.324957      -280.9564
  32   2.0000     -10.320414      -280.8327
  33   2.0000     -10.320157      -280.8257
  34   2.0000     -10.320032      -280.8223
  35   2.0000     -10.319452      -280.8066
  36   2.0000     -10.319391      -280.8049
  37   2.0000     -10.316070      -280.7145
  38   2.0000     -10.314373      -280.6684
  39   2.0000     -10.314184      -280.6632
  40   2.0000     -10.312921      -280.6288
  41   2.0000     -10.312887      -280.6279
  42   2.0000     -10.312801      -280.6256
  43   2.0000     -10.309205      -280.5277
  44   2.0000     -10.305379      -280.4236
  45   2.0000     -10.303873      -280.3826
  46   2.0000     -10.303751      -280.3793
  47   2.0000     -10.303425      -280.3704
  48   2.0000     -10.300384      -280.2877
  49   2.0000     -10.298703      -280.2420
  50   2.0000     -10.298543      -280.2376
  51   2.0000     -10.297154      -280.1998
  52   2.0000     -10.296535      -280.1830
  53   2.0000     -10.295811      -280.1633
  54   2.0000     -10.295660      -280.1591
  55   2.0000     -10.293450      -280.0990
  56   2.0000     -10.293187      -280.0918
  57   2.0000     -10.293113      -280.0898
  58   2.0000     -10.292456      -280.0720
  59   2.0000     -10.292318      -280.0682
  60   2.0000     -10.292081      -280.0618
  61   2.0000     -10.291330      -280.0413
  62   2.0000     -10.288499      -279.9643
  63   2.0000     -10.287739      -279.9436
  64   2.0000     -10.287155      -279.9277
  65   2.0000     -10.287082      -279.9257
  66   2.0000     -10.287016      -279.9239
  67   2.0000     -10.285508      -279.8829
  68   2.0000     -10.283935      -279.8401
  69   2.0000     -10.283081      -279.8169
  70   2.0000     -10.282579      -279.8032
  71   2.0000     -10.280650      -279.7507
  72   2.0000     -10.280594      -279.7492
  73   2.0000     -10.279542      -279.7206
  74   2.0000      -8.077365      -219.7963
  75   2.0000      -8.070139      -219.5996
  76   2.0000      -8.056751      -219.2353
  77   2.0000      -8.056357      -219.2246
  78   2.0000      -8.050852      -219.0748
  79   2.0000      -8.046624      -218.9598
  80   2.0000      -8.043930      -218.8865
  81   2.0000      -8.037707      -218.7171
  82   2.0000      -6.046953      -164.5459
  83   2.0000      -6.042350      -164.4207
  84   2.0000      -6.039634      -164.3468
  85   2.0000      -6.039136      -164.3332
  86   2.0000      -6.035539      -164.2354
  87   2.0000      -6.031724      -164.1316
  88   2.0000      -6.026156      -163.9800
  89   2.0000      -6.025707      -163.9678
  90   2.0000      -6.021912      -163.8646
  91   2.0000      -6.021805      -163.8616
  92   2.0000      -6.021236      -163.8462
  93   2.0000      -6.018811      -163.7802
  94   2.0000      -6.017966      -163.7572
  95   2.0000      -6.017102      -163.7337
  96   2.0000      -6.016964      -163.7299
  97   2.0000      -6.014230      -163.6555
  98   2.0000      -6.012928      -163.6201
  99   2.0000      -6.010670      -163.5586
 100   2.0000      -6.010087      -163.5428
 101   2.0000      -6.008248      -163.4927
 102   2.0000      -6.006295      -163.4396
 103   2.0000      -6.003942      -163.3756
 104   2.0000      -6.003891      -163.3742
 105   2.0000      -5.997422      -163.1982
 106   2.0000      -1.298598       -35.3367
 107   2.0000      -1.294763       -35.2323
 108   2.0000      -1.124754       -30.6061
 109   2.0000      -1.120154       -30.4809
 110   2.0000      -1.026435       -27.9307
 111   2.0000      -1.015001       -27.6196
 112   2.0000      -1.014364       -27.6022
 113   2.0000      -1.009797       -27.4780
 114   2.0000      -1.005050       -27.3488
 115   2.0000      -0.997509       -27.1436
 116   2.0000      -0.992744       -27.0139
 117   2.0000      -0.990310       -26.9477
 118   2.0000      -0.986592       -26.8465
 119   2.0000      -0.978254       -26.6197
 120   2.0000      -0.973576       -26.4923
 121   2.0000      -0.967783       -26.3347
 122   2.0000      -0.953127       -25.9359
 123   2.0000      -0.946369       -25.7520
 124   2.0000      -0.937205       -25.5026
 125   2.0000      -0.928230       -25.2584
 126   2.0000      -0.922901       -25.1134
 127   2.0000      -0.918487       -24.9933
 128   2.0000      -0.910123       -24.7657
 129   2.0000      -0.896750       -24.4018
 130   2.0000      -0.890750       -24.2385
 131   2.0000      -0.887464       -24.1491
 132   2.0000      -0.883858       -24.0510
 133   2.0000      -0.879013       -23.9192
 134   2.0000      -0.875336       -23.8191
 135   2.0000      -0.871694       -23.7200
 136   2.0000      -0.866252       -23.5719
 137   2.0000      -0.865180       -23.5428
 138   2.0000      -0.856002       -23.2930
 139   2.0000      -0.843455       -22.9516
 140   2.0000      -0.834214       -22.7001
 141   2.0000      -0.829776       -22.5794
 142   2.0000      -0.827273       -22.5112
 143   2.0000      -0.818111       -22.2619
 144   2.0000      -0.809768       -22.0349
 145   2.0000      -0.796911       -21.6851
 146   2.0000      -0.782298       -21.2874
 147   2.0000      -0.767762       -20.8919
 148   2.0000      -0.761622       -20.7248
 149   2.0000      -0.757902       -20.6236
 150   2.0000      -0.752888       -20.4871
 151   2.0000      -0.751068       -20.4376
 152   2.0000      -0.738207       -20.0876
 153   2.0000      -0.736144       -20.0315
 154   2.0000      -0.726875       -19.7793
 155   2.0000      -0.724944       -19.7267
 156   2.0000      -0.710160       -19.3244
 157   2.0000      -0.707301       -19.2466
 158   2.0000      -0.706639       -19.2286
 159   2.0000      -0.701579       -19.0909
 160   2.0000      -0.694001       -18.8847
 161   2.0000      -0.679265       -18.4837
 162   2.0000      -0.677502       -18.4358
 163   2.0000      -0.671462       -18.2714
 164   2.0000      -0.667862       -18.1734
 165   2.0000      -0.661876       -18.0106
 166   2.0000      -0.656630       -17.8678
 167   2.0000      -0.650214       -17.6932
 168   2.0000      -0.641120       -17.4458
 169   2.0000      -0.633710       -17.2441
 170   2.0000      -0.631622       -17.1873
 171   2.0000      -0.628264       -17.0959
 172   2.0000      -0.625934       -17.0325
 173   2.0000      -0.624657       -16.9978
 174   2.0000      -0.620851       -16.8942
 175   2.0000      -0.614226       -16.7139
 176   2.0000      -0.606738       -16.5102
 177   2.0000      -0.599247       -16.3063
 178   2.0000      -0.589634       -16.0448
 179   2.0000      -0.588042       -16.0014
 180   2.0000      -0.581284       -15.8175
 181   2.0000      -0.578023       -15.7288
 182   2.0000      -0.572727       -15.5847
 183   2.0000      -0.572094       -15.5675
 184   2.0000      -0.566529       -15.4160
 185   2.0000      -0.565238       -15.3809
 186   2.0000      -0.559240       -15.2177
 187   2.0000      -0.558043       -15.1851
 188   2.0000      -0.557230       -15.1630
 189   2.0000      -0.556257       -15.1365
 190   2.0000      -0.552537       -15.0353
 191   2.0000      -0.552292       -15.0286
 192   2.0000      -0.550376       -14.9765
 193   2.0000      -0.546754       -14.8779
 194   2.0000      -0.546534       -14.8719
 195   2.0000      -0.542379       -14.7589
 196   2.0000      -0.540359       -14.7039
 197   2.0000      -0.537029       -14.6133
 198   2.0000      -0.535727       -14.5779
 199   2.0000      -0.530521       -14.4362
 200   2.0000      -0.527236       -14.3468
 201   2.0000      -0.526098       -14.3159
 202   2.0000      -0.525506       -14.2997
 203   2.0000      -0.521495       -14.1906
 204   2.0000      -0.518873       -14.1192
 205   2.0000      -0.517710       -14.0876
 206   2.0000      -0.516585       -14.0570
 207   2.0000      -0.515838       -14.0367
 208   2.0000      -0.513539       -13.9741
 209   2.0000      -0.511544       -13.9198
 210   2.0000      -0.508061       -13.8250
 211   2.0000      -0.506983       -13.7957
 212   2.0000      -0.500041       -13.6068
 213   2.0000      -0.498469       -13.5640
 214   2.0000      -0.496050       -13.4982
 215   2.0000      -0.492468       -13.4007
 216   2.0000      -0.490830       -13.3562
 217   2.0000      -0.489875       -13.3302
 218   2.0000      -0.485932       -13.2229
 219   2.0000      -0.484306       -13.1786
 220   2.0000      -0.482855       -13.1392
 221   2.0000      -0.479204       -13.0398
 222   2.0000      -0.478255       -13.0140
 223   2.0000      -0.473501       -12.8846
 224   2.0000      -0.467761       -12.7284
 225   2.0000      -0.466145       -12.6844
 226   2.0000      -0.460318       -12.5259
 227   2.0000      -0.459461       -12.5026
 228   2.0000      -0.455296       -12.3892
 229   2.0000      -0.454617       -12.3707
 230   2.0000      -0.451383       -12.2827
 231   2.0000      -0.450029       -12.2459
 232   2.0000      -0.448491       -12.2041
 233   2.0000      -0.447066       -12.1653
 234   2.0000      -0.445319       -12.1177
 235   2.0000      -0.441377       -12.0105
 236   2.0000      -0.439683       -11.9644
 237   2.0000      -0.438562       -11.9339
 238   2.0000      -0.437561       -11.9066
 239   2.0000      -0.435894       -11.8613
 240   2.0000      -0.433067       -11.7844
 241   2.0000      -0.431271       -11.7355
 242   2.0000      -0.430046       -11.7022
 243   2.0000      -0.428411       -11.6576
 244   2.0000      -0.426971       -11.6185
 245   2.0000      -0.425373       -11.5750
 246   2.0000      -0.424284       -11.5454
 247   2.0000      -0.423319       -11.5191
 248   2.0000      -0.421944       -11.4817
 249   2.0000      -0.421745       -11.4763
 250   2.0000      -0.417366       -11.3571
 251   2.0000      -0.415624       -11.3097
 252   2.0000      -0.414688       -11.2842
 253   2.0000      -0.413795       -11.2599
 254   2.0000      -0.407879       -11.0990
 255   2.0000      -0.404725       -11.0131
 256   2.0000      -0.400514       -10.8985
 257   2.0000      -0.396298       -10.7838
 258   2.0000      -0.394091       -10.7237
 259   2.0000      -0.385389       -10.4870
 260   2.0000      -0.380901       -10.3648
 261   2.0000      -0.379251       -10.3199
 262   2.0000      -0.375029       -10.2051
 263   2.0000      -0.372152       -10.1268
 264   2.0000      -0.370035       -10.0692
 265   2.0000      -0.365148        -9.9362
 266   2.0000      -0.351762        -9.5719
 267   2.0000      -0.344498        -9.3743
 268   2.0000      -0.333575        -9.0770
 269   2.0000      -0.331137        -9.0107
 270   2.0000      -0.330832        -9.0024
 271   2.0000      -0.325738        -8.8638
 272   2.0000      -0.311448        -8.4749
 273   2.0000      -0.304306        -8.2806
 274   2.0000      -0.299464        -8.1488
 275   2.0000      -0.293581        -7.9887
 276   2.0000      -0.291903        -7.9431
 277   2.0000      -0.287795        -7.8313
 278   2.0000      -0.284815        -7.7502
 279   2.0000      -0.275406        -7.4942
 280   2.0000      -0.266938        -7.2638
 281   2.0000      -0.227821        -6.1993
 282   0.0000      -0.103058        -2.8043
 283   0.0000      -0.085332        -2.3220
 284   0.0000      -0.060807        -1.6547
 285   0.0000      -0.051524        -1.4021
 286   0.0000      -0.045660        -1.2425

MULLIKEN ATOMIC CHARGES
-----------------------
   0 C :   -0.100949
   1 C :    0.303688
   2 F :   -0.191604
   3 C :   -0.030181
   4 C :   -0.011087
   5 C :    0.101566
   6 C :    0.105158
   7 C :   -0.087600
   8 C :    0.042795
   9 C :    0.006689
  10 C :   -0.084388
  11 C :    0.143036
  12 O :   -0.145612
  13 C :   -0.134797
  14 C :    0.249947
  15 C :   -0.324547
  16 C :   -0.210243
  17 N :    0.168638
  18 C :   -0.175504
  19 N :    0.150731
  20 C :    0.019281
  21 C :   -0.136752
  22 C :    0.030365
  23 C :   -0.024104
  24 S :   -0.003561
  25 C :   -0.062053
  26 C :   -0.044692
  27 S :    0.032440
  28 C :   -0.090585
  29 S :    0.162726
  30 C :   -0.066822
  31 C :   -0.056077
  32 C :    0.034660
  33 C :    0.070530
  34 C :   -0.123115
  35 S :    0.152303
  36 C :   -0.112434
  37 C :    0.053799
  38 C :   -0.005271
  39 C :   -0.065447
  40 S :    0.134901
  41 C :    0.084325
  42 C :   -0.012960
  43 C :    0.047834
  44 C :   -0.095537
  45 C :   -0.008958
  46 C :   -0.021383
  47 S :    0.025344
  48 C :   -0.058698
  49 C :   -0.014637
  50 S :   -0.032456
  51 C :   -0.136983
  52 S :    0.144594
  53 C :    0.045933
  54 C :   -0.150568
  55 C :    0.134375
  56 O :   -0.150743
  57 C :    0.011461
  58 C :   -0.082048
  59 C :    0.097807
  60 C :    0.104597
  61 C :   -0.098479
  62 C :    0.302363
  63 C :   -0.034510
  64 C :   -0.008356
  65 F :   -0.193466
  66 C :   -0.098577
  67 C :    0.046000
  68 C :    0.315597
  69 C :   -0.345731
  70 C :   -0.203881
  71 N :    0.166413
  72 C :   -0.186940
  73 N :    0.143163
  74 H :   -0.002657
  75 H :    0.002991
  76 H :   -0.008576
  77 H :   -0.005303
  78 H :   -0.011644
  79 H :    0.034197
  80 H :    0.089591
  81 H :    0.065857
  82 H :    0.067507
  83 H :    0.074300
  84 H :    0.021039
  85 H :    0.041868
  86 H :   -0.008670
  87 H :    0.027590
  88 H :   -0.007958
  89 H :   -0.046787
  90 H :    0.067660
  91 H :    0.085634
  92 H :    0.068422
  93 H :    0.054391
  94 H :    0.026145
  95 H :   -0.016043
  96 H :   -0.006609
  97 H :    0.000396
  98 H :   -0.011737
  99 H :   -0.012324
Sum of atomic charges:   -0.0000000

LOEWDIN ATOMIC CHARGES
----------------------
   0 C :   -0.042880
   1 C :    0.092864
   2 F :   -0.065929
   3 C :   -0.037829
   4 C :    0.004400
   5 C :   -0.019054
   6 C :    0.003153
   7 C :    0.009242
   8 C :   -0.016223
   9 C :   -0.058538
  10 C :    0.033251
  11 C :    0.081795
  12 O :   -0.147896
  13 C :   -0.102560
  14 C :    0.060693
  15 C :   -0.146898
  16 C :   -0.036153
  17 N :   -0.053431
  18 C :   -0.019442
  19 N :   -0.055130
  20 C :    0.043372
  21 C :   -0.209753
  22 C :   -0.165699
  23 C :   -0.213646
  24 S :    0.322154
  25 C :   -0.142495
  26 C :   -0.142991
  27 S :    0.339328
  28 C :   -0.176566
  29 S :    0.468580
  30 C :   -0.191113
  31 C :   -0.014317
  32 C :   -0.014623
  33 C :   -0.050316
  34 C :   -0.134727
  35 S :    0.456509
  36 C :   -0.197136
  37 C :   -0.037012
  38 C :   -0.064211
  39 C :   -0.162595
  40 S :    0.429367
  41 C :   -0.042622
  42 C :   -0.003297
  43 C :   -0.066345
  44 C :   -0.150494
  45 C :   -0.211753
  46 C :   -0.177906
  47 S :    0.366142
  48 C :   -0.137264
  49 C :   -0.146230
  50 S :    0.320790
  51 C :   -0.203889
  52 S :    0.452935
  53 C :    0.033131
  54 C :   -0.107605
  55 C :    0.083053
  56 O :   -0.150299
  57 C :   -0.059962
  58 C :    0.032565
  59 C :   -0.021758
  60 C :    0.003226
  61 C :   -0.044437
  62 C :    0.091703
  63 C :   -0.041370
  64 C :    0.004010
  65 F :   -0.067806
  66 C :    0.002403
  67 C :   -0.012983
  68 C :    0.052323
  69 C :   -0.152153
  70 C :   -0.023771
  71 N :   -0.057901
  72 C :   -0.020043
  73 N :   -0.064938
  74 H :    0.042749
  75 H :    0.041662
  76 H :    0.035657
  77 H :    0.038711
  78 H :    0.039507
  79 H :    0.043704
  80 H :    0.035698
  81 H :    0.036020
  82 H :    0.036781
  83 H :    0.025318
  84 H :    0.026786
  85 H :    0.039052
  86 H :    0.029705
  87 H :    0.024855
  88 H :    0.011675
  89 H :    0.024676
  90 H :    0.036929
  91 H :    0.034683
  92 H :    0.025419
  93 H :    0.030215
  94 H :    0.045153
  95 H :    0.038224
  96 H :    0.041608
  97 H :    0.040523
  98 H :    0.034670
  99 H :    0.037016

  Mayer bond orders larger than 0.100000
B(  0-C ,  1-C ) :   1.4410 B(  0-C ,  6-C ) :   1.2026 B(  0-C , 74-H ) :   1.0065
B(  1-C ,  2-F ) :   1.0873 B(  1-C ,  3-C ) :   1.2546 B(  3-C ,  4-C ) :   1.4590
B(  3-C , 75-H ) :   0.9934 B(  4-C ,  5-C ) :   1.2370 B(  4-C , 76-H ) :   0.9969
B(  5-C ,  6-C ) :   1.2555 B(  5-C , 10-C ) :   1.1890 B(  6-C ,  7-C ) :   1.2002
B(  7-C ,  8-C ) :   1.4644 B(  7-C , 77-H ) :   0.9955 B(  8-C ,  9-C ) :   1.2158
B(  8-C , 14-C ) :   0.9995 B(  9-C , 10-C ) :   1.4762 B(  9-C , 11-C ) :   0.9183
B( 10-C , 78-H ) :   1.0152 B( 11-C , 12-O ) :   2.2681 B( 11-C , 13-C ) :   0.9457
B( 13-C , 14-C ) :   1.0512 B( 13-C , 20-C ) :   1.6206 B( 14-C , 15-C ) :   1.6418
B( 15-C , 16-C ) :   1.1547 B( 15-C , 18-C ) :   1.1375 B( 16-C , 17-N ) :   3.0256
B( 18-C , 19-N ) :   2.9866 B( 20-C , 21-C ) :   1.1812 B( 20-C , 79-H ) :   0.9290
B( 21-C , 22-C ) :   1.4818 B( 21-C , 28-C ) :   0.1030 B( 21-C , 29-S ) :   1.0856
B( 22-C , 23-C ) :   1.3040 B( 22-C , 27-S ) :   1.0541 B( 23-C , 24-S ) :   0.9992
B( 23-C , 28-C ) :   1.5440 B( 24-S , 25-C ) :   1.0150 B( 25-C , 26-C ) :   1.0165
B( 25-C , 80-H ) :   0.9471 B( 25-C , 81-H ) :   0.9477 B( 26-C , 27-S ) :   1.0068
B( 26-C , 82-H ) :   0.9448 B( 26-C , 83-H ) :   0.9475 B( 28-C , 29-S ) :   1.1394
B( 28-C , 30-C ) :   1.1235 B( 30-C , 31-C ) :   1.5236 B( 30-C , 35-S ) :   1.0502
B( 31-C , 32-C ) :   1.2732 B( 31-C , 84-H ) :   0.9440 B( 32-C , 33-C ) :   1.0546
B( 32-C , 41-C ) :   1.3608 B( 33-C , 34-C ) :   1.5977 B( 33-C , 36-C ) :   1.1805
B( 34-C , 35-S ) :   1.1464 B( 34-C , 85-H ) :   0.9411 B( 36-C , 37-C ) :   1.4453
B( 36-C , 40-S ) :   1.0821 B( 37-C , 38-C ) :   1.2142 B( 37-C , 41-C ) :   1.0680
B( 38-C , 39-C ) :   1.5902 B( 38-C , 86-H ) :   1.0001 B( 39-C , 40-S ) :   1.1563
B( 39-C , 87-H ) :   0.9643 B( 41-C , 42-C ) :   1.2337 B( 42-C , 43-C ) :   1.5884
B( 42-C , 88-H ) :   0.9392 B( 43-C , 44-C ) :   1.1699 B( 43-C , 89-H ) :   0.9532
B( 44-C , 45-C ) :   1.4939 B( 44-C , 52-S ) :   1.1301 B( 45-C , 46-C ) :   1.3082
B( 45-C , 50-S ) :   0.9932 B( 46-C , 47-S ) :   1.0555 B( 46-C , 51-C ) :   1.4438
B( 47-S , 48-C ) :   1.0152 B( 48-C , 49-C ) :   1.0216 B( 48-C , 90-H ) :   0.9459
B( 48-C , 91-H ) :   0.9437 B( 49-C , 50-S ) :   1.0176 B( 49-C , 92-H ) :   0.9475
B( 49-C , 93-H ) :   0.9432 B( 51-C , 52-S ) :   1.0973 B( 51-C , 53-C ) :   1.2045
B( 53-C , 54-C ) :   1.5799 B( 53-C , 94-H ) :   0.9168 B( 54-C , 55-C ) :   0.9468
B( 54-C , 68-C ) :   1.0928 B( 55-C , 56-O ) :   2.2545 B( 55-C , 57-C ) :   0.9186
B( 57-C , 58-C ) :   1.4791 B( 57-C , 67-C ) :   1.2150 B( 58-C , 59-C ) :   1.1834
B( 58-C , 95-H ) :   1.0147 B( 59-C , 60-C ) :   1.2600 B( 59-C , 64-C ) :   1.2385
B( 60-C , 61-C ) :   1.2046 B( 60-C , 66-C ) :   1.1974 B( 61-C , 62-C ) :   1.4388
B( 61-C , 96-H ) :   1.0057 B( 62-C , 63-C ) :   1.2591 B( 62-C , 65-F ) :   1.0857
B( 63-C , 64-C ) :   1.4558 B( 63-C , 97-H ) :   0.9931 B( 64-C , 98-H ) :   0.9962
B( 66-C , 67-C ) :   1.4674 B( 66-C , 99-H ) :   0.9924 B( 67-C , 68-C ) :   0.9948
B( 68-C , 69-C ) :   1.5884 B( 69-C , 70-C ) :   1.1776 B( 69-C , 72-C ) :   1.1460
B( 70-C , 71-N ) :   2.9718 B( 72-C , 73-N ) :   2.9723

-----------------------------------------------------------------------------
         ABSORPTION SPECTRUM VIA TRANSITION ELECTRIC DIPOLE MOMENTS
-----------------------------------------------------------------------------
State   Energy  Wavelength   fosc         T2         TX        TY        TZ
        (cm-1)    (nm)                  (au**2)     (au)      (au)      (au)
-----------------------------------------------------------------------------
   0   13214.2    756.8   1.224155252  30.49791  -2.39326   2.30056   4.41335
   1   17148.7    583.1   0.380356601   7.30188   0.51996  -0.66644   2.56659
   2   20464.1    488.7   0.208626692   3.35624   1.19502  -1.31596  -0.44319
   3   21451.0    466.2   0.060504796   0.92858   0.47124  -0.48982   0.68307
   4   22618.9    442.1   0.070410491   1.02481  -0.82593   0.32352   0.48783
   5   22803.5    438.5   0.186225528   2.68852   0.73770   0.44188   1.39609
   6   24228.2    412.7   0.119841532   1.62840   0.63174  -1.00210  -0.47444
   7   25000.9    400.0   0.239245461   3.15038   0.14257   0.01337  -1.76915
   8   25736.1    388.6   0.375869658   4.80807   0.37645   0.19695   2.15118
   9   26235.5    381.2   0.027349301   0.34319  -0.25636   0.51961  -0.08646
  10   26896.9    371.8   0.039469388   0.48310   0.39935  -0.50833  -0.25537
  11   27238.8    367.1   0.043916415   0.53078  -0.51404   0.03721  -0.51493
  12   27685.2    361.2   0.072226329   0.85886   0.24239   0.75967   0.47223
  13   28023.8    356.8   0.012717213   0.14940   0.19511  -0.08032   0.32385
  14   28172.1    355.0   0.049097996   0.57375  -0.13901   0.72327   0.17693
  15   28562.3    350.1   0.017736005   0.20443  -0.05205  -0.39268   0.21799
  16   28846.7    346.7   0.025921859   0.29583   0.04127  -0.40203   0.36401
  17   29395.9    340.2   0.041053086   0.45976  -0.21358  -0.63613  -0.09738
  18   29940.1    334.0   0.010971301   0.12064  -0.10469  -0.27673  -0.18193
  19   30007.9    333.2   0.043601246   0.47834  -0.32602   0.60979   0.01449
  20   30452.0    328.4   0.013141257   0.14207   0.15777  -0.11749  -0.32151
  21   30988.0    322.7   0.333578537   3.54389   0.51587   0.96611   1.53114
  22   31259.9    319.9   0.113517831   1.19551   0.50516  -0.96813   0.05505
  23   32102.3    311.5   0.228398421   2.34224  -0.73449   1.32295  -0.22930
  24   32499.2    307.7   0.032185014   0.32603  -0.18076   0.06316  -0.53793
  25   32752.4    305.3   0.095291601   0.95783   0.32378   0.70491   0.59673
  26   33459.3    298.9   0.312011258   3.06993   0.16902  -1.57625  -0.74620
  27   33540.8    298.1   0.081277221   0.79776  -0.18905   0.48115   0.72836
  28   33843.9    295.5   0.188688683   1.83544   0.11660  -0.46609  -1.26673
  29   34105.4    293.2   0.018848464   0.18194   0.38947  -0.09928  -0.14281
  30   34293.3    291.6   0.009246399   0.08876  -0.21315   0.20338  -0.04435
  31   34540.6    289.5   0.009625760   0.09174   0.06379  -0.13553  -0.26326
  32   34679.0    288.4   0.005424223   0.05149  -0.07927   0.11135   0.18113
  33   34981.4    285.9   0.196203905   1.84648  -0.58579  -1.11318  -0.51398
  34   35151.3    284.5   0.474130121   4.44050  -0.19168  -1.09787  -1.78842
  35   35375.1    282.7   0.242203476   2.25402   0.93653  -1.11941  -0.35191
  36   35781.4    279.5   0.001847777   0.01700  -0.08820   0.07744   0.05677
  37   35871.8    278.8   0.029641077   0.27203   0.15964  -0.25743   0.42459
  38   36405.3    274.7   0.171572776   1.55153  -0.00621   0.36237   1.19171
  39   36490.4    274.0   0.231585032   2.08933   0.84697  -0.16219   1.16003
  40   36815.4    271.6   0.097274832   0.86985  -0.30848   0.07604  -0.87688
  41   37014.4    270.2   0.039578051   0.35201   0.07444  -0.45602  -0.37218
  42   37268.9    268.3   0.053355305   0.47131  -0.08622  -0.58967  -0.34082
  43   37497.0    266.7   0.241080990   2.11662  -1.27298   0.67041   0.21607
  44   37527.4    266.5   0.046701810   0.40970   0.50493  -0.33188   0.21119
  45   38363.8    260.7   0.121446080   1.04217  -0.42684   0.89160   0.25500
  46   38511.4    259.7   0.097076379   0.82985   0.54654   0.58742  -0.43137
  47   38846.9    257.4   0.056126914   0.47565  -0.23238  -0.58788  -0.27576
  48   39444.7    253.5   0.088814163   0.74126   0.68130  -0.36223   0.38195
  49   39786.1    251.3   0.102505397   0.84819  -0.57485   0.26978  -0.66704
  50   39930.6    250.4   0.154118473   1.27065   0.78743  -0.48527   0.64429
  51   40024.6    249.8   0.084822833   0.69769   0.34666   0.32606   0.68644
  52   40235.2    248.5   0.025209359   0.20627   0.13929  -0.28126   0.32827

FINAL SINGLE POINT ENERGY     -5975.918007557888

DIPOLE MOMENT
-------------
                                X             Y             Z
Electronic contribution:      6.50623       8.28923      16.84777
Nuclear contribution   :     -7.17962      -8.75276     -17.14460
                        -----------------------------------------
Total Dipole Moment    :     -0.67338      -0.46353      -0.29684
                        -----------------------------------------
Magnitude (a.u.)       :      0.86972
Magnitude (Debye)      :      2.21066

Rotational constants in cm-1:     0.001343     0.000260     0.000232
Rotational constants in MHz :    40.259667     7.780852     6.943745

                             ****ORCA TERMINATED NORMALLY****
TOTAL RUN TIME: 0 days 0 hours 15 minutes 56 seconds 846 msec
