                         Program Version 4.2.0 -  RELEASE  -
|  1> # ORCA input file
|  2> # SCF done       -196.271578479842          0.000453726110
|  3> ! CAM-B3LYP def2-SVP def2/J RIJCOSX Grid4 TightSCF
|  4> %maxcore 5000
|  5> %tddft
|  6>     Mode sTDDFT
|  7>     Ethresh 5.0
|  8>     maxcore 5000
|  9> end
| 10>
| 11> %pal
| 12>   nprocs 6
| 13>   end
| 14> * xyz 0 1
| 15>    C        0.59363         4.51187         3.72885
| 16>    C       -0.67061         4.45093         4.24618
| 17>    F       -1.51420         5.48188         4.05517
| 18>    C       -1.13179         3.34718         4.97571
| 19>    C       -0.28832         2.29028         5.17916
| 20>    C        1.02534         2.30041         4.66822
| 21>    C        1.47603         3.43321         3.93037
| 22>    C        2.79394         3.47124         3.41614
| 23>    C        3.62863         2.40875         3.62985
| 24>    C        3.16735         1.27395         4.35642
| 25>    C        1.90503         1.21279         4.87046
| 26>    C        4.24672         0.27228         4.42164
| 27>    O        4.24098        -0.79399         4.99325
| 28>    C        5.35563         0.82911         3.59343
| 29>    C        5.02447         2.18600         3.25869
| 30>    C        5.89511         3.16612         2.84224
| 31>    C        7.28986         3.00169         2.77333
| 32>    N        8.43433         2.91954         2.71258
| 33>    C        5.51111         4.47835         2.50402
| 34>    N        5.26633         5.55000         2.17166
| 35>    C        6.40152        -0.00203         3.29760
| 36>    C        7.42751         0.05397         2.33841
| 37>    C        7.53375         0.68867         1.09711
| 38>    C        8.78623         0.48698         0.47829
| 39>    S        9.33252         1.24795        -1.00459
| 40>    C        8.13344         2.61039        -1.11503
| 41>    C        6.72913         2.06417        -1.20672
| 42>    S        6.13819         1.49383         0.42117
| 43>    C        9.62660        -0.34060         1.21333
| 44>    S        8.85830        -0.88966         2.66570
| 45>    C       10.96316        -0.73259         0.93866
| 46>    C       11.67669        -0.65934        -0.24460
| 47>    C       12.98423        -1.12119        -0.09313
| 48>    C       13.26591        -1.55603         1.21332
| 49>    S       11.92359        -1.40219         2.25224
| 50>    C       14.61411        -1.99027         1.26458
| 51>    C       15.18584        -1.83149        -0.00967
| 52>    C       14.17933        -1.28330        -0.90654
| 53>    C       14.32788        -0.97971        -2.22745
| 54>    C       15.54483        -1.17873        -2.91411
| 55>    N       16.52931        -1.33471        -3.48081
| 56>    C       13.27573        -0.44405        -3.00085
| 57>    N       12.42826        -0.00920        -3.63896
| 58>    C       16.52564        -2.21442        -0.05911
| 59>    C       16.97856        -2.66687         1.16823
| 60>    S       15.72210        -2.61274         2.40037
| 61>    C       18.26427        -3.13352         1.54147
| 62>    C       19.33054        -3.53242         0.74409
| 63>    C       20.46055        -3.90709         1.50095
| 64>    S       22.00864        -4.47448         0.92897
| 65>    C       21.88770        -4.13471        -0.85872
| 66>    C       20.59006        -4.66202        -1.42408
| 67>    S       19.19806        -3.56454        -1.00469
| 68>    C       20.24507        -3.85730         2.87611
| 69>    S       18.64427        -3.27030         3.23092
| 70>    C       21.20103        -4.11904         3.87797
| 71>    C       20.97562        -4.39268         5.19409
| 72>    C       22.02964        -4.13673         6.21097
| 73>    O       23.20190        -3.92025         6.00542
| 74>    C       21.31738        -4.13793         7.50552
| 75>    C       21.79019        -3.82643         8.74734
| 76>    C       20.90727        -3.86130         9.85046
| 77>    C       19.54253        -4.21728         9.64329
| 78>    C       18.66661        -4.23886        10.74586
| 79>    C       19.14277        -3.92250        11.98770
| 80>    C       20.48109        -3.57283        12.21271
| 81>    C       21.34468        -3.54560        11.15311
| 82>    F       18.30737        -3.94252        13.04231
| 83>    C       19.08182        -4.54604         8.34692
| 84>    C       19.95769        -4.51120         7.29680
| 85>    C       19.77924        -4.82163         5.88220
| 86>    C       18.79231        -5.61796         5.35916
| 87>    C       18.83047        -6.12597         4.04468
| 88>    N       18.86330        -6.58991         2.99460
| 89>    C       17.68766        -6.08442         6.09771
| 90>    N       16.76120        -6.47385         6.65266
| 91>    H        0.91544         5.37975         3.17463
| 92>    H       -2.13935         3.35531         5.36011
| 93>    H       -0.62048         1.42841         5.73811
| 94>    H        3.10584         4.34035         2.85900
| 95>    H        1.58024         0.34588         5.42609
| 96>    H        6.42411        -0.89593         3.91772
| 97>    H        8.40307         3.14784        -2.02373
| 98>    H        8.26202         3.26254        -0.25007
| 99>    H        6.67026         1.23738        -1.91565
|100>    H        6.01672         2.83938        -1.49110
|101>    H       11.25822        -0.31223        -1.17000
|102>    H       17.14738        -2.14432        -0.93128
|103>    H       22.74498        -4.64941        -1.29282
|104>    H       21.98743        -3.06136        -1.02344
|105>    H       20.36899        -5.66430        -1.05570
|106>    H       20.61119        -4.66897        -2.51377
|107>    H       22.24046        -4.00927         3.58077
|108>    H       22.82555        -3.55445         8.88815
|109>    H       17.63053        -4.50694        10.60985
|110>    H       20.79972        -3.33295        13.21471
|111>    H       22.38021        -3.27875        11.30171
|112>    H       18.04333        -4.80556         8.21335
|113> *
|114>
|115>                          ****END OF INPUT****

CARTESIAN COORDINATES (ANGSTROEM)
---------------------------------
  C      0.593630    4.511870    3.728850
  C     -0.670610    4.450930    4.246180
  F     -1.514200    5.481880    4.055170
  C     -1.131790    3.347180    4.975710
  C     -0.288320    2.290280    5.179160
  C      1.025340    2.300410    4.668220
  C      1.476030    3.433210    3.930370
  C      2.793940    3.471240    3.416140
  C      3.628630    2.408750    3.629850
  C      3.167350    1.273950    4.356420
  C      1.905030    1.212790    4.870460
  C      4.246720    0.272280    4.421640
  O      4.240980   -0.793990    4.993250
  C      5.355630    0.829110    3.593430
  C      5.024470    2.186000    3.258690
  C      5.895110    3.166120    2.842240
  C      7.289860    3.001690    2.773330
  N      8.434330    2.919540    2.712580
  C      5.511110    4.478350    2.504020
  N      5.266330    5.550000    2.171660
  C      6.401520   -0.002030    3.297600
  C      7.427510    0.053970    2.338410
  C      7.533750    0.688670    1.097110
  C      8.786230    0.486980    0.478290
  S      9.332520    1.247950   -1.004590
  C      8.133440    2.610390   -1.115030
  C      6.729130    2.064170   -1.206720
  S      6.138190    1.493830    0.421170
  C      9.626600   -0.340600    1.213330
  S      8.858300   -0.889660    2.665700
  C     10.963160   -0.732590    0.938660
  C     11.676690   -0.659340   -0.244600
  C     12.984230   -1.121190   -0.093130
  C     13.265910   -1.556030    1.213320
  S     11.923590   -1.402190    2.252240
  C     14.614110   -1.990270    1.264580
  C     15.185840   -1.831490   -0.009670
  C     14.179330   -1.283300   -0.906540
  C     14.327880   -0.979710   -2.227450
  C     15.544830   -1.178730   -2.914110
  N     16.529310   -1.334710   -3.480810
  C     13.275730   -0.444050   -3.000850
  N     12.428260   -0.009200   -3.638960
  C     16.525640   -2.214420   -0.059110
  C     16.978560   -2.666870    1.168230
  S     15.722100   -2.612740    2.400370
  C     18.264270   -3.133520    1.541470
  C     19.330540   -3.532420    0.744090
  C     20.460550   -3.907090    1.500950
  S     22.008640   -4.474480    0.928970
  C     21.887700   -4.134710   -0.858720
  C     20.590060   -4.662020   -1.424080
  S     19.198060   -3.564540   -1.004690
  C     20.245070   -3.857300    2.876110
  S     18.644270   -3.270300    3.230920
  C     21.201030   -4.119040    3.877970
  C     20.975620   -4.392680    5.194090
  C     22.029640   -4.136730    6.210970
  O     23.201900   -3.920250    6.005420
  C     21.317380   -4.137930    7.505520
  C     21.790190   -3.826430    8.747340
  C     20.907270   -3.861300    9.850460
  C     19.542530   -4.217280    9.643290
  C     18.666610   -4.238860   10.745860
  C     19.142770   -3.922500   11.987700
  C     20.481090   -3.572830   12.212710
  C     21.344680   -3.545600   11.153110
  F     18.307370   -3.942520   13.042310
  C     19.081820   -4.546040    8.346920
  C     19.957690   -4.511200    7.296800
  C     19.779240   -4.821630    5.882200
  C     18.792310   -5.617960    5.359160
  C     18.830470   -6.125970    4.044680
  N     18.863300   -6.589910    2.994600
  C     17.687660   -6.084420    6.097710
  N     16.761200   -6.473850    6.652660
  H      0.915440    5.379750    3.174630
  H     -2.139350    3.355310    5.360110
  H     -0.620480    1.428410    5.738110
  H      3.105840    4.340350    2.859000
  H      1.580240    0.345880    5.426090
  H      6.424110   -0.895930    3.917720
  H      8.403070    3.147840   -2.023730
  H      8.262020    3.262540   -0.250070
  H      6.670260    1.237380   -1.915650
  H      6.016720    2.839380   -1.491100
  H     11.258220   -0.312230   -1.170000
  H     17.147380   -2.144320   -0.931280
  H     22.744980   -4.649410   -1.292820
  H     21.987430   -3.061360   -1.023440
  H     20.368990   -5.664300   -1.055700
  H     20.611190   -4.668970   -2.513770
  H     22.240460   -4.009270    3.580770
  H     22.825550   -3.554450    8.888150
  H     17.630530   -4.506940   10.609850
  H     20.799720   -3.332950   13.214710
  H     22.380210   -3.278750   11.301710
  H     18.043330   -4.805560    8.213350

 Total Charge           Charge          ....    0
 Multiplicity           Mult            ....    1
 Number of Electrons    NEL             ....  574
 Basis Dimension        Dim             .... 1206

ORBITAL ENERGIES
----------------

  NO   OCC          E(Eh)            E(eV)
   0   2.0000     -88.993851     -2421.6458
   1   2.0000     -88.993480     -2421.6357
   2   2.0000     -88.973763     -2421.0992
   3   2.0000     -88.972783     -2421.0725
   4   2.0000     -88.959006     -2420.6976
   5   2.0000     -88.952725     -2420.5267
   6   2.0000     -88.946901     -2420.3682
   7   2.0000     -88.946746     -2420.3640
   8   2.0000     -24.783761      -674.4004
   9   2.0000     -24.783740      -674.3998
  10   2.0000     -19.212216      -522.7910
  11   2.0000     -19.209506      -522.7172
  12   2.0000     -14.432605      -392.7311
  13   2.0000     -14.432462      -392.7273
  14   2.0000     -14.415498      -392.2656
  15   2.0000     -14.414480      -392.2379
  16   2.0000     -14.413038      -392.1987
  17   2.0000     -14.410460      -392.1286
  18   2.0000     -10.367642      -282.1179
  19   2.0000     -10.367232      -282.1067
  20   2.0000     -10.367191      -282.1056
  21   2.0000     -10.362312      -281.9728
  22   2.0000     -10.361772      -281.9581
  23   2.0000     -10.354683      -281.7653
  24   2.0000     -10.341184      -281.3979
  25   2.0000     -10.339480      -281.3516
  26   2.0000     -10.337736      -281.3041
  27   2.0000     -10.337490      -281.2974
  28   2.0000     -10.337438      -281.2960
  29   2.0000     -10.336555      -281.2720
  30   2.0000     -10.335167      -281.2342
  31   2.0000     -10.333920      -281.2003
  32   2.0000     -10.333794      -281.1968
  33   2.0000     -10.333487      -281.1885
  34   2.0000     -10.332752      -281.1685
  35   2.0000     -10.332708      -281.1673
  36   2.0000     -10.332580      -281.1638
  37   2.0000     -10.332441      -281.1600
  38   2.0000     -10.325125      -280.9609
  39   2.0000     -10.324863      -280.9538
  40   2.0000     -10.324493      -280.9437
  41   2.0000     -10.323935      -280.9286
  42   2.0000     -10.322874      -280.8997
  43   2.0000     -10.320618      -280.8383
  44   2.0000     -10.320034      -280.8224
  45   2.0000     -10.319553      -280.8093
  46   2.0000     -10.319062      -280.7959
  47   2.0000     -10.318993      -280.7941
  48   2.0000     -10.318537      -280.7817
  49   2.0000     -10.316913      -280.7375
  50   2.0000     -10.315794      -280.7070
  51   2.0000     -10.312941      -280.6294
  52   2.0000     -10.307027      -280.4685
  53   2.0000     -10.306751      -280.4610
  54   2.0000     -10.306258      -280.4475
  55   2.0000     -10.305256      -280.4203
  56   2.0000     -10.303695      -280.3778
  57   2.0000     -10.303179      -280.3638
  58   2.0000     -10.303130      -280.3624
  59   2.0000     -10.302266      -280.3389
  60   2.0000     -10.298619      -280.2397
  61   2.0000     -10.297746      -280.2159
  62   2.0000     -10.297187      -280.2007
  63   2.0000     -10.297072      -280.1976
  64   2.0000     -10.296282      -280.1761
  65   2.0000     -10.295532      -280.1557
  66   2.0000     -10.295465      -280.1539
  67   2.0000     -10.295295      -280.1492
  68   2.0000     -10.293798      -280.1085
  69   2.0000     -10.293042      -280.0879
  70   2.0000     -10.292219      -280.0655
  71   2.0000     -10.291647      -280.0500
  72   2.0000     -10.287027      -279.9242
  73   2.0000     -10.286861      -279.9197
  74   2.0000     -10.286509      -279.9101
  75   2.0000     -10.285975      -279.8956
  76   2.0000      -8.088648      -220.1033
  77   2.0000      -8.088254      -220.0926
  78   2.0000      -8.068919      -219.5665
  79   2.0000      -8.068842      -219.5643
  80   2.0000      -8.053698      -219.1523
  81   2.0000      -8.048250      -219.0040
  82   2.0000      -8.042049      -218.8353
  83   2.0000      -8.041918      -218.8317
  84   2.0000      -6.057947      -164.8451
  85   2.0000      -6.057530      -164.8338
  86   2.0000      -6.053679      -164.7290
  87   2.0000      -6.053307      -164.7189
  88   2.0000      -6.050918      -164.6538
  89   2.0000      -6.050544      -164.6437
  90   2.0000      -6.038469      -164.3151
  91   2.0000      -6.038327      -164.3112
  92   2.0000      -6.034411      -164.2047
  93   2.0000      -6.034306      -164.2018
  94   2.0000      -6.030380      -164.0950
  95   2.0000      -6.030254      -164.0916
  96   2.0000      -6.023926      -163.9194
  97   2.0000      -6.019535      -163.7999
  98   2.0000      -6.018574      -163.7737
  99   2.0000      -6.014368      -163.6593
 100   2.0000      -6.014035      -163.6502
 101   2.0000      -6.012545      -163.6097
 102   2.0000      -6.012351      -163.6044
 103   2.0000      -6.008323      -163.4948
 104   2.0000      -6.008197      -163.4913
 105   2.0000      -6.008142      -163.4898
 106   2.0000      -6.001687      -163.3142
 107   2.0000      -6.001578      -163.3112
 108   2.0000      -1.298629       -35.3375
 109   2.0000      -1.298568       -35.3358
 110   2.0000      -1.127406       -30.6783
 111   2.0000      -1.124757       -30.6062
 112   2.0000      -1.049321       -28.5535
 113   2.0000      -1.026703       -27.9380
 114   2.0000      -1.026226       -27.9250
 115   2.0000      -1.021577       -27.7985
 116   2.0000      -1.015416       -27.6309
 117   2.0000      -1.012911       -27.5627
 118   2.0000      -1.009854       -27.4795
 119   2.0000      -0.998443       -27.1690
 120   2.0000      -0.997443       -27.1418
 121   2.0000      -0.997337       -27.1389
 122   2.0000      -0.992929       -27.0190
 123   2.0000      -0.989864       -26.9356
 124   2.0000      -0.973830       -26.4993
 125   2.0000      -0.973460       -26.4892
 126   2.0000      -0.963995       -26.2316
 127   2.0000      -0.951524       -25.8923
 128   2.0000      -0.949193       -25.8288
 129   2.0000      -0.931679       -25.3523
 130   2.0000      -0.928034       -25.2531
 131   2.0000      -0.921033       -25.0626
 132   2.0000      -0.914153       -24.8754
 133   2.0000      -0.902577       -24.5604
 134   2.0000      -0.895382       -24.3646
 135   2.0000      -0.893520       -24.3139
 136   2.0000      -0.884032       -24.0557
 137   2.0000      -0.883653       -24.0454
 138   2.0000      -0.872756       -23.7489
 139   2.0000      -0.871703       -23.7203
 140   2.0000      -0.870557       -23.6890
 141   2.0000      -0.870366       -23.6839
 142   2.0000      -0.862777       -23.4774
 143   2.0000      -0.853678       -23.2297
 144   2.0000      -0.843940       -22.9648
 145   2.0000      -0.833171       -22.6717
 146   2.0000      -0.831583       -22.6285
 147   2.0000      -0.825865       -22.4729
 148   2.0000      -0.807513       -21.9735
 149   2.0000      -0.792952       -21.5773
 150   2.0000      -0.780795       -21.2465
 151   2.0000      -0.771338       -20.9892
 152   2.0000      -0.760645       -20.6982
 153   2.0000      -0.758852       -20.6494
 154   2.0000      -0.757767       -20.6199
 155   2.0000      -0.756698       -20.5908
 156   2.0000      -0.743004       -20.2182
 157   2.0000      -0.732063       -19.9204
 158   2.0000      -0.725312       -19.7367
 159   2.0000      -0.717666       -19.5287
 160   2.0000      -0.710821       -19.3424
 161   2.0000      -0.707294       -19.2465
 162   2.0000      -0.706548       -19.2261
 163   2.0000      -0.706432       -19.2230
 164   2.0000      -0.695901       -18.9364
 165   2.0000      -0.685662       -18.6578
 166   2.0000      -0.678034       -18.4502
 167   2.0000      -0.677979       -18.4487
 168   2.0000      -0.676164       -18.3994
 169   2.0000      -0.667716       -18.1695
 170   2.0000      -0.650257       -17.6944
 171   2.0000      -0.647949       -17.6316
 172   2.0000      -0.638260       -17.3679
 173   2.0000      -0.635063       -17.2809
 174   2.0000      -0.633890       -17.2490
 175   2.0000      -0.631621       -17.1873
 176   2.0000      -0.628005       -17.0889
 177   2.0000      -0.626452       -17.0466
 178   2.0000      -0.622636       -16.9428
 179   2.0000      -0.617339       -16.7987
 180   2.0000      -0.612801       -16.6752
 181   2.0000      -0.601106       -16.3569
 182   2.0000      -0.595474       -16.2037
 183   2.0000      -0.592147       -16.1131
 184   2.0000      -0.584175       -15.8962
 185   2.0000      -0.582374       -15.8472
 186   2.0000      -0.572474       -15.5778
 187   2.0000      -0.569353       -15.4929
 188   2.0000      -0.566157       -15.4059
 189   2.0000      -0.563119       -15.3233
 190   2.0000      -0.559587       -15.2271
 191   2.0000      -0.556522       -15.1437
 192   2.0000      -0.556153       -15.1337
 193   2.0000      -0.555805       -15.1242
 194   2.0000      -0.551481       -15.0066
 195   2.0000      -0.550961       -14.9924
 196   2.0000      -0.549845       -14.9620
 197   2.0000      -0.548442       -14.9239
 198   2.0000      -0.547162       -14.8890
 199   2.0000      -0.544323       -14.8118
 200   2.0000      -0.542742       -14.7688
 201   2.0000      -0.536980       -14.6120
 202   2.0000      -0.532894       -14.5008
 203   2.0000      -0.530972       -14.4485
 204   2.0000      -0.529707       -14.4141
 205   2.0000      -0.525251       -14.2928
 206   2.0000      -0.522706       -14.2235
 207   2.0000      -0.521864       -14.2006
 208   2.0000      -0.521267       -14.1844
 209   2.0000      -0.521002       -14.1772
 210   2.0000      -0.519722       -14.1424
 211   2.0000      -0.515310       -14.0223
 212   2.0000      -0.509327       -13.8595
 213   2.0000      -0.508267       -13.8306
 214   2.0000      -0.506077       -13.7710
 215   2.0000      -0.503025       -13.6880
 216   2.0000      -0.501026       -13.6336
 217   2.0000      -0.497402       -13.5350
 218   2.0000      -0.496430       -13.5085
 219   2.0000      -0.494549       -13.4574
 220   2.0000      -0.494435       -13.4543
 221   2.0000      -0.491151       -13.3649
 222   2.0000      -0.488989       -13.3061
 223   2.0000      -0.484411       -13.1815
 224   2.0000      -0.483864       -13.1666
 225   2.0000      -0.482381       -13.1263
 226   2.0000      -0.481161       -13.0931
 227   2.0000      -0.478672       -13.0253
 228   2.0000      -0.474372       -12.9083
 229   2.0000      -0.465867       -12.6769
 230   2.0000      -0.465605       -12.6697
 231   2.0000      -0.464190       -12.6313
 232   2.0000      -0.462634       -12.5889
 233   2.0000      -0.461550       -12.5594
 234   2.0000      -0.454914       -12.3788
 235   2.0000      -0.454572       -12.3695
 236   2.0000      -0.453016       -12.3272
 237   2.0000      -0.450843       -12.2681
 238   2.0000      -0.448925       -12.2159
 239   2.0000      -0.446815       -12.1584
 240   2.0000      -0.446382       -12.1467
 241   2.0000      -0.442577       -12.0431
 242   2.0000      -0.442056       -12.0290
 243   2.0000      -0.441460       -12.0127
 244   2.0000      -0.440398       -11.9838
 245   2.0000      -0.437933       -11.9168
 246   2.0000      -0.436102       -11.8669
 247   2.0000      -0.435478       -11.8500
 248   2.0000      -0.433457       -11.7950
 249   2.0000      -0.431488       -11.7414
 250   2.0000      -0.431393       -11.7388
 251   2.0000      -0.428806       -11.6684
 252   2.0000      -0.428270       -11.6538
 253   2.0000      -0.425475       -11.5778
 254   2.0000      -0.423696       -11.5294
 255   2.0000      -0.423235       -11.5168
 256   2.0000      -0.422562       -11.4985
 257   2.0000      -0.420064       -11.4305
 258   2.0000      -0.416116       -11.3231
 259   2.0000      -0.413022       -11.2389
 260   2.0000      -0.409992       -11.1565
 261   2.0000      -0.401859       -10.9351
 262   2.0000      -0.400792       -10.9061
 263   2.0000      -0.399907       -10.8820
 264   2.0000      -0.397207       -10.8086
 265   2.0000      -0.389623       -10.6022
 266   2.0000      -0.381149       -10.3716
 267   2.0000      -0.380166       -10.3449
 268   2.0000      -0.379473       -10.3260
 269   2.0000      -0.373756       -10.1704
 270   2.0000      -0.371848       -10.1185
 271   2.0000      -0.355152        -9.6642
 272   2.0000      -0.352401        -9.5893
 273   2.0000      -0.343127        -9.3370
 274   2.0000      -0.341116        -9.2822
 275   2.0000      -0.332946        -9.0599
 276   2.0000      -0.330287        -8.9876
 277   2.0000      -0.324335        -8.8256
 278   2.0000      -0.315199        -8.5770
 279   2.0000      -0.310770        -8.4565
 280   2.0000      -0.308714        -8.4005
 281   2.0000      -0.296830        -8.0772
 282   2.0000      -0.295794        -8.0490
 283   2.0000      -0.283961        -7.7270
 284   2.0000      -0.282214        -7.6794
 285   2.0000      -0.274802        -7.4778
 286   2.0000      -0.246737        -6.7141
 287   0.0000      -0.112562        -3.0630
 288   0.0000      -0.093861        -2.5541
 289   0.0000      -0.088533        -2.4091
 290   0.0000      -0.057556        -1.5662
 291   0.0000      -0.053430        -1.4539

MULLIKEN ATOMIC CHARGES
-----------------------
   0 C :   -0.100188
   1 C :    0.302497
   2 F :   -0.191842
   3 C :   -0.029517
   4 C :   -0.009760
   5 C :    0.098948
   6 C :    0.107265
   7 C :   -0.102351
   8 C :    0.048336
   9 C :    0.013682
  10 C :   -0.083254
  11 C :    0.134214
  12 O :   -0.145126
  13 C :   -0.144359
  14 C :    0.303493
  15 C :   -0.342944
  16 C :   -0.193743
  17 N :    0.154756
  18 C :   -0.180352
  19 N :    0.147991
  20 C :    0.053000
  21 C :   -0.131368
  22 C :   -0.024281
  23 C :   -0.026963
  24 S :    0.005658
  25 C :   -0.067217
  26 C :   -0.027684
  27 S :    0.043051
  28 C :   -0.063732
  29 S :    0.148307
  30 C :   -0.080165
  31 C :   -0.045897
  32 C :    0.003209
  33 C :   -0.095285
  34 S :    0.199280
  35 C :   -0.092440
  36 C :   -0.000528
  37 C :    0.312012
  38 C :   -0.302372
  39 C :   -0.185341
  40 N :    0.172675
  41 C :   -0.185466
  42 N :    0.173988
  43 C :   -0.048056
  44 C :   -0.078617
  45 S :    0.197767
  46 C :   -0.069364
  47 C :   -0.027671
  48 C :    0.033053
  49 S :    0.034581
  50 C :   -0.053352
  51 C :   -0.052536
  52 S :    0.003101
  53 C :   -0.152379
  54 S :    0.146320
  55 C :    0.034313
  56 C :   -0.139195
  57 C :    0.142239
  58 O :   -0.143269
  59 C :    0.005058
  60 C :   -0.079516
  61 C :    0.097180
  62 C :    0.100655
  63 C :   -0.097189
  64 C :    0.303774
  65 C :   -0.031177
  66 C :   -0.007650
  67 F :   -0.191268
  68 C :   -0.083721
  69 C :    0.043552
  70 C :    0.244567
  71 C :   -0.325129
  72 C :   -0.199226
  73 N :    0.165251
  74 C :   -0.176408
  75 N :    0.149127
  76 H :   -0.004362
  77 H :    0.001764
  78 H :   -0.010100
  79 H :   -0.009749
  80 H :   -0.013113
  81 H :    0.027824
  82 H :    0.072643
  83 H :    0.092226
  84 H :    0.078489
  85 H :    0.071842
  86 H :    0.030195
  87 H :    0.031208
  88 H :    0.069332
  89 H :    0.079814
  90 H :    0.088265
  91 H :    0.072497
  92 H :    0.034470
  93 H :   -0.012360
  94 H :   -0.004105
  95 H :    0.002594
  96 H :   -0.008857
  97 H :   -0.005519
Sum of atomic charges:   -0.0000000

LOEWDIN ATOMIC CHARGES
----------------------
   0 C :   -0.043948
   1 C :    0.092808
   2 F :   -0.065990
   3 C :   -0.039249
   4 C :    0.004671
   5 C :   -0.021084
   6 C :    0.003974
   7 C :    0.003850
   8 C :   -0.013710
   9 C :   -0.061201
  10 C :    0.035040
  11 C :    0.084363
  12 O :   -0.144579
  13 C :   -0.100197
  14 C :    0.048191
  15 C :   -0.149260
  16 C :   -0.023769
  17 N :   -0.059414
  18 C :   -0.019349
  19 N :   -0.059384
  20 C :    0.029852
  21 C :   -0.197363
  22 C :   -0.176379
  23 C :   -0.205784
  24 S :    0.333831
  25 C :   -0.138650
  26 C :   -0.140490
  27 S :    0.386050
  28 C :   -0.186598
  29 S :    0.445663
  30 C :   -0.181983
  31 C :   -0.028968
  32 C :   -0.067624
  33 C :   -0.177753
  34 S :    0.480938
  35 C :   -0.174543
  36 C :   -0.068698
  37 C :    0.082158
  38 C :   -0.098987
  39 C :   -0.016660
  40 N :   -0.030583
  41 C :   -0.016846
  42 N :   -0.030188
  43 C :   -0.026587
  44 C :   -0.183836
  45 S :    0.479881
  46 C :   -0.178264
  47 C :   -0.211373
  48 C :   -0.164713
  49 S :    0.339933
  50 C :   -0.140976
  51 C :   -0.139538
  52 S :    0.327039
  53 C :   -0.209159
  54 S :    0.455891
  55 C :    0.044337
  56 C :   -0.102583
  57 C :    0.081429
  58 O :   -0.146462
  59 C :   -0.058667
  60 C :    0.033396
  61 C :   -0.019210
  62 C :    0.003028
  63 C :   -0.042698
  64 C :    0.092909
  65 C :   -0.037861
  66 C :    0.004486
  67 F :   -0.065501
  68 C :    0.009234
  69 C :   -0.016580
  70 C :    0.058650
  71 C :   -0.146401
  72 C :   -0.033330
  73 N :   -0.053531
  74 C :   -0.019741
  75 N :   -0.055344
  76 H :    0.042251
  77 H :    0.041304
  78 H :    0.035323
  79 H :    0.037580
  80 H :    0.039263
  81 H :    0.046014
  82 H :    0.040136
  83 H :    0.035993
  84 H :    0.029873
  85 H :    0.038218
  86 H :    0.029398
  87 H :    0.029975
  88 H :    0.037571
  89 H :    0.030218
  90 H :    0.034738
  91 H :    0.039327
  92 H :    0.044970
  93 H :    0.039393
  94 H :    0.042592
  95 H :    0.041508
  96 H :    0.035635
  97 H :    0.038705

  Mayer bond orders larger than 0.100000
B(  0-C ,  1-C ) :   1.4388 B(  0-C ,  6-C ) :   1.2047 B(  0-C , 76-H ) :   1.0059
B(  1-C ,  2-F ) :   1.0872 B(  1-C ,  3-C ) :   1.2577 B(  3-C ,  4-C ) :   1.4584
B(  3-C , 77-H ) :   0.9922 B(  4-C ,  5-C ) :   1.2369 B(  4-C , 78-H ) :   0.9965
B(  5-C ,  6-C ) :   1.2598 B(  5-C , 10-C ) :   1.1859 B(  6-C ,  7-C ) :   1.1973
B(  7-C ,  8-C ) :   1.4655 B(  7-C , 79-H ) :   0.9933 B(  8-C ,  9-C ) :   1.2162
B(  8-C , 14-C ) :   0.9988 B(  9-C , 10-C ) :   1.4745 B(  9-C , 11-C ) :   0.9217
B( 10-C , 80-H ) :   1.0154 B( 11-C , 12-O ) :   2.2611 B( 11-C , 13-C ) :   0.9398
B( 13-C , 14-C ) :   1.0847 B( 13-C , 20-C ) :   1.6064 B( 14-C , 15-C ) :   1.5901
B( 15-C , 16-C ) :   1.1787 B( 15-C , 18-C ) :   1.1418 B( 16-C , 17-N ) :   2.9577
B( 18-C , 19-N ) :   2.9768 B( 20-C , 21-C ) :   1.1888 B( 20-C , 81-H ) :   0.9169
B( 21-C , 22-C ) :   1.4626 B( 21-C , 28-C ) :   0.1104 B( 21-C , 29-S ) :   1.0894
B( 22-C , 23-C ) :   1.2723 B( 22-C , 27-S ) :   1.0726 B( 23-C , 24-S ) :   1.0119
B( 23-C , 28-C ) :   1.5734 B( 24-S , 25-C ) :   1.0155 B( 25-C , 26-C ) :   1.0204
B( 25-C , 82-H ) :   0.9465 B( 25-C , 83-H ) :   0.9460 B( 26-C , 27-S ) :   0.9960
B( 26-C , 84-H ) :   0.9450 B( 26-C , 85-H ) :   0.9430 B( 28-C , 29-S ) :   1.1245
B( 28-C , 30-C ) :   1.1344 B( 30-C , 31-C ) :   1.4665 B( 30-C , 34-S ) :   1.0967
B( 31-C , 32-C ) :   1.3070 B( 31-C , 86-H ) :   0.9736 B( 32-C , 33-C ) :   1.4374
B( 32-C , 37-C ) :   0.9940 B( 33-C , 34-S ) :   1.1305 B( 33-C , 35-C ) :   1.1884
B( 35-C , 36-C ) :   1.4363 B( 35-C , 45-S ) :   1.1326 B( 36-C , 37-C ) :   0.9941
B( 36-C , 43-C ) :   1.3091 B( 37-C , 38-C ) :   1.7128 B( 38-C , 39-C ) :   1.1345
B( 38-C , 41-C ) :   1.1368 B( 39-C , 40-N ) :   2.9853 B( 41-C , 42-N ) :   2.9856
B( 43-C , 44-C ) :   1.4604 B( 43-C , 87-H ) :   0.9736 B( 44-C , 45-S ) :   1.0938
B( 44-C , 46-C ) :   1.1492 B( 46-C , 47-C ) :   1.5581 B( 46-C , 53-C ) :   0.1101
B( 46-C , 54-S ) :   1.1258 B( 47-C , 48-C ) :   1.2889 B( 47-C , 52-S ) :   1.0087
B( 48-C , 49-S ) :   1.0566 B( 48-C , 53-C ) :   1.4921 B( 49-S , 50-C ) :   1.0071
B( 50-C , 51-C ) :   1.0178 B( 50-C , 88-H ) :   0.9456 B( 50-C , 89-H ) :   0.9477
B( 51-C , 52-S ) :   1.0145 B( 51-C , 90-H ) :   0.9478 B( 51-C , 91-H ) :   0.9466
B( 53-C , 54-S ) :   1.0870 B( 53-C , 55-C ) :   1.1648 B( 55-C , 56-C ) :   1.6180
B( 55-C , 92-H ) :   0.9351 B( 56-C , 57-C ) :   0.9441 B( 56-C , 70-C ) :   1.0546
B( 57-C , 58-O ) :   2.2760 B( 57-C , 59-C ) :   0.9180 B( 59-C , 60-C ) :   1.4738
B( 59-C , 69-C ) :   1.2160 B( 60-C , 61-C ) :   1.1925 B( 60-C , 93-H ) :   1.0148
B( 61-C , 62-C ) :   1.2557 B( 61-C , 66-C ) :   1.2357 B( 62-C , 63-C ) :   1.2050
B( 62-C , 68-C ) :   1.2003 B( 63-C , 64-C ) :   1.4408 B( 63-C , 94-H ) :   1.0061
B( 64-C , 65-C ) :   1.2554 B( 64-C , 67-F ) :   1.0872 B( 65-C , 66-C ) :   1.4599
B( 65-C , 95-H ) :   0.9933 B( 66-C , 96-H ) :   0.9968 B( 68-C , 69-C ) :   1.4671
B( 68-C , 97-H ) :   0.9949 B( 69-C , 70-C ) :   0.9973 B( 70-C , 71-C ) :   1.6435
B( 71-C , 72-C ) :   1.1530 B( 71-C , 74-C ) :   1.1398 B( 72-C , 73-N ) :   3.0195
B( 74-C , 75-N ) :   2.9860

-----------------------------------------------------------------------------
         ABSORPTION SPECTRUM VIA TRANSITION ELECTRIC DIPOLE MOMENTS
-----------------------------------------------------------------------------
State   Energy  Wavelength   fosc         T2         TX        TY        TZ
        (cm-1)    (nm)                  (au**2)     (au)      (au)      (au)
-----------------------------------------------------------------------------
   0   11777.4    849.1   0.285401253   7.97777   2.54868  -1.11948   0.47827
   1   17228.1    580.4   0.758975958  14.50325  -2.74091   1.78705  -1.94863
   2   19824.1    504.4   0.677731376  11.25486   2.62634  -1.09753  -1.77556
   3   20445.3    489.1   0.131907535   2.12399   0.99382  -0.33715  -1.01126
   4   21890.7    456.8   0.081904811   1.23176  -0.57681   0.10731   0.94209
   5   22448.7    445.5   0.143853378   2.10962  -0.81877   0.03252   1.19924
   6   24307.9    411.4   0.001901970   0.02576   0.11761   0.07999  -0.07436
   7   24563.3    407.1   0.068528111   0.91845   0.56595  -0.17433  -0.75350
   8   25933.0    385.6   0.111267334   1.41251  -1.14568  -0.23838   0.20762
   9   26206.2    381.6   0.341904162   4.29513   2.05112  -0.24808  -0.16279
  10   27042.7    369.8   0.053932953   0.65657   0.74620   0.00778   0.31574
  11   27431.3    364.5   0.061291794   0.73558   0.74373   0.33528  -0.26465
  12   27528.8    363.3   0.076853383   0.91908   0.05190  -0.15697  -0.94432
  13   27971.5    357.5   0.059959664   0.70570  -0.76892  -0.01552  -0.33797
  14   28258.3    353.9   0.200365265   2.33427  -0.28913  -0.16163  -1.49149
  15   28911.6    345.9   0.102934035   1.17209   0.80760  -0.42486  -0.58255
  16   28955.3    345.4   0.036050740   0.40988   0.34373   0.53895   0.03555
  17   29439.0    339.7   0.143793011   1.60802   0.41245   0.15535   1.18902
  18   30298.0    330.1   0.012805893   0.13915   0.18491  -0.20478  -0.25103
  19   30570.4    327.1   0.467969021   5.03955  -1.49105  -0.02825   1.67795
  20   30806.5    324.6   0.372509340   3.98080   0.66994  -0.67380   1.75441
  21   31473.9    317.7   0.058478284   0.61167   0.46997   0.20231   0.59150
  22   31775.6    314.7   0.095050722   0.98477  -0.54247   0.54384   0.62829
  23   31876.6    313.7   0.055345975   0.57160  -0.23241   0.13670  -0.70632
  24   32344.9    309.2   0.213294924   2.17095   1.47292   0.01329   0.03578
  25   32814.5    304.7   0.080090432   0.80351   0.44036   0.13942   0.76822
  26   33126.5    301.9   0.140630620   1.39759  -0.87530   0.53011   0.59197
  27   33257.3    300.7   0.111812049   1.10682   0.46927  -0.35425   0.87241
  28   33594.4    297.7   0.301556409   2.95514   1.69731  -0.21019  -0.17352
  29   33715.7    296.6   0.043684948   0.42656   0.25180   0.25431   0.54633
  30   33976.7    294.3   0.047872987   0.46386   0.44047   0.23000   0.46577
  31   34114.1    293.1   0.018893223   0.18233   0.25955  -0.28492   0.18378
  32   34361.3    291.0   0.028700159   0.27497   0.17775   0.41103  -0.27282
  33   34443.5    290.3   0.017448055   0.16677   0.02548   0.27730   0.29871
  34   34900.1    286.5   0.005533029   0.05219   0.16901  -0.15101  -0.02872
  35   35188.7    284.2   0.428785674   4.01156   0.88914  -0.48512  -1.72790
  36   35335.4    283.0   0.128748859   1.19952   0.56755   0.61518   0.70637
  37   35482.9    281.8   0.201281441   1.86750   1.32910  -0.13343  -0.28844
  38   35568.5    281.1   0.093099554   0.86170   0.60057   0.14832   0.69211
  39   35959.5    278.1   0.028235268   0.25850   0.18981  -0.22159  -0.41637
  40   36303.6    275.5   0.053085387   0.48139  -0.38305   0.19128  -0.54597
  41   36453.0    274.3   0.033265791   0.30043  -0.40341   0.36402  -0.07195
  42   37031.1    270.0   0.078070385   0.69406   0.77258  -0.23173  -0.20851
  43   37221.6    268.7   0.057451930   0.50814   0.33996   0.40464  -0.47837
  44   37383.0    267.5   0.018165164   0.15997   0.38660  -0.08738   0.05363
  45   37593.5    266.0   0.143372810   1.25554  -0.83553  -0.19629  -0.72034
  46   37676.6    265.4   0.191291578   1.67148   0.46474   0.22213  -1.18581
  47   37937.1    263.6   0.011451045   0.09937  -0.27709   0.14997   0.00998
  48   38052.1    262.8   0.120225025   1.04014  -0.46768  -0.74637   0.51415
  49   38432.0    260.2   0.033121653   0.28372  -0.49167   0.20461   0.01100
  50   38564.2    259.3   0.054418381   0.46456   0.59849   0.11393  -0.30559
  51   38680.5    258.5   0.022876606   0.19470   0.36377   0.22813   0.10165
  52   39034.3    256.2   0.077053268   0.64986   0.70543   0.35891   0.15303
  53   39241.3    254.8   0.131149576   1.10027  -0.46587   0.46975  -0.81399
  54   39350.5    254.1   0.052834064   0.44202  -0.15054  -0.00400   0.64756
  55   39492.8    253.2   0.047819449   0.39862   0.25665   0.57681  -0.00666
  56   39640.8    252.3   0.024343042   0.20217  -0.36734  -0.23720   0.10473
  57   39849.7    250.9   0.077155983   0.63741   0.55830  -0.56848   0.05050

FINAL SINGLE POINT ENERGY     -6082.863759035447

DIPOLE MOMENT
-------------
                                X             Y             Z
Electronic contribution:     -2.29280      -3.12011       7.54416
Nuclear contribution   :      2.31630       3.43951      -7.91490
                        -----------------------------------------
Total Dipole Moment    :      0.02350       0.31940      -0.37074
                        -----------------------------------------
Magnitude (a.u.)       :      0.48991
Magnitude (Debye)      :      1.24526

Rotational constants in cm-1:     0.001051     0.000247     0.000207
Rotational constants in MHz :    31.495276     7.414921     6.214694

                             ****ORCA TERMINATED NORMALLY****
TOTAL RUN TIME: 0 days 0 hours 14 minutes 52 seconds 334 msec
