                         Program Version 4.2.0 -  RELEASE  -
|  1> # ORCA input file
|  2> # SCF done       -205.717574980774          0.000276201155
|  3> ! CAM-B3LYP def2-SVP def2/J RIJCOSX Grid4 TightSCF
|  4> %maxcore 5000
|  5> %tddft
|  6>     Mode sTDDFT
|  7>     Ethresh 5.0
|  8>     maxcore 5000
|  9> end
| 10>
| 11> %pal
| 12>   nprocs 6
| 13>   end
| 14> * xyz 0 1
| 15>    C       11.32936         4.48145        11.95991
| 16>    C       11.21017         4.71818        13.30105
| 17>    F       11.85568         5.76502        13.84918
| 18>    C       10.43541         3.90797        14.14165
| 19>    C        9.77313         2.83996        13.60295
| 20>    C        9.86073         2.54945        12.22624
| 21>    C       10.65197         3.38735        11.38763
| 22>    C       10.74484         3.12344        10.00056
| 23>    C       10.07110         2.05505         9.47575
| 24>    C        9.29569         1.20994        10.32168
| 25>    C        9.18271         1.44574        11.66092
| 26>    C        8.70730         0.12113         9.51598
| 27>    O        7.95583        -0.75493         9.88406
| 28>    C        9.28413         0.28870         8.15794
| 29>    C        9.94051         1.57291         8.10308
| 30>    C       10.13006         2.33223         6.97555
| 31>    C       10.69344         3.62221         6.98560
| 32>    N       11.16316         4.66927         6.94388
| 33>    C        9.67002         1.93921         5.70263
| 34>    N        9.24882         1.67380         4.66769
| 35>    C        9.19472        -0.73421         7.25794
| 36>    C        9.98266        -1.00790         6.12327
| 37>    C        9.64614        -1.91111         5.12226
| 38>    C       10.64013        -2.01510         4.16253
| 39>    C       11.78501        -1.22381         4.43932
| 40>    S       11.59586        -0.32672         5.89337
| 41>    C       12.69189        -1.45185         3.41060
| 42>    C       12.08142        -2.37301         2.52074
| 43>    N       10.84242        -2.70624         2.99637
| 44>    C       12.86754        -2.70461         1.42567
| 45>    C       14.09180        -2.04626         1.45173
| 46>    S       14.26073        -1.00045         2.86339
| 47>    C       15.15423        -2.11530         0.53041
| 48>    C       15.16349        -2.89932        -0.59183
| 49>    C       16.22476        -2.95685        -1.49910
| 50>    C       16.23159        -3.75474        -2.62174
| 51>    C       17.25400        -3.86846        -3.58992
| 52>    C       16.97824        -4.74361        -4.59999
| 53>    C       15.72121        -5.37188        -4.48402
| 54>    S       14.89632        -4.81367        -3.04651
| 55>    C       15.14698        -6.30046        -5.33425
| 56>    C       15.67176        -6.83861        -6.52701
| 57>    C       14.84568        -7.73415        -7.13855
| 58>    C       13.61920        -7.96009        -6.46699
| 59>    S       13.56569        -6.97820        -5.01444
| 60>    C       12.62815        -8.81107        -6.89582
| 61>    C       11.39572        -9.08881        -6.28826
| 62>    C       10.84971        -8.61657        -5.09853
| 63>    C        9.59130        -9.15096        -4.86347
| 64>    C        9.14148       -10.04431        -5.86973
| 65>    S       10.31362       -10.21688        -7.11828
| 66>    C        7.87872       -10.48235        -5.48654
| 67>    C        7.58181        -9.85138        -4.24937
| 68>    N        8.63458        -9.05137        -3.88917
| 69>    C        6.34325       -10.19121        -3.72792
| 70>    C        5.66236       -11.07570        -4.55487
| 71>    S        6.58615       -11.49388        -5.99813
| 72>    C        4.37010       -11.61406        -4.40396
| 73>    C        3.58650       -11.48231        -3.29397
| 74>    C        2.29322       -12.02070        -3.14442
| 75>    C        1.37901       -12.42472        -4.08160
| 76>    C        0.29416       -13.34529        -3.65105
| 77>    O        0.00945       -13.64607        -2.51220
| 78>    C       -0.31825       -13.84408        -4.89716
| 79>    C       -1.28233       -14.79532        -5.06194
| 80>    C       -1.69852       -15.13518        -6.36905
| 81>    C       -1.09580       -14.48339        -7.48369
| 82>    C       -1.50858       -14.83252        -8.78411
| 83>    C       -2.47804       -15.78226        -8.94833
| 84>    C       -3.08452       -16.43256        -7.86552
| 85>    C       -2.69380       -16.10726        -6.59626
| 86>    F       -2.87489       -16.11613       -10.19095
| 87>    C       -0.10269       -13.49594        -7.28116
| 88>    C        0.27342       -13.17425        -6.00571
| 89>    C        1.22906       -12.18957        -5.49679
| 90>    C        1.67871       -11.10609        -6.21248
| 91>    C        2.40129       -10.03433        -5.65668
| 92>    N        2.96702        -9.12002        -5.25252
| 93>    C        1.40091       -10.89471        -7.57711
| 94>    N        1.22086       -10.67785        -8.69052
| 95>    H       11.93169         5.12910        11.34220
| 96>    H       10.37825         4.14393        15.19246
| 97>    H        9.16984         2.20078        14.23008
| 98>    H       11.35448         3.76881         9.38788
| 99>    H        8.58160         0.79967        12.28318
|100>    H        8.45770        -1.49359         7.50386
|101>    H        8.70201        -2.42408         5.10241
|102>    H       10.18030        -3.31600         2.54971
|103>    H       12.57743        -3.38108         0.64401
|104>    H       16.01771        -1.49924         0.74281
|105>    H       14.30609        -3.52238        -0.80841
|106>    H       17.09691        -2.34238        -1.31974
|107>    H       18.16314        -3.29875        -3.51198
|108>    H       17.64351        -4.95098        -5.41877
|109>    H       16.63731        -6.55266        -6.90344
|110>    H       15.07769        -8.24361        -8.05707
|111>    H       12.82325        -9.33137        -7.82480
|112>    H       11.35074        -7.92572        -4.44832
|113>    H        8.68299        -8.46932        -3.07155
|114>    H        5.93259        -9.80692        -2.81352
|115>    H        4.01039       -12.21260        -5.23104
|116>    H        4.00259       -10.99980        -2.42105
|117>    H        1.97564       -12.21095        -2.12264
|118>    H       -1.72350       -15.28342        -4.20582
|119>    H       -1.06641       -14.34915        -9.64128
|120>    H       -3.84447       -17.17363        -8.05632
|121>    H       -3.14616       -16.59453        -5.74556
|122>    H        0.34071       -13.02520        -8.14418
|123> *
|124>
|125>                          ****END OF INPUT****

CARTESIAN COORDINATES (ANGSTROEM)
---------------------------------
  C     11.329360    4.481450   11.959910
  C     11.210170    4.718180   13.301050
  F     11.855680    5.765020   13.849180
  C     10.435410    3.907970   14.141650
  C      9.773130    2.839960   13.602950
  C      9.860730    2.549450   12.226240
  C     10.651970    3.387350   11.387630
  C     10.744840    3.123440   10.000560
  C     10.071100    2.055050    9.475750
  C      9.295690    1.209940   10.321680
  C      9.182710    1.445740   11.660920
  C      8.707300    0.121130    9.515980
  O      7.955830   -0.754930    9.884060
  C      9.284130    0.288700    8.157940
  C      9.940510    1.572910    8.103080
  C     10.130060    2.332230    6.975550
  C     10.693440    3.622210    6.985600
  N     11.163160    4.669270    6.943880
  C      9.670020    1.939210    5.702630
  N      9.248820    1.673800    4.667690
  C      9.194720   -0.734210    7.257940
  C      9.982660   -1.007900    6.123270
  C      9.646140   -1.911110    5.122260
  C     10.640130   -2.015100    4.162530
  C     11.785010   -1.223810    4.439320
  S     11.595860   -0.326720    5.893370
  C     12.691890   -1.451850    3.410600
  C     12.081420   -2.373010    2.520740
  N     10.842420   -2.706240    2.996370
  C     12.867540   -2.704610    1.425670
  C     14.091800   -2.046260    1.451730
  S     14.260730   -1.000450    2.863390
  C     15.154230   -2.115300    0.530410
  C     15.163490   -2.899320   -0.591830
  C     16.224760   -2.956850   -1.499100
  C     16.231590   -3.754740   -2.621740
  C     17.254000   -3.868460   -3.589920
  C     16.978240   -4.743610   -4.599990
  C     15.721210   -5.371880   -4.484020
  S     14.896320   -4.813670   -3.046510
  C     15.146980   -6.300460   -5.334250
  C     15.671760   -6.838610   -6.527010
  C     14.845680   -7.734150   -7.138550
  C     13.619200   -7.960090   -6.466990
  S     13.565690   -6.978200   -5.014440
  C     12.628150   -8.811070   -6.895820
  C     11.395720   -9.088810   -6.288260
  C     10.849710   -8.616570   -5.098530
  C      9.591300   -9.150960   -4.863470
  C      9.141480  -10.044310   -5.869730
  S     10.313620  -10.216880   -7.118280
  C      7.878720  -10.482350   -5.486540
  C      7.581810   -9.851380   -4.249370
  N      8.634580   -9.051370   -3.889170
  C      6.343250  -10.191210   -3.727920
  C      5.662360  -11.075700   -4.554870
  S      6.586150  -11.493880   -5.998130
  C      4.370100  -11.614060   -4.403960
  C      3.586500  -11.482310   -3.293970
  C      2.293220  -12.020700   -3.144420
  C      1.379010  -12.424720   -4.081600
  C      0.294160  -13.345290   -3.651050
  O      0.009450  -13.646070   -2.512200
  C     -0.318250  -13.844080   -4.897160
  C     -1.282330  -14.795320   -5.061940
  C     -1.698520  -15.135180   -6.369050
  C     -1.095800  -14.483390   -7.483690
  C     -1.508580  -14.832520   -8.784110
  C     -2.478040  -15.782260   -8.948330
  C     -3.084520  -16.432560   -7.865520
  C     -2.693800  -16.107260   -6.596260
  F     -2.874890  -16.116130  -10.190950
  C     -0.102690  -13.495940   -7.281160
  C      0.273420  -13.174250   -6.005710
  C      1.229060  -12.189570   -5.496790
  C      1.678710  -11.106090   -6.212480
  C      2.401290  -10.034330   -5.656680
  N      2.967020   -9.120020   -5.252520
  C      1.400910  -10.894710   -7.577110
  N      1.220860  -10.677850   -8.690520
  H     11.931690    5.129100   11.342200
  H     10.378250    4.143930   15.192460
  H      9.169840    2.200780   14.230080
  H     11.354480    3.768810    9.387880
  H      8.581600    0.799670   12.283180
  H      8.457700   -1.493590    7.503860
  H      8.702010   -2.424080    5.102410
  H     10.180300   -3.316000    2.549710
  H     12.577430   -3.381080    0.644010
  H     16.017710   -1.499240    0.742810
  H     14.306090   -3.522380   -0.808410
  H     17.096910   -2.342380   -1.319740
  H     18.163140   -3.298750   -3.511980
  H     17.643510   -4.950980   -5.418770
  H     16.637310   -6.552660   -6.903440
  H     15.077690   -8.243610   -8.057070
  H     12.823250   -9.331370   -7.824800
  H     11.350740   -7.925720   -4.448320
  H      8.682990   -8.469320   -3.071550
  H      5.932590   -9.806920   -2.813520
  H      4.010390  -12.212600   -5.231040
  H      4.002590  -10.999800   -2.421050
  H      1.975640  -12.210950   -2.122640
  H     -1.723500  -15.283420   -4.205820
  H     -1.066410  -14.349150   -9.641280
  H     -3.844470  -17.173630   -8.056320
  H     -3.146160  -16.594530   -5.745560
  H      0.340710  -13.025200   -8.144180

 Total Charge           Charge          ....    0
 Multiplicity           Mult            ....    1
 Number of Electrons    NEL             ....  584
 Basis Dimension        Dim             .... 1284

ORBITAL ENERGIES
----------------

  NO   OCC          E(Eh)            E(eV)
   0   2.0000     -88.964483     -2420.8467
   1   2.0000     -88.964352     -2420.8431
   2   2.0000     -88.963968     -2420.8326
   3   2.0000     -88.961519     -2420.7660
   4   2.0000     -88.956186     -2420.6209
   5   2.0000     -88.953263     -2420.5413
   6   2.0000     -24.780012      -674.2984
   7   2.0000     -24.779787      -674.2923
   8   2.0000     -19.203199      -522.5456
   9   2.0000     -19.202583      -522.5288
  10   2.0000     -14.476445      -393.9241
  11   2.0000     -14.474495      -393.8710
  12   2.0000     -14.407299      -392.0425
  13   2.0000     -14.406172      -392.0119
  14   2.0000     -14.405987      -392.0068
  15   2.0000     -14.402391      -391.9090
  16   2.0000     -10.363176      -281.9963
  17   2.0000     -10.362980      -281.9910
  18   2.0000     -10.355531      -281.7883
  19   2.0000     -10.353948      -281.7453
  20   2.0000     -10.332895      -281.1724
  21   2.0000     -10.331719      -281.1404
  22   2.0000     -10.331311      -281.1293
  23   2.0000     -10.331006      -281.1210
  24   2.0000     -10.326638      -281.0021
  25   2.0000     -10.323448      -280.9153
  26   2.0000     -10.322219      -280.8819
  27   2.0000     -10.322171      -280.8806
  28   2.0000     -10.319637      -280.8116
  29   2.0000     -10.318427      -280.7787
  30   2.0000     -10.316776      -280.7337
  31   2.0000     -10.316388      -280.7232
  32   2.0000     -10.315396      -280.6962
  33   2.0000     -10.315310      -280.6939
  34   2.0000     -10.313116      -280.6342
  35   2.0000     -10.312614      -280.6205
  36   2.0000     -10.311711      -280.5959
  37   2.0000     -10.310488      -280.5626
  38   2.0000     -10.309583      -280.5380
  39   2.0000     -10.309122      -280.5255
  40   2.0000     -10.308991      -280.5219
  41   2.0000     -10.308787      -280.5164
  42   2.0000     -10.307157      -280.4720
  43   2.0000     -10.305575      -280.4290
  44   2.0000     -10.305187      -280.4184
  45   2.0000     -10.304646      -280.4037
  46   2.0000     -10.303392      -280.3696
  47   2.0000     -10.300881      -280.3012
  48   2.0000     -10.299026      -280.2507
  49   2.0000     -10.298914      -280.2477
  50   2.0000     -10.297727      -280.2154
  51   2.0000     -10.297654      -280.2134
  52   2.0000     -10.295900      -280.1657
  53   2.0000     -10.294376      -280.1242
  54   2.0000     -10.294042      -280.1151
  55   2.0000     -10.293832      -280.1094
  56   2.0000     -10.293606      -280.1033
  57   2.0000     -10.293391      -280.0974
  58   2.0000     -10.292669      -280.0778
  59   2.0000     -10.292038      -280.0606
  60   2.0000     -10.291972      -280.0588
  61   2.0000     -10.291808      -280.0543
  62   2.0000     -10.291567      -280.0478
  63   2.0000     -10.291420      -280.0438
  64   2.0000     -10.291409      -280.0435
  65   2.0000     -10.290326      -280.0140
  66   2.0000     -10.290052      -280.0066
  67   2.0000     -10.288487      -279.9640
  68   2.0000     -10.288378      -279.9610
  69   2.0000     -10.288281      -279.9583
  70   2.0000     -10.288079      -279.9529
  71   2.0000     -10.287667      -279.9417
  72   2.0000     -10.286665      -279.9144
  73   2.0000     -10.284788      -279.8633
  74   2.0000     -10.283847      -279.8377
  75   2.0000     -10.282890      -279.8117
  76   2.0000     -10.282606      -279.8039
  77   2.0000     -10.282410      -279.7986
  78   2.0000     -10.281711      -279.7796
  79   2.0000     -10.281200      -279.7657
  80   2.0000      -8.059422      -219.3080
  81   2.0000      -8.058824      -219.2918
  82   2.0000      -8.058710      -219.2886
  83   2.0000      -8.056377      -219.2252
  84   2.0000      -8.052047      -219.1073
  85   2.0000      -8.049666      -219.0426
  86   2.0000      -6.029013      -164.0578
  87   2.0000      -6.028493      -164.0436
  88   2.0000      -6.028475      -164.0431
  89   2.0000      -6.026088      -163.9782
  90   2.0000      -6.025005      -163.9487
  91   2.0000      -6.024429      -163.9330
  92   2.0000      -6.024318      -163.9300
  93   2.0000      -6.022061      -163.8686
  94   2.0000      -6.021758      -163.8604
  95   2.0000      -6.020889      -163.8367
  96   2.0000      -6.020214      -163.8184
  97   2.0000      -6.020011      -163.8128
  98   2.0000      -6.019367      -163.7953
  99   2.0000      -6.017731      -163.7508
 100   2.0000      -6.017658      -163.7488
 101   2.0000      -6.015406      -163.6875
 102   2.0000      -6.013090      -163.6245
 103   2.0000      -6.010574      -163.5560
 104   2.0000      -1.294608       -35.2281
 105   2.0000      -1.294372       -35.2216
 106   2.0000      -1.118158       -30.4266
 107   2.0000      -1.117427       -30.4067
 108   2.0000      -1.097444       -29.8630
 109   2.0000      -1.095559       -29.8117
 110   2.0000      -1.009801       -27.4781
 111   2.0000      -1.009434       -27.4681
 112   2.0000      -1.004099       -27.3229
 113   2.0000      -0.992535       -27.0083
 114   2.0000      -0.991389       -26.9771
 115   2.0000      -0.986691       -26.8492
 116   2.0000      -0.986122       -26.8337
 117   2.0000      -0.985097       -26.8059
 118   2.0000      -0.981549       -26.7093
 119   2.0000      -0.980775       -26.6883
 120   2.0000      -0.977800       -26.6073
 121   2.0000      -0.973773       -26.4977
 122   2.0000      -0.968144       -26.3446
 123   2.0000      -0.966936       -26.3117
 124   2.0000      -0.924938       -25.1688
 125   2.0000      -0.920300       -25.0426
 126   2.0000      -0.918192       -24.9853
 127   2.0000      -0.910877       -24.7862
 128   2.0000      -0.900164       -24.4947
 129   2.0000      -0.895955       -24.3802
 130   2.0000      -0.887673       -24.1548
 131   2.0000      -0.883741       -24.0478
 132   2.0000      -0.879203       -23.9243
 133   2.0000      -0.877439       -23.8763
 134   2.0000      -0.871758       -23.7217
 135   2.0000      -0.863605       -23.4999
 136   2.0000      -0.856198       -23.2983
 137   2.0000      -0.849518       -23.1166
 138   2.0000      -0.846291       -23.0287
 139   2.0000      -0.844420       -22.9778
 140   2.0000      -0.838724       -22.8228
 141   2.0000      -0.830998       -22.6126
 142   2.0000      -0.827360       -22.5136
 143   2.0000      -0.827100       -22.5065
 144   2.0000      -0.825855       -22.4727
 145   2.0000      -0.822722       -22.3874
 146   2.0000      -0.813350       -22.1324
 147   2.0000      -0.803481       -21.8638
 148   2.0000      -0.795432       -21.6448
 149   2.0000      -0.776879       -21.1399
 150   2.0000      -0.762006       -20.7352
 151   2.0000      -0.755607       -20.5611
 152   2.0000      -0.750522       -20.4227
 153   2.0000      -0.744484       -20.2584
 154   2.0000      -0.732917       -19.9437
 155   2.0000      -0.720834       -19.6149
 156   2.0000      -0.714300       -19.4371
 157   2.0000      -0.708245       -19.2723
 158   2.0000      -0.702046       -19.1037
 159   2.0000      -0.701862       -19.0986
 160   2.0000      -0.698671       -19.0118
 161   2.0000      -0.691385       -18.8135
 162   2.0000      -0.689776       -18.7698
 163   2.0000      -0.680170       -18.5084
 164   2.0000      -0.673027       -18.3140
 165   2.0000      -0.672138       -18.2898
 166   2.0000      -0.670428       -18.2433
 167   2.0000      -0.667757       -18.1706
 168   2.0000      -0.661684       -18.0053
 169   2.0000      -0.650759       -17.7081
 170   2.0000      -0.649383       -17.6706
 171   2.0000      -0.639466       -17.4008
 172   2.0000      -0.636419       -17.3179
 173   2.0000      -0.631538       -17.1850
 174   2.0000      -0.628938       -17.1143
 175   2.0000      -0.627591       -17.0776
 176   2.0000      -0.626044       -17.0355
 177   2.0000      -0.623148       -16.9567
 178   2.0000      -0.622037       -16.9265
 179   2.0000      -0.619208       -16.8495
 180   2.0000      -0.617905       -16.8140
 181   2.0000      -0.610411       -16.6101
 182   2.0000      -0.608467       -16.5572
 183   2.0000      -0.606395       -16.5008
 184   2.0000      -0.602841       -16.4041
 185   2.0000      -0.591332       -16.0910
 186   2.0000      -0.589705       -16.0467
 187   2.0000      -0.579702       -15.7745
 188   2.0000      -0.578394       -15.7389
 189   2.0000      -0.567722       -15.4485
 190   2.0000      -0.564736       -15.3673
 191   2.0000      -0.561256       -15.2725
 192   2.0000      -0.556752       -15.1500
 193   2.0000      -0.555793       -15.1239
 194   2.0000      -0.554256       -15.0821
 195   2.0000      -0.552307       -15.0290
 196   2.0000      -0.552175       -15.0254
 197   2.0000      -0.549706       -14.9583
 198   2.0000      -0.546990       -14.8844
 199   2.0000      -0.544726       -14.8228
 200   2.0000      -0.542522       -14.7628
 201   2.0000      -0.540921       -14.7192
 202   2.0000      -0.540192       -14.6994
 203   2.0000      -0.532014       -14.4768
 204   2.0000      -0.528799       -14.3894
 205   2.0000      -0.525824       -14.3084
 206   2.0000      -0.524753       -14.2793
 207   2.0000      -0.523056       -14.2331
 208   2.0000      -0.519053       -14.1241
 209   2.0000      -0.516960       -14.0672
 210   2.0000      -0.516649       -14.0587
 211   2.0000      -0.513747       -13.9798
 212   2.0000      -0.511546       -13.9199
 213   2.0000      -0.506016       -13.7694
 214   2.0000      -0.505355       -13.7514
 215   2.0000      -0.504182       -13.7195
 216   2.0000      -0.500852       -13.6289
 217   2.0000      -0.498415       -13.5626
 218   2.0000      -0.497050       -13.5254
 219   2.0000      -0.496232       -13.5031
 220   2.0000      -0.492557       -13.4032
 221   2.0000      -0.492187       -13.3931
 222   2.0000      -0.490113       -13.3366
 223   2.0000      -0.489172       -13.3110
 224   2.0000      -0.483585       -13.1590
 225   2.0000      -0.483056       -13.1446
 226   2.0000      -0.482413       -13.1271
 227   2.0000      -0.479706       -13.0535
 228   2.0000      -0.476847       -12.9757
 229   2.0000      -0.475896       -12.9498
 230   2.0000      -0.475269       -12.9327
 231   2.0000      -0.470519       -12.8035
 232   2.0000      -0.470168       -12.7939
 233   2.0000      -0.467296       -12.7158
 234   2.0000      -0.464798       -12.6478
 235   2.0000      -0.462310       -12.5801
 236   2.0000      -0.460446       -12.5294
 237   2.0000      -0.457773       -12.4566
 238   2.0000      -0.453012       -12.3271
 239   2.0000      -0.451500       -12.2859
 240   2.0000      -0.450462       -12.2577
 241   2.0000      -0.450153       -12.2493
 242   2.0000      -0.447903       -12.1881
 243   2.0000      -0.445928       -12.1343
 244   2.0000      -0.442092       -12.0299
 245   2.0000      -0.440988       -11.9999
 246   2.0000      -0.439068       -11.9476
 247   2.0000      -0.435178       -11.8418
 248   2.0000      -0.433824       -11.8050
 249   2.0000      -0.432636       -11.7726
 250   2.0000      -0.430461       -11.7134
 251   2.0000      -0.430069       -11.7028
 252   2.0000      -0.428749       -11.6669
 253   2.0000      -0.427748       -11.6396
 254   2.0000      -0.424428       -11.5493
 255   2.0000      -0.423276       -11.5179
 256   2.0000      -0.422643       -11.5007
 257   2.0000      -0.420216       -11.4347
 258   2.0000      -0.419642       -11.4190
 259   2.0000      -0.417383       -11.3576
 260   2.0000      -0.417165       -11.3516
 261   2.0000      -0.415020       -11.2933
 262   2.0000      -0.410005       -11.1568
 263   2.0000      -0.408022       -11.1028
 264   2.0000      -0.405413       -11.0319
 265   2.0000      -0.402181       -10.9439
 266   2.0000      -0.395915       -10.7734
 267   2.0000      -0.393740       -10.7142
 268   2.0000      -0.387896       -10.5552
 269   2.0000      -0.377611       -10.2753
 270   2.0000      -0.374362       -10.1869
 271   2.0000      -0.371841       -10.1183
 272   2.0000      -0.364467        -9.9176
 273   2.0000      -0.354377        -9.6431
 274   2.0000      -0.345337        -9.3971
 275   2.0000      -0.339521        -9.2388
 276   2.0000      -0.337902        -9.1948
 277   2.0000      -0.336912        -9.1678
 278   2.0000      -0.330864        -9.0033
 279   2.0000      -0.327263        -8.9053
 280   2.0000      -0.325295        -8.8517
 281   2.0000      -0.316091        -8.6013
 282   2.0000      -0.307256        -8.3609
 283   2.0000      -0.304663        -8.2903
 284   2.0000      -0.296988        -8.0814
 285   2.0000      -0.291523        -7.9327
 286   2.0000      -0.290346        -7.9007
 287   2.0000      -0.288257        -7.8439
 288   2.0000      -0.284692        -7.7469
 289   2.0000      -0.262438        -7.1413
 290   2.0000      -0.241784        -6.5793
 291   2.0000      -0.206150        -5.6096
 292   0.0000      -0.104907        -2.8547
 293   0.0000      -0.090406        -2.4601
 294   0.0000      -0.076627        -2.0851
 295   0.0000      -0.051351        -1.3973
 296   0.0000      -0.046777        -1.2729

MULLIKEN ATOMIC CHARGES
-----------------------
   0 C :   -0.100050
   1 C :    0.302317
   2 F :   -0.193516
   3 C :   -0.031893
   4 C :   -0.011153
   5 C :    0.101372
   6 C :    0.103615
   7 C :   -0.086531
   8 C :    0.039511
   9 C :    0.009499
  10 C :   -0.084949
  11 C :    0.141468
  12 O :   -0.152818
  13 C :   -0.142637
  14 C :    0.254606
  15 C :   -0.326097
  16 C :   -0.173139
  17 N :    0.146457
  18 C :   -0.206597
  19 N :    0.163410
  20 C :    0.035082
  21 C :   -0.089999
  22 C :   -0.037325
  23 C :    0.147220
  24 C :   -0.102121
  25 S :    0.165779
  26 C :   -0.123797
  27 C :    0.130743
  28 N :   -0.016289
  29 C :   -0.072640
  30 C :   -0.068044
  31 S :    0.152912
  32 C :    0.040371
  33 C :    0.001961
  34 C :   -0.004271
  35 C :   -0.020253
  36 C :    0.037342
  37 C :    0.026203
  38 C :   -0.041196
  39 S :    0.062043
  40 C :   -0.034299
  41 C :    0.028312
  42 C :    0.034541
  43 C :   -0.031157
  44 S :    0.050945
  45 C :    0.034030
  46 C :   -0.094131
  47 C :   -0.069512
  48 C :    0.113975
  49 C :   -0.116179
  50 S :    0.139948
  51 C :   -0.111240
  52 C :    0.115422
  53 N :   -0.014415
  54 C :   -0.028261
  55 C :   -0.105605
  56 S :    0.157493
  57 C :    0.085086
  58 C :   -0.003754
  59 C :    0.044881
  60 C :   -0.137535
  61 C :    0.134184
  62 O :   -0.152024
  63 C :    0.010789
  64 C :   -0.079902
  65 C :    0.097673
  66 C :    0.097276
  67 C :   -0.095109
  68 C :    0.300377
  69 C :   -0.034947
  70 C :   -0.007790
  71 F :   -0.192628
  72 C :   -0.083488
  73 C :    0.034645
  74 C :    0.275475
  75 C :   -0.351227
  76 C :   -0.205010
  77 N :    0.166721
  78 C :   -0.173390
  79 N :    0.145659
  80 H :   -0.003178
  81 H :    0.001845
  82 H :   -0.010398
  83 H :   -0.005653
  84 H :   -0.013563
  85 H :    0.022591
  86 H :   -0.012322
  87 H :    0.126942
  88 H :   -0.027639
  89 H :   -0.014270
  90 H :    0.000235
  91 H :   -0.012958
  92 H :   -0.009838
  93 H :   -0.010703
  94 H :   -0.012654
  95 H :   -0.010591
  96 H :   -0.014426
  97 H :   -0.013848
  98 H :    0.125870
  99 H :   -0.017661
 100 H :    0.008027
 101 H :   -0.008280
 102 H :    0.023412
 103 H :   -0.014497
 104 H :   -0.003687
 105 H :    0.002679
 106 H :   -0.010765
 107 H :   -0.007093
Sum of atomic charges:   -0.0000000

LOEWDIN ATOMIC CHARGES
----------------------
   0 C :   -0.043111
   1 C :    0.091989
   2 F :   -0.067484
   3 C :   -0.039727
   4 C :    0.003638
   5 C :   -0.019851
   6 C :    0.002895
   7 C :    0.008015
   8 C :   -0.015118
   9 C :   -0.057959
  10 C :    0.031288
  11 C :    0.081331
  12 O :   -0.154724
  13 C :   -0.111063
  14 C :    0.060637
  15 C :   -0.147139
  16 C :   -0.019300
  17 N :   -0.058410
  18 C :   -0.034608
  19 N :   -0.055905
  20 C :    0.049561
  21 C :   -0.174471
  22 C :   -0.024742
  23 C :   -0.018753
  24 C :   -0.191738
  25 S :    0.448979
  26 C :   -0.226267
  27 C :    0.003036
  28 N :    0.061529
  29 C :   -0.080098
  30 C :   -0.143664
  31 S :    0.422855
  32 C :   -0.043713
  33 C :   -0.022857
  34 C :   -0.053270
  35 C :   -0.143465
  36 C :   -0.032759
  37 C :   -0.030774
  38 C :   -0.175715
  39 S :    0.366709
  40 C :   -0.178263
  41 C :   -0.037224
  42 C :   -0.030301
  43 C :   -0.145544
  44 S :    0.382086
  45 C :   -0.076175
  46 C :   -0.148932
  47 C :   -0.089309
  48 C :   -0.002126
  49 C :   -0.225108
  50 S :    0.415492
  51 C :   -0.206343
  52 C :   -0.012817
  53 N :    0.060172
  54 C :   -0.041823
  55 C :   -0.168285
  56 S :    0.429050
  57 C :    0.025403
  58 C :   -0.053963
  59 C :    0.066478
  60 C :   -0.107739
  61 C :    0.080285
  62 O :   -0.153574
  63 C :   -0.058208
  64 C :    0.031405
  65 C :   -0.019872
  66 C :    0.002174
  67 C :   -0.042641
  68 C :    0.091517
  69 C :   -0.039576
  70 C :    0.003752
  71 F :   -0.067192
  72 C :    0.008356
  73 C :   -0.016522
  74 C :    0.064647
  75 C :   -0.151166
  76 C :   -0.016279
  77 N :   -0.049728
  78 C :   -0.020431
  79 N :   -0.061347
  80 H :    0.042586
  81 H :    0.041003
  82 H :    0.034966
  83 H :    0.038553
  84 H :    0.038651
  85 H :    0.049799
  86 H :    0.037745
  87 H :    0.094466
  88 H :    0.029708
  89 H :    0.030006
  90 H :    0.020211
  91 H :    0.034476
  92 H :    0.034876
  93 H :    0.033064
  94 H :    0.032545
  95 H :    0.034425
  96 H :    0.034699
  97 H :    0.017381
  98 H :    0.094006
  99 H :    0.034330
 100 H :    0.034851
 101 H :    0.030622
 102 H :    0.045577
 103 H :    0.038529
 104 H :    0.042535
 105 H :    0.041078
 106 H :    0.034972
 107 H :    0.038232

  Mayer bond orders larger than 0.100000
B(  0-C ,  1-C ) :   1.4409 B(  0-C ,  6-C ) :   1.2022 B(  0-C , 80-H ) :   1.0072
B(  1-C ,  2-F ) :   1.0852 B(  1-C ,  3-C ) :   1.2555 B(  3-C ,  4-C ) :   1.4589
B(  3-C , 81-H ) :   0.9928 B(  4-C ,  5-C ) :   1.2366 B(  4-C , 82-H ) :   0.9971
B(  5-C ,  6-C ) :   1.2584 B(  5-C , 10-C ) :   1.1873 B(  6-C ,  7-C ) :   1.1993
B(  7-C ,  8-C ) :   1.4657 B(  7-C , 83-H ) :   0.9960 B(  8-C ,  9-C ) :   1.2188
B(  8-C , 14-C ) :   0.9977 B(  9-C , 10-C ) :   1.4764 B(  9-C , 11-C ) :   0.9204
B( 10-C , 84-H ) :   1.0155 B( 11-C , 12-O ) :   2.2619 B( 11-C , 13-C ) :   0.9516
B( 13-C , 14-C ) :   1.0570 B( 13-C , 20-C ) :   1.5770 B( 14-C , 15-C ) :   1.6403
B( 15-C , 16-C ) :   1.1392 B( 15-C , 18-C ) :   1.1534 B( 16-C , 17-N ) :   2.9846
B( 18-C , 19-N ) :   3.0228 B( 20-C , 21-C ) :   1.1950 B( 20-C , 85-H ) :   0.9459
B( 21-C , 22-C ) :   1.3719 B( 21-C , 25-S ) :   1.0771 B( 22-C , 23-C ) :   1.2665
B( 22-C , 86-H ) :   1.0203 B( 23-C , 24-C ) :   1.3458 B( 23-C , 28-N ) :   1.1453
B( 24-C , 25-S ) :   1.0613 B( 24-C , 26-C ) :   1.4309 B( 26-C , 27-C ) :   1.3645
B( 26-C , 31-S ) :   1.0302 B( 27-C , 28-N ) :   1.1763 B( 27-C , 29-C ) :   1.2513
B( 28-N , 87-H ) :   0.9352 B( 29-C , 30-C ) :   1.4427 B( 29-C , 88-H ) :   1.0074
B( 30-C , 31-S ) :   1.0926 B( 30-C , 32-C ) :   1.1547 B( 32-C , 33-C ) :   1.6111
B( 32-C , 89-H ) :   0.9700 B( 33-C , 34-C ) :   1.1944 B( 33-C , 90-H ) :   0.9663
B( 34-C , 35-C ) :   1.5239 B( 34-C , 91-H ) :   0.9850 B( 35-C , 36-C ) :   1.1609
B( 35-C , 39-S ) :   1.0346 B( 36-C , 37-C ) :   1.5685 B( 36-C , 92-H ) :   0.9991
B( 37-C , 38-C ) :   1.2056 B( 37-C , 93-H ) :   0.9939 B( 38-C , 39-S ) :   1.0488
B( 38-C , 40-C ) :   1.4841 B( 40-C , 41-C ) :   1.2027 B( 40-C , 44-S ) :   1.0418
B( 41-C , 42-C ) :   1.5736 B( 41-C , 94-H ) :   0.9928 B( 42-C , 43-C ) :   1.1590
B( 42-C , 95-H ) :   0.9994 B( 43-C , 44-S ) :   1.0405 B( 43-C , 45-C ) :   1.5785
B( 45-C , 46-C ) :   1.1934 B( 45-C , 96-H ) :   0.9516 B( 46-C , 47-C ) :   1.4212
B( 46-C , 50-S ) :   1.0831 B( 47-C , 48-C ) :   1.2756 B( 47-C , 97-H ) :   0.9872
B( 48-C , 49-C ) :   1.3760 B( 48-C , 53-N ) :   1.1711 B( 49-C , 50-S ) :   1.0326
B( 49-C , 51-C ) :   1.4132 B( 51-C , 52-C ) :   1.3573 B( 51-C , 56-S ) :   1.0563
B( 52-C , 53-N ) :   1.1530 B( 52-C , 54-C ) :   1.2835 B( 53-N , 98-H ) :   0.9343
B( 54-C , 55-C ) :   1.4179 B( 54-C , 99-H ) :   1.0050 B( 55-C , 56-S ) :   1.0782
B( 55-C , 57-C ) :   1.2193 B( 57-C , 58-C ) :   1.5729 B( 57-C ,100-H ) :   0.9501
B( 58-C , 59-C ) :   1.2224 B( 58-C ,101-H ) :   0.9598 B( 59-C , 60-C ) :   1.5791
B( 59-C ,102-H ) :   0.9301 B( 60-C , 61-C ) :   0.9574 B( 60-C , 74-C ) :   1.0660
B( 61-C , 62-O ) :   2.2570 B( 61-C , 63-C ) :   0.9186 B( 63-C , 64-C ) :   1.4769
B( 63-C , 73-C ) :   1.2195 B( 64-C , 65-C ) :   1.1878 B( 64-C ,103-H ) :   1.0146
B( 65-C , 66-C ) :   1.2581 B( 65-C , 70-C ) :   1.2357 B( 66-C , 67-C ) :   1.2038
B( 66-C , 72-C ) :   1.2034 B( 67-C , 68-C ) :   1.4412 B( 67-C ,104-H ) :   1.0063
B( 68-C , 69-C ) :   1.2556 B( 68-C , 71-F ) :   1.0865 B( 69-C , 70-C ) :   1.4593
B( 69-C ,105-H ) :   0.9937 B( 70-C ,106-H ) :   0.9968 B( 72-C , 73-C ) :   1.4652
B( 72-C ,107-H ) :   0.9938 B( 73-C , 74-C ) :   0.9897 B( 74-C , 75-C ) :   1.6176
B( 75-C , 76-C ) :   1.1758 B( 75-C , 78-C ) :   1.1334 B( 76-C , 77-N ) :   2.9922
B( 78-C , 79-N ) :   2.9812

-----------------------------------------------------------------------------
         ABSORPTION SPECTRUM VIA TRANSITION ELECTRIC DIPOLE MOMENTS
-----------------------------------------------------------------------------
State   Energy  Wavelength   fosc         T2         TX        TY        TZ
        (cm-1)    (nm)                  (au**2)     (au)      (au)      (au)
-----------------------------------------------------------------------------
   0    9827.0   1017.6   1.686720465  56.50625  -3.17150  -4.90787  -4.72871
   1   14348.7    696.9   1.110697625  25.48357  -4.30054   0.58871   2.57727
   2   17405.1    574.5   0.012789329   0.24191   0.02511  -0.42790  -0.24120
   3   17459.2    572.8   0.678394872  12.79185  -3.03510   0.41356   1.84634
   4   20540.9    486.8   0.085932469   1.37725  -0.33102  -0.61532  -0.94290
   5   23026.6    434.3   0.693068419   9.90881  -2.57149  -0.54460   1.73195
   6   23405.6    427.2   0.252064867   3.54543  -0.95296  -0.53893   1.53195
   7   23965.0    417.3   0.040325289   0.55396  -0.38194  -0.61615  -0.16863
   8   24564.3    407.1   0.059614234   0.79895  -0.62645  -0.25798   0.58306
   9   25243.4    396.1   0.062420523   0.81406   0.13609   0.60460   0.65574
  10   25916.7    385.9   0.041923529   0.53254   0.07517   0.49429   0.53157
  11   26116.1    382.9   0.104750935   1.32046  -0.92795  -0.32434   0.59512
  12   26960.0    370.9   0.044494565   0.54333  -0.37381  -0.57775   0.26419
  13   27320.2    366.0   0.062894719   0.75789  -0.02021  -0.13809  -0.85931
  14   27870.6    358.8   0.027046394   0.31948  -0.04289   0.36734  -0.42743
  15   28232.4    354.2   0.038135945   0.44469   0.52770   0.40141  -0.07135
  16   28408.1    352.0   0.079650214   0.92304   0.54291   0.27579  -0.74312
  17   28820.5    347.0   0.047820609   0.54625   0.01710   0.32079   0.66562
  18   29448.2    339.6   0.066207310   0.74015   0.73513   0.42469  -0.13921
  19   29527.3    338.7   0.024021850   0.26783   0.02276  -0.27535  -0.43760
  20   29770.9    335.9   0.011328133   0.12527  -0.02991  -0.27275  -0.22357
  21   30141.6    331.8   0.008417914   0.09194  -0.02018   0.02293  -0.30168
  22   30308.3    329.9   0.032631405   0.35445   0.52298   0.22709  -0.17138
  23   30606.5    326.7   0.034774187   0.37404   0.08435   0.28034   0.53697
  24   31060.8    321.9   0.232136113   2.46040   1.07585   0.94682  -0.63756
  25   31472.3    317.7   0.169965664   1.77790  -0.38016  -0.55642  -1.15056
  26   31996.7    312.5   0.094127658   0.96847  -0.37210   0.08473   0.90711
  27   32465.5    308.0   0.005579019   0.05657  -0.23258   0.04956   0.00477
  28   32831.9    304.6   0.013445299   0.13482   0.23691   0.24420  -0.13805
  29   32896.1    304.0   0.001283660   0.01285  -0.08145  -0.07432   0.02625
  30   33388.4    299.5   0.112312744   1.10741   0.65301   0.82347  -0.05376
  31   33599.9    297.6   0.039842335   0.39038   0.36213   0.46705  -0.20272
  32   33831.4    295.6   0.123876395   1.20544   0.13493   0.26839  -1.05603
  33   33912.0    294.9   0.171345535   1.66339  -0.37768  -0.47106  -1.13968
  34   34597.0    289.0   0.206641888   1.96633   0.78920   0.94977   0.66440
  35   34651.4    288.6   0.446953854   4.24636  -0.85450  -1.08495  -1.52941
  36   35077.4    285.1   0.084386444   0.79199   0.17291   0.41726   0.76681
  37   35329.4    283.1   0.080073708   0.74615  -0.41122  -0.49841  -0.57327
  38   35532.9    281.4   0.022793552   0.21118  -0.15176  -0.23722  -0.36315
  39   35705.3    280.1   0.029024756   0.26762  -0.42101  -0.28996  -0.07931
  40   35904.6    278.5   0.007191937   0.06594   0.18715   0.16499  -0.06080
  41   36247.5    275.9   0.072562932   0.65904  -0.65622  -0.44926  -0.16302
  42   36323.8    275.3   0.021385437   0.19382   0.36923   0.04897  -0.23472
  43   36531.2    273.7   0.053000347   0.47763   0.49283   0.42093  -0.23993
  44   36599.1    273.2   0.052276444   0.47023   0.39098  -0.17326  -0.53605
  45   37025.4    270.1   0.214227440   1.90480   0.28346   0.77873   1.10365
  46   37210.3    268.7   0.005330839   0.04716   0.09742   0.19037   0.03784
  47   37370.0    267.6   0.047861348   0.42164   0.34673   0.54852  -0.02318
  48   37501.9    266.7   0.113405397   0.99553  -0.04739   0.10656  -0.99092
  49   37689.4    265.3   0.131950564   1.15257  -0.57804  -0.82475  -0.37179
  50   38248.5    261.4   0.036736295   0.31620   0.12618  -0.01779  -0.54768
  51   38404.9    260.4   0.111338298   0.95441  -0.49569  -0.73823   0.40462
  52   38573.8    259.2   0.095964336   0.81902   0.01792   0.01869   0.90463
  53   38672.1    258.6   0.027057628   0.23034   0.42304   0.17795  -0.14038
  54   38963.6    256.6   0.015175220   0.12822  -0.02415   0.18262   0.30706
  55   39080.7    255.9   0.010489784   0.08837   0.01392   0.28478   0.08410
  56   39201.1    255.1   0.001807344   0.01518  -0.06389  -0.09116  -0.05279
  57   39534.3    252.9   0.017913837   0.14917  -0.11748  -0.25719   0.26311
  58   39659.3    252.1   0.016871800   0.14005  -0.03677  -0.11210  -0.35516
  59   39978.1    250.1   0.190886511   1.57192   0.52720   0.86080  -0.74363
  60   40019.0    249.9   0.068537917   0.56382   0.34416   0.66298   0.07633

FINAL SINGLE POINT ENERGY     -5518.656036942530

DIPOLE MOMENT
-------------
                                X             Y             Z
Electronic contribution:    -10.72058      10.05876       6.78996
Nuclear contribution   :     13.94312     -12.73725      -6.67029
                        -----------------------------------------
Total Dipole Moment    :      3.22253      -2.67849       0.11966
                        -----------------------------------------
Magnitude (a.u.)       :      4.19206
Magnitude (Debye)      :     10.65536

Rotational constants in cm-1:     0.000621     0.000154     0.000126
Rotational constants in MHz :    18.605321     4.622714     3.768329

                             ****ORCA TERMINATED NORMALLY****
TOTAL RUN TIME: 0 days 0 hours 13 minutes 23 seconds 187 msec
