                         Program Version 4.2.0 -  RELEASE  -
|  1> # ORCA input file
|  2> # SCF done       -202.902317081718          0.000317653471
|  3> ! CAM-B3LYP def2-SVP def2/J RIJCOSX Grid4 TightSCF
|  4> %maxcore 5000
|  5> %tddft
|  6>     Mode sTDDFT
|  7>     Ethresh 5.0
|  8>     maxcore 5000
|  9> end
| 10>
| 11> %pal
| 12>   nprocs 6
| 13>   end
| 14> * xyz 0 1
| 15>    C       13.03358         5.30885        -3.67061
| 16>    C       12.90640         6.30385        -4.59942
| 17>    F       13.99108         6.71212        -5.28655
| 18>    C       11.68124         6.92561        -4.87148
| 19>    C       10.56930         6.52300        -4.18455
| 20>    C       10.64310         5.50156        -3.21653
| 21>    C       11.89957         4.88454        -2.95192
| 22>    C       12.00169         3.86628        -1.97383
| 23>    C       10.88263         3.47959        -1.29072
| 24>    C        9.62516         4.08416        -1.57540
| 25>    C        9.49822         5.07330        -2.50537
| 26>    C        8.58668         3.44806        -0.73885
| 27>    O        7.40720         3.72643        -0.68190
| 28>    C        9.27740         2.35257        -0.02003
| 29>    C       10.69021         2.50447        -0.21658
| 30>    C       11.69467         2.05576         0.61250
| 31>    C       11.45126         1.41384         1.83906
| 32>    N       11.28831         0.96699         2.88552
| 33>    C       13.05823         2.31741         0.40407
| 34>    N       14.18857         2.49314         0.28537
| 35>    C        8.50019         1.38991         0.58800
| 36>    C        8.77048         0.06388         0.90844
| 37>    C        7.87341        -0.83137         1.55038
| 38>    C        8.36785        -2.16047         1.61542
| 39>    C        7.60144        -3.16027         2.23174
| 40>    C        6.37842        -2.83947         2.76232
| 41>    C        5.89090        -1.52700         2.69856
| 42>    C        6.62270        -0.52914         2.10654
| 43>    C        9.64877        -2.29954         1.02287
| 44>    S       10.20342        -0.78441         0.40235
| 45>    C       10.41757        -3.46488         0.92053
| 46>    C       11.70673        -3.45341         0.45437
| 47>    C       12.61275        -4.51061         0.32430
| 48>    C       12.50739        -5.92107         0.40816
| 49>    C       13.77352        -6.57139         0.31330
| 50>    C       13.85077        -7.97097         0.38777
| 51>    C       12.70246        -8.70355         0.53321
| 52>    C       11.45310        -8.06979         0.59203
| 53>    C       11.34840        -6.70428         0.52818
| 54>    C       14.85057        -5.67340         0.13494
| 55>    S       14.26434        -4.04409         0.05022
| 56>    C       16.23017        -5.93738         0.10705
| 57>    C       17.13301        -4.92533        -0.04735
| 58>    C       18.53409        -4.94760         0.10165
| 59>    C       19.20893        -3.73772         0.11712
| 60>    C       20.54870        -3.57212         0.40790
| 61>    C       21.44555        -4.72694         0.50537
| 62>    C       21.01516        -6.00981         0.49199
| 63>    S       19.36362        -6.46939         0.37591
| 64>    C       22.75314        -4.17648         0.61669
| 65>    C       22.68107        -2.78197         0.62763
| 66>    C       23.95355        -2.18510         0.76037
| 67>    C       24.93710        -3.11931         0.83995
| 68>    S       24.36563        -4.75201         0.76664
| 69>    C       21.30049        -2.37587         0.54276
| 70>    C       20.85268        -1.05035         0.65968
| 71>    C       19.58083        -0.62331         0.96170
| 72>    C       19.27938         0.73648         1.09559
| 73>    C       18.10738         1.34290         1.48720
| 74>    C       18.18476         2.75011         1.95447
| 75>    O       19.12384         3.50523         1.82450
| 76>    C       16.91178         3.00566         2.65872
| 77>    C       16.52341         4.10521         3.36522
| 78>    C       15.26748         4.09408         4.01344
| 79>    C       14.44443         2.93419         3.92690
| 80>    C       13.20221         2.92409         4.59258
| 81>    C       12.79402         4.01823         5.30256
| 82>    C       13.60683         5.16500         5.38536
| 83>    C       14.81834         5.20401         4.75433
| 84>    F       13.18195         6.22466         6.09282
| 85>    F       11.60956         4.01150         5.93325
| 86>    C       14.87147         1.81347         3.17655
| 87>    C       16.08080         1.85779         2.53852
| 88>    C       16.75654         0.88662         1.67887
| 89>    C       16.10580        -0.13456         1.02670
| 90>    C       16.67149        -0.94194         0.02947
| 91>    N       17.04304        -1.64389        -0.80333
| 92>    C       14.73994        -0.44824         1.16173
| 93>    N       13.64548        -0.79992         1.18599
| 94>    H       13.99437         4.85506        -3.48379
| 95>    H       11.64137         7.70625        -5.61447
| 96>    H        9.61347         6.98685        -4.37694
| 97>    H       12.96388         3.41197        -1.79740
| 98>    H        8.53737         5.52649        -2.69825
| 99>    H        7.46719         1.69783         0.72264
|100>    H        7.97467        -4.17105         2.29000
|101>    H        5.78083        -3.60212         3.23840
|102>    H        4.92553        -1.30264         3.12650
|103>    H        6.24266         0.47963         2.07099
|104>    H        9.96714        -4.37735         1.27851
|105>    H       12.12563        -2.47992         0.22271
|106>    H       14.81026        -8.45948         0.31835
|107>    H       12.75152        -9.78049         0.58836
|108>    H       10.56150        -8.67201         0.68154
|109>    H       10.37769        -6.23754         0.54421
|110>    H       16.56150        -6.95439         0.26435
|111>    H       16.73479        -3.93617        -0.24149
|112>    H       18.61697        -2.86949        -0.13393
|113>    H       21.68748        -6.84826         0.58269
|114>    H       24.13820        -1.12680         0.79189
|115>    H       25.99213        -2.95536         0.94072
|116>    H       21.61663        -0.28836         0.55374
|117>    H       18.81320        -1.34583         1.18662
|118>    H       20.10526         1.43185         0.97270
|119>    H       17.16362         4.97173         3.43211
|120>    H       12.55974         2.05886         4.52701
|121>    H       15.42991         6.08977         4.82712
|122>    H       14.22817         0.94825         3.13097
|123> *
|124>
|125>                          ****END OF INPUT****

CARTESIAN COORDINATES (ANGSTROEM)
---------------------------------
  C     13.033580    5.308850   -3.670610
  C     12.906400    6.303850   -4.599420
  F     13.991080    6.712120   -5.286550
  C     11.681240    6.925610   -4.871480
  C     10.569300    6.523000   -4.184550
  C     10.643100    5.501560   -3.216530
  C     11.899570    4.884540   -2.951920
  C     12.001690    3.866280   -1.973830
  C     10.882630    3.479590   -1.290720
  C      9.625160    4.084160   -1.575400
  C      9.498220    5.073300   -2.505370
  C      8.586680    3.448060   -0.738850
  O      7.407200    3.726430   -0.681900
  C      9.277400    2.352570   -0.020030
  C     10.690210    2.504470   -0.216580
  C     11.694670    2.055760    0.612500
  C     11.451260    1.413840    1.839060
  N     11.288310    0.966990    2.885520
  C     13.058230    2.317410    0.404070
  N     14.188570    2.493140    0.285370
  C      8.500190    1.389910    0.588000
  C      8.770480    0.063880    0.908440
  C      7.873410   -0.831370    1.550380
  C      8.367850   -2.160470    1.615420
  C      7.601440   -3.160270    2.231740
  C      6.378420   -2.839470    2.762320
  C      5.890900   -1.527000    2.698560
  C      6.622700   -0.529140    2.106540
  C      9.648770   -2.299540    1.022870
  S     10.203420   -0.784410    0.402350
  C     10.417570   -3.464880    0.920530
  C     11.706730   -3.453410    0.454370
  C     12.612750   -4.510610    0.324300
  C     12.507390   -5.921070    0.408160
  C     13.773520   -6.571390    0.313300
  C     13.850770   -7.970970    0.387770
  C     12.702460   -8.703550    0.533210
  C     11.453100   -8.069790    0.592030
  C     11.348400   -6.704280    0.528180
  C     14.850570   -5.673400    0.134940
  S     14.264340   -4.044090    0.050220
  C     16.230170   -5.937380    0.107050
  C     17.133010   -4.925330   -0.047350
  C     18.534090   -4.947600    0.101650
  C     19.208930   -3.737720    0.117120
  C     20.548700   -3.572120    0.407900
  C     21.445550   -4.726940    0.505370
  C     21.015160   -6.009810    0.491990
  S     19.363620   -6.469390    0.375910
  C     22.753140   -4.176480    0.616690
  C     22.681070   -2.781970    0.627630
  C     23.953550   -2.185100    0.760370
  C     24.937100   -3.119310    0.839950
  S     24.365630   -4.752010    0.766640
  C     21.300490   -2.375870    0.542760
  C     20.852680   -1.050350    0.659680
  C     19.580830   -0.623310    0.961700
  C     19.279380    0.736480    1.095590
  C     18.107380    1.342900    1.487200
  C     18.184760    2.750110    1.954470
  O     19.123840    3.505230    1.824500
  C     16.911780    3.005660    2.658720
  C     16.523410    4.105210    3.365220
  C     15.267480    4.094080    4.013440
  C     14.444430    2.934190    3.926900
  C     13.202210    2.924090    4.592580
  C     12.794020    4.018230    5.302560
  C     13.606830    5.165000    5.385360
  C     14.818340    5.204010    4.754330
  F     13.181950    6.224660    6.092820
  F     11.609560    4.011500    5.933250
  C     14.871470    1.813470    3.176550
  C     16.080800    1.857790    2.538520
  C     16.756540    0.886620    1.678870
  C     16.105800   -0.134560    1.026700
  C     16.671490   -0.941940    0.029470
  N     17.043040   -1.643890   -0.803330
  C     14.739940   -0.448240    1.161730
  N     13.645480   -0.799920    1.185990
  H     13.994370    4.855060   -3.483790
  H     11.641370    7.706250   -5.614470
  H      9.613470    6.986850   -4.376940
  H     12.963880    3.411970   -1.797400
  H      8.537370    5.526490   -2.698250
  H      7.467190    1.697830    0.722640
  H      7.974670   -4.171050    2.290000
  H      5.780830   -3.602120    3.238400
  H      4.925530   -1.302640    3.126500
  H      6.242660    0.479630    2.070990
  H      9.967140   -4.377350    1.278510
  H     12.125630   -2.479920    0.222710
  H     14.810260   -8.459480    0.318350
  H     12.751520   -9.780490    0.588360
  H     10.561500   -8.672010    0.681540
  H     10.377690   -6.237540    0.544210
  H     16.561500   -6.954390    0.264350
  H     16.734790   -3.936170   -0.241490
  H     18.616970   -2.869490   -0.133930
  H     21.687480   -6.848260    0.582690
  H     24.138200   -1.126800    0.791890
  H     25.992130   -2.955360    0.940720
  H     21.616630   -0.288360    0.553740
  H     18.813200   -1.345830    1.186620
  H     20.105260    1.431850    0.972700
  H     17.163620    4.971730    3.432110
  H     12.559740    2.058860    4.527010
  H     15.429910    6.089770    4.827120
  H     14.228170    0.948250    3.130970

 Total Charge           Charge          ....    0
 Multiplicity           Mult            ....    1
 Number of Electrons    NEL             ....  560
 Basis Dimension        Dim             .... 1267

ORBITAL ENERGIES
----------------

  NO   OCC          E(Eh)            E(eV)
   0   2.0000     -88.986685     -2421.4508
   1   2.0000     -88.972093     -2421.0537
   2   2.0000     -88.965439     -2420.8727
   3   2.0000     -88.962445     -2420.7912
   4   2.0000     -24.779309      -674.2793
   5   2.0000     -24.775208      -674.1677
   6   2.0000     -24.772591      -674.0965
   7   2.0000     -19.194648      -522.3129
   8   2.0000     -19.190582      -522.2023
   9   2.0000     -14.412081      -392.1727
  10   2.0000     -14.407804      -392.0563
  11   2.0000     -14.399153      -391.8209
  12   2.0000     -14.397756      -391.7828
  13   2.0000     -10.360547      -281.9248
  14   2.0000     -10.357330      -281.8373
  15   2.0000     -10.354848      -281.7697
  16   2.0000     -10.345589      -281.5178
  17   2.0000     -10.342650      -281.4378
  18   2.0000     -10.337731      -281.3040
  19   2.0000     -10.331932      -281.1462
  20   2.0000     -10.328191      -281.0444
  21   2.0000     -10.325219      -280.9635
  22   2.0000     -10.324897      -280.9547
  23   2.0000     -10.321375      -280.8589
  24   2.0000     -10.320141      -280.8253
  25   2.0000     -10.319906      -280.8189
  26   2.0000     -10.317397      -280.7506
  27   2.0000     -10.314748      -280.6786
  28   2.0000     -10.314417      -280.6696
  29   2.0000     -10.308480      -280.5080
  30   2.0000     -10.304467      -280.3988
  31   2.0000     -10.302774      -280.3527
  32   2.0000     -10.302652      -280.3494
  33   2.0000     -10.300885      -280.3013
  34   2.0000     -10.300510      -280.2911
  35   2.0000     -10.300124      -280.2806
  36   2.0000     -10.299995      -280.2771
  37   2.0000     -10.299634      -280.2673
  38   2.0000     -10.299017      -280.2505
  39   2.0000     -10.298752      -280.2433
  40   2.0000     -10.296080      -280.1706
  41   2.0000     -10.294830      -280.1366
  42   2.0000     -10.294404      -280.1250
  43   2.0000     -10.294187      -280.1191
  44   2.0000     -10.294129      -280.1175
  45   2.0000     -10.291059      -280.0339
  46   2.0000     -10.289878      -280.0018
  47   2.0000     -10.289401      -279.9888
  48   2.0000     -10.288599      -279.9670
  49   2.0000     -10.287948      -279.9493
  50   2.0000     -10.287586      -279.9394
  51   2.0000     -10.287404      -279.9345
  52   2.0000     -10.286483      -279.9094
  53   2.0000     -10.286112      -279.8993
  54   2.0000     -10.284756      -279.8624
  55   2.0000     -10.284692      -279.8607
  56   2.0000     -10.284659      -279.8598
  57   2.0000     -10.283620      -279.8315
  58   2.0000     -10.283425      -279.8262
  59   2.0000     -10.283280      -279.8223
  60   2.0000     -10.283095      -279.8172
  61   2.0000     -10.281940      -279.7858
  62   2.0000     -10.281646      -279.7778
  63   2.0000     -10.280701      -279.7521
  64   2.0000     -10.280565      -279.7484
  65   2.0000     -10.280475      -279.7460
  66   2.0000     -10.280361      -279.7428
  67   2.0000     -10.280289      -279.7409
  68   2.0000     -10.280213      -279.7388
  69   2.0000     -10.279583      -279.7217
  70   2.0000     -10.277043      -279.6526
  71   2.0000     -10.276896      -279.6486
  72   2.0000     -10.276085      -279.6265
  73   2.0000     -10.275608      -279.6135
  74   2.0000     -10.274717      -279.5893
  75   2.0000     -10.273901      -279.5671
  76   2.0000     -10.271410      -279.4993
  77   2.0000     -10.271314      -279.4967
  78   2.0000     -10.269753      -279.4542
  79   2.0000      -8.081910      -219.9199
  80   2.0000      -8.067011      -219.5145
  81   2.0000      -8.059888      -219.3207
  82   2.0000      -8.057944      -219.2678
  83   2.0000      -6.051240      -164.6626
  84   2.0000      -6.046875      -164.5438
  85   2.0000      -6.044135      -164.4693
  86   2.0000      -6.035910      -164.2455
  87   2.0000      -6.031815      -164.1340
  88   2.0000      -6.029874      -164.0812
  89   2.0000      -6.028909      -164.0550
  90   2.0000      -6.027410      -164.0142
  91   2.0000      -6.024766      -163.9422
  92   2.0000      -6.023134      -163.8978
  93   2.0000      -6.022576      -163.8826
  94   2.0000      -6.019918      -163.8103
  95   2.0000      -1.299434       -35.3594
  96   2.0000      -1.286912       -35.0186
  97   2.0000      -1.284186       -34.9445
  98   2.0000      -1.109336       -30.1866
  99   2.0000      -1.105347       -30.0780
 100   2.0000      -1.014400       -27.6032
 101   2.0000      -1.011586       -27.5267
 102   2.0000      -1.007324       -27.4107
 103   2.0000      -1.004187       -27.3253
 104   2.0000      -0.997898       -27.1542
 105   2.0000      -0.990637       -26.9566
 106   2.0000      -0.986069       -26.8323
 107   2.0000      -0.983435       -26.7606
 108   2.0000      -0.980885       -26.6912
 109   2.0000      -0.978219       -26.6187
 110   2.0000      -0.962148       -26.1814
 111   2.0000      -0.958855       -26.0918
 112   2.0000      -0.944125       -25.6909
 113   2.0000      -0.939432       -25.5633
 114   2.0000      -0.935609       -25.4592
 115   2.0000      -0.924869       -25.1670
 116   2.0000      -0.916340       -24.9349
 117   2.0000      -0.912561       -24.8321
 118   2.0000      -0.906722       -24.6732
 119   2.0000      -0.900174       -24.4950
 120   2.0000      -0.891877       -24.2692
 121   2.0000      -0.878438       -23.9035
 122   2.0000      -0.877633       -23.8816
 123   2.0000      -0.871105       -23.7040
 124   2.0000      -0.869579       -23.6624
 125   2.0000      -0.862704       -23.4754
 126   2.0000      -0.855913       -23.2906
 127   2.0000      -0.852937       -23.2096
 128   2.0000      -0.843588       -22.9552
 129   2.0000      -0.838779       -22.8243
 130   2.0000      -0.832511       -22.6538
 131   2.0000      -0.831134       -22.6163
 132   2.0000      -0.820281       -22.3210
 133   2.0000      -0.819339       -22.2954
 134   2.0000      -0.818252       -22.2658
 135   2.0000      -0.806010       -21.9326
 136   2.0000      -0.798987       -21.7415
 137   2.0000      -0.788961       -21.4687
 138   2.0000      -0.775651       -21.1065
 139   2.0000      -0.758288       -20.6341
 140   2.0000      -0.749935       -20.4068
 141   2.0000      -0.744225       -20.2514
 142   2.0000      -0.737594       -20.0710
 143   2.0000      -0.732767       -19.9396
 144   2.0000      -0.721770       -19.6404
 145   2.0000      -0.716581       -19.4992
 146   2.0000      -0.711581       -19.3631
 147   2.0000      -0.709313       -19.3014
 148   2.0000      -0.706084       -19.2135
 149   2.0000      -0.698535       -19.0081
 150   2.0000      -0.692869       -18.8539
 151   2.0000      -0.692353       -18.8399
 152   2.0000      -0.687559       -18.7094
 153   2.0000      -0.674491       -18.3538
 154   2.0000      -0.669044       -18.2056
 155   2.0000      -0.667555       -18.1651
 156   2.0000      -0.664360       -18.0781
 157   2.0000      -0.660490       -17.9729
 158   2.0000      -0.655567       -17.8389
 159   2.0000      -0.645641       -17.5688
 160   2.0000      -0.643812       -17.5190
 161   2.0000      -0.635263       -17.2864
 162   2.0000      -0.631114       -17.1735
 163   2.0000      -0.630863       -17.1666
 164   2.0000      -0.622488       -16.9388
 165   2.0000      -0.622309       -16.9339
 166   2.0000      -0.616792       -16.7838
 167   2.0000      -0.616094       -16.7648
 168   2.0000      -0.610923       -16.6241
 169   2.0000      -0.607236       -16.5237
 170   2.0000      -0.595936       -16.2163
 171   2.0000      -0.592628       -16.1262
 172   2.0000      -0.590881       -16.0787
 173   2.0000      -0.585816       -15.9409
 174   2.0000      -0.580202       -15.7881
 175   2.0000      -0.573661       -15.6101
 176   2.0000      -0.570965       -15.5367
 177   2.0000      -0.565438       -15.3863
 178   2.0000      -0.564340       -15.3565
 179   2.0000      -0.562589       -15.3088
 180   2.0000      -0.559400       -15.2221
 181   2.0000      -0.556787       -15.1510
 182   2.0000      -0.555680       -15.1208
 183   2.0000      -0.552940       -15.0463
 184   2.0000      -0.551629       -15.0106
 185   2.0000      -0.548096       -14.9144
 186   2.0000      -0.544839       -14.8258
 187   2.0000      -0.542895       -14.7729
 188   2.0000      -0.534813       -14.5530
 189   2.0000      -0.534020       -14.5314
 190   2.0000      -0.529833       -14.4175
 191   2.0000      -0.528625       -14.3846
 192   2.0000      -0.526239       -14.3197
 193   2.0000      -0.525430       -14.2977
 194   2.0000      -0.522286       -14.2121
 195   2.0000      -0.520825       -14.1724
 196   2.0000      -0.520176       -14.1547
 197   2.0000      -0.519302       -14.1309
 198   2.0000      -0.516206       -14.0467
 199   2.0000      -0.514907       -14.0113
 200   2.0000      -0.512579       -13.9480
 201   2.0000      -0.510353       -13.8874
 202   2.0000      -0.510214       -13.8836
 203   2.0000      -0.508325       -13.8322
 204   2.0000      -0.506673       -13.7873
 205   2.0000      -0.505381       -13.7521
 206   2.0000      -0.502991       -13.6871
 207   2.0000      -0.499665       -13.5966
 208   2.0000      -0.497288       -13.5319
 209   2.0000      -0.495651       -13.4874
 210   2.0000      -0.492520       -13.4021
 211   2.0000      -0.489214       -13.3122
 212   2.0000      -0.488134       -13.2828
 213   2.0000      -0.486873       -13.2485
 214   2.0000      -0.481626       -13.1057
 215   2.0000      -0.480038       -13.0625
 216   2.0000      -0.477247       -12.9865
 217   2.0000      -0.475330       -12.9344
 218   2.0000      -0.475075       -12.9275
 219   2.0000      -0.466681       -12.6990
 220   2.0000      -0.465665       -12.6714
 221   2.0000      -0.464990       -12.6530
 222   2.0000      -0.463378       -12.6091
 223   2.0000      -0.461350       -12.5540
 224   2.0000      -0.456375       -12.4186
 225   2.0000      -0.452720       -12.3191
 226   2.0000      -0.450961       -12.2713
 227   2.0000      -0.449936       -12.2434
 228   2.0000      -0.445583       -12.1249
 229   2.0000      -0.444596       -12.0981
 230   2.0000      -0.443040       -12.0557
 231   2.0000      -0.441636       -12.0175
 232   2.0000      -0.440524       -11.9873
 233   2.0000      -0.438934       -11.9440
 234   2.0000      -0.438205       -11.9242
 235   2.0000      -0.438191       -11.9238
 236   2.0000      -0.435103       -11.8398
 237   2.0000      -0.434707       -11.8290
 238   2.0000      -0.432381       -11.7657
 239   2.0000      -0.431284       -11.7358
 240   2.0000      -0.428063       -11.6482
 241   2.0000      -0.426771       -11.6130
 242   2.0000      -0.425735       -11.5848
 243   2.0000      -0.424545       -11.5525
 244   2.0000      -0.423489       -11.5237
 245   2.0000      -0.420610       -11.4454
 246   2.0000      -0.418894       -11.3987
 247   2.0000      -0.415914       -11.3176
 248   2.0000      -0.414307       -11.2739
 249   2.0000      -0.410733       -11.1766
 250   2.0000      -0.410116       -11.1598
 251   2.0000      -0.407390       -11.0857
 252   2.0000      -0.406637       -11.0652
 253   2.0000      -0.404306       -11.0017
 254   2.0000      -0.402305       -10.9473
 255   2.0000      -0.396966       -10.8020
 256   2.0000      -0.395312       -10.7570
 257   2.0000      -0.389646       -10.6028
 258   2.0000      -0.388509       -10.5719
 259   2.0000      -0.370156       -10.0725
 260   2.0000      -0.367667       -10.0047
 261   2.0000      -0.361792        -9.8449
 262   2.0000      -0.356907        -9.7119
 263   2.0000      -0.344553        -9.3758
 264   2.0000      -0.338268        -9.2048
 265   2.0000      -0.336573        -9.1586
 266   2.0000      -0.325868        -8.8673
 267   2.0000      -0.325349        -8.8532
 268   2.0000      -0.320094        -8.7102
 269   2.0000      -0.316162        -8.6032
 270   2.0000      -0.314201        -8.5498
 271   2.0000      -0.305669        -8.3177
 272   2.0000      -0.298095        -8.1116
 273   2.0000      -0.296480        -8.0676
 274   2.0000      -0.290625        -7.9083
 275   2.0000      -0.283248        -7.7076
 276   2.0000      -0.279823        -7.6144
 277   2.0000      -0.267181        -7.2704
 278   2.0000      -0.242268        -6.5925
 279   2.0000      -0.215543        -5.8652
 280   0.0000      -0.111855        -3.0437
 281   0.0000      -0.085270        -2.3203
 282   0.0000      -0.062543        -1.7019
 283   0.0000      -0.048486        -1.3194
 284   0.0000      -0.038572        -1.0496

MULLIKEN ATOMIC CHARGES
-----------------------
   0 C :   -0.096571
   1 C :    0.301365
   2 F :   -0.195628
   3 C :   -0.037234
   4 C :   -0.009752
   5 C :    0.097331
   6 C :    0.100334
   7 C :   -0.086452
   8 C :    0.035131
   9 C :    0.014390
  10 C :   -0.084300
  11 C :    0.135089
  12 O :   -0.163973
  13 C :   -0.157372
  14 C :    0.271562
  15 C :   -0.332718
  16 C :   -0.198213
  17 N :    0.143007
  18 C :   -0.147244
  19 N :    0.109533
  20 C :    0.003681
  21 C :   -0.094802
  22 C :    0.144550
  23 C :    0.094777
  24 C :   -0.030674
  25 C :    0.026470
  26 C :    0.041086
  27 C :   -0.037596
  28 C :   -0.051655
  29 S :    0.182036
  30 C :   -0.038316
  31 C :    0.072856
  32 C :   -0.125260
  33 C :    0.130411
  34 C :    0.096351
  35 C :   -0.029268
  36 C :    0.025595
  37 C :    0.032621
  38 C :   -0.041511
  39 C :   -0.095088
  40 S :    0.166696
  41 C :    0.020284
  42 C :   -0.017618
  43 C :   -0.039189
  44 C :   -0.033168
  45 C :    0.070493
  46 C :    0.064373
  47 C :   -0.122960
  48 S :    0.138934
  49 C :   -0.112126
  50 C :    0.060018
  51 C :    0.010147
  52 C :   -0.067477
  53 S :    0.131853
  54 C :    0.084252
  55 C :   -0.014911
  56 C :   -0.005670
  57 C :    0.016742
  58 C :   -0.129379
  59 C :    0.138897
  60 O :   -0.155364
  61 C :    0.028082
  62 C :   -0.100047
  63 C :    0.123218
  64 C :    0.107736
  65 C :   -0.109727
  66 C :    0.233680
  67 C :    0.239487
  68 C :   -0.115849
  69 F :   -0.179322
  70 F :   -0.175686
  71 C :   -0.093001
  72 C :    0.062297
  73 C :    0.328462
  74 C :   -0.367262
  75 C :   -0.132862
  76 N :    0.094643
  77 C :   -0.164124
  78 N :    0.134320
  79 H :   -0.006731
  80 H :   -0.000727
  81 H :   -0.013810
  82 H :   -0.009045
  83 H :   -0.017953
  84 H :    0.011989
  85 H :   -0.025860
  86 H :   -0.012249
  87 H :   -0.007661
  88 H :   -0.011624
  89 H :   -0.018555
  90 H :    0.017116
  91 H :   -0.025248
  92 H :   -0.008058
  93 H :   -0.009298
  94 H :   -0.026662
  95 H :   -0.003829
  96 H :    0.023616
  97 H :   -0.025924
  98 H :    0.039401
  99 H :   -0.012240
 100 H :    0.031067
 101 H :   -0.007808
 102 H :    0.002030
 103 H :    0.011673
 104 H :   -0.016893
 105 H :    0.007176
 106 H :   -0.007611
 107 H :    0.000298
Sum of atomic charges:   -0.0000000

LOEWDIN ATOMIC CHARGES
----------------------
   0 C :   -0.043943
   1 C :    0.089851
   2 F :   -0.069944
   3 C :   -0.042676
   4 C :    0.002273
   5 C :   -0.020988
   6 C :    0.001500
   7 C :    0.004055
   8 C :   -0.013429
   9 C :   -0.055021
  10 C :    0.027172
  11 C :    0.078684
  12 O :   -0.164699
  13 C :   -0.127319
  14 C :    0.064774
  15 C :   -0.169550
  16 C :   -0.021422
  17 N :   -0.074008
  18 C :   -0.006535
  19 N :   -0.082272
  20 C :    0.042373
  21 C :   -0.196073
  22 C :   -0.007563
  23 C :   -0.053733
  24 C :   -0.005832
  25 C :   -0.028372
  26 C :   -0.004678
  27 C :   -0.015261
  28 C :   -0.112480
  29 S :    0.533788
  30 C :   -0.065694
  31 C :   -0.006828
  32 C :   -0.171070
  33 C :   -0.033270
  34 C :   -0.041673
  35 C :   -0.010334
  36 C :   -0.021999
  37 C :   -0.015138
  38 C :   -0.015980
  39 C :   -0.156129
  40 S :    0.518895
  41 C :   -0.043372
  42 C :   -0.037128
  43 C :   -0.152821
  44 C :   -0.009392
  45 C :    0.007493
  46 C :   -0.046391
  47 C :   -0.138599
  48 S :    0.464137
  49 C :   -0.206032
  50 C :   -0.034607
  51 C :   -0.062568
  52 C :   -0.160675
  53 S :    0.424282
  54 C :   -0.063023
  55 C :    0.043129
  56 C :   -0.052647
  57 C :    0.065521
  58 C :   -0.109906
  59 C :    0.083433
  60 O :   -0.156045
  61 C :   -0.046823
  62 C :    0.024991
  63 C :   -0.007918
  64 C :   -0.007328
  65 C :   -0.026034
  66 C :    0.061544
  67 C :    0.065336
  68 C :   -0.039358
  69 F :   -0.056624
  70 F :   -0.054465
  71 C :    0.018414
  72 C :   -0.015405
  73 C :    0.089988
  74 C :   -0.163140
  75 C :    0.009830
  76 N :   -0.086519
  77 C :    0.000765
  78 N :   -0.084254
  79 H :    0.041456
  80 H :    0.039641
  81 H :    0.033823
  82 H :    0.037118
  83 H :    0.037209
  84 H :    0.046121
  85 H :    0.027767
  86 H :    0.030111
  87 H :    0.032564
  88 H :    0.032963
  89 H :    0.028703
  90 H :    0.026522
  91 H :    0.028610
  92 H :    0.031490
  93 H :    0.031521
  94 H :    0.027880
  95 H :    0.027664
  96 H :    0.031447
  97 H :    0.039325
  98 H :    0.037548
  99 H :    0.032237
 100 H :    0.025130
 101 H :    0.035773
 102 H :    0.027264
 103 H :    0.041662
 104 H :    0.037463
 105 H :    0.043704
 106 H :    0.041724
 107 H :    0.038316

  Mayer bond orders larger than 0.100000
B(  0-C ,  1-C ) :   1.4386 B(  0-C ,  6-C ) :   1.2053 B(  0-C , 79-H ) :   1.0063
B(  1-C ,  2-F ) :   1.0832 B(  1-C ,  3-C ) :   1.2602 B(  3-C ,  4-C ) :   1.4536
B(  3-C , 80-H ) :   0.9939 B(  4-C ,  5-C ) :   1.2403 B(  4-C , 81-H ) :   0.9966
B(  5-C ,  6-C ) :   1.2628 B(  5-C , 10-C ) :   1.1795 B(  6-C ,  7-C ) :   1.1943
B(  7-C ,  8-C ) :   1.4725 B(  7-C , 82-H ) :   0.9942 B(  8-C ,  9-C ) :   1.2170
B(  8-C , 14-C ) :   0.9909 B(  9-C , 10-C ) :   1.4873 B(  9-C , 11-C ) :   0.9202
B( 10-C , 83-H ) :   1.0147 B( 11-C , 12-O ) :   2.2311 B( 11-C , 13-C ) :   0.9744
B( 13-C , 14-C ) :   1.1050 B( 13-C , 20-C ) :   1.4671 B( 14-C , 15-C ) :   1.5642
B( 15-C , 16-C ) :   1.1951 B( 15-C , 18-C ) :   1.1620 B( 16-C , 17-N ) :   2.9062
B( 18-C , 19-N ) :   2.8975 B( 20-C , 21-C ) :   1.3325 B( 20-C , 84-H ) :   0.9313
B( 21-C , 22-C ) :   1.2103 B( 21-C , 29-S ) :   1.0814 B( 22-C , 23-C ) :   1.2598
B( 22-C , 27-C ) :   1.2636 B( 23-C , 24-C ) :   1.2493 B( 23-C , 28-C ) :   1.2080
B( 24-C , 25-C ) :   1.5053 B( 24-C , 85-H ) :   0.9916 B( 25-C , 26-C ) :   1.2616
B( 25-C , 86-H ) :   0.9848 B( 26-C , 27-C ) :   1.4972 B( 26-C , 87-H ) :   0.9846
B( 27-C , 88-H ) :   0.9900 B( 28-C , 29-S ) :   1.2121 B( 28-C , 30-C ) :   1.2758
B( 30-C , 31-C ) :   1.5175 B( 30-C , 89-H ) :   0.9663 B( 31-C , 32-C ) :   1.2592
B( 31-C , 90-H ) :   0.9293 B( 32-C , 33-C ) :   1.2542 B( 32-C , 40-S ) :   1.1534
B( 33-C , 34-C ) :   1.2393 B( 33-C , 38-C ) :   1.2359 B( 34-C , 35-C ) :   1.2434
B( 34-C , 39-C ) :   1.2489 B( 35-C , 36-C ) :   1.5179 B( 35-C , 91-H ) :   0.9934
B( 36-C , 37-C ) :   1.2440 B( 36-C , 92-H ) :   0.9863 B( 37-C , 38-C ) :   1.5160
B( 37-C , 93-H ) :   0.9858 B( 38-C , 94-H ) :   0.9952 B( 39-C , 40-S ) :   1.1671
B( 39-C , 41-C ) :   1.2366 B( 41-C , 42-C ) :   1.5571 B( 41-C , 95-H ) :   0.9630
B( 42-C , 43-C ) :   1.2093 B( 42-C , 96-H ) :   0.9680 B( 43-C , 44-C ) :   1.4317
B( 43-C , 48-S ) :   1.0624 B( 44-C , 45-C ) :   1.2767 B( 44-C , 97-H ) :   0.9525
B( 45-C , 46-C ) :   1.0726 B( 45-C , 54-C ) :   1.3009 B( 46-C , 47-C ) :   1.5880
B( 46-C , 49-C ) :   1.1713 B( 47-C , 48-S ) :   1.1524 B( 47-C , 98-H ) :   0.9411
B( 49-C , 50-C ) :   1.4471 B( 49-C , 53-S ) :   1.0768 B( 50-C , 51-C ) :   1.2270
B( 50-C , 54-C ) :   1.0919 B( 51-C , 52-C ) :   1.5819 B( 51-C , 99-H ) :   0.9987
B( 52-C , 53-S ) :   1.1571 B( 52-C ,100-H ) :   0.9667 B( 54-C , 55-C ) :   1.2075
B( 55-C , 56-C ) :   1.5113 B( 55-C ,101-H ) :   0.9718 B( 56-C , 57-C ) :   1.2329
B( 56-C ,102-H ) :   0.9632 B( 57-C , 58-C ) :   1.4901 B( 57-C ,103-H ) :   0.9497
B( 58-C , 59-C ) :   0.9600 B( 58-C , 73-C ) :   1.0808 B( 59-C , 60-O ) :   2.2460
B( 59-C , 61-C ) :   0.9222 B( 61-C , 62-C ) :   1.4775 B( 61-C , 72-C ) :   1.2276
B( 62-C , 63-C ) :   1.1836 B( 62-C ,104-H ) :   1.0149 B( 63-C , 64-C ) :   1.2614
B( 63-C , 68-C ) :   1.1946 B( 64-C , 65-C ) :   1.1896 B( 64-C , 71-C ) :   1.2137
B( 65-C , 66-C ) :   1.4401 B( 65-C , 68-C ) :   0.1104 B( 65-C ,105-H ) :   0.9935
B( 66-C , 67-C ) :   1.1924 B( 66-C , 70-F ) :   1.1320 B( 67-C , 68-C ) :   1.4372
B( 67-C , 69-F ) :   1.1260 B( 68-C ,106-H ) :   1.0070 B( 71-C , 72-C ) :   1.4435
B( 71-C ,107-H ) :   0.9954 B( 72-C , 73-C ) :   0.9915 B( 73-C , 74-C ) :   1.5698
B( 74-C , 75-C ) :   1.2121 B( 74-C , 77-C ) :   1.1481 B( 75-C , 76-N ) :   2.7843
B( 76-N , 97-H ) :   0.1038 B( 77-C , 78-N ) :   2.9044

-----------------------------------------------------------------------------
         ABSORPTION SPECTRUM VIA TRANSITION ELECTRIC DIPOLE MOMENTS
-----------------------------------------------------------------------------
State   Energy  Wavelength   fosc         T2         TX        TY        TZ
        (cm-1)    (nm)                  (au**2)     (au)      (au)      (au)
-----------------------------------------------------------------------------
   0    7814.0   1279.7   0.246888028  10.40160  -2.98692   1.04012  -0.63092
   1   14056.9    711.4   0.801612075  18.77377   0.70872  -4.27415  -0.05578
   2   14770.5    677.0   0.319511487   7.12143  -0.20043   2.65777   0.13239
   3   18871.1    529.9   0.217130970   3.78791   1.86584   0.47720  -0.28075
   4   19803.4    505.0   0.569648160   9.46983   3.06759  -0.17046  -0.17508
   5   20082.8    497.9   0.807160336  13.23158   3.51285  -0.66792  -0.66733
   6   21557.8    463.9   0.010088583   0.15406   0.25253  -0.29383  -0.06287
   7   22716.9    440.2   0.020078049   0.29097  -0.09195  -0.40937  -0.33901
   8   23226.2    430.5   0.060560438   0.85839   0.14860  -0.91438   0.01469
   9   24308.4    411.4   0.008444118   0.11436   0.14704   0.28092  -0.11757
  10   24644.5    405.8   0.152870694   2.04211   0.97548  -1.03588   0.13231
  11   24967.7    400.5   0.114684681   1.51218   0.75152  -0.45097  -0.86257
  12   25182.9    397.1   0.055333671   0.72337  -0.07152  -0.82313   0.20178
  13   25573.1    391.0   0.001394338   0.01795  -0.09433  -0.02790   0.09096
  14   26120.8    382.8   0.045758005   0.57671  -0.39734  -0.34566  -0.54713
  15   26566.4    376.4   0.121082476   1.50046   0.12594  -1.16116   0.36918
  16   27298.9    366.3   0.038374030   0.46277   0.01881   0.59606  -0.32732
  17   27431.7    364.5   0.028715976   0.34462  -0.16842  -0.55402  -0.09653
  18   27656.1    361.6   0.018078813   0.21521  -0.23809   0.11679   0.38063
  19   27898.6    358.4   0.114653574   1.35295   0.61814  -0.72697  -0.66511
  20   28390.6    352.2   0.009902688   0.11483  -0.24747   0.21958   0.07329
  21   28983.6    345.0   0.050872282   0.57784   0.15902  -0.55517  -0.49430
  22   29112.2    343.5   0.084782381   0.95875  -0.95852  -0.09690   0.17496
  23   29354.1    340.7   0.097681823   1.09552   0.58902   0.70655  -0.49935
  24   30072.4    332.5   0.010243323   0.11214   0.30170   0.06463   0.13015
  25   30211.1    331.0   0.095335220   1.03887   0.65434  -0.77721  -0.08161
  26   30499.7    327.9   0.089939493   0.97080  -0.50060  -0.75819   0.38125
  27   30839.9    324.3   0.117794615   1.25744  -0.92807   0.23739   0.58290
  28   31139.4    321.1   0.058779638   0.62143  -0.13838   0.63068  -0.45224
  29   31297.6    319.5   0.065694111   0.69102  -0.70429  -0.43618  -0.06885
  30   31491.6    317.5   0.202030887   2.11202  -0.72393  -1.11799  -0.58142
  31   31703.7    315.4   0.039142032   0.40645   0.30527  -0.33801   0.44610
  32   32206.1    310.5   0.223189533   2.28145  -1.00031   0.13352   1.12383
  33   32272.0    309.9   0.313660803   3.19971  -0.08214   1.67512   0.62204
  34   32702.8    305.8   0.007963125   0.08016  -0.02850   0.11447   0.25739
  35   32789.2    305.0   0.118693805   1.19172  -0.68459  -0.59010   0.61224
  36   33229.7    300.9   0.087157465   0.86348   0.35685  -0.51155   0.68881
  37   33310.6    300.2   0.115579137   1.14228   1.02643  -0.01398  -0.29752
  38   33566.7    297.9   0.002001776   0.01963   0.06900  -0.12193   0.00242
  39   33769.7    296.1   0.182812716   1.78219   0.05103  -1.23880   0.49495
  40   33898.5    295.0   0.059772820   0.58050  -0.01702   0.01434  -0.76158
  41   34119.9    293.1   0.289225562   2.79064  -1.11308   0.76723   0.98135
  42   34399.9    290.7   0.189358901   1.81219   1.28238   0.40829  -0.03149
  43   34652.2    288.6   0.098495125   0.93575  -0.00610   0.02875   0.96690
  44   34780.8    287.5   0.140480592   1.32970  -0.76926  -0.85708   0.05792
  45   35271.1    283.5   0.061921525   0.57796   0.05122  -0.75754  -0.03824
  46   35392.3    282.5   0.102546605   0.95387   0.32734  -0.90372   0.17321
  47   35908.4    278.5   0.138692347   1.27155   0.22685   0.71998   0.83768
  48   36027.1    277.6   0.057248232   0.52313  -0.41752   0.26924   0.52566
  49   36044.6    277.4   0.028467960   0.26001  -0.48830   0.14669   0.00739
  50   36232.8    276.0   0.004669092   0.04242   0.20531   0.00628  -0.01523
  51   36563.5    273.5   0.080132019   0.72150   0.24498  -0.79713  -0.16143
  52   36873.3    271.2   0.044156406   0.39424  -0.37216   0.06778  -0.50114
  53   36947.3    270.7   0.022801874   0.20317   0.10459  -0.37476  -0.22758
  54   37243.6    268.5   0.054551414   0.48220  -0.26466  -0.37481   0.52123
  55   37394.9    267.4   0.037205437   0.32754  -0.25481   0.27589  -0.43186
  56   37631.1    265.7   0.032841889   0.28731   0.49886  -0.09304   0.17262
  57   37696.6    265.3   0.260534705   2.27530   0.56055  -0.82910   1.12857
  58   37932.9    263.6   0.043700983   0.37927  -0.13985  -0.59045   0.10527
  59   38130.9    262.3   0.196063948   1.69276   0.82333   0.98381  -0.21682
  60   38370.3    260.6   0.002939144   0.02522   0.01413  -0.15569  -0.02793
  61   38874.4    257.2   0.069074285   0.58496   0.66220  -0.36915  -0.10089
  62   39132.1    255.5   0.170922338   1.43794  -0.99358  -0.64848   0.17384
  63   39205.2    255.1   0.014030184   0.11781   0.08424   0.31117  -0.11787
  64   39316.2    254.3   0.051231356   0.42898   0.32842   0.43562   0.36243
  65   39366.0    254.0   0.003400751   0.02844  -0.10884  -0.09586  -0.08605
  66   39793.9    251.3   0.054786628   0.45325  -0.41493   0.36639   0.38319
  67   39969.1    250.2   0.052633962   0.43353  -0.59056  -0.27396   0.09856
  68   40188.6    248.8   0.049829115   0.40818  -0.61977  -0.15054   0.03755

FINAL SINGLE POINT ENERGY     -4789.614265087706

DIPOLE MOMENT
-------------
                                X             Y             Z
Electronic contribution:      9.60424      31.50012       7.31299
Nuclear contribution   :     -8.50558     -35.76901      -7.60032
                        -----------------------------------------
Total Dipole Moment    :      1.09866      -4.26889      -0.28733
                        -----------------------------------------
Magnitude (a.u.)       :      4.41735
Magnitude (Debye)      :     11.22802

Rotational constants in cm-1:     0.000840     0.000494     0.000393
Rotational constants in MHz :    25.171899    14.813978    11.794453

                             ****ORCA TERMINATED NORMALLY****
TOTAL RUN TIME: 0 days 0 hours 14 minutes 29 seconds 281 msec
