                         Program Version 4.2.0 -  RELEASE  -
|  1> # ORCA input file
|  2> # SCF done       -191.370352367667          0.000570023087
|  3> ! CAM-B3LYP def2-SVP def2/J RIJCOSX Grid4 TightSCF
|  4> %maxcore 5000
|  5> %tddft
|  6>     Mode sTDDFT
|  7>     Ethresh 5.0
|  8>     maxcore 5000
|  9> end
| 10>
| 11> %pal
| 12>   nprocs 6
| 13>   end
| 14> * xyz 0 1
| 15>    C       14.16977        -6.74411         1.75263
| 16>    C       15.42804        -7.13910         1.39180
| 17>    F       15.80644        -8.41182         1.59606
| 18>    C       16.35366        -6.26141         0.80920
| 19>    C       15.98771        -4.96288         0.59060
| 20>    C       14.70174        -4.50154         0.94151
| 21>    C       13.77610        -5.40901         1.53737
| 22>    C       12.48553        -4.96738         1.90916
| 23>    C       12.13474        -3.66290         1.68714
| 24>    C       13.05423        -2.76525         1.06803
| 25>    C       14.31041        -3.16500         0.70851
| 26>    C       12.41319        -1.45156         0.88540
| 27>    O       12.89091        -0.43549         0.43974
| 28>    C       10.99097        -1.65868         1.29748
| 29>    C       10.90791        -2.93729         1.98989
| 30>    C        9.97833        -3.29214         2.92439
| 31>    C        8.94493        -2.43218         3.35014
| 32>    N        8.13091        -1.73434         3.75927
| 33>    C       10.00974        -4.51018         3.63752
| 34>    N       10.00269        -5.48218         4.24569
| 35>    C       10.02638        -0.81354         0.87945
| 36>    C        8.60998        -1.08807         0.86458
| 37>    C        8.08836        -2.30031         0.45637
| 38>    C        8.78736        -3.49233        -0.06259
| 39>    O        8.53878        -4.59816         0.35646
| 40>    C        9.75842        -3.25640        -1.19488
| 41>    S        6.36942        -2.34242         0.59915
| 42>    C        6.34060        -0.73765         1.17229
| 43>    C        7.58842        -0.17403         1.28182
| 44>    C        7.81585         1.13002         1.84373
| 45>    C        6.86328         2.09717         2.08330
| 46>    C        7.40802         3.23349         2.68827
| 47>    C        8.78531         3.12274         2.91182
| 48>    S        9.40653         1.62449         2.38965
| 49>    C        9.24394         4.32759         3.52122
| 50>    C        8.14716         5.18076         3.69656
| 51>    C        6.95648         4.52652         3.18122
| 52>    C        5.68258         5.01401         3.17305
| 53>    C        4.60377         4.28495         2.63076
| 54>    N        3.72751         3.69517         2.18467
| 55>    C        5.36592         6.27828         3.71245
| 56>    N        5.11483         7.30283         4.16195
| 57>    C        8.49890         6.39702         4.29959
| 58>    C        9.84140         6.46259         4.57060
| 59>    S       10.70358         5.01438         4.07308
| 60>    C       10.59176         7.55925         5.14285
| 61>    C       10.34132         8.20305         6.33542
| 62>    C        9.39357         8.00221         7.43671
| 63>    O        9.30562         8.85221         8.29614
| 64>    C        8.61198         6.71790         7.48486
| 65>    S       11.47970         9.48632         6.62124
| 66>    C       12.31941         9.11102         5.19401
| 67>    C       11.75101         8.07883         4.48507
| 68>    C       12.18461         7.63725         3.18589
| 69>    C       13.44856         7.57009         2.71645
| 70>    C       13.70458         7.50912         1.24662
| 71>    O       12.89818         7.24778         0.38589
| 72>    C       15.11950         7.89365         1.09160
| 73>    C       15.82424         8.12753        -0.05458
| 74>    C       17.17866         8.51734         0.03575
| 75>    C       17.78113         8.66185         1.32034
| 76>    C       19.13068         9.05673         1.40182
| 77>    C       19.83250         9.28938         0.25171
| 78>    C       19.25850         9.15202        -1.02010
| 79>    C       17.94957         8.77072        -1.11774
| 80>    F       21.12054         9.66474         0.32722
| 81>    C       17.03045         8.40721         2.49118
| 82>    C       15.72082         8.02404         2.37834
| 83>    C       14.73151         7.67145         3.38969
| 84>    C       14.99514         7.26956         4.67022
| 85>    C       14.02150         6.68297         5.50560
| 86>    N       13.26895         6.14773         6.18697
| 87>    C       16.27868         7.30751         5.25342
| 88>    N       17.30362         7.33982         5.76765
| 89>    H       13.48444        -7.44532         2.20230
| 90>    H       17.33242        -6.63013         0.54640
| 91>    H       16.68308        -4.26878         0.14319
| 92>    H       11.79712        -5.67273         2.34698
| 93>    H       14.99637        -2.46931         0.24883
| 94>    H       10.35814         0.12131         0.43870
| 95>    H       10.06611        -2.21959        -1.27874
| 96>    H        9.24639        -3.54551        -2.11319
| 97>    H       10.62434        -3.90622        -1.08686
| 98>    H        5.40113        -0.28870         1.42387
| 99>    H        5.82860         1.98621         1.81857
|100>    H        7.81991         7.20576         4.49959
|101>    H        9.19825         5.88421         7.11034
|102>    H        7.71231         6.81759         6.88117
|103>    H        8.31050         6.53454         8.51335
|104>    H       13.16795         9.69859         4.89987
|105>    H       11.39997         7.41121         2.47026
|106>    H       15.35283         8.01730        -1.01964
|107>    H       19.60594         9.16946         2.36369
|108>    H       19.86152         9.35019        -1.89194
|109>    H       17.48564         8.65843        -2.08602
|110>    H       17.50616         8.53183         3.45133
|111> *
|112>
|113>                          ****END OF INPUT****

CARTESIAN COORDINATES (ANGSTROEM)
---------------------------------
  C     14.169770   -6.744110    1.752630
  C     15.428040   -7.139100    1.391800
  F     15.806440   -8.411820    1.596060
  C     16.353660   -6.261410    0.809200
  C     15.987710   -4.962880    0.590600
  C     14.701740   -4.501540    0.941510
  C     13.776100   -5.409010    1.537370
  C     12.485530   -4.967380    1.909160
  C     12.134740   -3.662900    1.687140
  C     13.054230   -2.765250    1.068030
  C     14.310410   -3.165000    0.708510
  C     12.413190   -1.451560    0.885400
  O     12.890910   -0.435490    0.439740
  C     10.990970   -1.658680    1.297480
  C     10.907910   -2.937290    1.989890
  C      9.978330   -3.292140    2.924390
  C      8.944930   -2.432180    3.350140
  N      8.130910   -1.734340    3.759270
  C     10.009740   -4.510180    3.637520
  N     10.002690   -5.482180    4.245690
  C     10.026380   -0.813540    0.879450
  C      8.609980   -1.088070    0.864580
  C      8.088360   -2.300310    0.456370
  C      8.787360   -3.492330   -0.062590
  O      8.538780   -4.598160    0.356460
  C      9.758420   -3.256400   -1.194880
  S      6.369420   -2.342420    0.599150
  C      6.340600   -0.737650    1.172290
  C      7.588420   -0.174030    1.281820
  C      7.815850    1.130020    1.843730
  C      6.863280    2.097170    2.083300
  C      7.408020    3.233490    2.688270
  C      8.785310    3.122740    2.911820
  S      9.406530    1.624490    2.389650
  C      9.243940    4.327590    3.521220
  C      8.147160    5.180760    3.696560
  C      6.956480    4.526520    3.181220
  C      5.682580    5.014010    3.173050
  C      4.603770    4.284950    2.630760
  N      3.727510    3.695170    2.184670
  C      5.365920    6.278280    3.712450
  N      5.114830    7.302830    4.161950
  C      8.498900    6.397020    4.299590
  C      9.841400    6.462590    4.570600
  S     10.703580    5.014380    4.073080
  C     10.591760    7.559250    5.142850
  C     10.341320    8.203050    6.335420
  C      9.393570    8.002210    7.436710
  O      9.305620    8.852210    8.296140
  C      8.611980    6.717900    7.484860
  S     11.479700    9.486320    6.621240
  C     12.319410    9.111020    5.194010
  C     11.751010    8.078830    4.485070
  C     12.184610    7.637250    3.185890
  C     13.448560    7.570090    2.716450
  C     13.704580    7.509120    1.246620
  O     12.898180    7.247780    0.385890
  C     15.119500    7.893650    1.091600
  C     15.824240    8.127530   -0.054580
  C     17.178660    8.517340    0.035750
  C     17.781130    8.661850    1.320340
  C     19.130680    9.056730    1.401820
  C     19.832500    9.289380    0.251710
  C     19.258500    9.152020   -1.020100
  C     17.949570    8.770720   -1.117740
  F     21.120540    9.664740    0.327220
  C     17.030450    8.407210    2.491180
  C     15.720820    8.024040    2.378340
  C     14.731510    7.671450    3.389690
  C     14.995140    7.269560    4.670220
  C     14.021500    6.682970    5.505600
  N     13.268950    6.147730    6.186970
  C     16.278680    7.307510    5.253420
  N     17.303620    7.339820    5.767650
  H     13.484440   -7.445320    2.202300
  H     17.332420   -6.630130    0.546400
  H     16.683080   -4.268780    0.143190
  H     11.797120   -5.672730    2.346980
  H     14.996370   -2.469310    0.248830
  H     10.358140    0.121310    0.438700
  H     10.066110   -2.219590   -1.278740
  H      9.246390   -3.545510   -2.113190
  H     10.624340   -3.906220   -1.086860
  H      5.401130   -0.288700    1.423870
  H      5.828600    1.986210    1.818570
  H      7.819910    7.205760    4.499590
  H      9.198250    5.884210    7.110340
  H      7.712310    6.817590    6.881170
  H      8.310500    6.534540    8.513350
  H     13.167950    9.698590    4.899870
  H     11.399970    7.411210    2.470260
  H     15.352830    8.017300   -1.019640
  H     19.605940    9.169460    2.363690
  H     19.861520    9.350190   -1.891940
  H     17.485640    8.658430   -2.086020
  H     17.506160    8.531830    3.451330

 Total Charge           Charge          ....    0
 Multiplicity           Mult            ....    1
 Number of Electrons    NEL             ....  526
 Basis Dimension        Dim             .... 1162

ORBITAL ENERGIES
----------------

  NO   OCC          E(Eh)            E(eV)
   0   2.0000     -88.992746     -2421.6157
   1   2.0000     -88.992662     -2421.6134
   2   2.0000     -88.982604     -2421.3398
   3   2.0000     -88.976512     -2421.1740
   4   2.0000     -24.793115      -674.6550
   5   2.0000     -24.792643      -674.6421
   6   2.0000     -19.228909      -523.2452
   7   2.0000     -19.223398      -523.0953
   8   2.0000     -19.221623      -523.0469
   9   2.0000     -19.206540      -522.6365
  10   2.0000     -14.431467      -392.7002
  11   2.0000     -14.431196      -392.6928
  12   2.0000     -14.425186      -392.5293
  13   2.0000     -14.424914      -392.5219
  14   2.0000     -14.423052      -392.4712
  15   2.0000     -14.422156      -392.4468
  16   2.0000     -10.380891      -282.4784
  17   2.0000     -10.379753      -282.4474
  18   2.0000     -10.377453      -282.3848
  19   2.0000     -10.377290      -282.3804
  20   2.0000     -10.374802      -282.3127
  21   2.0000     -10.366175      -282.0780
  22   2.0000     -10.364946      -282.0445
  23   2.0000     -10.355205      -281.7795
  24   2.0000     -10.354159      -281.7510
  25   2.0000     -10.352904      -281.7168
  26   2.0000     -10.351572      -281.6806
  27   2.0000     -10.349961      -281.6368
  28   2.0000     -10.334025      -281.2031
  29   2.0000     -10.331900      -281.1453
  30   2.0000     -10.331759      -281.1414
  31   2.0000     -10.330539      -281.1083
  32   2.0000     -10.329440      -281.0784
  33   2.0000     -10.327194      -281.0172
  34   2.0000     -10.327145      -281.0159
  35   2.0000     -10.326914      -281.0096
  36   2.0000     -10.326697      -281.0037
  37   2.0000     -10.325605      -280.9740
  38   2.0000     -10.324382      -280.9407
  39   2.0000     -10.323428      -280.9148
  40   2.0000     -10.321237      -280.8551
  41   2.0000     -10.320650      -280.8392
  42   2.0000     -10.316262      -280.7197
  43   2.0000     -10.315904      -280.7100
  44   2.0000     -10.315660      -280.7034
  45   2.0000     -10.315411      -280.6966
  46   2.0000     -10.315408      -280.6965
  47   2.0000     -10.314953      -280.6841
  48   2.0000     -10.314799      -280.6799
  49   2.0000     -10.314618      -280.6750
  50   2.0000     -10.311556      -280.5917
  51   2.0000     -10.310974      -280.5759
  52   2.0000     -10.310673      -280.5677
  53   2.0000     -10.310134      -280.5530
  54   2.0000     -10.309779      -280.5433
  55   2.0000     -10.308828      -280.5175
  56   2.0000     -10.307796      -280.4894
  57   2.0000     -10.306961      -280.4667
  58   2.0000     -10.306790      -280.4620
  59   2.0000     -10.306092      -280.4430
  60   2.0000     -10.305631      -280.4305
  61   2.0000     -10.305426      -280.4249
  62   2.0000     -10.303703      -280.3780
  63   2.0000     -10.303068      -280.3607
  64   2.0000     -10.302479      -280.3447
  65   2.0000     -10.302196      -280.3370
  66   2.0000     -10.302132      -280.3353
  67   2.0000     -10.300922      -280.3023
  68   2.0000     -10.299601      -280.2664
  69   2.0000     -10.299196      -280.2554
  70   2.0000     -10.296747      -280.1887
  71   2.0000     -10.296159      -280.1727
  72   2.0000     -10.282951      -279.8133
  73   2.0000     -10.267214      -279.3851
  74   2.0000      -8.086570      -220.0468
  75   2.0000      -8.086438      -220.0432
  76   2.0000      -8.078119      -219.8168
  77   2.0000      -8.071851      -219.6462
  78   2.0000      -6.055749      -164.7853
  79   2.0000      -6.055700      -164.7840
  80   2.0000      -6.051474      -164.6690
  81   2.0000      -6.051392      -164.6667
  82   2.0000      -6.049223      -164.6077
  83   2.0000      -6.049084      -164.6040
  84   2.0000      -6.047248      -164.5540
  85   2.0000      -6.042825      -164.4336
  86   2.0000      -6.040962      -164.3829
  87   2.0000      -6.040788      -164.3782
  88   2.0000      -6.036430      -164.2596
  89   2.0000      -6.034642      -164.2109
  90   2.0000      -1.308579       -35.6083
  91   2.0000      -1.308192       -35.5977
  92   2.0000      -1.144206       -31.1354
  93   2.0000      -1.141303       -31.0564
  94   2.0000      -1.138913       -30.9914
  95   2.0000      -1.127438       -30.6792
  96   2.0000      -1.045876       -28.4597
  97   2.0000      -1.029980       -28.0272
  98   2.0000      -1.029528       -28.0149
  99   2.0000      -1.023369       -27.8473
 100   2.0000      -1.015923       -27.6447
 101   2.0000      -1.010453       -27.4958
 102   2.0000      -1.009445       -27.4684
 103   2.0000      -1.009013       -27.4566
 104   2.0000      -1.008791       -27.4506
 105   2.0000      -1.002560       -27.2810
 106   2.0000      -0.999681       -27.2027
 107   2.0000      -0.991451       -26.9788
 108   2.0000      -0.985565       -26.8186
 109   2.0000      -0.984618       -26.7928
 110   2.0000      -0.958921       -26.0936
 111   2.0000      -0.939185       -25.5565
 112   2.0000      -0.937490       -25.5104
 113   2.0000      -0.920032       -25.0353
 114   2.0000      -0.917719       -24.9724
 115   2.0000      -0.914494       -24.8846
 116   2.0000      -0.897888       -24.4328
 117   2.0000      -0.896803       -24.4033
 118   2.0000      -0.891207       -24.2510
 119   2.0000      -0.889624       -24.2079
 120   2.0000      -0.881521       -23.9874
 121   2.0000      -0.876300       -23.8453
 122   2.0000      -0.858872       -23.3711
 123   2.0000      -0.856187       -23.2980
 124   2.0000      -0.850528       -23.1441
 125   2.0000      -0.848358       -23.0850
 126   2.0000      -0.842693       -22.9308
 127   2.0000      -0.841501       -22.8984
 128   2.0000      -0.830295       -22.5935
 129   2.0000      -0.821320       -22.3493
 130   2.0000      -0.798220       -21.7207
 131   2.0000      -0.796289       -21.6681
 132   2.0000      -0.784027       -21.3345
 133   2.0000      -0.778021       -21.1710
 134   2.0000      -0.770925       -20.9779
 135   2.0000      -0.769460       -20.9381
 136   2.0000      -0.740523       -20.1507
 137   2.0000      -0.736262       -20.0347
 138   2.0000      -0.730352       -19.8739
 139   2.0000      -0.718208       -19.5434
 140   2.0000      -0.717989       -19.5375
 141   2.0000      -0.715893       -19.4805
 142   2.0000      -0.710774       -19.3412
 143   2.0000      -0.708601       -19.2820
 144   2.0000      -0.701799       -19.0969
 145   2.0000      -0.699594       -19.0369
 146   2.0000      -0.689627       -18.7657
 147   2.0000      -0.689153       -18.7528
 148   2.0000      -0.679365       -18.4865
 149   2.0000      -0.671903       -18.2834
 150   2.0000      -0.666133       -18.1264
 151   2.0000      -0.660726       -17.9793
 152   2.0000      -0.644473       -17.5370
 153   2.0000      -0.644044       -17.5253
 154   2.0000      -0.637727       -17.3534
 155   2.0000      -0.637100       -17.3364
 156   2.0000      -0.636768       -17.3273
 157   2.0000      -0.624893       -17.0042
 158   2.0000      -0.619907       -16.8685
 159   2.0000      -0.615264       -16.7422
 160   2.0000      -0.611976       -16.6527
 161   2.0000      -0.608903       -16.5691
 162   2.0000      -0.606752       -16.5106
 163   2.0000      -0.599022       -16.3002
 164   2.0000      -0.587223       -15.9791
 165   2.0000      -0.583851       -15.8874
 166   2.0000      -0.578843       -15.7511
 167   2.0000      -0.576628       -15.6908
 168   2.0000      -0.571407       -15.5488
 169   2.0000      -0.566951       -15.4275
 170   2.0000      -0.565910       -15.3992
 171   2.0000      -0.565514       -15.3884
 172   2.0000      -0.565360       -15.3842
 173   2.0000      -0.564665       -15.3653
 174   2.0000      -0.557142       -15.1606
 175   2.0000      -0.555469       -15.1151
 176   2.0000      -0.554764       -15.0959
 177   2.0000      -0.549940       -14.9646
 178   2.0000      -0.548230       -14.9181
 179   2.0000      -0.543092       -14.7783
 180   2.0000      -0.542063       -14.7503
 181   2.0000      -0.538991       -14.6667
 182   2.0000      -0.533010       -14.5039
 183   2.0000      -0.532438       -14.4884
 184   2.0000      -0.531713       -14.4687
 185   2.0000      -0.531506       -14.4630
 186   2.0000      -0.530701       -14.4411
 187   2.0000      -0.528437       -14.3795
 188   2.0000      -0.526547       -14.3281
 189   2.0000      -0.524113       -14.2618
 190   2.0000      -0.521706       -14.1963
 191   2.0000      -0.518755       -14.1160
 192   2.0000      -0.516011       -14.0414
 193   2.0000      -0.512192       -13.9374
 194   2.0000      -0.508069       -13.8253
 195   2.0000      -0.506503       -13.7827
 196   2.0000      -0.503669       -13.7055
 197   2.0000      -0.502048       -13.6614
 198   2.0000      -0.500625       -13.6227
 199   2.0000      -0.498595       -13.5675
 200   2.0000      -0.495664       -13.4877
 201   2.0000      -0.494770       -13.4634
 202   2.0000      -0.491815       -13.3830
 203   2.0000      -0.489357       -13.3161
 204   2.0000      -0.487435       -13.2638
 205   2.0000      -0.484763       -13.1911
 206   2.0000      -0.483858       -13.1664
 207   2.0000      -0.479837       -13.0570
 208   2.0000      -0.478793       -13.0286
 209   2.0000      -0.474613       -12.9149
 210   2.0000      -0.471938       -12.8421
 211   2.0000      -0.466385       -12.6910
 212   2.0000      -0.465411       -12.6645
 213   2.0000      -0.465179       -12.6582
 214   2.0000      -0.462769       -12.5926
 215   2.0000      -0.460461       -12.5298
 216   2.0000      -0.460363       -12.5271
 217   2.0000      -0.458875       -12.4866
 218   2.0000      -0.456854       -12.4316
 219   2.0000      -0.455952       -12.4071
 220   2.0000      -0.452364       -12.3095
 221   2.0000      -0.449577       -12.2336
 222   2.0000      -0.447971       -12.1899
 223   2.0000      -0.446055       -12.1378
 224   2.0000      -0.445007       -12.1093
 225   2.0000      -0.443117       -12.0578
 226   2.0000      -0.441901       -12.0247
 227   2.0000      -0.441051       -12.0016
 228   2.0000      -0.440148       -11.9770
 229   2.0000      -0.439458       -11.9583
 230   2.0000      -0.437078       -11.8935
 231   2.0000      -0.436573       -11.8798
 232   2.0000      -0.436508       -11.8780
 233   2.0000      -0.434034       -11.8107
 234   2.0000      -0.431754       -11.7486
 235   2.0000      -0.427819       -11.6416
 236   2.0000      -0.427605       -11.6357
 237   2.0000      -0.426984       -11.6188
 238   2.0000      -0.419667       -11.4197
 239   2.0000      -0.419040       -11.4027
 240   2.0000      -0.412507       -11.2249
 241   2.0000      -0.404857       -11.0167
 242   2.0000      -0.403844       -10.9891
 243   2.0000      -0.389507       -10.5990
 244   2.0000      -0.389298       -10.5933
 245   2.0000      -0.385114       -10.4795
 246   2.0000      -0.368874       -10.0376
 247   2.0000      -0.367079        -9.9887
 248   2.0000      -0.351570        -9.5667
 249   2.0000      -0.347959        -9.4685
 250   2.0000      -0.345448        -9.4001
 251   2.0000      -0.344190        -9.3659
 252   2.0000      -0.343042        -9.3346
 253   2.0000      -0.333934        -9.0868
 254   2.0000      -0.326246        -8.8776
 255   2.0000      -0.324703        -8.8356
 256   2.0000      -0.323347        -8.7987
 257   2.0000      -0.318277        -8.6608
 258   2.0000      -0.316486        -8.6120
 259   2.0000      -0.311193        -8.4680
 260   2.0000      -0.304037        -8.2733
 261   2.0000      -0.301562        -8.2059
 262   2.0000      -0.264515        -7.1978
 263   0.0000      -0.104954        -2.8559
 264   0.0000      -0.099616        -2.7107
 265   0.0000      -0.096380        -2.6226
 266   0.0000      -0.066878        -1.8198
 267   0.0000      -0.062030        -1.6879

MULLIKEN ATOMIC CHARGES
-----------------------
   0 C :   -0.094316
   1 C :    0.303726
   2 F :   -0.185947
   3 C :   -0.026225
   4 C :   -0.008342
   5 C :    0.100098
   6 C :    0.098648
   7 C :   -0.075899
   8 C :    0.030859
   9 C :    0.005516
  10 C :   -0.081202
  11 C :    0.152220
  12 O :   -0.132358
  13 C :   -0.152360
  14 C :    0.273201
  15 C :   -0.294865
  16 C :   -0.182028
  17 N :    0.175285
  18 C :   -0.181991
  19 N :    0.169657
  20 C :   -0.031312
  21 C :    0.060773
  22 C :   -0.222499
  23 C :   -0.003897
  24 O :   -0.175245
  25 C :    0.074385
  26 S :    0.214538
  27 C :   -0.118593
  28 C :    0.163658
  29 C :   -0.078502
  30 C :   -0.043422
  31 C :    0.022145
  32 C :   -0.084643
  33 S :    0.159569
  34 C :   -0.089768
  35 C :   -0.009822
  36 C :    0.299159
  37 C :   -0.298630
  38 C :   -0.184117
  39 N :    0.169279
  40 C :   -0.191570
  41 N :    0.174761
  42 C :    0.017668
  43 C :   -0.237565
  44 S :    0.225973
  45 C :    0.214453
  46 C :   -0.212347
  47 C :    0.014294
  48 O :   -0.183540
  49 C :    0.060404
  50 S :    0.214872
  51 C :   -0.087603
  52 C :   -0.003060
  53 C :    0.005109
  54 C :   -0.109069
  55 C :    0.143607
  56 O :   -0.136790
  57 C :    0.006158
  58 C :   -0.079214
  59 C :    0.100735
  60 C :    0.103711
  61 C :   -0.098323
  62 C :    0.305260
  63 C :   -0.027136
  64 C :   -0.008852
  65 F :   -0.186945
  66 C :   -0.086933
  67 C :    0.042824
  68 C :    0.256976
  69 C :   -0.331823
  70 C :   -0.175572
  71 N :    0.163480
  72 C :   -0.177503
  73 N :    0.159943
  74 H :    0.001965
  75 H :    0.006273
  76 H :   -0.006582
  77 H :    0.005141
  78 H :   -0.009089
  79 H :    0.040691
  80 H :    0.030797
  81 H :    0.053346
  82 H :    0.036193
  83 H :    0.038865
  84 H :   -0.001245
  85 H :    0.012777
  86 H :    0.046125
  87 H :    0.047761
  88 H :    0.036441
  89 H :    0.040039
  90 H :    0.041645
  91 H :   -0.009223
  92 H :   -0.001459
  93 H :    0.006091
  94 H :   -0.006931
  95 H :   -0.002740
Sum of atomic charges:   -0.0000000

LOEWDIN ATOMIC CHARGES
----------------------
   0 C :   -0.040022
   1 C :    0.095491
   2 F :   -0.060718
   3 C :   -0.033822
   4 C :    0.005540
   5 C :   -0.018401
   6 C :    0.005233
   7 C :    0.016920
   8 C :   -0.018009
   9 C :   -0.064568
  10 C :    0.037656
  11 C :    0.083490
  12 O :   -0.135374
  13 C :   -0.069545
  14 C :    0.057471
  15 C :   -0.110191
  16 C :   -0.015075
  17 N :   -0.039050
  18 C :   -0.014789
  19 N :   -0.036870
  20 C :    0.036459
  21 C :   -0.064703
  22 C :   -0.205912
  23 C :    0.053891
  24 O :   -0.137888
  25 C :   -0.074876
  26 S :    0.520811
  27 C :   -0.159707
  28 C :   -0.062596
  29 C :   -0.153960
  30 C :   -0.026753
  31 C :   -0.065353
  32 C :   -0.188306
  33 S :    0.507456
  34 C :   -0.174630
  35 C :   -0.077798
  36 C :    0.084065
  37 C :   -0.104103
  38 C :   -0.015563
  39 N :   -0.034900
  40 C :   -0.016636
  41 N :   -0.033705
  42 C :   -0.021424
  43 C :   -0.174079
  44 S :    0.512008
  45 C :   -0.044929
  46 C :   -0.204824
  47 C :    0.061044
  48 O :   -0.153242
  49 C :   -0.072350
  50 S :    0.532014
  51 C :   -0.150343
  52 C :   -0.084753
  53 C :    0.063405
  54 C :   -0.087022
  55 C :    0.083983
  56 O :   -0.138086
  57 C :   -0.060802
  58 C :    0.037046
  59 C :   -0.017529
  60 C :    0.003857
  61 C :   -0.041397
  62 C :    0.094458
  63 C :   -0.034211
  64 C :    0.005740
  65 F :   -0.061719
  66 C :    0.013125
  67 C :   -0.019505
  68 C :    0.067673
  69 C :   -0.132637
  70 C :   -0.014626
  71 N :   -0.050236
  72 C :   -0.020417
  73 N :   -0.044974
  74 H :    0.045065
  75 H :    0.043137
  76 H :    0.036591
  77 H :    0.042857
  78 H :    0.040673
  79 H :    0.039793
  80 H :    0.032610
  81 H :    0.056434
  82 H :    0.043186
  83 H :    0.030937
  84 H :    0.038440
  85 H :    0.041182
  86 H :    0.039994
  87 H :    0.048580
  88 H :    0.044688
  89 H :    0.028649
  90 H :    0.047269
  91 H :    0.040823
  92 H :    0.043738
  93 H :    0.043046
  94 H :    0.036639
  95 H :    0.039766

  Mayer bond orders larger than 0.100000
B(  0-C ,  1-C ) :   1.4412 B(  0-C ,  6-C ) :   1.2041 B(  0-C , 74-H ) :   1.0056
B(  1-C ,  2-F ) :   1.0934 B(  1-C ,  3-C ) :   1.2519 B(  3-C ,  4-C ) :   1.4655
B(  3-C , 75-H ) :   0.9924 B(  4-C ,  5-C ) :   1.2312 B(  4-C , 76-H ) :   0.9962
B(  5-C ,  6-C ) :   1.2493 B(  5-C , 10-C ) :   1.2021 B(  6-C ,  7-C ) :   1.2046
B(  7-C ,  8-C ) :   1.4625 B(  7-C , 77-H ) :   0.9953 B(  8-C ,  9-C ) :   1.2166
B(  8-C , 14-C ) :   0.9949 B(  9-C , 10-C ) :   1.4582 B(  9-C , 11-C ) :   0.9171
B( 10-C , 78-H ) :   1.0143 B( 11-C , 12-O ) :   2.2908 B( 11-C , 13-C ) :   0.9210
B( 13-C , 14-C ) :   1.0006 B( 13-C , 20-C ) :   1.7750 B( 14-C , 15-C ) :   1.6990
B( 15-C , 16-C ) :   1.1671 B( 15-C , 18-C ) :   1.1306 B( 16-C , 17-N ) :   2.9945
B( 18-C , 19-N ) :   2.9947 B( 20-C , 21-C ) :   1.0140 B( 20-C , 79-H ) :   0.9144
B( 21-C , 22-C ) :   1.5116 B( 21-C , 28-C ) :   1.2362 B( 22-C , 23-C ) :   0.9230
B( 22-C , 26-S ) :   1.1875 B( 23-C , 24-O ) :   2.1989 B( 23-C , 25-C ) :   1.0402
B( 25-C , 80-H ) :   0.9539 B( 25-C , 81-H ) :   0.9349 B( 25-C , 82-H ) :   0.9414
B( 26-S , 27-C ) :   1.1879 B( 27-C , 28-C ) :   1.5377 B( 27-C , 83-H ) :   0.9566
B( 28-C , 29-C ) :   1.0545 B( 29-C , 30-C ) :   1.4963 B( 29-C , 33-S ) :   1.1126
B( 30-C , 31-C ) :   1.2764 B( 30-C , 84-H ) :   0.9953 B( 31-C , 32-C ) :   1.4575
B( 31-C , 36-C ) :   0.9867 B( 32-C , 33-S ) :   1.1260 B( 32-C , 34-C ) :   1.1594
B( 34-C , 35-C ) :   1.4539 B( 34-C , 44-S ) :   1.1295 B( 35-C , 36-C ) :   0.9942
B( 35-C , 42-C ) :   1.2714 B( 36-C , 37-C ) :   1.7149 B( 37-C , 38-C ) :   1.1318
B( 37-C , 40-C ) :   1.1359 B( 38-C , 39-N ) :   2.9893 B( 40-C , 41-N ) :   2.9896
B( 42-C , 43-C ) :   1.5153 B( 42-C , 85-H ) :   0.9957 B( 43-C , 44-S ) :   1.1179
B( 43-C , 45-C ) :   0.9852 B( 45-C , 46-C ) :   1.5117 B( 45-C , 52-C ) :   1.2709
B( 46-C , 47-C ) :   0.9461 B( 46-C , 50-S ) :   1.1465 B( 47-C , 48-O ) :   2.1888
B( 47-C , 49-C ) :   1.0862 B( 49-C , 86-H ) :   0.9477 B( 49-C , 87-H ) :   0.9280
B( 49-C , 88-H ) :   0.9388 B( 50-S , 51-C ) :   1.2343 B( 51-C , 52-C ) :   1.4844
B( 51-C , 89-H ) :   0.9658 B( 52-C , 53-C ) :   1.0170 B( 53-C , 54-C ) :   1.7261
B( 53-C , 90-H ) :   0.9360 B( 54-C , 55-C ) :   0.9286 B( 54-C , 68-C ) :   1.0162
B( 55-C , 56-O ) :   2.2823 B( 55-C , 57-C ) :   0.9163 B( 57-C , 58-C ) :   1.4655
B( 57-C , 67-C ) :   1.2177 B( 58-C , 59-C ) :   1.1938 B( 58-C , 91-H ) :   1.0167
B( 59-C , 60-C ) :   1.2548 B( 59-C , 64-C ) :   1.2328 B( 60-C , 61-C ) :   1.1985
B( 60-C , 66-C ) :   1.2059 B( 61-C , 62-C ) :   1.4417 B( 61-C , 92-H ) :   1.0078
B( 62-C , 63-C ) :   1.2526 B( 62-C , 65-F ) :   1.0926 B( 63-C , 64-C ) :   1.4617
B( 63-C , 93-H ) :   0.9933 B( 64-C , 94-H ) :   0.9982 B( 66-C , 67-C ) :   1.4538
B( 66-C , 95-H ) :   0.9963 B( 67-C , 68-C ) :   1.0016 B( 68-C , 69-C ) :   1.6772
B( 69-C , 70-C ) :   1.1653 B( 69-C , 72-C ) :   1.1280 B( 70-C , 71-N ) :   2.9841
B( 72-C , 73-N ) :   2.9899

-----------------------------------------------------------------------------
         ABSORPTION SPECTRUM VIA TRANSITION ELECTRIC DIPOLE MOMENTS
-----------------------------------------------------------------------------
State   Energy  Wavelength   fosc         T2         TX        TY        TZ
        (cm-1)    (nm)                  (au**2)     (au)      (au)      (au)
-----------------------------------------------------------------------------
   0   14709.9    679.8   0.057411208   1.28488   0.21981   1.00973   0.46584
   1   19772.1    505.8   0.077749294   1.29455  -0.47254   1.02286   0.15820
   2   21921.9    456.2   0.066674326   1.00128  -0.90678  -0.41139   0.09893
   3   25605.6    390.5   0.166244490   2.13741   1.39755  -0.31772  -0.28865
   4   26539.3    376.8   0.060531671   0.75088  -0.43273   0.46901  -0.58622
   5   27822.5    359.4   0.054355059   0.64316  -0.60924  -0.48317   0.19632
   6   27903.5    358.4   0.105980288   1.25038   0.72391  -0.83712   0.15988
   7   28367.5    352.5   0.039207720   0.45502  -0.33462   0.44106   0.38537
   8   28625.7    349.3   0.033150683   0.38125  -0.52872   0.18102   0.26256
   9   28876.4    346.3   0.016121454   0.18380   0.27539   0.14283  -0.29590
  10   29109.6    343.5   0.059514016   0.67307  -0.38284  -0.71078  -0.14592
  11   29240.2    342.0   0.042844956   0.48239  -0.11717  -0.12084   0.67384
  12   30047.2    332.8   0.038550055   0.42237   0.24845  -0.58759  -0.12403
  13   30404.3    328.9   0.108045890   1.16990   0.03600  -0.80861  -0.71746
  14   30585.8    326.9   0.456280757   4.91120  -1.03752  -1.89426  -0.49653
  15   30802.1    324.7   0.017835817   0.19063   0.42415  -0.06241   0.08265
  16   30888.2    323.7   0.014327750   0.15271  -0.35039  -0.07120   0.15768
  17   31065.2    321.9   0.157614579   1.67031  -0.19771  -0.92254  -0.88326
  18   31829.1    314.2   0.816974734   8.45007   2.85675  -0.52867  -0.09777
  19   32664.8    306.1   0.077384321   0.77992  -0.00301   0.86950   0.15450
  20   32892.3    304.0   0.064208485   0.64265   0.73598   0.31104   0.06508
  21   32980.1    303.2   0.298097043   2.97565  -1.25679   1.17827   0.08840
  22   33318.1    300.1   0.491131678   4.85281   0.66882  -2.02241  -0.56157
  23   33423.3    299.2   0.098507389   0.97028  -0.05134  -0.39024   0.90297
  24   33918.9    294.8   0.654381609   6.35132  -2.32854   0.41425   0.87042
  25   34200.2    292.4   0.030054653   0.28931  -0.26025   0.22522   0.41334
  26   34269.4    291.8   0.354810112   3.40851   1.29147  -0.26355  -1.29273
  27   34366.7    291.0   0.705459366   6.75787  -1.05322   0.03948   2.37635
  28   34521.9    289.7   0.033907237   0.32335  -0.43065  -0.32004   0.18833
  29   34631.0    288.8   0.055867436   0.53109  -0.68100   0.25025   0.06855
  30   34842.5    287.0   0.353254989   3.33776  -1.68783  -0.12175   0.68860
  31   35013.0    285.6   0.123351107   1.15982   0.50441  -0.58119   0.75339
  32   35065.8    285.2   0.021439916   0.20129  -0.41135   0.17520  -0.03719
  33   35330.5    283.0   0.030780631   0.28682  -0.19877  -0.47522  -0.14654
  34   35528.4    281.5   0.105205929   0.97486  -0.75585  -0.61632   0.15394
  35   35744.9    279.8   0.060881613   0.56072   0.59024   0.34626   0.30405
  36   36069.8    277.2   0.094158720   0.85940   0.40373   0.54069  -0.63565
  37   36323.8    275.3   0.004060382   0.03680   0.03863   0.18234   0.04537
  38   36406.7    274.7   0.022734481   0.20558  -0.26721   0.01378  -0.36605
  39   36482.9    274.1   0.014412080   0.13005   0.19836   0.29633  -0.05377
  40   36607.9    273.2   0.016505676   0.14843   0.25604   0.28767   0.01119
  41   36724.0    272.3   0.053328754   0.47807   0.52283   0.45123  -0.03326
  42   37433.7    267.1   0.403383960   3.54757  -0.64001  -1.64146  -0.66601
  43   37603.4    265.9   0.090875953   0.79561  -0.11275   0.21269   0.85887
  44   37630.1    265.7   0.001589372   0.01390   0.05819   0.10213   0.00936
  45   38644.2    258.8   0.022997225   0.19591  -0.07786  -0.08725  -0.42689
  46   38868.3    257.3   0.002788761   0.02362   0.05029   0.13664   0.04919
  47   39038.4    256.2   0.057780513   0.48726  -0.57978  -0.29831  -0.24926
  48   39359.7    254.1   0.055868340   0.46729  -0.13179  -0.57559  -0.34442
  49   39434.6    253.6   0.090230528   0.75327  -0.29368   0.59500  -0.55946
  50   39505.4    253.1   0.036882623   0.30736  -0.35435  -0.42621   0.01156
  51   39710.2    251.8   0.115824493   0.96023   0.21185   0.91678   0.27360
  52   39793.0    251.3   0.009977132   0.08254  -0.06593  -0.24970  -0.12588
  53   40108.5    249.3   0.109165002   0.89603   0.11417  -0.70028   0.62658
  54   40212.0    248.7   0.059045611   0.48340  -0.44951   0.51423  -0.13003
  55   40294.9    248.2   0.109252363   0.89260  -0.90241   0.02616   0.27850

FINAL SINGLE POINT ENERGY     -4640.841165829147

DIPOLE MOMENT
-------------
                                X             Y             Z
Electronic contribution:     -1.06932       3.41608       9.30073
Nuclear contribution   :      4.03369      -3.47555     -13.17381
                        -----------------------------------------
Total Dipole Moment    :      2.96437      -0.05947      -3.87307
                        -----------------------------------------
Magnitude (a.u.)       :      4.87768
Magnitude (Debye)      :     12.39806

Rotational constants in cm-1:     0.000879     0.000470     0.000347
Rotational constants in MHz :    26.346119    14.092442    10.410108

                             ****ORCA TERMINATED NORMALLY****
TOTAL RUN TIME: 0 days 0 hours 10 minutes 41 seconds 357 msec
