                         Program Version 4.2.0 -  RELEASE  -
|  1> # ORCA input file
|  2> # SCF done       -187.704494929776          0.000564178318
|  3> ! CAM-B3LYP def2-SVP def2/J RIJCOSX Grid4 TightSCF
|  4> %maxcore 5000
|  5> %tddft
|  6>     Mode sTDDFT
|  7>     Ethresh 5.0
|  8>     maxcore 5000
|  9> end
| 10>
| 11> %pal
| 12>   nprocs 6
| 13>   end
| 14> * xyz 0 1
| 15>    C       -0.10800        -1.77739        -1.31639
| 16>    C       -1.39492        -1.47982        -1.66860
| 17>    F       -2.29935        -2.47114        -1.77246
| 18>    C       -1.81931        -0.17003        -1.93027
| 19>    C       -0.91506         0.85043        -1.82970
| 20>    C        0.42482         0.60039        -1.46952
| 21>    C        0.83675        -0.73835        -1.20719
| 22>    C        2.17431        -1.01469        -0.83885
| 23>    C        3.07162         0.01437        -0.73648
| 24>    C        2.65422         1.34836        -1.01156
| 25>    C        1.36998         1.64503        -1.36532
| 26>    C        3.80718         2.25481        -0.86836
| 27>    O        3.83259         3.45801        -1.00916
| 28>    C        4.96514         1.37765        -0.55598
| 29>    C        4.48307         0.03219        -0.34894
| 30>    C        5.15404        -1.01874         0.22138
| 31>    C        6.41870        -0.94803         0.83625
| 32>    N        7.40951        -0.98131         1.41554
| 33>    C        4.61687        -2.31602         0.35854
| 34>    N        4.24988        -3.39681         0.48409
| 35>    C        6.21871         1.91130        -0.64914
| 36>    C        7.44103         1.28568        -0.63858
| 37>    C        8.56308         0.80780        -0.67731
| 38>    C        9.82383         0.25860        -0.69961
| 39>    S       11.21936         1.23789        -1.08697
| 40>    C       12.26624        -0.13702        -0.88170
| 41>    C       11.55305        -1.27219        -0.53250
| 42>    C       10.18642        -1.05062        -0.42921
| 43>    C       13.63275        -0.01453        -1.05597
| 44>    C       14.82986         0.13014        -1.20994
| 45>    C       16.19867         0.29012        -1.37772
| 46>    C       16.76146         1.50138        -1.60398
| 47>    C       18.12537         1.69622        -1.77042
| 48>    C       19.32039         1.86262        -1.91653
| 49>    C       20.67178         2.10889        -2.08329
| 50>    S       21.26121         3.74362        -2.24707
| 51>    C       22.89861         3.16077        -2.40163
| 52>    C       22.95197         1.78300        -2.32832
| 53>    C       21.70288         1.19297        -2.14792
| 54>    C       23.94837         4.04595        -2.57462
| 55>    C       24.83843         4.85983        -2.72429
| 56>    C       25.86738         5.77535        -2.89864
| 57>    C       27.15362         5.41420        -3.12034
| 58>    C       28.17205         6.34052        -3.30125
| 59>    C       29.07520         7.13658        -3.46803
| 60>    C       30.09157         8.05516        -3.66148
| 61>    S       29.80368         9.76493        -3.49585
| 62>    C       31.47053        10.10495        -3.89146
| 63>    C       32.17879         8.94016        -4.13174
| 64>    C       31.40710         7.79181        -4.00088
| 65>    C       31.94305        11.39944        -3.94054
| 66>    C       32.34519        12.54847        -3.98445
| 67>    C       32.83356        13.83730        -4.05623
| 68>    C       32.09155        14.94152        -3.76268
| 69>    C       32.63665        16.23849        -3.83802
| 70>    C       32.01254        17.43557        -3.62794
| 71>    C       32.83708        18.64095        -3.35252
| 72>    O       34.02974        18.75855        -3.52759
| 73>    C       31.90511        19.62599        -2.77043
| 74>    C       32.17412        20.85615        -2.24456
| 75>    C       31.11705        21.61931        -1.69996
| 76>    C       29.79609        21.08445        -1.70637
| 77>    C       28.74848        21.84554        -1.15231
| 78>    C       29.01970        23.07753        -0.62560
| 79>    C       30.31093        23.62193        -0.61231
| 80>    C       31.33981        22.89588        -1.14463
| 81>    F       28.01965        23.80630        -0.09579
| 82>    C       29.54566        19.80947        -2.26620
| 83>    C       30.58382        19.09362        -2.79752
| 84>    C       30.62252        17.79194        -3.46372
| 85>    C       29.53733        17.15771        -4.01308
| 86>    C       29.61860        16.06894        -4.90583
| 87>    N       29.62642        15.22243        -5.68130
| 88>    C       28.20726        17.59325        -3.84388
| 89>    N       27.10478        17.88912        -3.71965
| 90>    H        0.18286        -2.79758        -1.12010
| 91>    H       -2.84774         0.00384        -2.20452
| 92>    H       -1.21780         1.86794        -2.02634
| 93>    H        2.45432        -2.03907        -0.65284
| 94>    H        1.07852         2.66560        -1.56372
| 95>    H        6.24466         2.98514        -0.82351
| 96>    H       12.03065        -2.21958        -0.35729
| 97>    H        9.46225        -1.79364        -0.14769
| 98>    H       16.81232        -0.59963        -1.31555
| 99>    H       16.13893         2.38630        -1.65921
|100>    H       23.87516         1.23634        -2.40377
|101>    H       21.53922         0.13297        -2.06767
|102>    H       25.59538         6.82288        -2.85607
|103>    H       27.42843         4.36787        -3.16969
|104>    H       33.22235         8.94533        -4.39169
|105>    H       31.77469         6.79187        -4.14737
|106>    H       33.86065        13.94885        -4.38449
|107>    H       31.06981        14.80981        -3.43836
|108>    H       33.70800        16.31136        -4.00100
|109>    H       33.18223        21.24288        -2.24234
|110>    H       27.74105        21.45958        -1.14865
|111>    H       30.46446        24.59941        -0.18326
|112>    H       32.34354        23.29365        -1.14586
|113>    H       28.53707        19.42785        -2.25105
|114> *
|115>
|116>                          ****END OF INPUT****

CARTESIAN COORDINATES (ANGSTROEM)
---------------------------------
  C     -0.108000   -1.777390   -1.316390
  C     -1.394920   -1.479820   -1.668600
  F     -2.299350   -2.471140   -1.772460
  C     -1.819310   -0.170030   -1.930270
  C     -0.915060    0.850430   -1.829700
  C      0.424820    0.600390   -1.469520
  C      0.836750   -0.738350   -1.207190
  C      2.174310   -1.014690   -0.838850
  C      3.071620    0.014370   -0.736480
  C      2.654220    1.348360   -1.011560
  C      1.369980    1.645030   -1.365320
  C      3.807180    2.254810   -0.868360
  O      3.832590    3.458010   -1.009160
  C      4.965140    1.377650   -0.555980
  C      4.483070    0.032190   -0.348940
  C      5.154040   -1.018740    0.221380
  C      6.418700   -0.948030    0.836250
  N      7.409510   -0.981310    1.415540
  C      4.616870   -2.316020    0.358540
  N      4.249880   -3.396810    0.484090
  C      6.218710    1.911300   -0.649140
  C      7.441030    1.285680   -0.638580
  C      8.563080    0.807800   -0.677310
  C      9.823830    0.258600   -0.699610
  S     11.219360    1.237890   -1.086970
  C     12.266240   -0.137020   -0.881700
  C     11.553050   -1.272190   -0.532500
  C     10.186420   -1.050620   -0.429210
  C     13.632750   -0.014530   -1.055970
  C     14.829860    0.130140   -1.209940
  C     16.198670    0.290120   -1.377720
  C     16.761460    1.501380   -1.603980
  C     18.125370    1.696220   -1.770420
  C     19.320390    1.862620   -1.916530
  C     20.671780    2.108890   -2.083290
  S     21.261210    3.743620   -2.247070
  C     22.898610    3.160770   -2.401630
  C     22.951970    1.783000   -2.328320
  C     21.702880    1.192970   -2.147920
  C     23.948370    4.045950   -2.574620
  C     24.838430    4.859830   -2.724290
  C     25.867380    5.775350   -2.898640
  C     27.153620    5.414200   -3.120340
  C     28.172050    6.340520   -3.301250
  C     29.075200    7.136580   -3.468030
  C     30.091570    8.055160   -3.661480
  S     29.803680    9.764930   -3.495850
  C     31.470530   10.104950   -3.891460
  C     32.178790    8.940160   -4.131740
  C     31.407100    7.791810   -4.000880
  C     31.943050   11.399440   -3.940540
  C     32.345190   12.548470   -3.984450
  C     32.833560   13.837300   -4.056230
  C     32.091550   14.941520   -3.762680
  C     32.636650   16.238490   -3.838020
  C     32.012540   17.435570   -3.627940
  C     32.837080   18.640950   -3.352520
  O     34.029740   18.758550   -3.527590
  C     31.905110   19.625990   -2.770430
  C     32.174120   20.856150   -2.244560
  C     31.117050   21.619310   -1.699960
  C     29.796090   21.084450   -1.706370
  C     28.748480   21.845540   -1.152310
  C     29.019700   23.077530   -0.625600
  C     30.310930   23.621930   -0.612310
  C     31.339810   22.895880   -1.144630
  F     28.019650   23.806300   -0.095790
  C     29.545660   19.809470   -2.266200
  C     30.583820   19.093620   -2.797520
  C     30.622520   17.791940   -3.463720
  C     29.537330   17.157710   -4.013080
  C     29.618600   16.068940   -4.905830
  N     29.626420   15.222430   -5.681300
  C     28.207260   17.593250   -3.843880
  N     27.104780   17.889120   -3.719650
  H      0.182860   -2.797580   -1.120100
  H     -2.847740    0.003840   -2.204520
  H     -1.217800    1.867940   -2.026340
  H      2.454320   -2.039070   -0.652840
  H      1.078520    2.665600   -1.563720
  H      6.244660    2.985140   -0.823510
  H     12.030650   -2.219580   -0.357290
  H      9.462250   -1.793640   -0.147690
  H     16.812320   -0.599630   -1.315550
  H     16.138930    2.386300   -1.659210
  H     23.875160    1.236340   -2.403770
  H     21.539220    0.132970   -2.067670
  H     25.595380    6.822880   -2.856070
  H     27.428430    4.367870   -3.169690
  H     33.222350    8.945330   -4.391690
  H     31.774690    6.791870   -4.147370
  H     33.860650   13.948850   -4.384490
  H     31.069810   14.809810   -3.438360
  H     33.708000   16.311360   -4.001000
  H     33.182230   21.242880   -2.242340
  H     27.741050   21.459580   -1.148650
  H     30.464460   24.599410   -0.183260
  H     32.343540   23.293650   -1.145860
  H     28.537070   19.427850   -2.251050

 Total Charge           Charge          ....    0
 Multiplicity           Mult            ....    1
 Number of Electrons    NEL             ....  518
 Basis Dimension        Dim             .... 1182

ORBITAL ENERGIES
----------------

  NO   OCC          E(Eh)            E(eV)
   0   2.0000     -88.972841     -2421.0741
   1   2.0000     -88.972501     -2421.0648
   2   2.0000     -88.968106     -2420.9452
   3   2.0000     -24.784993      -674.4339
   4   2.0000     -24.784450      -674.4192
   5   2.0000     -19.213517      -522.8264
   6   2.0000     -19.211518      -522.7720
   7   2.0000     -14.416166      -392.2838
   8   2.0000     -14.414807      -392.2468
   9   2.0000     -14.412555      -392.1856
  10   2.0000     -14.411924      -392.1684
  11   2.0000     -10.368816      -282.1498
  12   2.0000     -10.368237      -282.1341
  13   2.0000     -10.363972      -282.0180
  14   2.0000     -10.362654      -281.9822
  15   2.0000     -10.343926      -281.4725
  16   2.0000     -10.343090      -281.4498
  17   2.0000     -10.341417      -281.4043
  18   2.0000     -10.340207      -281.3713
  19   2.0000     -10.332408      -281.1591
  20   2.0000     -10.329768      -281.0873
  21   2.0000     -10.328355      -281.0488
  22   2.0000     -10.326918      -281.0097
  23   2.0000     -10.324647      -280.9479
  24   2.0000     -10.324363      -280.9402
  25   2.0000     -10.324120      -280.9336
  26   2.0000     -10.319866      -280.8178
  27   2.0000     -10.318632      -280.7842
  28   2.0000     -10.317191      -280.7450
  29   2.0000     -10.316120      -280.7159
  30   2.0000     -10.314029      -280.6590
  31   2.0000     -10.314015      -280.6586
  32   2.0000     -10.308695      -280.5139
  33   2.0000     -10.307005      -280.4679
  34   2.0000     -10.306453      -280.4528
  35   2.0000     -10.305715      -280.4328
  36   2.0000     -10.305535      -280.4279
  37   2.0000     -10.305367      -280.4233
  38   2.0000     -10.304688      -280.4048
  39   2.0000     -10.304595      -280.4023
  40   2.0000     -10.304014      -280.3865
  41   2.0000     -10.300771      -280.2982
  42   2.0000     -10.300461      -280.2898
  43   2.0000     -10.299717      -280.2695
  44   2.0000     -10.299163      -280.2545
  45   2.0000     -10.298173      -280.2275
  46   2.0000     -10.297728      -280.2154
  47   2.0000     -10.297196      -280.2009
  48   2.0000     -10.297151      -280.1997
  49   2.0000     -10.296939      -280.1940
  50   2.0000     -10.296513      -280.1823
  51   2.0000     -10.296477      -280.1814
  52   2.0000     -10.295333      -280.1503
  53   2.0000     -10.294372      -280.1241
  54   2.0000     -10.294019      -280.1145
  55   2.0000     -10.293344      -280.0961
  56   2.0000     -10.293228      -280.0930
  57   2.0000     -10.291159      -280.0367
  58   2.0000     -10.290823      -280.0275
  59   2.0000     -10.289950      -280.0038
  60   2.0000     -10.289877      -280.0018
  61   2.0000     -10.289678      -279.9964
  62   2.0000     -10.288818      -279.9730
  63   2.0000     -10.288797      -279.9724
  64   2.0000     -10.288432      -279.9625
  65   2.0000     -10.288337      -279.9599
  66   2.0000     -10.288052      -279.9521
  67   2.0000     -10.288045      -279.9519
  68   2.0000     -10.287844      -279.9465
  69   2.0000     -10.287683      -279.9421
  70   2.0000     -10.287157      -279.9278
  71   2.0000     -10.286794      -279.9179
  72   2.0000     -10.285877      -279.8929
  73   2.0000     -10.284348      -279.8513
  74   2.0000     -10.283765      -279.8355
  75   2.0000      -8.068340      -219.5507
  76   2.0000      -8.067933      -219.5396
  77   2.0000      -8.063682      -219.4240
  78   2.0000      -6.037681      -164.2936
  79   2.0000      -6.037260      -164.2822
  80   2.0000      -6.033429      -164.1780
  81   2.0000      -6.033066      -164.1681
  82   2.0000      -6.033032      -164.1672
  83   2.0000      -6.030371      -164.0947
  84   2.0000      -6.029967      -164.0837
  85   2.0000      -6.028815      -164.0524
  86   2.0000      -6.025613      -163.9653
  87   2.0000      -1.299713       -35.3670
  88   2.0000      -1.299140       -35.3514
  89   2.0000      -1.127951       -30.6931
  90   2.0000      -1.126110       -30.6430
  91   2.0000      -1.018129       -27.7047
  92   2.0000      -1.016847       -27.6698
  93   2.0000      -1.000164       -27.2158
  94   2.0000      -0.999265       -27.1914
  95   2.0000      -0.999046       -27.1854
  96   2.0000      -0.998787       -27.1784
  97   2.0000      -0.995018       -27.0758
  98   2.0000      -0.992676       -27.0121
  99   2.0000      -0.991689       -26.9852
 100   2.0000      -0.975920       -26.5561
 101   2.0000      -0.974951       -26.5298
 102   2.0000      -0.936836       -25.4926
 103   2.0000      -0.929755       -25.2999
 104   2.0000      -0.926202       -25.2032
 105   2.0000      -0.924437       -25.1552
 106   2.0000      -0.921675       -25.0801
 107   2.0000      -0.912754       -24.8373
 108   2.0000      -0.900020       -24.4908
 109   2.0000      -0.896220       -24.3874
 110   2.0000      -0.892442       -24.2846
 111   2.0000      -0.888418       -24.1751
 112   2.0000      -0.885743       -24.1023
 113   2.0000      -0.883798       -24.0494
 114   2.0000      -0.878199       -23.8970
 115   2.0000      -0.868471       -23.6323
 116   2.0000      -0.859337       -23.3837
 117   2.0000      -0.851776       -23.1780
 118   2.0000      -0.848275       -23.0827
 119   2.0000      -0.841200       -22.8902
 120   2.0000      -0.840498       -22.8711
 121   2.0000      -0.834891       -22.7185
 122   2.0000      -0.833330       -22.6761
 123   2.0000      -0.830507       -22.5993
 124   2.0000      -0.822964       -22.3940
 125   2.0000      -0.811985       -22.0952
 126   2.0000      -0.801097       -21.7990
 127   2.0000      -0.790494       -21.5104
 128   2.0000      -0.784916       -21.3586
 129   2.0000      -0.763217       -20.7682
 130   2.0000      -0.761744       -20.7281
 131   2.0000      -0.754419       -20.5288
 132   2.0000      -0.743266       -20.2253
 133   2.0000      -0.733855       -19.9692
 134   2.0000      -0.729376       -19.8473
 135   2.0000      -0.717660       -19.5285
 136   2.0000      -0.713998       -19.4289
 137   2.0000      -0.708880       -19.2896
 138   2.0000      -0.707961       -19.2646
 139   2.0000      -0.702774       -19.1234
 140   2.0000      -0.695891       -18.9362
 141   2.0000      -0.689908       -18.7734
 142   2.0000      -0.680513       -18.5177
 143   2.0000      -0.678305       -18.4576
 144   2.0000      -0.675210       -18.3734
 145   2.0000      -0.672058       -18.2876
 146   2.0000      -0.668531       -18.1916
 147   2.0000      -0.666809       -18.1448
 148   2.0000      -0.650397       -17.6982
 149   2.0000      -0.638215       -17.3667
 150   2.0000      -0.633835       -17.2475
 151   2.0000      -0.632034       -17.1985
 152   2.0000      -0.627793       -17.0831
 153   2.0000      -0.627583       -17.0774
 154   2.0000      -0.624873       -17.0036
 155   2.0000      -0.623191       -16.9579
 156   2.0000      -0.622607       -16.9420
 157   2.0000      -0.608366       -16.5545
 158   2.0000      -0.607450       -16.5295
 159   2.0000      -0.605841       -16.4858
 160   2.0000      -0.603189       -16.4136
 161   2.0000      -0.591800       -16.1037
 162   2.0000      -0.589067       -16.0293
 163   2.0000      -0.579179       -15.7603
 164   2.0000      -0.574995       -15.6464
 165   2.0000      -0.569896       -15.5077
 166   2.0000      -0.568330       -15.4650
 167   2.0000      -0.564255       -15.3542
 168   2.0000      -0.558442       -15.1960
 169   2.0000      -0.557363       -15.1666
 170   2.0000      -0.556879       -15.1534
 171   2.0000      -0.551334       -15.0025
 172   2.0000      -0.548210       -14.9175
 173   2.0000      -0.546586       -14.8734
 174   2.0000      -0.545794       -14.8518
 175   2.0000      -0.542504       -14.7623
 176   2.0000      -0.539237       -14.6734
 177   2.0000      -0.535531       -14.5725
 178   2.0000      -0.532346       -14.4859
 179   2.0000      -0.529534       -14.4093
 180   2.0000      -0.526869       -14.3368
 181   2.0000      -0.523195       -14.2369
 182   2.0000      -0.522236       -14.2108
 183   2.0000      -0.518935       -14.1210
 184   2.0000      -0.516812       -14.0632
 185   2.0000      -0.515319       -14.0226
 186   2.0000      -0.514926       -14.0118
 187   2.0000      -0.513208       -13.9651
 188   2.0000      -0.507874       -13.8199
 189   2.0000      -0.503804       -13.7092
 190   2.0000      -0.501065       -13.6347
 191   2.0000      -0.500585       -13.6216
 192   2.0000      -0.497647       -13.5417
 193   2.0000      -0.496689       -13.5156
 194   2.0000      -0.495906       -13.4943
 195   2.0000      -0.495399       -13.4805
 196   2.0000      -0.495180       -13.4745
 197   2.0000      -0.492606       -13.4045
 198   2.0000      -0.491200       -13.3662
 199   2.0000      -0.489510       -13.3203
 200   2.0000      -0.488800       -13.3009
 201   2.0000      -0.488089       -13.2816
 202   2.0000      -0.482742       -13.1361
 203   2.0000      -0.481460       -13.1012
 204   2.0000      -0.475161       -12.9298
 205   2.0000      -0.469420       -12.7736
 206   2.0000      -0.460587       -12.5332
 207   2.0000      -0.459209       -12.4957
 208   2.0000      -0.457646       -12.4532
 209   2.0000      -0.456365       -12.4183
 210   2.0000      -0.454498       -12.3675
 211   2.0000      -0.450930       -12.2704
 212   2.0000      -0.449743       -12.2381
 213   2.0000      -0.446918       -12.1613
 214   2.0000      -0.443860       -12.0780
 215   2.0000      -0.442410       -12.0386
 216   2.0000      -0.440448       -11.9852
 217   2.0000      -0.440091       -11.9755
 218   2.0000      -0.439907       -11.9705
 219   2.0000      -0.437213       -11.8972
 220   2.0000      -0.436584       -11.8801
 221   2.0000      -0.436419       -11.8756
 222   2.0000      -0.429062       -11.6754
 223   2.0000      -0.427389       -11.6299
 224   2.0000      -0.426547       -11.6069
 225   2.0000      -0.425019       -11.5654
 226   2.0000      -0.423329       -11.5194
 227   2.0000      -0.420793       -11.4504
 228   2.0000      -0.417577       -11.3628
 229   2.0000      -0.412383       -11.2215
 230   2.0000      -0.408145       -11.1062
 231   2.0000      -0.404238       -10.9999
 232   2.0000      -0.397090       -10.8054
 233   2.0000      -0.386789       -10.5251
 234   2.0000      -0.380913       -10.3652
 235   2.0000      -0.379005       -10.3133
 236   2.0000      -0.372637       -10.1400
 237   2.0000      -0.363657        -9.8956
 238   2.0000      -0.361991        -9.8503
 239   2.0000      -0.360990        -9.8230
 240   2.0000      -0.358063        -9.7434
 241   2.0000      -0.352826        -9.6009
 242   2.0000      -0.349937        -9.5223
 243   2.0000      -0.347311        -9.4508
 244   2.0000      -0.343839        -9.3563
 245   2.0000      -0.338516        -9.2115
 246   2.0000      -0.338067        -9.1993
 247   2.0000      -0.334942        -9.1142
 248   2.0000      -0.334866        -9.1122
 249   2.0000      -0.334452        -9.1009
 250   2.0000      -0.325360        -8.8535
 251   2.0000      -0.314296        -8.5524
 252   2.0000      -0.312268        -8.4972
 253   2.0000      -0.304604        -8.2887
 254   2.0000      -0.298055        -8.1105
 255   2.0000      -0.295621        -8.0443
 256   2.0000      -0.280571        -7.6347
 257   2.0000      -0.260494        -7.0884
 258   2.0000      -0.242395        -6.5959
 259   0.0000      -0.103653        -2.8205
 260   0.0000      -0.101104        -2.7512
 261   0.0000      -0.073498        -2.0000
 262   0.0000      -0.060642        -1.6502
 263   0.0000      -0.055105        -1.4995

MULLIKEN ATOMIC CHARGES
-----------------------
   0 C :   -0.099550
   1 C :    0.305042
   2 F :   -0.190905
   3 C :   -0.029487
   4 C :   -0.009871
   5 C :    0.101494
   6 C :    0.104326
   7 C :   -0.090978
   8 C :    0.045178
   9 C :    0.002236
  10 C :   -0.077760
  11 C :    0.135203
  12 O :   -0.146265
  13 C :   -0.121153
  14 C :    0.312250
  15 C :   -0.340667
  16 C :   -0.190022
  17 N :    0.163523
  18 C :   -0.183812
  19 N :    0.144157
  20 C :   -0.047606
  21 C :   -0.000773
  22 C :    0.120226
  23 C :   -0.184550
  24 S :    0.202959
  25 C :   -0.136731
  26 C :    0.051313
  27 C :    0.081443
  28 C :    0.067166
  29 C :   -0.020195
  30 C :   -0.067442
  31 C :   -0.066120
  32 C :   -0.022016
  33 C :    0.069277
  34 C :   -0.147059
  35 S :    0.195279
  36 C :   -0.145910
  37 C :    0.051338
  38 C :    0.049976
  39 C :    0.067716
  40 C :   -0.023250
  41 C :   -0.065433
  42 C :   -0.071959
  43 C :   -0.019482
  44 C :    0.065748
  45 C :   -0.139861
  46 S :    0.210338
  47 C :   -0.162294
  48 C :    0.062009
  49 C :    0.048607
  50 C :    0.081494
  51 C :    0.004177
  52 C :   -0.070389
  53 C :    0.025425
  54 C :    0.019887
  55 C :   -0.107768
  56 C :    0.143369
  57 O :   -0.145698
  58 C :    0.006625
  59 C :   -0.083500
  60 C :    0.103114
  61 C :    0.103748
  62 C :   -0.101074
  63 C :    0.304911
  64 C :   -0.025863
  65 C :   -0.012077
  66 F :   -0.190934
  67 C :   -0.089518
  68 C :    0.043474
  69 C :    0.282517
  70 C :   -0.328897
  71 C :   -0.221571
  72 N :    0.176691
  73 C :   -0.177329
  74 N :    0.149352
  75 H :   -0.001580
  76 H :    0.003461
  77 H :   -0.008544
  78 H :   -0.006030
  79 H :   -0.011795
  80 H :    0.052853
  81 H :   -0.000486
  82 H :    0.010057
  83 H :    0.039103
  84 H :    0.042158
  85 H :   -0.004402
  86 H :   -0.003083
  87 H :    0.042350
  88 H :    0.038895
  89 H :   -0.000191
  90 H :   -0.002305
  91 H :    0.040712
  92 H :    0.030459
  93 H :    0.018758
  94 H :   -0.012540
  95 H :   -0.002251
  96 H :    0.002555
  97 H :   -0.009569
  98 H :   -0.004407
Sum of atomic charges:   -0.0000000

LOEWDIN ATOMIC CHARGES
----------------------
   0 C :   -0.041639
   1 C :    0.093527
   2 F :   -0.065328
   3 C :   -0.036351
   4 C :    0.004646
   5 C :   -0.018563
   6 C :    0.003384
   7 C :    0.011053
   8 C :   -0.017112
   9 C :   -0.059732
  10 C :    0.034978
  11 C :    0.081235
  12 O :   -0.145551
  13 C :   -0.082279
  14 C :    0.070054
  15 C :   -0.131339
  16 C :   -0.012806
  17 N :   -0.048920
  18 C :   -0.016617
  19 N :   -0.052536
  20 C :    0.051975
  21 C :   -0.041946
  22 C :    0.009551
  23 C :   -0.195303
  24 S :    0.476314
  25 C :   -0.167024
  26 C :   -0.035671
  27 C :    0.002539
  28 C :   -0.057275
  29 C :   -0.012393
  30 C :   -0.022521
  31 C :   -0.010440
  32 C :   -0.026855
  33 C :   -0.046405
  34 C :   -0.183965
  35 S :    0.470140
  36 C :   -0.182350
  37 C :   -0.033808
  38 C :   -0.032823
  39 C :   -0.049111
  40 C :   -0.024917
  41 C :   -0.013321
  42 C :   -0.021250
  43 C :   -0.016578
  44 C :   -0.055586
  45 C :   -0.174390
  46 S :    0.479893
  47 C :   -0.191107
  48 C :   -0.021294
  49 C :   -0.036116
  50 C :   -0.022461
  51 C :   -0.027848
  52 C :    0.015586
  53 C :   -0.012221
  54 C :    0.064730
  55 C :   -0.091005
  56 C :    0.081515
  57 O :   -0.147033
  58 C :   -0.058900
  59 C :    0.033796
  60 C :   -0.018692
  61 C :    0.003292
  62 C :   -0.042010
  63 C :    0.093228
  64 C :   -0.036860
  65 C :    0.004386
  66 F :   -0.065605
  67 C :    0.010254
  68 C :   -0.016883
  69 C :    0.069331
  70 C :   -0.136126
  71 C :   -0.026744
  72 N :   -0.044778
  73 C :   -0.018118
  74 N :   -0.051488
  75 H :    0.043379
  76 H :    0.041966
  77 H :    0.035889
  78 H :    0.039123
  79 H :    0.039868
  80 H :    0.063862
  81 H :    0.039302
  82 H :    0.042125
  83 H :    0.049756
  84 H :    0.051097
  85 H :    0.037011
  86 H :    0.037318
  87 H :    0.051019
  88 H :    0.049627
  89 H :    0.038796
  90 H :    0.037983
  91 H :    0.050978
  92 H :    0.039236
  93 H :    0.045002
  94 H :    0.039538
  95 H :    0.043233
  96 H :    0.041729
  97 H :    0.035641
  98 H :    0.039111

  Mayer bond orders larger than 0.100000
B(  0-C ,  1-C ) :   1.4404 B(  0-C ,  6-C ) :   1.2024 B(  0-C , 75-H ) :   1.0070
B(  1-C ,  2-F ) :   1.0880 B(  1-C ,  3-C ) :   1.2544 B(  3-C ,  4-C ) :   1.4609
B(  3-C , 76-H ) :   0.9930 B(  4-C ,  5-C ) :   1.2335 B(  4-C , 77-H ) :   0.9974
B(  5-C ,  6-C ) :   1.2551 B(  5-C , 10-C ) :   1.1901 B(  6-C ,  7-C ) :   1.2043
B(  7-C ,  8-C ) :   1.4595 B(  7-C , 78-H ) :   0.9910 B(  8-C ,  9-C ) :   1.2157
B(  8-C , 14-C ) :   1.0001 B(  9-C , 10-C ) :   1.4719 B(  9-C , 11-C ) :   0.9257
B( 10-C , 79-H ) :   1.0158 B( 11-C , 12-O ) :   2.2609 B( 11-C , 13-C ) :   0.9441
B( 13-C , 14-C ) :   1.0417 B( 13-C , 20-C ) :   1.6427 B( 14-C , 15-C ) :   1.6321
B( 15-C , 16-C ) :   1.1803 B( 15-C , 18-C ) :   1.1328 B( 16-C , 17-N ) :   2.9476
B( 18-C , 19-N ) :   2.9678 B( 20-C , 21-C ) :   0.9826 B( 20-C , 80-H ) :   0.9433
B( 21-C , 22-C ) :   2.1345 B( 22-C , 23-C ) :   1.0218 B( 23-C , 24-S ) :   1.0911
B( 23-C , 25-C ) :   0.1038 B( 23-C , 27-C ) :   1.4572 B( 24-S , 25-C ) :   1.1350
B( 25-C , 26-C ) :   1.4587 B( 25-C , 28-C ) :   0.9755 B( 26-C , 27-C ) :   1.3005
B( 26-C , 81-H ) :   1.0016 B( 27-C , 82-H ) :   0.9947 B( 28-C , 29-C ) :   2.2893
B( 29-C , 30-C ) :   1.0242 B( 30-C , 31-C ) :   1.7087 B( 30-C , 83-H ) :   0.9619
B( 31-C , 32-C ) :   1.0183 B( 31-C , 84-H ) :   0.9595 B( 32-C , 33-C ) :   2.2872
B( 33-C , 34-C ) :   0.9784 B( 34-C , 35-S ) :   1.1125 B( 34-C , 36-C ) :   0.1076
B( 34-C , 38-C ) :   1.4849 B( 35-S , 36-C ) :   1.1147 B( 36-C , 37-C ) :   1.4853
B( 36-C , 39-C ) :   0.9777 B( 37-C , 38-C ) :   1.2794 B( 37-C , 85-H ) :   1.0010
B( 38-C , 86-H ) :   1.0012 B( 39-C , 40-C ) :   2.2948 B( 40-C , 41-C ) :   1.0181
B( 41-C , 42-C ) :   1.7122 B( 41-C , 87-H ) :   0.9594 B( 42-C , 43-C ) :   1.0192
B( 42-C , 88-H ) :   0.9622 B( 43-C , 44-C ) :   2.2887 B( 44-C , 45-C ) :   0.9781
B( 45-C , 46-S ) :   1.1250 B( 45-C , 47-C ) :   0.1043 B( 45-C , 49-C ) :   1.4732
B( 46-S , 47-C ) :   1.1036 B( 47-C , 48-C ) :   1.4670 B( 47-C , 50-C ) :   1.0036
B( 48-C , 49-C ) :   1.2939 B( 48-C , 89-H ) :   0.9994 B( 49-C , 90-H ) :   1.0012
B( 50-C , 51-C ) :   2.2301 B( 51-C , 52-C ) :   1.0037 B( 52-C , 53-C ) :   1.6378
B( 52-C , 91-H ) :   0.9641 B( 53-C , 54-C ) :   1.1528 B( 53-C , 92-H ) :   0.9686
B( 54-C , 55-C ) :   1.5990 B( 54-C , 93-H ) :   0.9503 B( 55-C , 56-C ) :   0.9437
B( 55-C , 69-C ) :   1.0446 B( 56-C , 57-O ) :   2.2627 B( 56-C , 58-C ) :   0.9226
B( 58-C , 59-C ) :   1.4704 B( 58-C , 68-C ) :   1.2191 B( 59-C , 60-C ) :   1.1881
B( 59-C , 94-H ) :   1.0165 B( 60-C , 61-C ) :   1.2592 B( 60-C , 65-C ) :   1.2336
B( 61-C , 62-C ) :   1.2009 B( 61-C , 67-C ) :   1.2012 B( 62-C , 63-C ) :   1.4400
B( 62-C , 95-H ) :   1.0075 B( 63-C , 64-C ) :   1.2557 B( 63-C , 66-F ) :   1.0886
B( 64-C , 65-C ) :   1.4599 B( 64-C , 96-H ) :   0.9923 B( 65-C , 97-H ) :   0.9974
B( 67-C , 68-C ) :   1.4598 B( 67-C , 98-H ) :   0.9936 B( 68-C , 69-C ) :   0.9952
B( 69-C , 70-C ) :   1.6429 B( 70-C , 71-C ) :   1.1586 B( 70-C , 73-C ) :   1.1341
B( 71-C , 72-N ) :   3.0141 B( 73-C , 74-N ) :   2.9797

-----------------------------------------------------------------------------
         ABSORPTION SPECTRUM VIA TRANSITION ELECTRIC DIPOLE MOMENTS
-----------------------------------------------------------------------------
State   Energy  Wavelength   fosc         T2         TX        TY        TZ
        (cm-1)    (nm)                  (au**2)     (au)      (au)      (au)
-----------------------------------------------------------------------------
   0   17561.3    569.4   2.844186539  53.31852  -5.67591  -4.55480   0.59694
   1   18798.6    532.0   1.095350086  19.18237   3.40295  -2.73060  -0.38221
   2   23421.5    427.0   0.845695040  11.88709  -3.39261  -0.39764   0.46818
   3   24914.4    401.4   0.087519406   1.15646   0.87284  -0.61832  -0.11087
   4   26030.9    384.2   0.290229789   3.67053   1.49685   1.11540  -0.43110
   5   26617.7    375.7   0.008359623   0.10339   0.21209  -0.20413  -0.12940
   6   26821.6    372.8   0.197941038   2.42956   1.18194   1.00202   0.16890
   7   27397.3    365.0   0.078008528   0.93737   0.30493  -0.91868   0.02034
   8   27940.4    357.9   0.094167433   1.10954  -0.89803  -0.51133  -0.20402
   9   28066.2    356.3   0.054106811   0.63466  -0.13728   0.78414  -0.03059
  10   29125.4    343.3   0.064306450   0.72687   0.77906   0.19125   0.28872
  11   29474.3    339.3   0.047588514   0.53154  -0.64111   0.05468  -0.34282
  12   29746.7    336.2   0.036317915   0.40194   0.52600   0.25620   0.24417
  13   30343.1    329.6   0.205174506   2.22607  -0.05189  -1.23756  -0.83176
  14   30419.0    328.7   0.272086020   2.94467   1.61093  -0.52428   0.27335
  15   30912.3    323.5   0.095373356   1.01572  -0.59730   0.81154  -0.01904
  16   31648.1    316.0   0.130937582   1.36205   0.77838  -0.86582  -0.08085
  17   33149.3    301.7   0.107850967   1.07109   0.98398   0.09721   0.30564
  18   34274.1    291.8   0.180672142   1.73540   0.56067  -1.03328  -0.59447
  19   34334.9    291.2   0.223601608   2.14395   0.68814  -1.29229  -0.01997
  20   34645.0    288.6   0.395261904   3.75595   1.09869  -1.49213  -0.56780
  21   34772.6    287.6   0.749682643   7.09767   2.07355   1.12513   1.23779
  22   35145.6    284.5   0.052224102   0.48919   0.56202   0.33837   0.24252
  23   35632.3    280.6   0.070648527   0.65273   0.33193  -0.66636  -0.31388
  24   35880.4    278.7   0.007926293   0.07273  -0.11830   0.08884   0.22547
  25   36118.6    276.9   0.054789936   0.49940   0.47647   0.46616  -0.23468
  26   36288.6    275.6   0.026209153   0.23777  -0.10651  -0.29487   0.37347
  27   36595.7    273.3   0.031764557   0.28575   0.52717  -0.08470  -0.02596
  28   37192.6    268.9   0.046524715   0.41182   0.31494  -0.55313  -0.08173
  29   37692.4    265.3   0.116693272   1.01922   0.44618  -0.85238  -0.30593
  30   37949.9    263.5   0.028760069   0.24949  -0.16628   0.19971  -0.42656
  31   38257.0    261.4   0.068615523   0.59046  -0.71680   0.25502   0.10777
  32   38455.6    260.0   0.016898929   0.14467   0.22622   0.13622  -0.27375
  33   38529.1    259.5   0.065970017   0.56368  -0.05679  -0.73113   0.16094
  34   38778.5    257.9   0.072030709   0.61151   0.73364  -0.11975   0.24277
  35   38989.4    256.5   0.113307619   0.95673   0.92497   0.20587   0.24245
  36   39415.1    253.7   0.002515087   0.02101   0.04180  -0.12352   0.06327
  37   39729.6    251.7   0.050282200   0.41665  -0.15443  -0.62334   0.06522
  38   40037.6    249.8   0.092025872   0.75669  -0.39692  -0.75599   0.16619
  39   40100.5    249.4   0.120949786   0.99296  -0.89869  -0.40927  -0.13348
  40   40266.9    248.3   0.058558569   0.47876   0.47391   0.50146   0.05201

FINAL SINGLE POINT ENERGY     -4212.319551587602

DIPOLE MOMENT
-------------
                                X             Y             Z
Electronic contribution:    -28.49451      -1.42081       3.36194
Nuclear contribution   :     30.29154       1.09141      -3.34911
                        -----------------------------------------
Total Dipole Moment    :      1.79703      -0.32940       0.01283
                        -----------------------------------------
Magnitude (a.u.)       :      1.82701
Magnitude (Debye)      :      4.64390

Rotational constants in cm-1:     0.000872     0.000083     0.000077
Rotational constants in MHz :    26.142618     2.490672     2.295542

                             ****ORCA TERMINATED NORMALLY****
TOTAL RUN TIME: 0 days 0 hours 8 minutes 52 seconds 47 msec
