                         Program Version 4.2.0 -  RELEASE  -
|  1> # ORCA input file
|  2> # SCF done       -250.445876396962          0.000446889847
|  3> ! CAM-B3LYP def2-SVP def2/J RIJCOSX Grid4 TightSCF
|  4> %maxcore 5000
|  5> %tddft
|  6>     Mode sTDDFT
|  7>     Ethresh 5.0
|  8>     maxcore 5000
|  9> end
| 10>
| 11> %pal
| 12>   nprocs 6
| 13>   end
| 14> * xyz 0 1
| 15>    C        1.95208        -4.56829        -1.46480
| 16>    C        3.21775        -4.87860        -0.83107
| 17>    C        4.41894        -4.22225        -1.12349
| 18>    C        5.61797        -4.57399        -0.51846
| 19>    C        5.65432        -5.62013         0.39888
| 20>    C        4.48206        -6.31810         0.68493
| 21>    C        3.29424        -5.95072         0.06860
| 22>    F        2.18179        -6.63114         0.35095
| 23>    F        4.50803        -7.33761         1.54033
| 24>    F        6.80028        -5.96302         0.97925
| 25>    F        6.73492        -3.91034        -0.82330
| 26>    F        4.43508        -3.24707        -2.04375
| 27>    C        1.48437        -3.36959        -1.88496
| 28>    C        0.27543        -3.34251        -2.75340
| 29>    C       -0.87045        -4.07469        -2.43786
| 30>    C       -1.99137        -4.08385        -3.26300
| 31>    C       -2.00229        -3.31861        -4.42523
| 32>    C       -0.87589        -2.57549        -4.76185
| 33>    C        0.24120        -2.60262        -3.93633
| 34>    F        1.32441        -1.91210        -4.32060
| 35>    F       -0.86166        -1.85238        -5.88202
| 36>    F       -3.07601        -3.30057        -5.21115
| 37>    F       -3.04995        -4.81992        -2.94143
| 38>    F       -0.91725        -4.78136        -1.30881
| 39>    N        1.99879        -2.11854        -1.62327
| 40>    C        2.70749        -1.64659        -0.56547
| 41>    S        2.89903        -2.51501         0.91952
| 42>    C        3.91555        -1.24171         1.52360
| 43>    N        4.46305        -1.43374         2.79250
| 44>    O        4.19532        -2.49420         3.33777
| 45>    O        5.16255        -0.55434         3.25633
| 46>    C        4.07537        -0.20978         0.63824
| 47>    C        3.36009        -0.40242        -0.55644
| 48>    C        3.34855         0.55122        -1.63953
| 49>    C        2.27643         0.79281        -2.42976
| 50>    C        2.25669         1.63410        -3.56475
| 51>    C        1.14298         1.75874        -4.34702
| 52>    C        0.96727         2.51411        -5.53662
| 53>    C       -0.26831         2.40982        -6.09384
| 54>    C       -1.15285         1.56667        -5.37782
| 55>    S       -0.35116         0.90717        -3.97411
| 56>    C       -2.47617         1.28115        -5.61729
| 57>    C       -3.34083         1.80676        -6.60568
| 58>    C       -4.64010         1.43478        -6.46855
| 59>    C       -4.88522         0.57678        -5.35920
| 60>    S       -3.36587         0.20574        -4.54778
| 61>    C       -6.05580         0.13456        -4.82941
| 62>    N       -7.29785         0.46488        -5.30933
| 63>    C       -8.42350         0.53470        -4.55568
| 64>    S       -9.96341         0.36703        -5.34130
| 65>    C      -10.75225         0.53745        -3.80302
| 66>    N      -12.15029         0.50573        -3.78652
| 67>    O      -12.70692         0.61554        -2.71005
| 68>    O      -12.70448         0.36870        -4.86475
| 69>    C       -9.88197         0.71150        -2.76388
| 70>    C       -8.53148         0.72811        -3.16693
| 71>    C       -7.42082         1.01414        -2.30027
| 72>    C       -7.47659         1.11939        -0.96075
| 73>    C       -6.31461         1.37382        -0.13856
| 74>    C       -5.00974         0.83941        -0.58683
| 75>    C       -4.88954        -0.47339        -1.04760
| 76>    C       -3.65774        -1.02346        -1.37774
| 77>    C       -2.49951        -0.26496        -1.26078
| 78>    C       -2.59041         1.05465        -0.83410
| 79>    C       -3.83345         1.58704        -0.50115
| 80>    F       -3.88813         2.85832        -0.09839
| 81>    F       -1.48950         1.79825        -0.73267
| 82>    F       -1.31256        -0.81362        -1.54615
| 83>    F       -3.57861        -2.28601        -1.80021
| 84>    F       -5.96999        -1.25076        -1.14913
| 85>    C       -6.36959         1.96087         1.07984
| 86>    C       -7.53725         2.57194         1.68685
| 87>    C       -7.72256         2.45718         3.07145
| 88>    C       -8.79868         3.03519         3.72859
| 89>    C       -9.73019         3.77638         3.00362
| 90>    C       -9.55704         3.93516         1.63160
| 91>    C       -8.47502         3.34245         0.99061
| 92>    F       -8.31392         3.57941        -0.31622
| 93>    F      -10.42389         4.66744         0.93173
| 94>    F      -10.76595         4.33967         3.62006
| 95>    F       -8.94340         2.88788         5.04500
| 96>    F       -6.83720         1.74831         3.77904
| 97>    H        1.32887        -5.43407        -1.63157
| 98>    H        1.87242        -1.42527        -2.35179
| 99>    H        4.67425         0.65580         0.85588
|100>    H        4.26174         1.11016        -1.78949
|101>    H        1.31969         0.34569        -2.18223
|102>    H        3.15408         2.16502        -3.84701
|103>    H        1.76821         3.10851        -5.93920
|104>    H       -0.57213         2.90952        -6.99604
|105>    H       -2.97822         2.46659        -7.37322
|106>    H       -5.43131         1.76513        -7.11807
|107>    H       -6.04873        -0.50472        -3.95995
|108>    H       -7.38611         0.68307        -6.29316
|109>    H      -10.22573         0.85285        -1.75638
|110>    H       -6.47442         1.20566        -2.78628
|111>    H       -8.41281         1.00423        -0.43620
|112>    H       -5.48995         1.96100         1.70810
|113> *
|114>
|115>                          ****END OF INPUT****

CARTESIAN COORDINATES (ANGSTROEM)
---------------------------------
  C      1.952080   -4.568290   -1.464800
  C      3.217750   -4.878600   -0.831070
  C      4.418940   -4.222250   -1.123490
  C      5.617970   -4.573990   -0.518460
  C      5.654320   -5.620130    0.398880
  C      4.482060   -6.318100    0.684930
  C      3.294240   -5.950720    0.068600
  F      2.181790   -6.631140    0.350950
  F      4.508030   -7.337610    1.540330
  F      6.800280   -5.963020    0.979250
  F      6.734920   -3.910340   -0.823300
  F      4.435080   -3.247070   -2.043750
  C      1.484370   -3.369590   -1.884960
  C      0.275430   -3.342510   -2.753400
  C     -0.870450   -4.074690   -2.437860
  C     -1.991370   -4.083850   -3.263000
  C     -2.002290   -3.318610   -4.425230
  C     -0.875890   -2.575490   -4.761850
  C      0.241200   -2.602620   -3.936330
  F      1.324410   -1.912100   -4.320600
  F     -0.861660   -1.852380   -5.882020
  F     -3.076010   -3.300570   -5.211150
  F     -3.049950   -4.819920   -2.941430
  F     -0.917250   -4.781360   -1.308810
  N      1.998790   -2.118540   -1.623270
  C      2.707490   -1.646590   -0.565470
  S      2.899030   -2.515010    0.919520
  C      3.915550   -1.241710    1.523600
  N      4.463050   -1.433740    2.792500
  O      4.195320   -2.494200    3.337770
  O      5.162550   -0.554340    3.256330
  C      4.075370   -0.209780    0.638240
  C      3.360090   -0.402420   -0.556440
  C      3.348550    0.551220   -1.639530
  C      2.276430    0.792810   -2.429760
  C      2.256690    1.634100   -3.564750
  C      1.142980    1.758740   -4.347020
  C      0.967270    2.514110   -5.536620
  C     -0.268310    2.409820   -6.093840
  C     -1.152850    1.566670   -5.377820
  S     -0.351160    0.907170   -3.974110
  C     -2.476170    1.281150   -5.617290
  C     -3.340830    1.806760   -6.605680
  C     -4.640100    1.434780   -6.468550
  C     -4.885220    0.576780   -5.359200
  S     -3.365870    0.205740   -4.547780
  C     -6.055800    0.134560   -4.829410
  N     -7.297850    0.464880   -5.309330
  C     -8.423500    0.534700   -4.555680
  S     -9.963410    0.367030   -5.341300
  C    -10.752250    0.537450   -3.803020
  N    -12.150290    0.505730   -3.786520
  O    -12.706920    0.615540   -2.710050
  O    -12.704480    0.368700   -4.864750
  C     -9.881970    0.711500   -2.763880
  C     -8.531480    0.728110   -3.166930
  C     -7.420820    1.014140   -2.300270
  C     -7.476590    1.119390   -0.960750
  C     -6.314610    1.373820   -0.138560
  C     -5.009740    0.839410   -0.586830
  C     -4.889540   -0.473390   -1.047600
  C     -3.657740   -1.023460   -1.377740
  C     -2.499510   -0.264960   -1.260780
  C     -2.590410    1.054650   -0.834100
  C     -3.833450    1.587040   -0.501150
  F     -3.888130    2.858320   -0.098390
  F     -1.489500    1.798250   -0.732670
  F     -1.312560   -0.813620   -1.546150
  F     -3.578610   -2.286010   -1.800210
  F     -5.969990   -1.250760   -1.149130
  C     -6.369590    1.960870    1.079840
  C     -7.537250    2.571940    1.686850
  C     -7.722560    2.457180    3.071450
  C     -8.798680    3.035190    3.728590
  C     -9.730190    3.776380    3.003620
  C     -9.557040    3.935160    1.631600
  C     -8.475020    3.342450    0.990610
  F     -8.313920    3.579410   -0.316220
  F    -10.423890    4.667440    0.931730
  F    -10.765950    4.339670    3.620060
  F     -8.943400    2.887880    5.045000
  F     -6.837200    1.748310    3.779040
  H      1.328870   -5.434070   -1.631570
  H      1.872420   -1.425270   -2.351790
  H      4.674250    0.655800    0.855880
  H      4.261740    1.110160   -1.789490
  H      1.319690    0.345690   -2.182230
  H      3.154080    2.165020   -3.847010
  H      1.768210    3.108510   -5.939200
  H     -0.572130    2.909520   -6.996040
  H     -2.978220    2.466590   -7.373220
  H     -5.431310    1.765130   -7.118070
  H     -6.048730   -0.504720   -3.959950
  H     -7.386110    0.683070   -6.293160
  H    -10.225730    0.852850   -1.756380
  H     -6.474420    1.205660   -2.786280
  H     -8.412810    1.004230   -0.436200
  H     -5.489950    1.961000    1.708100

 Total Charge           Charge          ....    0
 Multiplicity           Mult            ....    1
 Number of Electrons    NEL             ....  620
 Basis Dimension        Dim             .... 1244

ORBITAL ENERGIES
----------------

  NO   OCC          E(Eh)            E(eV)
   0   2.0000     -88.986779     -2421.4534
   1   2.0000     -88.982213     -2421.3291
   2   2.0000     -88.961527     -2420.7662
   3   2.0000     -88.954964     -2420.5876
   4   2.0000     -24.830595      -675.6748
   5   2.0000     -24.824893      -675.5197
   6   2.0000     -24.824170      -675.5000
   7   2.0000     -24.819695      -675.3782
   8   2.0000     -24.816218      -675.2836
   9   2.0000     -24.816168      -675.2823
  10   2.0000     -24.815144      -675.2544
  11   2.0000     -24.814895      -675.2476
  12   2.0000     -24.814428      -675.2349
  13   2.0000     -24.813040      -675.1972
  14   2.0000     -24.812952      -675.1948
  15   2.0000     -24.812359      -675.1786
  16   2.0000     -24.811892      -675.1659
  17   2.0000     -24.811622      -675.1586
  18   2.0000     -24.810519      -675.1286
  19   2.0000     -24.810010      -675.1147
  20   2.0000     -24.809827      -675.1097
  21   2.0000     -24.808881      -675.0840
  22   2.0000     -24.805869      -675.0020
  23   2.0000     -24.804962      -674.9773
  24   2.0000     -19.237958      -523.4915
  25   2.0000     -19.237465      -523.4780
  26   2.0000     -19.229270      -523.2550
  27   2.0000     -19.228411      -523.2317
  28   2.0000     -14.649503      -398.6332
  29   2.0000     -14.641127      -398.4053
  30   2.0000     -14.490878      -394.3168
  31   2.0000     -14.477300      -393.9474
  32   2.0000     -10.404531      -283.1217
  33   2.0000     -10.399932      -282.9965
  34   2.0000     -10.399170      -282.9758
  35   2.0000     -10.398769      -282.9649
  36   2.0000     -10.397900      -282.9413
  37   2.0000     -10.397806      -282.9387
  38   2.0000     -10.397558      -282.9319
  39   2.0000     -10.397469      -282.9295
  40   2.0000     -10.395661      -282.8803
  41   2.0000     -10.394352      -282.8447
  42   2.0000     -10.393593      -282.8240
  43   2.0000     -10.393257      -282.8149
  44   2.0000     -10.393049      -282.8092
  45   2.0000     -10.392727      -282.8005
  46   2.0000     -10.391967      -282.7798
  47   2.0000     -10.391608      -282.7700
  48   2.0000     -10.389574      -282.7147
  49   2.0000     -10.388530      -282.6863
  50   2.0000     -10.386822      -282.6398
  51   2.0000     -10.386555      -282.6325
  52   2.0000     -10.375126      -282.3215
  53   2.0000     -10.367626      -282.1175
  54   2.0000     -10.359585      -281.8986
  55   2.0000     -10.344707      -281.4938
  56   2.0000     -10.341194      -281.3982
  57   2.0000     -10.332675      -281.1664
  58   2.0000     -10.330206      -281.0992
  59   2.0000     -10.329933      -281.0918
  60   2.0000     -10.324789      -280.9518
  61   2.0000     -10.323856      -280.9264
  62   2.0000     -10.323413      -280.9144
  63   2.0000     -10.321931      -280.8740
  64   2.0000     -10.320330      -280.8304
  65   2.0000     -10.317906      -280.7645
  66   2.0000     -10.317138      -280.7436
  67   2.0000     -10.312459      -280.6163
  68   2.0000     -10.306421      -280.4520
  69   2.0000     -10.305165      -280.4178
  70   2.0000     -10.304987      -280.4129
  71   2.0000     -10.304758      -280.4067
  72   2.0000     -10.303729      -280.3787
  73   2.0000     -10.302420      -280.3431
  74   2.0000     -10.299642      -280.2675
  75   2.0000     -10.297261      -280.2027
  76   2.0000     -10.295647      -280.1588
  77   2.0000     -10.295371      -280.1513
  78   2.0000     -10.293883      -280.1108
  79   2.0000     -10.290788      -280.0266
  80   2.0000     -10.290220      -280.0111
  81   2.0000     -10.289777      -279.9991
  82   2.0000      -8.082822      -219.9448
  83   2.0000      -8.076697      -219.7781
  84   2.0000      -8.056969      -219.2413
  85   2.0000      -8.050962      -219.0778
  86   2.0000      -6.052547      -164.6982
  87   2.0000      -6.048130      -164.5780
  88   2.0000      -6.046382      -164.5304
  89   2.0000      -6.044074      -164.4676
  90   2.0000      -6.041904      -164.4086
  91   2.0000      -6.038287      -164.3101
  92   2.0000      -6.026995      -164.0029
  93   2.0000      -6.022965      -163.8932
  94   2.0000      -6.020714      -163.8319
  95   2.0000      -6.017509      -163.7448
  96   2.0000      -6.016728      -163.7235
  97   2.0000      -6.011811      -163.5897
  98   2.0000      -1.353086       -36.8193
  99   2.0000      -1.345770       -36.6203
 100   2.0000      -1.343426       -36.5565
 101   2.0000      -1.342500       -36.5313
 102   2.0000      -1.341049       -36.4918
 103   2.0000      -1.338066       -36.4106
 104   2.0000      -1.337243       -36.3882
 105   2.0000      -1.335650       -36.3449
 106   2.0000      -1.334329       -36.3089
 107   2.0000      -1.331959       -36.2444
 108   2.0000      -1.330201       -36.1966
 109   2.0000      -1.329117       -36.1671
 110   2.0000      -1.326715       -36.1017
 111   2.0000      -1.323794       -36.0223
 112   2.0000      -1.323067       -36.0025
 113   2.0000      -1.320123       -35.9224
 114   2.0000      -1.318716       -35.8841
 115   2.0000      -1.318280       -35.8722
 116   2.0000      -1.316153       -35.8144
 117   2.0000      -1.315801       -35.8048
 118   2.0000      -1.311484       -35.6873
 119   2.0000      -1.310206       -35.6525
 120   2.0000      -1.138221       -30.9726
 121   2.0000      -1.129683       -30.7402
 122   2.0000      -1.095950       -29.8223
 123   2.0000      -1.089569       -29.6487
 124   2.0000      -1.011428       -27.5224
 125   2.0000      -1.010033       -27.4844
 126   2.0000      -1.007821       -27.4242
 127   2.0000      -1.004360       -27.3300
 128   2.0000      -1.001462       -27.2512
 129   2.0000      -0.996934       -27.1279
 130   2.0000      -0.995709       -27.0946
 131   2.0000      -0.984493       -26.7894
 132   2.0000      -0.952624       -25.9222
 133   2.0000      -0.933272       -25.3956
 134   2.0000      -0.921081       -25.0639
 135   2.0000      -0.914743       -24.8914
 136   2.0000      -0.903695       -24.5908
 137   2.0000      -0.898318       -24.4445
 138   2.0000      -0.897128       -24.4121
 139   2.0000      -0.888562       -24.1790
 140   2.0000      -0.875157       -23.8142
 141   2.0000      -0.875100       -23.8127
 142   2.0000      -0.870639       -23.6913
 143   2.0000      -0.869203       -23.6522
 144   2.0000      -0.865983       -23.5646
 145   2.0000      -0.864164       -23.5151
 146   2.0000      -0.862667       -23.4743
 147   2.0000      -0.857918       -23.3451
 148   2.0000      -0.843143       -22.9431
 149   2.0000      -0.837673       -22.7942
 150   2.0000      -0.832895       -22.6642
 151   2.0000      -0.828074       -22.5330
 152   2.0000      -0.801633       -21.8135
 153   2.0000      -0.792387       -21.5619
 154   2.0000      -0.787526       -21.4297
 155   2.0000      -0.778955       -21.1964
 156   2.0000      -0.767700       -20.8902
 157   2.0000      -0.760024       -20.6813
 158   2.0000      -0.757190       -20.6042
 159   2.0000      -0.755672       -20.5629
 160   2.0000      -0.754197       -20.5227
 161   2.0000      -0.750497       -20.4221
 162   2.0000      -0.748043       -20.3553
 163   2.0000      -0.745824       -20.2949
 164   2.0000      -0.724040       -19.7021
 165   2.0000      -0.718890       -19.5620
 166   2.0000      -0.701467       -19.0879
 167   2.0000      -0.698995       -19.0206
 168   2.0000      -0.697452       -18.9786
 169   2.0000      -0.695963       -18.9381
 170   2.0000      -0.692505       -18.8440
 171   2.0000      -0.691058       -18.8046
 172   2.0000      -0.687383       -18.7046
 173   2.0000      -0.685606       -18.6563
 174   2.0000      -0.684190       -18.6178
 175   2.0000      -0.683220       -18.5914
 176   2.0000      -0.679444       -18.4886
 177   2.0000      -0.677974       -18.4486
 178   2.0000      -0.674507       -18.3543
 179   2.0000      -0.669727       -18.2242
 180   2.0000      -0.662314       -18.0225
 181   2.0000      -0.661524       -18.0010
 182   2.0000      -0.655462       -17.8360
 183   2.0000      -0.651401       -17.7255
 184   2.0000      -0.647898       -17.6302
 185   2.0000      -0.642363       -17.4796
 186   2.0000      -0.640805       -17.4372
 187   2.0000      -0.637635       -17.3509
 188   2.0000      -0.636227       -17.3126
 189   2.0000      -0.634412       -17.2632
 190   2.0000      -0.633464       -17.2374
 191   2.0000      -0.633162       -17.2292
 192   2.0000      -0.632008       -17.1978
 193   2.0000      -0.630843       -17.1661
 194   2.0000      -0.630744       -17.1634
 195   2.0000      -0.629409       -17.1271
 196   2.0000      -0.628645       -17.1063
 197   2.0000      -0.626402       -17.0453
 198   2.0000      -0.624938       -17.0054
 199   2.0000      -0.623614       -16.9694
 200   2.0000      -0.623401       -16.9636
 201   2.0000      -0.621363       -16.9081
 202   2.0000      -0.619313       -16.8524
 203   2.0000      -0.617011       -16.7897
 204   2.0000      -0.615287       -16.7428
 205   2.0000      -0.613426       -16.6922
 206   2.0000      -0.611014       -16.6265
 207   2.0000      -0.609689       -16.5905
 208   2.0000      -0.605104       -16.4657
 209   2.0000      -0.603413       -16.4197
 210   2.0000      -0.596456       -16.2304
 211   2.0000      -0.594671       -16.1818
 212   2.0000      -0.592574       -16.1248
 213   2.0000      -0.589633       -16.0447
 214   2.0000      -0.588204       -16.0058
 215   2.0000      -0.586239       -15.9524
 216   2.0000      -0.584413       -15.9027
 217   2.0000      -0.584021       -15.8920
 218   2.0000      -0.579450       -15.7676
 219   2.0000      -0.578210       -15.7339
 220   2.0000      -0.577101       -15.7037
 221   2.0000      -0.576400       -15.6847
 222   2.0000      -0.572207       -15.5705
 223   2.0000      -0.570639       -15.5279
 224   2.0000      -0.565489       -15.3877
 225   2.0000      -0.564665       -15.3653
 226   2.0000      -0.561156       -15.2698
 227   2.0000      -0.559859       -15.2345
 228   2.0000      -0.557254       -15.1637
 229   2.0000      -0.555129       -15.1058
 230   2.0000      -0.554089       -15.0775
 231   2.0000      -0.553072       -15.0499
 232   2.0000      -0.550916       -14.9912
 233   2.0000      -0.550521       -14.9804
 234   2.0000      -0.548096       -14.9144
 235   2.0000      -0.546203       -14.8629
 236   2.0000      -0.541179       -14.7262
 237   2.0000      -0.540179       -14.6990
 238   2.0000      -0.536581       -14.6011
 239   2.0000      -0.535394       -14.5688
 240   2.0000      -0.532742       -14.4966
 241   2.0000      -0.531958       -14.4753
 242   2.0000      -0.531612       -14.4659
 243   2.0000      -0.529611       -14.4115
 244   2.0000      -0.526570       -14.3287
 245   2.0000      -0.525692       -14.3048
 246   2.0000      -0.523776       -14.2527
 247   2.0000      -0.520064       -14.1517
 248   2.0000      -0.517689       -14.0870
 249   2.0000      -0.514792       -14.0082
 250   2.0000      -0.512479       -13.9453
 251   2.0000      -0.509308       -13.8590
 252   2.0000      -0.507280       -13.8038
 253   2.0000      -0.505394       -13.7525
 254   2.0000      -0.504057       -13.7161
 255   2.0000      -0.500891       -13.6299
 256   2.0000      -0.499124       -13.5818
 257   2.0000      -0.495889       -13.4938
 258   2.0000      -0.495383       -13.4800
 259   2.0000      -0.491110       -13.3638
 260   2.0000      -0.489324       -13.3152
 261   2.0000      -0.485559       -13.2127
 262   2.0000      -0.485395       -13.2083
 263   2.0000      -0.480193       -13.0667
 264   2.0000      -0.480163       -13.0659
 265   2.0000      -0.475323       -12.9342
 266   2.0000      -0.473313       -12.8795
 267   2.0000      -0.472382       -12.8542
 268   2.0000      -0.469790       -12.7836
 269   2.0000      -0.468380       -12.7453
 270   2.0000      -0.466556       -12.6956
 271   2.0000      -0.465865       -12.6768
 272   2.0000      -0.461889       -12.5687
 273   2.0000      -0.461455       -12.5568
 274   2.0000      -0.453145       -12.3307
 275   2.0000      -0.448905       -12.2153
 276   2.0000      -0.448342       -12.2000
 277   2.0000      -0.444767       -12.1027
 278   2.0000      -0.441374       -12.0104
 279   2.0000      -0.440764       -11.9938
 280   2.0000      -0.435376       -11.8472
 281   2.0000      -0.430618       -11.7177
 282   2.0000      -0.416968       -11.3463
 283   2.0000      -0.416547       -11.3348
 284   2.0000      -0.408832       -11.1249
 285   2.0000      -0.386501       -10.5172
 286   2.0000      -0.385519       -10.4905
 287   2.0000      -0.383487       -10.4352
 288   2.0000      -0.381428       -10.3792
 289   2.0000      -0.376767       -10.2524
 290   2.0000      -0.376087       -10.2339
 291   2.0000      -0.370341       -10.0775
 292   2.0000      -0.366578        -9.9751
 293   2.0000      -0.358433        -9.7535
 294   2.0000      -0.357377        -9.7247
 295   2.0000      -0.354323        -9.6416
 296   2.0000      -0.351398        -9.5620
 297   2.0000      -0.345901        -9.4124
 298   2.0000      -0.338768        -9.2183
 299   2.0000      -0.337237        -9.1767
 300   2.0000      -0.335771        -9.1368
 301   2.0000      -0.332091        -9.0366
 302   2.0000      -0.331900        -9.0314
 303   2.0000      -0.327222        -8.9042
 304   2.0000      -0.319642        -8.6979
 305   2.0000      -0.312323        -8.4987
 306   2.0000      -0.301840        -8.2135
 307   2.0000      -0.280208        -7.6248
 308   2.0000      -0.267158        -7.2698
 309   2.0000      -0.222594        -6.0571
 310   0.0000      -0.085138        -2.3167
 311   0.0000      -0.058259        -1.5853
 312   0.0000      -0.056164        -1.5283
 313   0.0000      -0.052126        -1.4184
 314   0.0000      -0.029857        -0.8125

MULLIKEN ATOMIC CHARGES
-----------------------
   0 C :   -0.024579
   1 C :   -0.104557
   2 C :    0.189534
   3 C :    0.183930
   4 C :    0.130746
   5 C :    0.182081
   6 C :    0.176221
   7 F :   -0.156072
   8 F :   -0.153753
   9 F :   -0.147554
  10 F :   -0.158098
  11 F :   -0.165812
  12 C :    0.055474
  13 C :   -0.056989
  14 C :    0.146851
  15 C :    0.193618
  16 C :    0.120847
  17 C :    0.188227
  18 C :    0.153638
  19 F :   -0.170044
  20 F :   -0.153828
  21 F :   -0.152664
  22 F :   -0.153142
  23 F :   -0.155298
  24 N :   -0.024373
  25 C :   -0.127189
  26 S :    0.157798
  27 C :   -0.014145
  28 N :    0.278481
  29 O :   -0.277699
  30 O :   -0.254176
  31 C :    0.017027
  32 C :    0.107776
  33 C :   -0.019660
  34 C :   -0.038379
  35 C :   -0.001906
  36 C :   -0.013575
  37 C :    0.042276
  38 C :    0.030940
  39 C :   -0.031412
  40 S :    0.022480
  41 C :   -0.038847
  42 C :    0.024537
  43 C :    0.020874
  44 C :   -0.048060
  45 S :    0.039312
  46 C :    0.040302
  47 N :   -0.049417
  48 C :   -0.106475
  49 S :    0.169069
  50 C :   -0.012385
  51 N :    0.280453
  52 O :   -0.250743
  53 O :   -0.267310
  54 C :    0.007805
  55 C :    0.099336
  56 C :   -0.035765
  57 C :   -0.006216
  58 C :    0.049144
  59 C :   -0.088140
  60 C :    0.163075
  61 C :    0.186470
  62 C :    0.136463
  63 C :    0.181838
  64 C :    0.168791
  65 F :   -0.156173
  66 F :   -0.150963
  67 F :   -0.159660
  68 F :   -0.157879
  69 F :   -0.156451
  70 C :    0.001017
  71 C :   -0.076478
  72 C :    0.164485
  73 C :    0.178045
  74 C :    0.131480
  75 C :    0.181811
  76 C :    0.159264
  77 F :   -0.158254
  78 F :   -0.155684
  79 F :   -0.149668
  80 F :   -0.154621
  81 F :   -0.160370
  82 H :    0.020035
  83 H :    0.137920
  84 H :    0.005151
  85 H :    0.002864
  86 H :    0.012292
  87 H :   -0.012463
  88 H :   -0.009854
  89 H :   -0.012631
  90 H :   -0.007529
  91 H :   -0.020790
  92 H :    0.029745
  93 H :    0.144306
  94 H :    0.008051
  95 H :    0.020062
  96 H :   -0.001779
  97 H :    0.017568
Sum of atomic charges:   -0.0000000

LOEWDIN ATOMIC CHARGES
----------------------
   0 C :   -0.056997
   1 C :   -0.100631
   2 C :    0.053496
   3 C :    0.026423
   4 C :    0.044654
   5 C :    0.028604
   6 C :    0.066243
   7 F :   -0.035781
   8 F :   -0.032952
   9 F :   -0.026064
  10 F :   -0.037638
  11 F :   -0.037783
  12 C :    0.024847
  13 C :   -0.075687
  14 C :    0.060809
  15 C :    0.024773
  16 C :    0.036708
  17 C :    0.023365
  18 C :    0.052361
  19 F :   -0.039861
  20 F :   -0.033231
  21 F :   -0.029585
  22 F :   -0.029879
  23 F :   -0.032159
  24 N :    0.040575
  25 C :   -0.098460
  26 S :    0.487330
  27 C :   -0.222539
  28 N :    0.273193
  29 O :   -0.243828
  30 O :   -0.219819
  31 C :    0.002263
  32 C :   -0.108101
  33 C :   -0.011010
  34 C :   -0.054427
  35 C :   -0.051443
  36 C :   -0.139893
  37 C :   -0.031059
  38 C :   -0.028761
  39 C :   -0.180570
  40 S :    0.367948
  41 C :   -0.177275
  42 C :   -0.019211
  43 C :   -0.048270
  44 C :   -0.183473
  45 S :    0.359284
  46 C :   -0.012493
  47 N :    0.031465
  48 C :   -0.101428
  49 S :    0.447062
  50 C :   -0.207977
  51 N :    0.273824
  52 O :   -0.216464
  53 O :   -0.232648
  54 C :    0.009422
  55 C :   -0.103483
  56 C :   -0.013092
  57 C :   -0.030344
  58 C :   -0.008180
  59 C :   -0.067606
  60 C :    0.059378
  61 C :    0.019412
  62 C :    0.035297
  63 C :    0.029061
  64 C :    0.066050
  65 F :   -0.035119
  66 F :   -0.032354
  67 F :   -0.037022
  68 F :   -0.030556
  69 F :   -0.032398
  70 C :   -0.009546
  71 C :   -0.081034
  72 C :    0.066704
  73 C :    0.026045
  74 C :    0.041718
  75 C :    0.026583
  76 C :    0.060075
  77 F :   -0.032129
  78 F :   -0.035413
  79 F :   -0.027722
  80 F :   -0.034655
  81 F :   -0.039382
  82 H :    0.040962
  83 H :    0.078968
  84 H :    0.045597
  85 H :    0.033877
  86 H :    0.015200
  87 H :    0.034487
  88 H :    0.035180
  89 H :    0.032567
  90 H :    0.035337
  91 H :    0.027438
  92 H :    0.031243
  93 H :    0.091272
  94 H :    0.044262
  95 H :    0.032732
  96 H :    0.026742
  97 H :    0.036599

  Mayer bond orders larger than 0.100000
B(  0-C ,  1-C ) :   1.0587 B(  0-C , 12-C ) :   1.7509 B(  0-C , 82-H ) :   0.9428
B(  1-C ,  2-C ) :   1.2923 B(  1-C ,  4-C ) :   0.1086 B(  1-C ,  6-C ) :   1.3051
B(  2-C ,  3-C ) :   1.2943 B(  2-C , 11-F ) :   1.1402 B(  3-C ,  4-C ) :   1.2775
B(  3-C , 10-F ) :   1.1758 B(  4-C ,  5-C ) :   1.2650 B(  4-C ,  9-F ) :   1.1818
B(  5-C ,  6-C ) :   1.2899 B(  5-C ,  8-F ) :   1.1766 B(  6-C ,  7-F ) :   1.1859
B( 12-C , 13-C ) :   0.9298 B( 12-C , 24-N ) :   1.1267 B( 13-C , 14-C ) :   1.3638
B( 13-C , 16-C ) :   0.1034 B( 13-C , 18-C ) :   1.3501 B( 14-C , 15-C ) :   1.2800
B( 14-C , 23-F ) :   1.1677 B( 15-C , 16-C ) :   1.2784 B( 15-C , 22-F ) :   1.1711
B( 16-C , 17-C ) :   1.2830 B( 16-C , 21-F ) :   1.1751 B( 17-C , 18-C ) :   1.2869
B( 17-C , 20-F ) :   1.1723 B( 18-C , 19-F ) :   1.1145 B( 24-N , 25-C ) :   1.2312
B( 24-N , 83-H ) :   0.8679 B( 25-C , 26-S ) :   1.1440 B( 25-C , 32-C ) :   1.3559
B( 26-S , 27-C ) :   1.0723 B( 27-C , 28-N ) :   0.9813 B( 27-C , 31-C ) :   1.4638
B( 28-N , 29-O ) :   1.5023 B( 28-N , 30-O ) :   1.5326 B( 29-O , 30-O ) :   0.2505
B( 31-C , 32-C ) :   1.2547 B( 31-C , 84-H ) :   1.0064 B( 32-C , 33-C ) :   1.0428
B( 33-C , 34-C ) :   1.6881 B( 33-C , 85-H ) :   0.9751 B( 34-C , 35-C ) :   1.1337
B( 34-C , 86-H ) :   0.9464 B( 35-C , 36-C ) :   1.6036 B( 35-C , 87-H ) :   0.9874
B( 36-C , 37-C ) :   1.1287 B( 36-C , 40-S ) :   1.0220 B( 37-C , 38-C ) :   1.6093
B( 37-C , 88-H ) :   0.9982 B( 38-C , 39-C ) :   1.1761 B( 38-C , 89-H ) :   0.9931
B( 39-C , 40-S ) :   1.0398 B( 39-C , 41-C ) :   1.5298 B( 41-C , 42-C ) :   1.1849
B( 41-C , 45-S ) :   1.0338 B( 42-C , 43-C ) :   1.6402 B( 42-C , 90-H ) :   0.9918
B( 43-C , 44-C ) :   1.1149 B( 43-C , 91-H ) :   0.9878 B( 44-C , 45-S ) :   1.0181
B( 44-C , 46-C ) :   1.6420 B( 46-C , 47-N ) :   1.1332 B( 46-C , 92-H ) :   0.9391
B( 47-N , 48-C ) :   1.2075 B( 47-N , 93-H ) :   0.9106 B( 48-C , 49-S ) :   1.1341
B( 48-C , 55-C ) :   1.3621 B( 49-S , 50-C ) :   1.0737 B( 50-C , 51-N ) :   0.9727
B( 50-C , 54-C ) :   1.4986 B( 51-N , 52-O ) :   1.5315 B( 51-N , 53-O ) :   1.5078
B( 52-O , 53-O ) :   0.2575 B( 54-C , 55-C ) :   1.2296 B( 54-C , 94-H ) :   0.9994
B( 55-C , 56-C ) :   1.0812 B( 56-C , 57-C ) :   1.7483 B( 56-C , 95-H ) :   0.9631
B( 57-C , 58-C ) :   1.0948 B( 57-C , 96-H ) :   0.9453 B( 58-C , 59-C ) :   0.9609
B( 58-C , 70-C ) :   1.7622 B( 59-C , 60-C ) :   1.3321 B( 59-C , 62-C ) :   0.1064
B( 59-C , 64-C ) :   1.3394 B( 60-C , 61-C ) :   1.3026 B( 60-C , 69-F ) :   1.1484
B( 61-C , 62-C ) :   1.2758 B( 61-C , 68-F ) :   1.1415 B( 62-C , 63-C ) :   1.2835
B( 62-C , 67-F ) :   1.1307 B( 63-C , 64-C ) :   1.2723 B( 63-C , 66-F ) :   1.1765
B( 64-C , 65-F ) :   1.1721 B( 70-C , 71-C ) :   1.0423 B( 70-C , 97-H ) :   0.9580
B( 71-C , 72-C ) :   1.3091 B( 71-C , 74-C ) :   0.1076 B( 71-C , 76-C ) :   1.3108
B( 72-C , 73-C ) :   1.2899 B( 72-C , 81-F ) :   1.1767 B( 73-C , 74-C ) :   1.2631
B( 73-C , 80-F ) :   1.1771 B( 74-C , 75-C ) :   1.2795 B( 74-C , 79-F ) :   1.1793
B( 75-C , 76-C ) :   1.2809 B( 75-C , 78-F ) :   1.1740 B( 76-C , 77-F ) :   1.1549

-----------------------------------------------------------------------------
         ABSORPTION SPECTRUM VIA TRANSITION ELECTRIC DIPOLE MOMENTS
-----------------------------------------------------------------------------
State   Energy  Wavelength   fosc         T2         TX        TY        TZ
        (cm-1)    (nm)                  (au**2)     (au)      (au)      (au)
-----------------------------------------------------------------------------
   0   15568.8    642.3   1.261153162  26.66785  -5.09175   0.38628  -0.76986
   1   21534.1    464.4   0.099314759   1.51831  -0.49332   0.00169  -1.12913
   2   22334.0    447.7   0.149948335   2.21029  -1.07330  -0.95688  -0.37776
   3   23691.1    422.1   0.082442936   1.14563   0.26148   0.04125  -1.03709
   4   24634.0    405.9   0.339307726   4.53456  -0.58982  -1.20940   1.65046
   5   26916.2    371.5   0.176633217   2.16040   0.30584  -0.40352   1.37987
   6   27729.1    360.6   0.079232247   0.94068   0.17584   0.46368   0.83353
   7   28138.7    355.4   0.094044952   1.10029   0.24140   0.71351   0.73001
   8   29226.2    342.2   0.207363166   2.33580   0.10140   0.97323   1.17402
   9   30047.6    332.8   0.033384148   0.36577   0.32829   0.45877   0.21800
  10   30201.6    331.1   0.337692145   3.68100  -0.40432  -0.61416  -1.77210
  11   30937.1    323.2   0.004006630   0.04264   0.12608   0.15197   0.06039
  12   32188.4    310.7   0.015483435   0.15836  -0.25855   0.27316   0.12997
  13   32351.4    309.1   0.092783592   0.94418  -0.62119   0.69053   0.28541
  14   32611.6    306.6   0.105384370   1.06385   0.77542   0.41491  -0.53891
  15   33774.5    296.1   0.019865827   0.19364   0.21956  -0.12678   0.35966
  16   33878.7    295.2   0.029269933   0.28443   0.21719   0.09875   0.47698
  17   35062.9    285.2   0.054309292   0.50992  -0.35836   0.20396   0.58300
  18   35256.0    283.6   0.081690983   0.76281  -0.26332   0.32651   0.76607
  19   35404.9    282.4   0.037985222   0.35321   0.49847  -0.06437  -0.31715
  20   35928.4    278.3   0.011683804   0.10706  -0.03453   0.31967   0.06064
  21   36419.6    274.6   0.050610958   0.45749  -0.16583  -0.26476  -0.59991
  22   36662.1    272.8   0.015583222   0.13993   0.19230   0.30101  -0.11110
  23   37012.7    270.2   0.205861901   1.83105  -0.83865   0.71810  -0.78234
  24   37188.6    268.9   0.114014863   1.00932   0.74777  -0.19269   0.64267
  25   37580.3    266.1   0.027567988   0.24150   0.35093   0.01910  -0.34349
  26   37769.3    264.8   0.009195207   0.08015  -0.06683  -0.14088   0.23629
  27   38193.0    261.8   0.059884876   0.51619  -0.24472   0.61349  -0.28273
  28   38413.9    260.3   0.018391959   0.15762   0.32817  -0.15333  -0.16253
  29   38461.7    260.0   0.117294317   1.00398   0.92338   0.03492  -0.38746
  30   38504.3    259.7   0.131551219   1.12476  -0.78501   0.32497  -0.63475
  31   38683.0    258.5   0.255038932   2.17051   1.30714  -0.61993  -0.27853
  32   38723.4    258.2   0.108284266   0.92059   0.31421   0.33385   0.84286
  33   39067.6    256.0   0.081089325   0.68332   0.09660  -0.07744   0.81731
  34   39357.5    254.1   0.335927226   2.80992   0.93652  -0.36962   1.34023
  35   39919.4    250.5   0.032942406   0.27167  -0.51582   0.02222   0.07148
  36   40275.5    248.3   0.009527668   0.07788  -0.05176  -0.12106   0.24606

FINAL SINGLE POINT ENERGY     -6018.496184938726

DIPOLE MOMENT
-------------
                                X             Y             Z
Electronic contribution:      1.45914     -32.66971      39.15523
Nuclear contribution   :     -0.82631      34.07302     -42.79042
                        -----------------------------------------
Total Dipole Moment    :      0.63283       1.40331      -3.63519
                        -----------------------------------------
Magnitude (a.u.)       :      3.94770
Magnitude (Debye)      :     10.03425

Rotational constants in cm-1:     0.001113     0.000370     0.000331
Rotational constants in MHz :    33.372883    11.106787     9.935772

                             ****ORCA TERMINATED NORMALLY****
TOTAL RUN TIME: 0 days 0 hours 10 minutes 39 seconds 13 msec
