                         Program Version 4.2.0 -  RELEASE  -
|  1> # ORCA input file
|  2> # SCF done       -186.565032605951          0.000771618889
|  3> ! CAM-B3LYP def2-SVP def2/J RIJCOSX Grid4 TightSCF
|  4> %maxcore 5000
|  5> %tddft
|  6>     Mode sTDDFT
|  7>     Ethresh 5.0
|  8>     maxcore 5000
|  9> end
| 10>
| 11> %pal
| 12>   nprocs 6
| 13>   end
| 14> * xyz 0 1
| 15>    C        0.04106        -0.91688         0.39504
| 16>    C        0.34325        -1.28869         1.83009
| 17>    C        1.59811        -1.12330         2.39965
| 18>    C        1.80745        -1.44019         3.73289
| 19>    C        0.76407        -1.91401         4.50764
| 20>    C       -0.49800        -2.05440         3.95272
| 21>    C       -0.70925        -1.73680         2.62538
| 22>    C       -0.67803        -2.00426        -0.38168
| 23>    C       -0.67869        -3.32688         0.04718
| 24>    C       -1.32572        -4.29936        -0.69590
| 25>    C       -1.96772        -3.96802        -1.87641
| 26>    C       -1.95351        -2.65582        -2.31823
| 27>    C       -1.31090        -1.68149        -1.57746
| 28>    C        1.22833        -0.43607        -0.39011
| 29>    C        1.17668         0.86367        -0.79283
| 30>    C        0.00993         1.60101        -0.37343
| 31>    C       -0.25270         2.92360        -0.60743
| 32>    C        0.62161         3.79851        -1.28009
| 33>    N        1.28810         4.57168        -1.80376
| 34>    C       -1.45057         3.51093        -0.15146
| 35>    N       -2.43174         3.98098         0.21221
| 36>    S       -1.07963         0.58142         0.51408
| 37>    C        2.14819         1.42041        -1.65434
| 38>    N        2.92849         1.79479        -2.40603
| 39>    C        2.37436        -1.28564        -0.67749
| 40>    C        2.31161        -2.55860        -1.20347
| 41>    C        3.46140        -3.29953        -1.49789
| 42>    C        4.73885        -2.82461        -1.27333
| 43>    C        4.85083        -1.49558        -0.77934
| 44>    C        3.67044        -0.74371        -0.45358
| 45>    N        3.91174         0.45192         0.07069
| 46>   Se        5.62666         0.74515         0.07750
| 47>    N        5.98472        -0.83311        -0.58369
| 48>    C        5.92538        -3.62877        -1.54299
| 49>    C        5.89307        -4.42809        -2.77326
| 50>    C        6.25554        -5.77613        -2.75561
| 51>    C        6.18889        -6.53960        -3.90209
| 52>    C        5.74527        -5.97392        -5.09742
| 53>    C        5.35219        -4.63691        -5.11113
| 54>    C        5.42580        -3.87305        -3.96540
| 55>    C        5.62918        -6.74772        -6.36636
| 56>    O        4.86842        -6.44830        -7.24457
| 57>    O        6.43886        -7.81625        -6.49263
| 58>    C        6.98110        -3.65244        -0.67299
| 59>    C        6.82485        -3.10368         0.68506
| 60>    C        5.68945        -3.40951         1.43669
| 61>    C        5.48885        -2.83020         2.67035
| 62>    C        6.42999        -1.94821         3.20115
| 63>    C        7.58441        -1.66969         2.47019
| 64>    C        7.77950        -2.24521         1.22981
| 65>    C        6.11520        -1.32148         4.51585
| 66>    O        4.99549        -1.26524         4.94887
| 67>    O        7.14407        -0.81947         5.21751
| 68>    C        8.27002        -4.18157        -1.01907
| 69>    N        9.15719        -4.61704        -0.07471
| 70>    C       10.32265        -5.00374        -0.66937
| 71>    C       10.18058        -4.79618        -2.04163
| 72>    C        8.90611        -4.28901        -2.25618
| 73>    C       11.41418        -5.49476         0.03086
| 74>    C       12.38852        -5.92215         0.61706
| 75>    C       13.52134        -6.41224         1.25777
| 76>    C       14.64802        -6.81724         0.53159
| 77>    C       15.83821        -7.32655         1.19609
| 78>    N       16.79146        -7.65323         0.30229
| 79>    S       16.24665        -7.35365        -1.16745
| 80>    N       14.79097        -6.79855        -0.80019
| 81>    C       15.91651        -7.43604         2.57111
| 82>    C       14.79741        -7.03595         3.31539
| 83>    C       14.65399        -7.05737         4.69281
| 84>    S       13.13353        -6.48319         5.19024
| 85>    C       12.63011        -6.19247         3.58918
| 86>    C       13.60302        -6.52618         2.67073
| 87>    H        2.41909        -0.73254         1.81984
| 88>    H        2.78575        -1.30220         4.16752
| 89>    H        0.93097        -2.15779         5.54566
| 90>    H       -1.32319        -2.40277         4.55559
| 91>    H       -1.69798        -1.82599         2.19728
| 92>    H       -0.16663        -3.60133         0.95701
| 93>    H       -1.32413        -5.32123        -0.34726
| 94>    H       -2.47358        -4.72852        -2.45133
| 95>    H       -2.44427        -2.38705        -3.24107
| 96>    H       -1.30996        -0.66038        -1.93086
| 97>    H        1.35265        -2.99843        -1.42436
| 98>    H        3.33849        -4.29479        -1.89987
| 99>    H        6.57950        -6.22657        -1.82923
|100>    H        6.44510        -7.58967        -3.84290
|101>    H        4.99315        -4.21640        -6.03789
|102>    H        5.13239        -2.83406        -3.98610
|103>    H        7.04131        -7.91496        -5.74368
|104>    H        4.95659        -4.09621         1.03988
|105>    H        4.59994        -3.04427         3.24410
|106>    H        8.32269        -0.96585         2.83321
|107>    H        8.65283        -1.98700         0.65006
|108>    H        7.99629        -0.95421         4.78360
|109>    H        8.97044        -4.65996         0.91394
|110>    H       10.93549        -4.99025        -2.77676
|111>    H        8.48957        -3.99522        -3.19857
|112>    H       16.80392        -7.81387         3.05015
|113>    H       15.37137        -7.38293         5.41817
|114>    H       11.65508        -5.79570         3.39107
|115> *
|116>
|117>                          ****END OF INPUT****

CARTESIAN COORDINATES (ANGSTROEM)
---------------------------------
  C      0.041060   -0.916880    0.395040
  C      0.343250   -1.288690    1.830090
  C      1.598110   -1.123300    2.399650
  C      1.807450   -1.440190    3.732890
  C      0.764070   -1.914010    4.507640
  C     -0.498000   -2.054400    3.952720
  C     -0.709250   -1.736800    2.625380
  C     -0.678030   -2.004260   -0.381680
  C     -0.678690   -3.326880    0.047180
  C     -1.325720   -4.299360   -0.695900
  C     -1.967720   -3.968020   -1.876410
  C     -1.953510   -2.655820   -2.318230
  C     -1.310900   -1.681490   -1.577460
  C      1.228330   -0.436070   -0.390110
  C      1.176680    0.863670   -0.792830
  C      0.009930    1.601010   -0.373430
  C     -0.252700    2.923600   -0.607430
  C      0.621610    3.798510   -1.280090
  N      1.288100    4.571680   -1.803760
  C     -1.450570    3.510930   -0.151460
  N     -2.431740    3.980980    0.212210
  S     -1.079630    0.581420    0.514080
  C      2.148190    1.420410   -1.654340
  N      2.928490    1.794790   -2.406030
  C      2.374360   -1.285640   -0.677490
  C      2.311610   -2.558600   -1.203470
  C      3.461400   -3.299530   -1.497890
  C      4.738850   -2.824610   -1.273330
  C      4.850830   -1.495580   -0.779340
  C      3.670440   -0.743710   -0.453580
  N      3.911740    0.451920    0.070690
  Se     5.626660    0.745150    0.077500
  N      5.984720   -0.833110   -0.583690
  C      5.925380   -3.628770   -1.542990
  C      5.893070   -4.428090   -2.773260
  C      6.255540   -5.776130   -2.755610
  C      6.188890   -6.539600   -3.902090
  C      5.745270   -5.973920   -5.097420
  C      5.352190   -4.636910   -5.111130
  C      5.425800   -3.873050   -3.965400
  C      5.629180   -6.747720   -6.366360
  O      4.868420   -6.448300   -7.244570
  O      6.438860   -7.816250   -6.492630
  C      6.981100   -3.652440   -0.672990
  C      6.824850   -3.103680    0.685060
  C      5.689450   -3.409510    1.436690
  C      5.488850   -2.830200    2.670350
  C      6.429990   -1.948210    3.201150
  C      7.584410   -1.669690    2.470190
  C      7.779500   -2.245210    1.229810
  C      6.115200   -1.321480    4.515850
  O      4.995490   -1.265240    4.948870
  O      7.144070   -0.819470    5.217510
  C      8.270020   -4.181570   -1.019070
  N      9.157190   -4.617040   -0.074710
  C     10.322650   -5.003740   -0.669370
  C     10.180580   -4.796180   -2.041630
  C      8.906110   -4.289010   -2.256180
  C     11.414180   -5.494760    0.030860
  C     12.388520   -5.922150    0.617060
  C     13.521340   -6.412240    1.257770
  C     14.648020   -6.817240    0.531590
  C     15.838210   -7.326550    1.196090
  N     16.791460   -7.653230    0.302290
  S     16.246650   -7.353650   -1.167450
  N     14.790970   -6.798550   -0.800190
  C     15.916510   -7.436040    2.571110
  C     14.797410   -7.035950    3.315390
  C     14.653990   -7.057370    4.692810
  S     13.133530   -6.483190    5.190240
  C     12.630110   -6.192470    3.589180
  C     13.603020   -6.526180    2.670730
  H      2.419090   -0.732540    1.819840
  H      2.785750   -1.302200    4.167520
  H      0.930970   -2.157790    5.545660
  H     -1.323190   -2.402770    4.555590
  H     -1.697980   -1.825990    2.197280
  H     -0.166630   -3.601330    0.957010
  H     -1.324130   -5.321230   -0.347260
  H     -2.473580   -4.728520   -2.451330
  H     -2.444270   -2.387050   -3.241070
  H     -1.309960   -0.660380   -1.930860
  H      1.352650   -2.998430   -1.424360
  H      3.338490   -4.294790   -1.899870
  H      6.579500   -6.226570   -1.829230
  H      6.445100   -7.589670   -3.842900
  H      4.993150   -4.216400   -6.037890
  H      5.132390   -2.834060   -3.986100
  H      7.041310   -7.914960   -5.743680
  H      4.956590   -4.096210    1.039880
  H      4.599940   -3.044270    3.244100
  H      8.322690   -0.965850    2.833210
  H      8.652830   -1.987000    0.650060
  H      7.996290   -0.954210    4.783600
  H      8.970440   -4.659960    0.913940
  H     10.935490   -4.990250   -2.776760
  H      8.489570   -3.995220   -3.198570
  H     16.803920   -7.813870    3.050150
  H     15.371370   -7.382930    5.418170
  H     11.655080   -5.795700    3.391070

 Total Charge           Charge          ....    0
 Multiplicity           Mult            ....    1
 Number of Electrons    NEL             ....  534
 Basis Dimension        Dim             .... 1178

ORBITAL ENERGIES
----------------

  NO   OCC          E(Eh)            E(eV)
   0   2.0000    -453.989735    -12353.6887
   1   2.0000     -89.030815     -2422.6517
   2   2.0000     -88.987215     -2421.4652
   3   2.0000     -88.964267     -2420.8408
   4   2.0000     -58.203279     -1583.7917
   5   2.0000     -52.273973     -1422.4471
   6   2.0000     -52.271643     -1422.3837
   7   2.0000     -52.271154     -1422.3704
   8   2.0000     -19.275449      -524.5116
   9   2.0000     -19.260381      -524.1016
  10   2.0000     -19.213218      -522.8182
  11   2.0000     -19.196499      -522.3633
  12   2.0000     -14.478228      -393.9726
  13   2.0000     -14.444096      -393.0438
  14   2.0000     -14.442987      -393.0136
  15   2.0000     -14.432288      -392.7225
  16   2.0000     -14.431796      -392.7091
  17   2.0000     -14.409867      -392.1124
  18   2.0000     -14.404798      -391.9745
  19   2.0000     -14.398799      -391.8112
  20   2.0000     -10.417273      -283.4684
  21   2.0000     -10.400853      -283.0216
  22   2.0000     -10.360177      -281.9147
  23   2.0000     -10.351687      -281.6837
  24   2.0000     -10.342356      -281.4298
  25   2.0000     -10.337485      -281.2973
  26   2.0000     -10.335779      -281.2508
  27   2.0000     -10.334955      -281.2284
  28   2.0000     -10.332785      -281.1694
  29   2.0000     -10.326272      -280.9921
  30   2.0000     -10.322813      -280.8980
  31   2.0000     -10.319422      -280.8057
  32   2.0000     -10.316970      -280.7390
  33   2.0000     -10.315341      -280.6947
  34   2.0000     -10.313181      -280.6359
  35   2.0000     -10.310941      -280.5750
  36   2.0000     -10.310697      -280.5683
  37   2.0000     -10.310617      -280.5662
  38   2.0000     -10.310245      -280.5560
  39   2.0000     -10.309057      -280.5237
  40   2.0000     -10.307309      -280.4761
  41   2.0000     -10.306539      -280.4552
  42   2.0000     -10.306215      -280.4464
  43   2.0000     -10.302955      -280.3577
  44   2.0000     -10.302096      -280.3343
  45   2.0000     -10.302009      -280.3319
  46   2.0000     -10.301739      -280.3246
  47   2.0000     -10.301526      -280.3188
  48   2.0000     -10.301466      -280.3171
  49   2.0000     -10.301424      -280.3160
  50   2.0000     -10.300036      -280.2782
  51   2.0000     -10.299502      -280.2637
  52   2.0000     -10.298757      -280.2434
  53   2.0000     -10.298582      -280.2387
  54   2.0000     -10.297729      -280.2155
  55   2.0000     -10.297027      -280.1964
  56   2.0000     -10.296649      -280.1861
  57   2.0000     -10.293322      -280.0955
  58   2.0000     -10.291622      -280.0493
  59   2.0000     -10.288878      -279.9746
  60   2.0000     -10.288284      -279.9584
  61   2.0000     -10.288150      -279.9548
  62   2.0000     -10.286632      -279.9135
  63   2.0000     -10.286432      -279.9081
  64   2.0000     -10.285579      -279.8848
  65   2.0000     -10.285124      -279.8725
  66   2.0000     -10.285116      -279.8722
  67   2.0000     -10.284585      -279.8578
  68   2.0000     -10.282807      -279.8094
  69   2.0000     -10.277371      -279.6615
  70   2.0000     -10.274990      -279.5967
  71   2.0000     -10.274634      -279.5870
  72   2.0000     -10.272862      -279.5388
  73   2.0000     -10.271526      -279.5024
  74   2.0000     -10.271385      -279.4986
  75   2.0000     -10.267329      -279.3882
  76   2.0000      -8.121857      -221.0070
  77   2.0000      -8.082126      -219.9258
  78   2.0000      -8.059179      -219.3014
  79   2.0000      -7.979059      -217.1212
  80   2.0000      -6.092594      -165.7879
  81   2.0000      -6.085331      -165.5903
  82   2.0000      -6.084967      -165.5804
  83   2.0000      -6.050663      -164.6469
  84   2.0000      -6.046366      -164.5300
  85   2.0000      -6.046212      -164.5258
  86   2.0000      -6.029129      -164.0609
  87   2.0000      -6.025295      -163.9566
  88   2.0000      -6.019412      -163.7965
  89   2.0000      -5.929197      -161.3416
  90   2.0000      -5.922482      -161.1589
  91   2.0000      -5.918991      -161.0639
  92   2.0000      -2.283255       -62.1305
  93   2.0000      -2.282614       -62.1131
  94   2.0000      -2.278315       -61.9961
  95   2.0000      -2.273191       -61.8567
  96   2.0000      -2.272954       -61.8502
  97   2.0000      -1.197662       -32.5900
  98   2.0000      -1.181380       -32.1470
  99   2.0000      -1.121431       -30.5157
 100   2.0000      -1.111687       -30.2505
 101   2.0000      -1.102166       -29.9915
 102   2.0000      -1.096458       -29.8361
 103   2.0000      -1.095627       -29.8135
 104   2.0000      -1.031963       -28.0811
 105   2.0000      -1.005725       -27.3672
 106   2.0000      -0.998378       -27.1672
 107   2.0000      -0.997943       -27.1554
 108   2.0000      -0.992623       -27.0107
 109   2.0000      -0.980495       -26.6806
 110   2.0000      -0.978961       -26.6389
 111   2.0000      -0.975563       -26.5464
 112   2.0000      -0.974360       -26.5137
 113   2.0000      -0.968418       -26.3520
 114   2.0000      -0.966596       -26.3024
 115   2.0000      -0.955733       -26.0068
 116   2.0000      -0.940636       -25.5960
 117   2.0000      -0.936194       -25.4751
 118   2.0000      -0.922022       -25.0895
 119   2.0000      -0.901748       -24.5378
 120   2.0000      -0.893497       -24.3133
 121   2.0000      -0.889380       -24.2013
 122   2.0000      -0.882735       -24.0204
 123   2.0000      -0.872598       -23.7446
 124   2.0000      -0.865402       -23.5488
 125   2.0000      -0.864739       -23.5307
 126   2.0000      -0.859390       -23.3852
 127   2.0000      -0.855102       -23.2685
 128   2.0000      -0.851412       -23.1681
 129   2.0000      -0.850624       -23.1466
 130   2.0000      -0.848159       -23.0796
 131   2.0000      -0.842982       -22.9387
 132   2.0000      -0.837768       -22.7968
 133   2.0000      -0.835663       -22.7395
 134   2.0000      -0.816060       -22.2061
 135   2.0000      -0.802269       -21.8309
 136   2.0000      -0.788764       -21.4634
 137   2.0000      -0.771024       -20.9806
 138   2.0000      -0.758070       -20.6281
 139   2.0000      -0.753113       -20.4932
 140   2.0000      -0.738576       -20.0977
 141   2.0000      -0.734185       -19.9782
 142   2.0000      -0.729143       -19.8410
 143   2.0000      -0.721792       -19.6410
 144   2.0000      -0.720135       -19.5959
 145   2.0000      -0.712926       -19.3997
 146   2.0000      -0.712100       -19.3772
 147   2.0000      -0.709708       -19.3121
 148   2.0000      -0.702931       -19.1277
 149   2.0000      -0.701489       -19.0885
 150   2.0000      -0.697933       -18.9917
 151   2.0000      -0.694145       -18.8887
 152   2.0000      -0.693776       -18.8786
 153   2.0000      -0.686264       -18.6742
 154   2.0000      -0.682852       -18.5813
 155   2.0000      -0.680389       -18.5143
 156   2.0000      -0.677431       -18.4338
 157   2.0000      -0.667506       -18.1638
 158   2.0000      -0.661195       -17.9920
 159   2.0000      -0.654598       -17.8125
 160   2.0000      -0.651204       -17.7202
 161   2.0000      -0.650305       -17.6957
 162   2.0000      -0.635011       -17.2795
 163   2.0000      -0.627419       -17.0729
 164   2.0000      -0.622519       -16.9396
 165   2.0000      -0.612413       -16.6646
 166   2.0000      -0.608572       -16.5601
 167   2.0000      -0.605188       -16.4680
 168   2.0000      -0.598891       -16.2967
 169   2.0000      -0.594878       -16.1874
 170   2.0000      -0.587432       -15.9848
 171   2.0000      -0.584621       -15.9084
 172   2.0000      -0.579439       -15.7673
 173   2.0000      -0.574376       -15.6296
 174   2.0000      -0.567198       -15.4343
 175   2.0000      -0.564906       -15.3719
 176   2.0000      -0.562371       -15.3029
 177   2.0000      -0.557273       -15.1642
 178   2.0000      -0.553159       -15.0522
 179   2.0000      -0.551788       -15.0149
 180   2.0000      -0.550181       -14.9712
 181   2.0000      -0.547350       -14.8942
 182   2.0000      -0.546434       -14.8692
 183   2.0000      -0.542977       -14.7751
 184   2.0000      -0.541272       -14.7288
 185   2.0000      -0.539567       -14.6824
 186   2.0000      -0.536917       -14.6102
 187   2.0000      -0.536508       -14.5991
 188   2.0000      -0.534293       -14.5389
 189   2.0000      -0.532729       -14.4963
 190   2.0000      -0.527773       -14.3614
 191   2.0000      -0.525383       -14.2964
 192   2.0000      -0.524429       -14.2704
 193   2.0000      -0.519456       -14.1351
 194   2.0000      -0.518273       -14.1029
 195   2.0000      -0.514946       -14.0124
 196   2.0000      -0.511411       -13.9162
 197   2.0000      -0.508786       -13.8448
 198   2.0000      -0.506338       -13.7781
 199   2.0000      -0.505902       -13.7663
 200   2.0000      -0.504002       -13.7146
 201   2.0000      -0.499348       -13.5879
 202   2.0000      -0.495856       -13.4929
 203   2.0000      -0.495065       -13.4714
 204   2.0000      -0.493301       -13.4234
 205   2.0000      -0.489193       -13.3116
 206   2.0000      -0.484993       -13.1973
 207   2.0000      -0.480877       -13.0853
 208   2.0000      -0.478204       -13.0126
 209   2.0000      -0.473703       -12.8901
 210   2.0000      -0.473193       -12.8762
 211   2.0000      -0.471812       -12.8387
 212   2.0000      -0.469032       -12.7630
 213   2.0000      -0.467761       -12.7284
 214   2.0000      -0.465688       -12.6720
 215   2.0000      -0.461691       -12.5632
 216   2.0000      -0.457191       -12.4408
 217   2.0000      -0.455002       -12.3812
 218   2.0000      -0.448897       -12.2151
 219   2.0000      -0.448496       -12.2042
 220   2.0000      -0.445465       -12.1217
 221   2.0000      -0.442172       -12.0321
 222   2.0000      -0.441399       -12.0111
 223   2.0000      -0.440066       -11.9748
 224   2.0000      -0.438257       -11.9256
 225   2.0000      -0.437708       -11.9106
 226   2.0000      -0.436638       -11.8815
 227   2.0000      -0.435356       -11.8466
 228   2.0000      -0.433970       -11.8089
 229   2.0000      -0.432337       -11.7645
 230   2.0000      -0.428428       -11.6581
 231   2.0000      -0.424103       -11.5404
 232   2.0000      -0.422459       -11.4957
 233   2.0000      -0.415357       -11.3025
 234   2.0000      -0.413846       -11.2613
 235   2.0000      -0.410728       -11.1765
 236   2.0000      -0.410349       -11.1662
 237   2.0000      -0.407561       -11.0903
 238   2.0000      -0.403940       -10.9918
 239   2.0000      -0.400430       -10.8962
 240   2.0000      -0.399956       -10.8833
 241   2.0000      -0.397622       -10.8198
 242   2.0000      -0.392457       -10.6793
 243   2.0000      -0.388670       -10.5763
 244   2.0000      -0.382300       -10.4029
 245   2.0000      -0.368517       -10.0279
 246   2.0000      -0.368099       -10.0165
 247   2.0000      -0.366114        -9.9625
 248   2.0000      -0.363098        -9.8804
 249   2.0000      -0.358564        -9.7570
 250   2.0000      -0.356717        -9.7068
 251   2.0000      -0.354471        -9.6457
 252   2.0000      -0.348814        -9.4917
 253   2.0000      -0.347981        -9.4690
 254   2.0000      -0.345446        -9.4001
 255   2.0000      -0.340247        -9.2586
 256   2.0000      -0.333483        -9.0745
 257   2.0000      -0.331355        -9.0166
 258   2.0000      -0.328525        -8.9396
 259   2.0000      -0.327185        -8.9032
 260   2.0000      -0.325572        -8.8593
 261   2.0000      -0.321898        -8.7593
 262   2.0000      -0.320057        -8.7092
 263   2.0000      -0.309637        -8.4256
 264   2.0000      -0.291742        -7.9387
 265   2.0000      -0.268995        -7.3197
 266   2.0000      -0.232067        -6.3149
 267   0.0000      -0.099410        -2.7051
 268   0.0000      -0.090590        -2.4651
 269   0.0000      -0.060957        -1.6587
 270   0.0000      -0.057082        -1.5533
 271   0.0000      -0.022796        -0.6203

MULLIKEN ATOMIC CHARGES
-----------------------
   0 C :   -0.250016
   1 C :    0.071905
   2 C :    0.014735
   3 C :    0.022273
   4 C :    0.030340
   5 C :    0.024502
   6 C :   -0.020487
   7 C :    0.079915
   8 C :   -0.020750
   9 C :    0.020917
  10 C :    0.033964
  11 C :    0.025691
  12 C :   -0.007111
  13 C :    0.119207
  14 C :   -0.048610
  15 C :    0.093134
  16 C :   -0.311537
  17 C :   -0.193211
  18 N :    0.195170
  19 C :   -0.214605
  20 N :    0.157932
  21 S :    0.161639
  22 C :   -0.258206
  23 N :    0.213627
  24 C :    0.028682
  25 C :   -0.023540
  26 C :   -0.009393
  27 C :   -0.038964
  28 C :    0.058977
  29 C :    0.028323
  30 N :   -0.297926
  31 Se:    0.566861
  32 N :   -0.268655
  33 C :    0.017070
  34 C :   -0.034305
  35 C :    0.036214
  36 C :   -0.033640
  37 C :   -0.033762
  38 C :    0.009929
  39 C :    0.017111
  40 C :    0.167623
  41 O :   -0.173986
  42 O :   -0.157835
  43 C :    0.165362
  44 C :   -0.059388
  45 C :    0.060427
  46 C :   -0.004629
  47 C :   -0.024194
  48 C :   -0.044249
  49 C :    0.012286
  50 C :    0.181637
  51 O :   -0.170711
  52 O :   -0.148586
  53 C :   -0.046609
  54 N :   -0.041864
  55 C :   -0.039306
  56 C :   -0.012597
  57 C :    0.010988
  58 C :    0.044183
  59 C :   -0.060599
  60 C :    0.063681
  61 C :   -0.033527
  62 C :    0.088165
  63 N :   -0.289142
  64 S :    0.528593
  65 N :   -0.273972
  66 C :   -0.089010
  67 C :    0.121994
  68 C :   -0.148689
  69 S :    0.189212
  70 C :   -0.163160
  71 C :    0.061758
  72 H :   -0.024761
  73 H :   -0.003064
  74 H :   -0.008984
  75 H :   -0.011937
  76 H :   -0.009204
  77 H :    0.010097
  78 H :   -0.010093
  79 H :   -0.004580
  80 H :   -0.004733
  81 H :   -0.004114
  82 H :    0.001372
  83 H :   -0.006783
  84 H :   -0.010049
  85 H :   -0.021000
  86 H :    0.007295
  87 H :   -0.000628
  88 H :    0.179100
  89 H :   -0.007803
  90 H :    0.001611
  91 H :   -0.022876
  92 H :   -0.000343
  93 H :    0.180424
  94 H :    0.128096
  95 H :   -0.019287
  96 H :   -0.013178
  97 H :   -0.028671
  98 H :    0.022725
  99 H :    0.004106
Sum of atomic charges:   -0.0000000

LOEWDIN ATOMIC CHARGES
----------------------
   0 C :   -0.089600
   1 C :   -0.044563
   2 C :   -0.024861
   3 C :   -0.014646
   4 C :   -0.016817
   5 C :   -0.019082
   6 C :   -0.026247
   7 C :   -0.045309
   8 C :   -0.021149
   9 C :   -0.023509
  10 C :   -0.014341
  11 C :   -0.015171
  12 C :   -0.018526
  13 C :    0.061559
  14 C :   -0.080965
  15 C :   -0.071513
  16 C :   -0.167559
  17 C :   -0.035221
  18 N :   -0.035835
  19 C :   -0.035369
  20 N :   -0.042634
  21 S :    0.413161
  22 C :   -0.032722
  23 N :   -0.033594
  24 C :   -0.042919
  25 C :    0.013502
  26 C :   -0.011765
  27 C :   -0.011194
  28 C :   -0.037753
  29 C :   -0.032898
  30 N :   -0.242795
  31 Se:    0.608406
  32 N :   -0.236895
  33 C :   -0.018202
  34 C :   -0.013372
  35 C :   -0.004142
  36 C :   -0.027794
  37 C :   -0.079775
  38 C :    0.014818
  39 C :   -0.010298
  40 C :    0.079954
  41 O :   -0.154188
  42 O :   -0.032121
  43 C :   -0.005917
  44 C :   -0.013437
  45 C :   -0.008673
  46 C :    0.011432
  47 C :   -0.083499
  48 C :   -0.032932
  49 C :   -0.008258
  50 C :    0.088247
  51 O :   -0.155213
  52 O :   -0.024164
  53 C :   -0.020104
  54 N :    0.107395
  55 C :   -0.029539
  56 C :   -0.038801
  57 C :   -0.045025
  58 C :   -0.048111
  59 C :   -0.009248
  60 C :   -0.051690
  61 C :   -0.045481
  62 C :   -0.059051
  63 N :   -0.305536
  64 S :    0.677687
  65 N :   -0.299865
  66 C :   -0.014973
  67 C :   -0.046074
  68 C :   -0.213777
  69 S :    0.531888
  70 C :   -0.219008
  71 C :   -0.036047
  72 H :    0.028472
  73 H :    0.031063
  74 H :    0.031068
  75 H :    0.030263
  76 H :    0.027009
  77 H :    0.034321
  78 H :    0.030975
  79 H :    0.032042
  80 H :    0.033687
  81 H :    0.027626
  82 H :    0.042695
  83 H :    0.037256
  84 H :    0.031966
  85 H :    0.025344
  86 H :    0.040721
  87 H :    0.035774
  88 H :    0.089748
  89 H :    0.035123
  90 H :    0.039744
  91 H :    0.023862
  92 H :    0.035424
  93 H :    0.090970
  94 H :    0.089537
  95 H :    0.033158
  96 H :    0.030947
  97 H :    0.037252
  98 H :    0.024757
  99 H :    0.020911

  Mayer bond orders larger than 0.100000
B(  0-C ,  1-C ) :   0.8919 B(  0-C ,  7-C ) :   0.8792 B(  0-C , 13-C ) :   0.9117
B(  0-C , 21-S ) :   1.0499 B(  1-C ,  2-C ) :   1.4473 B(  1-C ,  6-C ) :   1.3580
B(  2-C ,  3-C ) :   1.3596 B(  2-C , 72-H ) :   0.9738 B(  3-C ,  4-C ) :   1.4066
B(  3-C , 73-H ) :   0.9689 B(  4-C ,  5-C ) :   1.3649 B(  4-C , 74-H ) :   0.9953
B(  5-C ,  6-C ) :   1.4083 B(  5-C , 75-H ) :   0.9896 B(  6-C , 76-H ) :   0.9990
B(  7-C ,  8-C ) :   1.4172 B(  7-C , 12-C ) :   1.3752 B(  8-C ,  9-C ) :   1.3656
B(  8-C , 77-H ) :   0.9852 B(  9-C , 10-C ) :   1.3918 B(  9-C , 78-H ) :   0.9905
B( 10-C , 11-C ) :   1.3741 B( 10-C , 79-H ) :   0.9939 B( 11-C , 12-C ) :   1.4085
B( 11-C , 80-H ) :   0.9903 B( 12-C , 81-H ) :   0.9939 B( 13-C , 14-C ) :   1.7520
B( 13-C , 24-C ) :   0.9955 B( 14-C , 15-C ) :   1.0901 B( 14-C , 22-C ) :   1.1304
B( 15-C , 16-C ) :   1.6431 B( 15-C , 21-S ) :   1.0941 B( 16-C , 17-C ) :   1.1590
B( 16-C , 19-C ) :   1.1357 B( 17-C , 18-N ) :   3.0248 B( 19-C , 20-N ) :   3.0395
B( 22-C , 23-N ) :   3.0138 B( 24-C , 25-C ) :   1.4850 B( 24-C , 27-C ) :   0.1121
B( 24-C , 29-C ) :   1.1828 B( 25-C , 26-C ) :   1.1584 B( 25-C , 82-H ) :   1.0045
B( 26-C , 27-C ) :   1.4879 B( 26-C , 83-H ) :   0.9981 B( 27-C , 28-C ) :   1.1704
B( 27-C , 33-C ) :   1.0163 B( 28-C , 29-C ) :   1.1350 B( 28-C , 32-N ) :   1.5992
B( 29-C , 30-N ) :   1.5019 B( 30-N , 31-Se) :   1.2429 B( 30-N , 32-N ) :   0.1241
B( 31-Se, 32-N ) :   1.2494 B( 33-C , 34-C ) :   0.9797 B( 33-C , 43-C ) :   1.7237
B( 34-C , 35-C ) :   1.3817 B( 34-C , 39-C ) :   1.3701 B( 35-C , 36-C ) :   1.4112
B( 35-C , 84-H ) :   0.9904 B( 36-C , 37-C ) :   1.3195 B( 36-C , 85-H ) :   0.9831
B( 37-C , 38-C ) :   1.4018 B( 37-C , 40-C ) :   0.9014 B( 38-C , 39-C ) :   1.3556
B( 38-C , 86-H ) :   0.9965 B( 39-C , 87-H ) :   0.9990 B( 40-C , 41-O ) :   2.1874
B( 40-C , 42-O ) :   1.2293 B( 42-O , 88-H ) :   0.9545 B( 43-C , 44-C ) :   0.9470
B( 43-C , 53-C ) :   1.0341 B( 44-C , 45-C ) :   1.3720 B( 44-C , 49-C ) :   1.3706
B( 45-C , 46-C ) :   1.3647 B( 45-C , 89-H ) :   0.9946 B( 46-C , 47-C ) :   1.3901
B( 46-C , 90-H ) :   1.0000 B( 47-C , 48-C ) :   1.3127 B( 47-C , 50-C ) :   0.9036
B( 48-C , 49-C ) :   1.4033 B( 48-C , 91-H ) :   0.9832 B( 49-C , 92-H ) :   0.9958
B( 50-C , 51-O ) :   2.1134 B( 50-C , 52-O ) :   1.2481 B( 52-O , 93-H ) :   0.9549
B( 53-C , 54-N ) :   1.2207 B( 53-C , 55-C ) :   0.1334 B( 53-C , 57-C ) :   1.4199
B( 54-N , 55-C ) :   1.2479 B( 54-N , 94-H ) :   0.9266 B( 55-C , 56-C ) :   1.4209
B( 55-C , 58-C ) :   0.7857 B( 56-C , 57-C ) :   1.3245 B( 56-C , 95-H ) :   1.0199
B( 57-C , 96-H ) :   1.0015 B( 58-C , 59-C ) :   2.2204 B( 59-C , 60-C ) :   0.9062
B( 60-C , 61-C ) :   1.3191 B( 60-C , 66-C ) :   0.1411 B( 60-C , 71-C ) :   1.2705
B( 61-C , 62-C ) :   1.1093 B( 61-C , 65-N ) :   1.4920 B( 62-C , 63-N ) :   1.4016
B( 62-C , 66-C ) :   1.3254 B( 63-N , 64-S ) :   1.3262 B( 63-N , 65-N ) :   0.1786
B( 64-S , 65-N ) :   1.3002 B( 66-C , 67-C ) :   1.2128 B( 66-C , 97-H ) :   1.0345
B( 67-C , 68-C ) :   1.3352 B( 67-C , 71-C ) :   1.1432 B( 68-C , 69-S ) :   1.2642
B( 68-C , 70-C ) :   0.1344 B( 68-C , 98-H ) :   0.9681 B( 69-S , 70-C ) :   1.2316
B( 70-C , 71-C ) :   1.4079 B( 70-C , 99-H ) :   0.9517

-----------------------------------------------------------------------------
         ABSORPTION SPECTRUM VIA TRANSITION ELECTRIC DIPOLE MOMENTS
-----------------------------------------------------------------------------
State   Energy  Wavelength   fosc         T2         TX        TY        TZ
        (cm-1)    (nm)                  (au**2)     (au)      (au)      (au)
-----------------------------------------------------------------------------
   0   14409.9    694.0   0.755832338  17.26790   3.57222  -1.63879   1.34964
   1   16882.6    592.3   0.097637220   1.90394   1.05422  -0.79708  -0.39651
   2   22490.1    444.6   0.050124145   0.73372  -0.65275   0.55390   0.02870
   3   22985.6    435.1   0.214874957   3.07755  -1.40174   0.14055  -1.04543
   4   24784.1    403.5   0.032758556   0.43514  -0.39047   0.52869  -0.05622
   5   26022.8    384.3   0.081608137   1.03242  -0.50974   0.84111   0.25519
   6   26431.5    378.3   0.095361390   1.18775  -0.27723   1.03112  -0.21838
   7   29135.6    343.2   0.045068755   0.50925   0.53522  -0.42705  -0.20104
   8   30086.0    332.4   0.279940857   3.06322  -1.59975   0.58564  -0.40128
   9   30201.6    331.1   0.050323590   0.54855  -0.58402   0.42917   0.15257
  10   30872.1    323.9   0.076874199   0.81977  -0.24273  -0.08157  -0.86845
  11   31164.9    320.9   0.006239699   0.06591  -0.06321   0.19434   0.15540
  12   31608.4    316.4   0.043666255   0.45480  -0.18266  -0.64719  -0.05080
  13   31998.6    312.5   0.116169199   1.19519   0.62064  -0.89546  -0.09026
  14   32543.0    307.3   0.028024924   0.28351  -0.34360   0.40675   0.00177
  15   32726.3    305.6   0.000884870   0.00890   0.08499   0.03924   0.01180
  16   32851.9    304.4   0.017116088   0.17152   0.03448  -0.41202   0.02387
  17   33058.3    302.5   0.069505747   0.69218  -0.77959   0.24506  -0.15608
  18   33372.4    299.6   0.107153534   1.05705   0.00542  -0.93972   0.41708
  19   33655.3    297.1   0.137983109   1.34973  -0.59199  -0.97679   0.21251
  20   33785.5    296.0   0.374895415   3.65304   0.64832  -0.13973  -1.79254
  21   33919.3    294.8   0.209078996   2.02927  -0.52471   0.53684   1.21068
  22   34404.2    290.7   0.065789792   0.62954  -0.11052   0.69570   0.36514
  23   35028.6    285.5   0.016781188   0.15772  -0.09708   0.27394   0.27065
  24   35361.0    282.8   0.149523908   1.39207   1.09325  -0.39407   0.20390
  25   35701.5    280.1   0.029642944   0.27334  -0.29246  -0.05336  -0.43007
  26   35862.4    278.8   0.026326676   0.24168   0.36909  -0.30507   0.11126
  27   36050.8    277.4   0.012309178   0.11241  -0.28084   0.07232   0.16824
  28   36459.1    274.3   0.005684489   0.05133   0.16485  -0.15399   0.02106
  29   36619.4    273.1   0.008705913   0.07827   0.15158   0.23403   0.02278
  30   37115.8    269.4   0.027826884   0.24682   0.31499   0.09221  -0.37296
  31   37288.6    268.2   0.023875321   0.21079   0.36441  -0.26699   0.08194
  32   37925.7    263.7   0.020288788   0.17612   0.39439  -0.00797   0.14322
  33   38102.3    262.5   0.004478537   0.03870  -0.12329   0.10453   0.11210
  34   38239.8    261.5   0.068901778   0.59319   0.67372  -0.25457  -0.27292
  35   38424.6    260.2   0.013803100   0.11826   0.09328   0.30676   0.12432
  36   38658.6    258.7   0.016537697   0.14083   0.23843   0.13062   0.25869
  37   38931.1    256.9   0.019251689   0.16280   0.02369  -0.35525  -0.18982
  38   39028.9    256.2   0.043358421   0.36573  -0.16890  -0.10870  -0.57043
  39   39084.5    255.9   0.034075951   0.28702  -0.11634   0.27619   0.44408
  40   39555.9    252.8   0.078222571   0.65102  -0.34376   0.13098  -0.71812
  41   39701.5    251.9   0.038421905   0.31860  -0.25638   0.28752  -0.41256
  42   39869.9    250.8   0.077555999   0.64039  -0.19330   0.14731   0.76245
  43   39973.7    250.2   0.006089737   0.05015   0.18719   0.12228  -0.01276
  44   40316.8    248.0   0.005355462   0.04373  -0.02805  -0.20656  -0.01670

FINAL SINGLE POINT ENERGY     -6481.519791816085

DIPOLE MOMENT
-------------
                                X             Y             Z
Electronic contribution:     25.99283      58.79906      -1.44277
Nuclear contribution   :    -23.22557     -63.08710       4.03985
                        -----------------------------------------
Total Dipole Moment    :      2.76726      -4.28804       2.59709
                        -----------------------------------------
Magnitude (a.u.)       :      5.72625
Magnitude (Debye)      :     14.55496

Rotational constants in cm-1:     0.001393     0.000420     0.000370
Rotational constants in MHz :    41.763861    12.588159    11.104409

                             ****ORCA TERMINATED NORMALLY****
TOTAL RUN TIME: 0 days 0 hours 13 minutes 9 seconds 299 msec
