                         Program Version 4.2.0 -  RELEASE  -
|  1> # ORCA input file
|  2> # SCF done       -170.091071774510          0.000681050766
|  3> ! CAM-B3LYP def2-SVP def2/J RIJCOSX Grid4 TightSCF
|  4> %maxcore 5000
|  5> %tddft
|  6>     Mode sTDDFT
|  7>     Ethresh 5.0
|  8>     maxcore 5000
|  9> end
| 10>
| 11> %pal
| 12>   nprocs 6
| 13>   end
| 14> * xyz 0 1
| 15>    C       -3.07575         0.57631         4.53252
| 16>    C       -2.92120        -0.72157         4.23557
| 17>    C       -3.28330        -1.20274         2.92496
| 18>    C       -3.14870        -2.52850         2.56567
| 19>    C       -3.50663        -2.99288         1.28828
| 20>    N       -3.80321        -3.36829         0.24423
| 21>    C       -2.64759        -3.48927         3.45990
| 22>    N       -2.23833        -4.26917         4.19721
| 23>    C       -3.79111        -0.21338         2.02988
| 24>    C       -3.91214         1.08506         2.42520
| 25>    O       -3.55774         1.49472         3.67582
| 26>    C       -4.41269         2.15243         1.61431
| 27>    C       -4.85870         2.13172         0.30826
| 28>    C       -5.27562         3.39458        -0.11402
| 29>    C       -5.14125         4.37960         0.88694
| 30>    S       -4.50342         3.75238         2.33784
| 31>    C       -5.59433         5.61563         0.36939
| 32>    C       -6.01526         5.41437        -0.95619
| 33>    C       -5.82439         4.01328        -1.30494
| 34>    C       -6.10603         3.42547        -2.50490
| 35>    C       -6.63478         4.15946        -3.58615
| 36>    N       -7.06490         4.76465        -4.46093
| 37>    C       -5.88625         2.05148        -2.73815
| 38>    N       -5.71173         0.93434        -2.92655
| 39>    C       -6.49120         6.57125        -1.56202
| 40>    C       -6.44297         7.66603        -0.71077
| 41>    S       -5.78594         7.24370         0.86326
| 42>    C       -6.85044         9.00056        -0.99803
| 43>    C       -7.48213         9.33462        -2.17465
| 44>    C       -7.89797        10.61567        -2.52365
| 45>    C       -7.79925        11.72547        -1.56532
| 46>    C       -7.20745        11.62823        -0.35513
| 47>    S       -6.48912        10.18994         0.24496
| 48>    C       -8.45166        12.82402        -2.19000
| 49>    C       -8.91999        12.43753        -3.44715
| 50>    C       -9.57665        13.49225        -4.11855
| 51>    C       -9.59221        14.62513        -3.36893
| 52>    S       -8.81258        14.46407        -1.83057
| 53>    C       -8.55513        11.06667        -3.68790
| 54>    C       -8.83435        10.38470        -4.89662
| 55>    C       -8.20273         9.26936        -5.35301
| 56>    C       -8.53140         8.57537        -6.54170
| 57>    C       -9.55682         8.81022        -7.45026
| 58>    C       -9.55325         7.88732        -8.48959
| 59>    C       -8.52143         6.93541        -8.38031
| 60>    S       -7.55928         7.18222        -6.99354
| 61>    C       -8.60928         6.05068        -9.48129
| 62>    C       -9.69941         6.43756       -10.28634
| 63>    C      -10.32352         7.60532        -9.69420
| 64>    C      -11.39573         8.30469       -10.16717
| 65>    C      -12.06418         7.94284       -11.35536
| 66>    N      -12.60925         7.65233       -12.32139
| 67>    C      -11.90040         9.44042        -9.50086
| 68>    N      -12.30730        10.36688        -8.96100
| 69>    C       -9.86372         5.61722       -11.40216
| 70>    C       -8.90753         4.62195       -11.45289
| 71>    S       -7.78859         4.69057       -10.10071
| 72>    C       -8.77079         3.61550       -12.46355
| 73>    C       -7.75492         2.70825       -12.51107
| 74>    C       -7.67997         1.74470       -13.56020
| 75>    C       -6.65163         0.82812       -13.65112
| 76>    C       -6.58822        -0.11404       -14.69082
| 77>    N       -6.54193        -0.88141       -15.54450
| 78>    C       -5.60617         0.79859       -12.71300
| 79>    N       -4.75457         0.78889       -11.94207
| 80>    C       -8.75196         1.80399       -14.52241
| 81>    C       -9.70989         2.73325       -14.39171
| 82>    O       -9.75604         3.64387       -13.40246
| 83>    H       -2.82943         1.01366         5.48820
| 84>    H       -2.52990        -1.41084         4.96521
| 85>    H       -4.08116        -0.50384         1.03362
| 86>    H       -4.87927         1.24647        -0.30011
| 87>    H       -6.84746         6.61479        -2.57376
| 88>    H       -7.70476         8.52718        -2.85336
| 89>    H       -7.13554        12.46126         0.32607
| 90>    H      -10.01602        13.42302        -5.09687
| 91>    H      -10.02118        15.57459        -3.62310
| 92>    H       -9.59717        10.83736        -5.51603
| 93>    H       -7.35568         8.87402        -4.81216
| 94>    H      -10.26356         9.61242        -7.34738
| 95>    H      -10.62863         5.72615       -12.14921
| 96>    H       -6.99079         2.72008       -11.74910
| 97>    H       -8.77194         1.10313       -15.34033
| 98>    H      -10.54176         2.84376       -15.07092
| 99> *
|100>
|101>                          ****END OF INPUT****

CARTESIAN COORDINATES (ANGSTROEM)
---------------------------------
  C     -3.075750    0.576310    4.532520
  C     -2.921200   -0.721570    4.235570
  C     -3.283300   -1.202740    2.924960
  C     -3.148700   -2.528500    2.565670
  C     -3.506630   -2.992880    1.288280
  N     -3.803210   -3.368290    0.244230
  C     -2.647590   -3.489270    3.459900
  N     -2.238330   -4.269170    4.197210
  C     -3.791110   -0.213380    2.029880
  C     -3.912140    1.085060    2.425200
  O     -3.557740    1.494720    3.675820
  C     -4.412690    2.152430    1.614310
  C     -4.858700    2.131720    0.308260
  C     -5.275620    3.394580   -0.114020
  C     -5.141250    4.379600    0.886940
  S     -4.503420    3.752380    2.337840
  C     -5.594330    5.615630    0.369390
  C     -6.015260    5.414370   -0.956190
  C     -5.824390    4.013280   -1.304940
  C     -6.106030    3.425470   -2.504900
  C     -6.634780    4.159460   -3.586150
  N     -7.064900    4.764650   -4.460930
  C     -5.886250    2.051480   -2.738150
  N     -5.711730    0.934340   -2.926550
  C     -6.491200    6.571250   -1.562020
  C     -6.442970    7.666030   -0.710770
  S     -5.785940    7.243700    0.863260
  C     -6.850440    9.000560   -0.998030
  C     -7.482130    9.334620   -2.174650
  C     -7.897970   10.615670   -2.523650
  C     -7.799250   11.725470   -1.565320
  C     -7.207450   11.628230   -0.355130
  S     -6.489120   10.189940    0.244960
  C     -8.451660   12.824020   -2.190000
  C     -8.919990   12.437530   -3.447150
  C     -9.576650   13.492250   -4.118550
  C     -9.592210   14.625130   -3.368930
  S     -8.812580   14.464070   -1.830570
  C     -8.555130   11.066670   -3.687900
  C     -8.834350   10.384700   -4.896620
  C     -8.202730    9.269360   -5.353010
  C     -8.531400    8.575370   -6.541700
  C     -9.556820    8.810220   -7.450260
  C     -9.553250    7.887320   -8.489590
  C     -8.521430    6.935410   -8.380310
  S     -7.559280    7.182220   -6.993540
  C     -8.609280    6.050680   -9.481290
  C     -9.699410    6.437560  -10.286340
  C    -10.323520    7.605320   -9.694200
  C    -11.395730    8.304690  -10.167170
  C    -12.064180    7.942840  -11.355360
  N    -12.609250    7.652330  -12.321390
  C    -11.900400    9.440420   -9.500860
  N    -12.307300   10.366880   -8.961000
  C     -9.863720    5.617220  -11.402160
  C     -8.907530    4.621950  -11.452890
  S     -7.788590    4.690570  -10.100710
  C     -8.770790    3.615500  -12.463550
  C     -7.754920    2.708250  -12.511070
  C     -7.679970    1.744700  -13.560200
  C     -6.651630    0.828120  -13.651120
  C     -6.588220   -0.114040  -14.690820
  N     -6.541930   -0.881410  -15.544500
  C     -5.606170    0.798590  -12.713000
  N     -4.754570    0.788890  -11.942070
  C     -8.751960    1.803990  -14.522410
  C     -9.709890    2.733250  -14.391710
  O     -9.756040    3.643870  -13.402460
  H     -2.829430    1.013660    5.488200
  H     -2.529900   -1.410840    4.965210
  H     -4.081160   -0.503840    1.033620
  H     -4.879270    1.246470   -0.300110
  H     -6.847460    6.614790   -2.573760
  H     -7.704760    8.527180   -2.853360
  H     -7.135540   12.461260    0.326070
  H    -10.016020   13.423020   -5.096870
  H    -10.021180   15.574590   -3.623100
  H     -9.597170   10.837360   -5.516030
  H     -7.355680    8.874020   -4.812160
  H    -10.263560    9.612420   -7.347380
  H    -10.628630    5.726150  -12.149210
  H     -6.990790    2.720080  -11.749100
  H     -8.771940    1.103130  -15.340330
  H    -10.541760    2.843760  -15.070920

 Total Charge           Charge          ....    0
 Multiplicity           Mult            ....    1
 Number of Electrons    NEL             ....  496
 Basis Dimension        Dim             .... 1056

ORBITAL ENERGIES
----------------

  NO   OCC          E(Eh)            E(eV)
   0   2.0000     -89.009655     -2422.0759
   1   2.0000     -89.007457     -2422.0161
   2   2.0000     -89.001467     -2421.8531
   3   2.0000     -88.993599     -2421.6389
   4   2.0000     -88.991154     -2421.5724
   5   2.0000     -88.968876     -2420.9662
   6   2.0000     -19.334800      -526.1267
   7   2.0000     -19.325192      -525.8652
   8   2.0000     -14.448444      -393.1622
   9   2.0000     -14.442384      -392.9972
  10   2.0000     -14.436184      -392.8285
  11   2.0000     -14.435760      -392.8170
  12   2.0000     -14.399541      -391.8314
  13   2.0000     -14.398966      -391.8158
  14   2.0000     -14.394426      -391.6922
  15   2.0000     -14.393341      -391.6627
  16   2.0000     -10.398415      -282.9553
  17   2.0000     -10.390797      -282.7479
  18   2.0000     -10.383127      -282.5392
  19   2.0000     -10.380761      -282.4749
  20   2.0000     -10.375288      -282.3259
  21   2.0000     -10.370125      -282.1854
  22   2.0000     -10.367851      -282.1236
  23   2.0000     -10.357995      -281.8554
  24   2.0000     -10.354195      -281.7520
  25   2.0000     -10.349161      -281.6150
  26   2.0000     -10.347965      -281.5824
  27   2.0000     -10.346519      -281.5431
  28   2.0000     -10.345018      -281.5022
  29   2.0000     -10.344935      -281.5000
  30   2.0000     -10.343976      -281.4739
  31   2.0000     -10.343081      -281.4495
  32   2.0000     -10.342433      -281.4319
  33   2.0000     -10.341672      -281.4112
  34   2.0000     -10.336722      -281.2765
  35   2.0000     -10.336202      -281.2624
  36   2.0000     -10.335968      -281.2560
  37   2.0000     -10.332302      -281.1562
  38   2.0000     -10.331550      -281.1358
  39   2.0000     -10.328569      -281.0547
  40   2.0000     -10.326257      -280.9917
  41   2.0000     -10.322412      -280.8871
  42   2.0000     -10.321794      -280.8703
  43   2.0000     -10.320207      -280.8271
  44   2.0000     -10.317499      -280.7534
  45   2.0000     -10.315327      -280.6943
  46   2.0000     -10.315248      -280.6922
  47   2.0000     -10.314451      -280.6705
  48   2.0000     -10.314336      -280.6674
  49   2.0000     -10.312469      -280.6166
  50   2.0000     -10.312437      -280.6157
  51   2.0000     -10.310370      -280.5594
  52   2.0000     -10.309241      -280.5287
  53   2.0000     -10.308423      -280.5064
  54   2.0000     -10.304966      -280.4124
  55   2.0000     -10.304869      -280.4097
  56   2.0000     -10.303129      -280.3624
  57   2.0000     -10.302629      -280.3488
  58   2.0000     -10.302002      -280.3317
  59   2.0000     -10.301734      -280.3244
  60   2.0000     -10.300591      -280.2933
  61   2.0000     -10.298650      -280.2405
  62   2.0000     -10.298128      -280.2263
  63   2.0000     -10.297777      -280.2168
  64   2.0000     -10.297281      -280.2033
  65   2.0000     -10.292880      -280.0835
  66   2.0000     -10.286886      -279.9204
  67   2.0000     -10.286318      -279.9049
  68   2.0000      -8.103899      -220.5183
  69   2.0000      -8.101821      -220.4617
  70   2.0000      -8.095772      -220.2972
  71   2.0000      -8.089158      -220.1172
  72   2.0000      -8.085710      -220.0234
  73   2.0000      -8.064299      -219.4407
  74   2.0000      -6.073119      -165.2580
  75   2.0000      -6.071199      -165.2057
  76   2.0000      -6.068909      -165.1434
  77   2.0000      -6.066880      -165.0882
  78   2.0000      -6.066366      -165.0742
  79   2.0000      -6.065062      -165.0387
  80   2.0000      -6.064111      -165.0129
  81   2.0000      -6.060872      -164.9247
  82   2.0000      -6.058820      -164.8689
  83   2.0000      -6.058076      -164.8486
  84   2.0000      -6.054858      -164.7611
  85   2.0000      -6.054223      -164.7438
  86   2.0000      -6.050887      -164.6530
  87   2.0000      -6.050685      -164.6475
  88   2.0000      -6.048222      -164.5805
  89   2.0000      -6.033758      -164.1869
  90   2.0000      -6.029484      -164.0706
  91   2.0000      -6.026308      -163.9842
  92   2.0000      -1.244863       -33.8744
  93   2.0000      -1.234862       -33.6023
  94   2.0000      -1.062247       -28.9052
  95   2.0000      -1.050993       -28.5990
  96   2.0000      -1.037850       -28.2413
  97   2.0000      -1.027868       -27.9697
  98   2.0000      -1.025160       -27.8960
  99   2.0000      -1.021942       -27.8085
 100   2.0000      -1.015868       -27.6432
 101   2.0000      -1.013620       -27.5820
 102   2.0000      -1.005311       -27.3559
 103   2.0000      -1.000557       -27.2265
 104   2.0000      -0.994915       -27.0730
 105   2.0000      -0.990354       -26.9489
 106   2.0000      -0.978298       -26.6209
 107   2.0000      -0.973172       -26.4814
 108   2.0000      -0.972956       -26.4755
 109   2.0000      -0.968364       -26.3505
 110   2.0000      -0.963216       -26.2104
 111   2.0000      -0.956426       -26.0257
 112   2.0000      -0.945694       -25.7336
 113   2.0000      -0.941108       -25.6089
 114   2.0000      -0.934367       -25.4254
 115   2.0000      -0.921118       -25.0649
 116   2.0000      -0.911119       -24.7928
 117   2.0000      -0.902152       -24.5488
 118   2.0000      -0.891395       -24.2561
 119   2.0000      -0.886124       -24.1127
 120   2.0000      -0.877175       -23.8691
 121   2.0000      -0.874924       -23.8079
 122   2.0000      -0.873731       -23.7754
 123   2.0000      -0.870745       -23.6942
 124   2.0000      -0.859892       -23.3989
 125   2.0000      -0.855873       -23.2895
 126   2.0000      -0.836526       -22.7630
 127   2.0000      -0.819733       -22.3061
 128   2.0000      -0.815369       -22.1873
 129   2.0000      -0.801316       -21.8049
 130   2.0000      -0.794005       -21.6060
 131   2.0000      -0.788878       -21.4665
 132   2.0000      -0.786951       -21.4140
 133   2.0000      -0.777931       -21.1686
 134   2.0000      -0.767289       -20.8790
 135   2.0000      -0.756416       -20.5831
 136   2.0000      -0.742601       -20.2072
 137   2.0000      -0.740423       -20.1479
 138   2.0000      -0.720649       -19.6099
 139   2.0000      -0.711774       -19.3684
 140   2.0000      -0.709929       -19.3182
 141   2.0000      -0.701025       -19.0759
 142   2.0000      -0.695445       -18.9240
 143   2.0000      -0.688565       -18.7368
 144   2.0000      -0.682462       -18.5707
 145   2.0000      -0.681273       -18.5384
 146   2.0000      -0.673515       -18.3273
 147   2.0000      -0.666632       -18.1400
 148   2.0000      -0.662455       -18.0263
 149   2.0000      -0.652791       -17.7633
 150   2.0000      -0.645645       -17.5689
 151   2.0000      -0.643430       -17.5086
 152   2.0000      -0.638136       -17.3646
 153   2.0000      -0.632451       -17.2099
 154   2.0000      -0.631423       -17.1819
 155   2.0000      -0.621108       -16.9012
 156   2.0000      -0.619111       -16.8469
 157   2.0000      -0.608853       -16.5677
 158   2.0000      -0.605228       -16.4691
 159   2.0000      -0.600773       -16.3479
 160   2.0000      -0.597795       -16.2668
 161   2.0000      -0.595493       -16.2042
 162   2.0000      -0.594570       -16.1791
 163   2.0000      -0.589130       -16.0310
 164   2.0000      -0.585464       -15.9313
 165   2.0000      -0.585379       -15.9290
 166   2.0000      -0.577868       -15.7246
 167   2.0000      -0.575413       -15.6578
 168   2.0000      -0.570884       -15.5346
 169   2.0000      -0.563328       -15.3289
 170   2.0000      -0.562184       -15.2978
 171   2.0000      -0.558897       -15.2084
 172   2.0000      -0.552669       -15.0389
 173   2.0000      -0.552043       -15.0219
 174   2.0000      -0.540216       -14.7000
 175   2.0000      -0.534490       -14.5442
 176   2.0000      -0.531429       -14.4609
 177   2.0000      -0.528858       -14.3910
 178   2.0000      -0.520957       -14.1760
 179   2.0000      -0.519102       -14.1255
 180   2.0000      -0.515782       -14.0352
 181   2.0000      -0.514827       -14.0091
 182   2.0000      -0.510464       -13.8904
 183   2.0000      -0.508463       -13.8360
 184   2.0000      -0.505183       -13.7467
 185   2.0000      -0.503271       -13.6947
 186   2.0000      -0.499719       -13.5981
 187   2.0000      -0.497516       -13.5381
 188   2.0000      -0.493317       -13.4238
 189   2.0000      -0.491738       -13.3809
 190   2.0000      -0.491218       -13.3667
 191   2.0000      -0.485714       -13.2170
 192   2.0000      -0.483175       -13.1479
 193   2.0000      -0.481464       -13.1013
 194   2.0000      -0.480190       -13.0666
 195   2.0000      -0.479700       -13.0533
 196   2.0000      -0.476062       -12.9543
 197   2.0000      -0.475239       -12.9319
 198   2.0000      -0.472423       -12.8553
 199   2.0000      -0.468961       -12.7611
 200   2.0000      -0.467302       -12.7159
 201   2.0000      -0.465346       -12.6627
 202   2.0000      -0.463305       -12.6072
 203   2.0000      -0.458982       -12.4895
 204   2.0000      -0.457087       -12.4380
 205   2.0000      -0.455323       -12.3900
 206   2.0000      -0.454043       -12.3551
 207   2.0000      -0.452846       -12.3226
 208   2.0000      -0.446272       -12.1437
 209   2.0000      -0.445775       -12.1302
 210   2.0000      -0.444175       -12.0866
 211   2.0000      -0.443414       -12.0659
 212   2.0000      -0.443259       -12.0617
 213   2.0000      -0.440659       -11.9909
 214   2.0000      -0.439808       -11.9678
 215   2.0000      -0.434737       -11.8298
 216   2.0000      -0.433636       -11.7998
 217   2.0000      -0.431433       -11.7399
 218   2.0000      -0.429335       -11.6828
 219   2.0000      -0.429003       -11.6738
 220   2.0000      -0.425449       -11.5771
 221   2.0000      -0.424859       -11.5610
 222   2.0000      -0.421781       -11.4772
 223   2.0000      -0.420878       -11.4527
 224   2.0000      -0.416596       -11.3362
 225   2.0000      -0.414617       -11.2823
 226   2.0000      -0.413234       -11.2447
 227   2.0000      -0.413064       -11.2401
 228   2.0000      -0.411548       -11.1988
 229   2.0000      -0.408755       -11.1228
 230   2.0000      -0.405278       -11.0282
 231   2.0000      -0.402847       -10.9620
 232   2.0000      -0.400637       -10.9019
 233   2.0000      -0.395820       -10.7708
 234   2.0000      -0.389941       -10.6108
 235   2.0000      -0.367598       -10.0029
 236   2.0000      -0.364680        -9.9234
 237   2.0000      -0.356226        -9.6934
 238   2.0000      -0.354022        -9.6334
 239   2.0000      -0.338556        -9.2126
 240   2.0000      -0.337450        -9.1825
 241   2.0000      -0.326968        -8.8973
 242   2.0000      -0.310620        -8.4524
 243   2.0000      -0.299435        -8.1481
 244   2.0000      -0.289104        -7.8669
 245   2.0000      -0.279228        -7.5982
 246   2.0000      -0.268321        -7.3014
 247   2.0000      -0.235158        -6.3990
 248   0.0000      -0.124337        -3.3834
 249   0.0000      -0.111456        -3.0329
 250   0.0000      -0.083846        -2.2816
 251   0.0000      -0.070037        -1.9058
 252   0.0000      -0.060430        -1.6444

MULLIKEN ATOMIC CHARGES
-----------------------
   0 C :    0.191667
   1 C :   -0.066619
   2 C :    0.243266
   3 C :   -0.338511
   4 C :   -0.169357
   5 N :    0.138333
   6 C :   -0.181516
   7 N :    0.130256
   8 C :   -0.151649
   9 C :    0.239312
  10 O :   -0.225960
  11 C :   -0.103562
  12 C :   -0.019636
  13 C :   -0.005567
  14 C :   -0.090882
  15 S :    0.227512
  16 C :   -0.107647
  17 C :    0.016335
  18 C :    0.309058
  19 C :   -0.293774
  20 C :   -0.174882
  21 N :    0.159540
  22 C :   -0.192191
  23 N :    0.191330
  24 C :   -0.046236
  25 C :   -0.053729
  26 S :    0.194614
  27 C :   -0.037266
  28 C :   -0.075457
  29 C :    0.049223
  30 C :    0.064971
  31 C :   -0.129317
  32 S :    0.125664
  33 C :   -0.106702
  34 C :    0.052077
  35 C :    0.010430
  36 C :   -0.065422
  37 S :    0.135677
  38 C :    0.084801
  39 C :   -0.023742
  40 C :    0.026770
  41 C :   -0.080368
  42 C :   -0.040377
  43 C :    0.014587
  44 C :   -0.112456
  45 S :    0.226277
  46 C :   -0.079846
  47 C :    0.005082
  48 C :    0.301393
  49 C :   -0.297586
  50 C :   -0.190659
  51 N :    0.176507
  52 C :   -0.182192
  53 N :    0.168549
  54 C :   -0.030536
  55 C :   -0.098869
  56 S :    0.209294
  57 C :    0.240788
  58 C :   -0.164274
  59 C :    0.240515
  60 C :   -0.332923
  61 C :   -0.184656
  62 N :    0.128769
  63 C :   -0.178455
  64 N :    0.127850
  65 C :   -0.069174
  66 C :    0.189071
  67 O :   -0.207466
  68 H :    0.039334
  69 H :    0.039930
  70 H :    0.030361
  71 H :    0.022246
  72 H :    0.003228
  73 H :   -0.016183
  74 H :    0.041218
  75 H :   -0.009586
  76 H :    0.031414
  77 H :   -0.010388
  78 H :   -0.019938
  79 H :    0.006059
  80 H :    0.018331
  81 H :    0.032392
  82 H :    0.038975
  83 H :    0.042552
Sum of atomic charges:    0.0000000

LOEWDIN ATOMIC CHARGES
----------------------
   0 C :    0.099115
   1 C :   -0.048833
   2 C :    0.054335
   3 C :   -0.173433
   4 C :   -0.031335
   5 N :   -0.061338
   6 C :   -0.030358
   7 N :   -0.066656
   8 C :   -0.049040
   9 C :    0.071773
  10 O :   -0.013320
  11 C :   -0.194605
  12 C :   -0.000946
  13 C :   -0.076310
  14 C :   -0.163829
  15 S :    0.499305
  16 C :   -0.195905
  17 C :   -0.056828
  18 C :    0.080968
  19 C :   -0.097453
  20 C :   -0.008317
  21 N :   -0.042517
  22 C :   -0.021858
  23 N :   -0.016309
  24 C :   -0.032169
  25 C :   -0.171787
  26 S :    0.471277
  27 C :   -0.191353
  28 C :   -0.012730
  29 C :   -0.022268
  30 C :   -0.044308
  31 C :   -0.138874
  32 S :    0.437862
  33 C :   -0.202463
  34 C :   -0.038306
  35 C :   -0.061501
  36 C :   -0.158947
  37 S :    0.427323
  38 C :   -0.043887
  39 C :   -0.002911
  40 C :   -0.058127
  41 C :   -0.151665
  42 C :   -0.034113
  43 C :   -0.056440
  44 C :   -0.202488
  45 S :    0.504154
  46 C :   -0.153022
  47 C :   -0.081038
  48 C :    0.082429
  49 C :   -0.102462
  50 C :   -0.017433
  51 N :   -0.031508
  52 C :   -0.014763
  53 N :   -0.035202
  54 C :   -0.001379
  55 C :   -0.199967
  56 S :    0.500623
  57 C :    0.077004
  58 C :   -0.067052
  59 C :    0.056585
  60 C :   -0.178954
  61 C :   -0.030779
  62 N :   -0.069923
  63 C :   -0.029225
  64 N :   -0.070767
  65 C :   -0.052198
  66 C :    0.102232
  67 O :    0.004035
  68 H :    0.040487
  69 H :    0.053996
  70 H :    0.049774
  71 H :    0.047127
  72 H :    0.037201
  73 H :    0.037637
  74 H :    0.038645
  75 H :    0.033378
  76 H :    0.025723
  77 H :    0.033233
  78 H :    0.024906
  79 H :    0.038043
  80 H :    0.044969
  81 H :    0.040149
  82 H :    0.053263
  83 H :    0.041647

  Mayer bond orders larger than 0.100000
B(  0-C ,  1-C ) :   1.6969 B(  0-C , 10-O ) :   1.0959 B(  0-C , 68-H ) :   0.9744
B(  1-C ,  2-C ) :   1.1194 B(  1-C , 69-H ) :   0.9605 B(  2-C ,  3-C ) :   1.5745
B(  2-C ,  8-C ) :   1.1322 B(  3-C ,  4-C ) :   1.1298 B(  3-C ,  6-C ) :   1.1295
B(  4-C ,  5-N ) :   3.0100 B(  6-C ,  7-N ) :   3.0136 B(  8-C ,  9-C ) :   1.5831
B(  8-C , 70-H ) :   0.9630 B(  9-C , 10-O ) :   1.1398 B(  9-C , 11-C ) :   1.0665
B( 11-C , 12-C ) :   1.4988 B( 11-C , 15-S ) :   1.0835 B( 12-C , 13-C ) :   1.3037
B( 12-C , 71-H ) :   0.9853 B( 13-C , 14-C ) :   1.4214 B( 13-C , 18-C ) :   1.0043
B( 14-C , 15-S ) :   1.1387 B( 14-C , 16-C ) :   1.2084 B( 16-C , 17-C ) :   1.4383
B( 16-C , 26-S ) :   1.1048 B( 17-C , 18-C ) :   0.9989 B( 17-C , 24-C ) :   1.3106
B( 18-C , 19-C ) :   1.7085 B( 19-C , 20-C ) :   1.1363 B( 19-C , 22-C ) :   1.1334
B( 20-C , 21-N ) :   2.9806 B( 22-C , 23-N ) :   2.9929 B( 24-C , 25-C ) :   1.4696
B( 24-C , 72-H ) :   0.9823 B( 25-C , 26-S ) :   1.1148 B( 25-C , 27-C ) :   1.1250
B( 27-C , 28-C ) :   1.5449 B( 27-C , 32-S ) :   1.0397 B( 28-C , 29-C ) :   1.2397
B( 28-C , 73-H ) :   0.9651 B( 29-C , 30-C ) :   1.0513 B( 29-C , 38-C ) :   1.3744
B( 30-C , 31-C ) :   1.6161 B( 30-C , 33-C ) :   1.1755 B( 31-C , 32-S ) :   1.1333
B( 31-C , 74-H ) :   0.9397 B( 33-C , 34-C ) :   1.4380 B( 33-C , 37-S ) :   1.0794
B( 34-C , 35-C ) :   1.2211 B( 34-C , 38-C ) :   1.1024 B( 35-C , 36-C ) :   1.5874
B( 35-C , 75-H ) :   0.9981 B( 36-C , 37-S ) :   1.1556 B( 36-C , 76-H ) :   0.9659
B( 38-C , 39-C ) :   1.1639 B( 39-C , 40-C ) :   1.6434 B( 39-C , 77-H ) :   0.9609
B( 40-C , 41-C ) :   1.1327 B( 40-C , 78-H ) :   0.9556 B( 41-C , 42-C ) :   1.4268
B( 41-C , 45-S ) :   1.1304 B( 42-C , 43-C ) :   1.3229 B( 42-C , 79-H ) :   0.9895
B( 43-C , 44-C ) :   1.4186 B( 43-C , 48-C ) :   0.9958 B( 44-C , 45-S ) :   1.1241
B( 44-C , 46-C ) :   1.2075 B( 46-C , 47-C ) :   1.4186 B( 46-C , 56-S ) :   1.1498
B( 47-C , 48-C ) :   1.0029 B( 47-C , 54-C ) :   1.2720 B( 48-C , 49-C ) :   1.7119
B( 49-C , 50-C ) :   1.1315 B( 49-C , 52-C ) :   1.1364 B( 50-C , 51-N ) :   2.9968
B( 52-C , 53-N ) :   2.9850 B( 54-C , 55-C ) :   1.4404 B( 54-C , 80-H ) :   1.0067
B( 55-C , 56-S ) :   1.0944 B( 55-C , 57-C ) :   1.1141 B( 57-C , 58-C ) :   1.5356
B( 57-C , 67-O ) :   1.1544 B( 58-C , 59-C ) :   1.1562 B( 58-C , 81-H ) :   0.9585
B( 59-C , 60-C ) :   1.5692 B( 59-C , 65-C ) :   1.1256 B( 60-C , 61-C ) :   1.1296
B( 60-C , 63-C ) :   1.1345 B( 61-C , 62-N ) :   3.0159 B( 63-C , 64-N ) :   3.0081
B( 65-C , 66-C ) :   1.6858 B( 65-C , 82-H ) :   0.9612 B( 66-C , 67-O ) :   1.1081
B( 66-C , 83-H ) :   0.9754

-----------------------------------------------------------------------------
         ABSORPTION SPECTRUM VIA TRANSITION ELECTRIC DIPOLE MOMENTS
-----------------------------------------------------------------------------
State   Energy  Wavelength   fosc         T2         TX        TY        TZ
        (cm-1)    (nm)                  (au**2)     (au)      (au)      (au)
-----------------------------------------------------------------------------
   0    9285.6   1076.9   0.243781296   8.64303   1.03767  -1.48792   2.31352
   1   11005.1    908.7   0.147770754   4.42047   0.00267   1.47220   1.50103
   2   16147.8    619.3   0.059277850   1.20852  -0.11489  -0.62862  -0.89452
   3   17636.7    567.0   0.597242137  11.14831   1.13573  -1.17351   2.91227
   4   19523.9    512.2   0.092538247   1.56038  -0.33482   0.24802  -1.17761
   5   21429.6    466.6   0.132252720   2.03173  -0.44382   1.30266  -0.37127
   6   21750.9    459.8   0.031014160   0.46942   0.05135   0.20325   0.65228
   7   23207.5    430.9   0.104961128   1.48893  -0.40363   1.09993   0.34083
   8   23856.6    419.2   0.732781366  10.11211  -0.87242   2.86262   1.07536
   9   23928.8    417.9   1.024982463  14.10171  -0.67511   3.43799   1.35134
  10   25053.0    399.2   0.014655080   0.19258   0.03451   0.27110  -0.34335
  11   26041.4    384.0   0.140958096   1.78198   0.05993  -0.82802   1.04536
  12   26198.6    381.7   0.065762539   0.82637   0.22223  -0.86568  -0.16607
  13   26972.4    370.7   0.281110383   3.43110  -0.49311   1.70427   0.53236
  14   27668.6    361.4   0.044357088   0.52778  -0.35572   0.56636  -0.28369
  15   28610.1    349.5   0.178979941   2.05950  -0.54214   0.85684  -1.01558
  16   29653.1    337.2   0.069656328   0.77333  -0.02716  -0.42117   0.77150
  17   30184.4    331.3   0.628818065   6.85833   1.94093  -0.47491   1.69280
  18   30837.5    324.3   0.413011760   4.40919  -0.88866  -0.85492  -1.69958
  19   30953.2    323.1   0.063028305   0.67036  -0.40826   0.60211   0.37569
  20   31485.3    317.6   0.299205777   3.12851  -0.49486   1.36680   1.00771
  21   32011.8    312.4   0.173047380   1.77963  -0.86040   0.92447   0.42977
  22   32106.6    311.5   0.350151020   3.59035  -1.01906   1.18434  -1.07201
  23   32674.3    306.1   0.054303604   0.54714  -0.23080   0.60147   0.36346
  24   32832.3    304.6   0.081759147   0.81981   0.22173  -0.67198  -0.56488
  25   33030.5    302.8   0.030119391   0.30020  -0.14608  -0.44669   0.28165
  26   33259.6    300.7   0.202674708   2.00613   0.40743  -1.35279  -0.10044
  27   33430.4    299.1   0.437578114   4.30913   0.50234  -1.70192  -1.07715
  28   33908.0    294.9   0.066832838   0.64888  -0.04569  -0.57203  -0.56530
  29   34017.6    294.0   0.016702506   0.16164   0.04374   0.21412   0.33746
  30   34298.0    291.6   0.248156768   2.38195   0.60667  -1.36044   0.40387
  31   34562.9    289.3   0.152063522   1.44841  -0.53178   0.52401  -0.94394
  32   35213.4    284.0   0.079362635   0.74197  -0.31043   0.79770  -0.09627
  33   35649.4    280.5   0.030853211   0.28492   0.19397  -0.42201   0.26307
  34   35803.9    279.3   0.012425371   0.11425   0.10113   0.15327   0.28377
  35   35988.8    277.9   0.005526443   0.05055   0.04620   0.15960   0.15149
  36   36278.0    275.6   0.101832147   0.92410   0.47800  -0.80493   0.21839
  37   36855.1    271.3   0.054299374   0.48503  -0.09921  -0.68892   0.02412
  38   37303.9    268.1   0.089523270   0.79006  -0.21922  -0.12688  -0.85200
  39   37668.3    265.5   0.025065911   0.21907  -0.32879   0.28366  -0.17465
  40   37849.1    264.2   0.026393289   0.22957  -0.23079  -0.35471  -0.22470
  41   38134.8    262.2   0.053122107   0.45859   0.21176  -0.48322  -0.42456
  42   38341.2    260.8   0.013887040   0.11924  -0.08767   0.28512   0.17395
  43   38636.5    258.8   0.154974559   1.32050   0.47948  -0.98325  -0.35187
  44   38738.2    258.1   0.014682524   0.12478  -0.13619   0.31475   0.08464
  45   38913.9    257.0   0.128078742   1.08355   0.06885   0.89999   0.51847
  46   39010.4    256.3   0.058228026   0.49139  -0.50342   0.25265  -0.41729
  47   39266.6    254.7   0.024507508   0.20547   0.25847  -0.32946   0.17356
  48   39461.7    253.4   0.006099481   0.05089   0.12350   0.18437  -0.04049
  49   39588.5    252.6   0.173851823   1.44572   0.86476  -0.68967   0.47147

FINAL SINGLE POINT ENERGY     -4964.514825516320

DIPOLE MOMENT
-------------
                                X             Y             Z
Electronic contribution:      5.36357      -3.61947       7.27987
Nuclear contribution   :     -6.49471      10.54769      -3.07457
                        -----------------------------------------
Total Dipole Moment    :     -1.13114       6.92822       4.20530
                        -----------------------------------------
Magnitude (a.u.)       :      8.18318
Magnitude (Debye)      :     20.79998

Rotational constants in cm-1:     0.000737     0.000449     0.000285
Rotational constants in MHz :    22.084513    13.452516     8.551730

                             ****ORCA TERMINATED NORMALLY****
TOTAL RUN TIME: 0 days 0 hours 11 minutes 5 seconds 747 msec
