                         Program Version 4.2.0 -  RELEASE  -
|  1> # ORCA input file
|  2> # SCF done       -165.813544280319          0.000592707083
|  3> ! CAM-B3LYP def2-SVP def2/J RIJCOSX Grid4 TightSCF
|  4> %maxcore 5000
|  5> %tddft
|  6>     Mode sTDDFT
|  7>     Ethresh 5.0
|  8>     maxcore 5000
|  9> end
| 10>
| 11> %pal
| 12>   nprocs 6
| 13>   end
| 14> * xyz 0 1
| 15>    C       -2.74984         0.53898         3.02234
| 16>    C       -1.85454        -0.40001         2.67894
| 17>    C       -1.00396        -0.19175         1.53404
| 18>    C       -0.07545        -1.12734         1.12020
| 19>    C        0.74360        -0.91422        -0.00109
| 20>    N        1.40998        -0.73800        -0.92010
| 21>    C        0.10154        -2.35134         1.78647
| 22>    N        0.25184        -3.35566         2.32308
| 23>    C       -1.18859         1.04708         0.84863
| 24>    C       -2.12730         1.93835         1.27484
| 25>    O       -2.91438         1.69387         2.35514
| 26>    C       -2.41727         3.20224         0.66745
| 27>    C       -1.82246         3.83902        -0.40430
| 28>    C       -2.42785         5.06840        -0.67072
| 29>    C       -3.49234         5.35101         0.21297
| 30>    S       -3.74166         4.12204         1.36726
| 31>    C       -4.05066         6.59557        -0.13209
| 32>    C       -3.34443         7.12061        -1.23915
| 33>    C       -2.29642         6.17171        -1.60416
| 34>    C       -1.38469         6.30702        -2.61064
| 35>    C       -1.36234         7.44053        -3.44914
| 36>    N       -1.34428         8.36310        -4.13020
| 37>    C       -0.40521         5.32687        -2.87573
| 38>    N        0.39342         4.53362        -3.09289
| 39>    C       -3.83523         8.34561        -1.65457
| 40>    C       -4.92142         8.77537        -0.87852
| 41>    S       -5.31167         7.61175         0.38932
| 42>    C       -5.64502         9.96051        -1.05433
| 43>    C       -6.72276        10.36921        -0.29707
| 44>    C       -7.50214        11.54193        -0.44139
| 45>    C       -8.52152        11.66070         0.46394
| 46>    C       -8.59406        10.58679         1.36993
| 47>    S       -7.33242         9.42641         1.03989
| 48>    C       -9.44609        10.29635         2.42796
| 49>    C      -10.55139        10.96291         2.98307
| 50>    C      -11.11060        10.30530         4.04649
| 51>    C      -10.47612         9.08724         4.38692
| 52>    S       -9.14252         8.81076         3.29378
| 53>    C      -10.80698         8.23639         5.42326
| 54>    C      -10.16516         7.03854         5.75881
| 55>    C       -9.11169         6.37436         5.11879
| 56>    C       -8.72953         5.22456         5.77957
| 57>    C       -9.48141         4.96401         6.94688
| 58>    S      -10.67721         6.16611         7.20872
| 59>    C       -8.98910         3.78479         7.53522
| 60>    C       -7.92541         3.29093         6.73957
| 61>    C       -7.73068         4.17393         5.61525
| 62>    C       -6.80340         4.06162         4.61534
| 63>    C       -5.89436         2.98619         4.55680
| 64>    N       -5.15431         2.11151         4.49440
| 65>    C       -6.67134         4.99729         3.57037
| 66>    N       -6.52949         5.74157         2.70817
| 67>    C       -7.35348         2.13112         7.25795
| 68>    C       -7.96221         1.73673         8.43203
| 69>    S       -9.27506         2.81035         8.90899
| 70>    C       -7.64353         0.62504         9.27045
| 71>    C       -6.62926        -0.25514         9.03113
| 72>    C       -6.36054        -1.32532         9.93298
| 73>    C       -5.33145        -2.22249         9.72135
| 74>    C       -5.06276        -3.26826        10.61889
| 75>    N       -4.85103        -4.11969        11.36031
| 76>    C       -4.49954        -2.12202         8.59368
| 77>    N       -3.83421        -2.01799         7.66295
| 78>    C       -7.23302        -1.39721        11.07878
| 79>    C       -8.20840        -0.48911        11.22728
| 80>    O       -8.44467         0.51792        10.36666
| 81>    H       -3.42579         0.46890         3.86071
| 82>    H       -1.76527        -1.30874         3.25069
| 83>    H       -0.58299         1.27014        -0.01455
| 84>    H       -0.99579         3.42936        -0.95507
| 85>    H       -3.45088         8.92354        -2.47566
| 86>    H       -5.32886        10.60528        -1.86364
| 87>    H       -7.29085        12.26362        -1.21078
| 88>    H       -9.21069        12.48568         0.49635
| 89>    H      -10.90808        11.90063         2.59579
| 90>    H      -11.96237        10.66485         4.59661
| 91>    H      -11.63496         8.53653         6.05194
| 92>    H       -8.65513         6.71119         4.20908
| 93>    H       -6.53456         1.60263         6.80666
| 94>    H       -6.01390        -0.14235         8.15428
| 95>    H       -7.09322        -2.17953        11.80609
| 96>    H       -8.90127        -0.47499        12.05495
| 97> *
| 98>
| 99>                          ****END OF INPUT****

CARTESIAN COORDINATES (ANGSTROEM)
---------------------------------
  C     -2.749840    0.538980    3.022340
  C     -1.854540   -0.400010    2.678940
  C     -1.003960   -0.191750    1.534040
  C     -0.075450   -1.127340    1.120200
  C      0.743600   -0.914220   -0.001090
  N      1.409980   -0.738000   -0.920100
  C      0.101540   -2.351340    1.786470
  N      0.251840   -3.355660    2.323080
  C     -1.188590    1.047080    0.848630
  C     -2.127300    1.938350    1.274840
  O     -2.914380    1.693870    2.355140
  C     -2.417270    3.202240    0.667450
  C     -1.822460    3.839020   -0.404300
  C     -2.427850    5.068400   -0.670720
  C     -3.492340    5.351010    0.212970
  S     -3.741660    4.122040    1.367260
  C     -4.050660    6.595570   -0.132090
  C     -3.344430    7.120610   -1.239150
  C     -2.296420    6.171710   -1.604160
  C     -1.384690    6.307020   -2.610640
  C     -1.362340    7.440530   -3.449140
  N     -1.344280    8.363100   -4.130200
  C     -0.405210    5.326870   -2.875730
  N      0.393420    4.533620   -3.092890
  C     -3.835230    8.345610   -1.654570
  C     -4.921420    8.775370   -0.878520
  S     -5.311670    7.611750    0.389320
  C     -5.645020    9.960510   -1.054330
  C     -6.722760   10.369210   -0.297070
  C     -7.502140   11.541930   -0.441390
  C     -8.521520   11.660700    0.463940
  C     -8.594060   10.586790    1.369930
  S     -7.332420    9.426410    1.039890
  C     -9.446090   10.296350    2.427960
  C    -10.551390   10.962910    2.983070
  C    -11.110600   10.305300    4.046490
  C    -10.476120    9.087240    4.386920
  S     -9.142520    8.810760    3.293780
  C    -10.806980    8.236390    5.423260
  C    -10.165160    7.038540    5.758810
  C     -9.111690    6.374360    5.118790
  C     -8.729530    5.224560    5.779570
  C     -9.481410    4.964010    6.946880
  S    -10.677210    6.166110    7.208720
  C     -8.989100    3.784790    7.535220
  C     -7.925410    3.290930    6.739570
  C     -7.730680    4.173930    5.615250
  C     -6.803400    4.061620    4.615340
  C     -5.894360    2.986190    4.556800
  N     -5.154310    2.111510    4.494400
  C     -6.671340    4.997290    3.570370
  N     -6.529490    5.741570    2.708170
  C     -7.353480    2.131120    7.257950
  C     -7.962210    1.736730    8.432030
  S     -9.275060    2.810350    8.908990
  C     -7.643530    0.625040    9.270450
  C     -6.629260   -0.255140    9.031130
  C     -6.360540   -1.325320    9.932980
  C     -5.331450   -2.222490    9.721350
  C     -5.062760   -3.268260   10.618890
  N     -4.851030   -4.119690   11.360310
  C     -4.499540   -2.122020    8.593680
  N     -3.834210   -2.017990    7.662950
  C     -7.233020   -1.397210   11.078780
  C     -8.208400   -0.489110   11.227280
  O     -8.444670    0.517920   10.366660
  H     -3.425790    0.468900    3.860710
  H     -1.765270   -1.308740    3.250690
  H     -0.582990    1.270140   -0.014550
  H     -0.995790    3.429360   -0.955070
  H     -3.450880    8.923540   -2.475660
  H     -5.328860   10.605280   -1.863640
  H     -7.290850   12.263620   -1.210780
  H     -9.210690   12.485680    0.496350
  H    -10.908080   11.900630    2.595790
  H    -11.962370   10.664850    4.596610
  H    -11.634960    8.536530    6.051940
  H     -8.655130    6.711190    4.209080
  H     -6.534560    1.602630    6.806660
  H     -6.013900   -0.142350    8.154280
  H     -7.093220   -2.179530   11.806090
  H     -8.901270   -0.474990   12.054950

 Total Charge           Charge          ....    0
 Multiplicity           Mult            ....    1
 Number of Electrons    NEL             ....  484
 Basis Dimension        Dim             .... 1028

ORBITAL ENERGIES
----------------

  NO   OCC          E(Eh)            E(eV)
   0   2.0000     -89.009506     -2422.0718
   1   2.0000     -88.999923     -2421.8110
   2   2.0000     -88.995412     -2421.6883
   3   2.0000     -88.990555     -2421.5561
   4   2.0000     -88.968883     -2420.9664
   5   2.0000     -88.967972     -2420.9416
   6   2.0000     -19.334933      -526.1303
   7   2.0000     -19.316241      -525.6217
   8   2.0000     -14.453554      -393.3012
   9   2.0000     -14.453377      -393.2964
  10   2.0000     -14.432203      -392.7202
  11   2.0000     -14.430147      -392.6643
  12   2.0000     -14.400489      -391.8572
  13   2.0000     -14.398596      -391.8057
  14   2.0000     -14.384538      -391.4232
  15   2.0000     -14.382975      -391.3807
  16   2.0000     -10.398086      -282.9463
  17   2.0000     -10.383112      -282.5388
  18   2.0000     -10.382598      -282.5249
  19   2.0000     -10.381864      -282.5049
  20   2.0000     -10.371527      -282.2236
  21   2.0000     -10.366330      -282.0822
  22   2.0000     -10.359345      -281.8921
  23   2.0000     -10.356178      -281.8059
  24   2.0000     -10.355059      -281.7755
  25   2.0000     -10.354891      -281.7709
  26   2.0000     -10.354646      -281.7642
  27   2.0000     -10.342148      -281.4242
  28   2.0000     -10.342117      -281.4233
  29   2.0000     -10.341467      -281.4056
  30   2.0000     -10.339774      -281.3596
  31   2.0000     -10.338438      -281.3232
  32   2.0000     -10.336464      -281.2695
  33   2.0000     -10.334823      -281.2248
  34   2.0000     -10.332519      -281.1621
  35   2.0000     -10.331060      -281.1224
  36   2.0000     -10.330679      -281.1121
  37   2.0000     -10.329809      -281.0884
  38   2.0000     -10.329769      -281.0873
  39   2.0000     -10.329086      -281.0687
  40   2.0000     -10.328786      -281.0606
  41   2.0000     -10.326837      -281.0075
  42   2.0000     -10.325881      -280.9815
  43   2.0000     -10.321437      -280.8606
  44   2.0000     -10.321277      -280.8562
  45   2.0000     -10.318667      -280.7852
  46   2.0000     -10.314108      -280.6611
  47   2.0000     -10.313058      -280.6326
  48   2.0000     -10.312603      -280.6202
  49   2.0000     -10.312061      -280.6055
  50   2.0000     -10.311190      -280.5818
  51   2.0000     -10.310865      -280.5729
  52   2.0000     -10.310506      -280.5631
  53   2.0000     -10.309323      -280.5309
  54   2.0000     -10.308734      -280.5149
  55   2.0000     -10.308310      -280.5034
  56   2.0000     -10.308112      -280.4980
  57   2.0000     -10.307526      -280.4820
  58   2.0000     -10.306498      -280.4541
  59   2.0000     -10.305165      -280.4178
  60   2.0000     -10.304107      -280.3890
  61   2.0000     -10.302311      -280.3401
  62   2.0000     -10.297254      -280.2025
  63   2.0000     -10.291170      -280.0370
  64   2.0000     -10.288245      -279.9574
  65   2.0000     -10.286821      -279.9186
  66   2.0000      -8.103633      -220.5111
  67   2.0000      -8.094368      -220.2589
  68   2.0000      -8.089338      -220.1221
  69   2.0000      -8.084462      -219.9894
  70   2.0000      -8.064867      -219.4562
  71   2.0000      -8.064654      -219.4504
  72   2.0000      -6.072908      -165.2522
  73   2.0000      -6.068676      -165.1371
  74   2.0000      -6.066029      -165.0650
  75   2.0000      -6.063689      -165.0014
  76   2.0000      -6.059598      -164.8901
  77   2.0000      -6.058603      -164.8630
  78   2.0000      -6.056549      -164.8071
  79   2.0000      -6.054291      -164.7456
  80   2.0000      -6.053709      -164.7298
  81   2.0000      -6.051826      -164.6785
  82   2.0000      -6.049315      -164.6102
  83   2.0000      -6.046904      -164.5446
  84   2.0000      -6.034594      -164.2096
  85   2.0000      -6.034344      -164.2029
  86   2.0000      -6.030349      -164.0941
  87   2.0000      -6.030075      -164.0867
  88   2.0000      -6.025993      -163.9756
  89   2.0000      -6.025655      -163.9664
  90   2.0000      -1.244693       -33.8698
  91   2.0000      -1.227567       -33.4038
  92   2.0000      -1.061325       -28.8801
  93   2.0000      -1.048058       -28.5191
  94   2.0000      -1.043345       -28.3909
  95   2.0000      -1.030418       -28.0391
  96   2.0000      -1.023859       -27.8606
  97   2.0000      -1.022174       -27.8148
  98   2.0000      -1.013447       -27.5773
  99   2.0000      -1.008737       -27.4491
 100   2.0000      -1.004332       -27.3293
 101   2.0000      -1.000712       -27.2308
 102   2.0000      -0.994917       -27.0731
 103   2.0000      -0.984624       -26.7930
 104   2.0000      -0.978789       -26.6342
 105   2.0000      -0.977681       -26.6041
 106   2.0000      -0.964122       -26.2351
 107   2.0000      -0.963159       -26.2089
 108   2.0000      -0.962890       -26.2016
 109   2.0000      -0.946357       -25.7517
 110   2.0000      -0.945296       -25.7228
 111   2.0000      -0.930233       -25.3129
 112   2.0000      -0.922231       -25.0952
 113   2.0000      -0.912202       -24.8223
 114   2.0000      -0.899411       -24.4742
 115   2.0000      -0.889555       -24.2060
 116   2.0000      -0.883493       -24.0411
 117   2.0000      -0.877282       -23.8720
 118   2.0000      -0.872330       -23.7373
 119   2.0000      -0.870980       -23.7006
 120   2.0000      -0.869199       -23.6521
 121   2.0000      -0.864332       -23.5197
 122   2.0000      -0.857016       -23.3206
 123   2.0000      -0.841860       -22.9082
 124   2.0000      -0.835417       -22.7329
 125   2.0000      -0.815747       -22.1976
 126   2.0000      -0.806877       -21.9562
 127   2.0000      -0.795541       -21.6478
 128   2.0000      -0.787877       -21.4392
 129   2.0000      -0.785234       -21.3673
 130   2.0000      -0.775021       -21.0894
 131   2.0000      -0.767431       -20.8829
 132   2.0000      -0.753417       -20.5015
 133   2.0000      -0.739062       -20.1109
 134   2.0000      -0.722101       -19.6494
 135   2.0000      -0.721573       -19.6350
 136   2.0000      -0.706625       -19.2283
 137   2.0000      -0.704343       -19.1662
 138   2.0000      -0.698564       -19.0089
 139   2.0000      -0.693227       -18.8637
 140   2.0000      -0.686688       -18.6857
 141   2.0000      -0.682649       -18.5758
 142   2.0000      -0.675138       -18.3714
 143   2.0000      -0.664862       -18.0918
 144   2.0000      -0.660656       -17.9774
 145   2.0000      -0.653301       -17.7772
 146   2.0000      -0.649581       -17.6760
 147   2.0000      -0.648930       -17.6583
 148   2.0000      -0.643281       -17.5046
 149   2.0000      -0.636707       -17.3257
 150   2.0000      -0.631550       -17.1853
 151   2.0000      -0.626330       -17.0433
 152   2.0000      -0.617311       -16.7979
 153   2.0000      -0.613336       -16.6897
 154   2.0000      -0.610106       -16.6018
 155   2.0000      -0.606678       -16.5085
 156   2.0000      -0.599564       -16.3150
 157   2.0000      -0.595188       -16.1959
 158   2.0000      -0.590390       -16.0653
 159   2.0000      -0.581932       -15.8352
 160   2.0000      -0.581395       -15.8206
 161   2.0000      -0.578709       -15.7475
 162   2.0000      -0.578266       -15.7354
 163   2.0000      -0.571140       -15.5415
 164   2.0000      -0.566725       -15.4214
 165   2.0000      -0.563094       -15.3226
 166   2.0000      -0.558215       -15.1898
 167   2.0000      -0.554471       -15.0879
 168   2.0000      -0.550009       -14.9665
 169   2.0000      -0.549155       -14.9433
 170   2.0000      -0.542204       -14.7541
 171   2.0000      -0.530574       -14.4377
 172   2.0000      -0.525128       -14.2895
 173   2.0000      -0.523545       -14.2464
 174   2.0000      -0.521893       -14.2014
 175   2.0000      -0.520095       -14.1525
 176   2.0000      -0.517901       -14.0928
 177   2.0000      -0.511782       -13.9263
 178   2.0000      -0.510582       -13.8936
 179   2.0000      -0.507557       -13.8113
 180   2.0000      -0.502761       -13.6808
 181   2.0000      -0.502654       -13.6779
 182   2.0000      -0.497708       -13.5433
 183   2.0000      -0.497557       -13.5392
 184   2.0000      -0.495853       -13.4929
 185   2.0000      -0.493108       -13.4181
 186   2.0000      -0.492446       -13.4001
 187   2.0000      -0.488096       -13.2818
 188   2.0000      -0.484613       -13.1870
 189   2.0000      -0.483128       -13.1466
 190   2.0000      -0.481880       -13.1126
 191   2.0000      -0.481627       -13.1057
 192   2.0000      -0.478849       -13.0301
 193   2.0000      -0.477667       -12.9980
 194   2.0000      -0.474118       -12.9014
 195   2.0000      -0.467405       -12.7187
 196   2.0000      -0.463167       -12.6034
 197   2.0000      -0.462246       -12.5783
 198   2.0000      -0.461249       -12.5512
 199   2.0000      -0.459276       -12.4975
 200   2.0000      -0.457442       -12.4476
 201   2.0000      -0.456351       -12.4179
 202   2.0000      -0.455663       -12.3992
 203   2.0000      -0.448667       -12.2089
 204   2.0000      -0.447376       -12.1737
 205   2.0000      -0.445732       -12.1290
 206   2.0000      -0.441160       -12.0046
 207   2.0000      -0.439868       -11.9694
 208   2.0000      -0.437666       -11.9095
 209   2.0000      -0.434621       -11.8267
 210   2.0000      -0.432640       -11.7727
 211   2.0000      -0.431673       -11.7464
 212   2.0000      -0.430279       -11.7085
 213   2.0000      -0.426551       -11.6070
 214   2.0000      -0.421270       -11.4633
 215   2.0000      -0.419079       -11.4037
 216   2.0000      -0.416831       -11.3425
 217   2.0000      -0.416004       -11.3201
 218   2.0000      -0.414444       -11.2776
 219   2.0000      -0.413717       -11.2578
 220   2.0000      -0.407923       -11.1001
 221   2.0000      -0.405191       -11.0258
 222   2.0000      -0.401374       -10.9220
 223   2.0000      -0.401279       -10.9194
 224   2.0000      -0.399951       -10.8832
 225   2.0000      -0.399358       -10.8671
 226   2.0000      -0.396658       -10.7936
 227   2.0000      -0.385261       -10.4835
 228   2.0000      -0.384693       -10.4680
 229   2.0000      -0.366276        -9.9669
 230   2.0000      -0.365268        -9.9395
 231   2.0000      -0.360833        -9.8188
 232   2.0000      -0.352325        -9.5872
 233   2.0000      -0.344585        -9.3766
 234   2.0000      -0.342361        -9.3161
 235   2.0000      -0.332453        -9.0465
 236   2.0000      -0.322762        -8.7828
 237   2.0000      -0.307855        -8.3772
 238   2.0000      -0.288762        -7.8576
 239   2.0000      -0.275556        -7.4983
 240   2.0000      -0.262537        -7.1440
 241   2.0000      -0.225769        -6.1435
 242   0.0000      -0.130172        -3.5422
 243   0.0000      -0.114258        -3.1091
 244   0.0000      -0.094319        -2.5665
 245   0.0000      -0.071262        -1.9391
 246   0.0000      -0.055938        -1.5221

MULLIKEN ATOMIC CHARGES
-----------------------
   0 C :    0.180269
   1 C :   -0.065056
   2 C :    0.250685
   3 C :   -0.344318
   4 C :   -0.175580
   5 N :    0.126774
   6 C :   -0.180250
   7 N :    0.131352
   8 C :   -0.156733
   9 C :    0.243506
  10 O :   -0.220515
  11 C :   -0.101276
  12 C :   -0.021651
  13 C :   -0.004664
  14 C :   -0.075727
  15 S :    0.224915
  16 C :   -0.088220
  17 C :    0.042672
  18 C :    0.295813
  19 C :   -0.292765
  20 C :   -0.186701
  21 N :    0.171688
  22 C :   -0.192430
  23 N :    0.183072
  24 C :   -0.045380
  25 C :   -0.061183
  26 S :    0.182388
  27 C :    0.020207
  28 C :   -0.034496
  29 C :    0.042451
  30 C :    0.030309
  31 C :   -0.004274
  32 S :    0.040971
  33 C :   -0.028479
  34 C :    0.041513
  35 C :    0.028131
  36 C :   -0.020008
  37 S :    0.032042
  38 C :    0.032098
  39 C :   -0.087609
  40 C :   -0.050005
  41 C :    0.001959
  42 C :   -0.113479
  43 S :    0.186382
  44 C :   -0.086420
  45 C :   -0.015206
  46 C :    0.330466
  47 C :   -0.311169
  48 C :   -0.191827
  49 N :    0.182505
  50 C :   -0.169601
  51 N :    0.158151
  52 C :   -0.021374
  53 C :   -0.104810
  54 S :    0.228048
  55 C :    0.235420
  56 C :   -0.157360
  57 C :    0.241689
  58 C :   -0.332752
  59 C :   -0.179506
  60 N :    0.129190
  61 C :   -0.168450
  62 N :    0.122470
  63 C :   -0.064285
  64 C :    0.188454
  65 O :   -0.220548
  66 H :    0.047909
  67 H :    0.043470
  68 H :    0.027821
  69 H :    0.020288
  70 H :    0.007972
  71 H :    0.002092
  72 H :   -0.001107
  73 H :   -0.006605
  74 H :   -0.006507
  75 H :   -0.007335
  76 H :   -0.014869
  77 H :    0.032399
  78 H :    0.016039
  79 H :    0.025499
  80 H :    0.040230
  81 H :    0.041221
Sum of atomic charges:   -0.0000000

LOEWDIN ATOMIC CHARGES
----------------------
   0 C :    0.106277
   1 C :   -0.053478
   2 C :    0.056256
   3 C :   -0.179484
   4 C :   -0.030543
   5 N :   -0.071243
   6 C :   -0.031356
   7 N :   -0.068783
   8 C :   -0.049486
   9 C :    0.067908
  10 O :   -0.004273
  11 C :   -0.189737
  12 C :   -0.005122
  13 C :   -0.072660
  14 C :   -0.165617
  15 S :    0.506733
  16 C :   -0.191001
  17 C :   -0.062315
  18 C :    0.079541
  19 C :   -0.100527
  20 C :   -0.015465
  21 N :   -0.033725
  22 C :   -0.020584
  23 N :   -0.022981
  24 C :   -0.019097
  25 C :   -0.169172
  26 S :    0.503316
  27 C :   -0.048246
  28 C :   -0.163505
  29 C :   -0.016138
  30 C :   -0.041376
  31 C :   -0.161838
  32 S :    0.386574
  33 C :   -0.184162
  34 C :   -0.025676
  35 C :   -0.035932
  36 C :   -0.135176
  37 S :    0.406338
  38 C :   -0.090528
  39 C :   -0.146599
  40 C :   -0.049331
  41 C :   -0.052899
  42 C :   -0.207863
  43 S :    0.466933
  44 C :   -0.153299
  45 C :   -0.085854
  46 C :    0.090113
  47 C :   -0.110271
  48 C :   -0.002687
  49 N :   -0.035186
  50 C :   -0.006507
  51 N :   -0.052695
  52 C :   -0.001092
  53 C :   -0.200214
  54 S :    0.494292
  55 C :    0.072251
  56 C :   -0.053707
  57 C :    0.054825
  58 C :   -0.177076
  59 C :   -0.031391
  60 N :   -0.066779
  61 C :   -0.027350
  62 N :   -0.071590
  63 C :   -0.048748
  64 C :    0.099045
  65 O :   -0.010953
  66 H :    0.036995
  67 H :    0.055255
  68 H :    0.048593
  69 H :    0.046354
  70 H :    0.041363
  71 H :    0.046405
  72 H :    0.037788
  73 H :    0.035470
  74 H :    0.036070
  75 H :    0.035063
  76 H :    0.034756
  77 H :    0.020669
  78 H :    0.044206
  79 H :    0.047213
  80 H :    0.053985
  81 H :    0.040728

  Mayer bond orders larger than 0.100000
B(  0-C ,  1-C ) :   1.6765 B(  0-C , 10-O ) :   1.0909 B(  0-C , 66-H ) :   0.9639
B(  1-C ,  2-C ) :   1.1206 B(  1-C , 67-H ) :   0.9660 B(  2-C ,  3-C ) :   1.5607
B(  2-C ,  8-C ) :   1.1310 B(  3-C ,  4-C ) :   1.1346 B(  3-C ,  6-C ) :   1.1289
B(  4-C ,  5-N ) :   3.0078 B(  6-C ,  7-N ) :   3.0171 B(  8-C ,  9-C ) :   1.5791
B(  8-C , 68-H ) :   0.9669 B(  9-C , 10-O ) :   1.1523 B(  9-C , 11-C ) :   1.0556
B( 11-C , 12-C ) :   1.4981 B( 11-C , 15-S ) :   1.0884 B( 12-C , 13-C ) :   1.3006
B( 12-C , 69-H ) :   0.9869 B( 13-C , 14-C ) :   1.4054 B( 13-C , 18-C ) :   1.0086
B( 14-C , 15-S ) :   1.1352 B( 14-C , 16-C ) :   1.2195 B( 16-C , 17-C ) :   1.3776
B( 16-C , 26-S ) :   1.1474 B( 17-C , 18-C ) :   0.9815 B( 17-C , 24-C ) :   1.3436
B( 18-C , 19-C ) :   1.7129 B( 19-C , 20-C ) :   1.1352 B( 19-C , 22-C ) :   1.1333
B( 20-C , 21-N ) :   2.9910 B( 22-C , 23-N ) :   2.9928 B( 24-C , 25-C ) :   1.3475
B( 24-C , 70-H ) :   1.0054 B( 25-C , 26-S ) :   1.0763 B( 25-C , 27-C ) :   1.2229
B( 27-C , 28-C ) :   1.5196 B( 27-C , 71-H ) :   0.9756 B( 28-C , 29-C ) :   1.1641
B( 28-C , 32-S ) :   1.0358 B( 29-C , 30-C ) :   1.5662 B( 29-C , 72-H ) :   0.9991
B( 30-C , 31-C ) :   1.2091 B( 30-C , 73-H ) :   0.9951 B( 31-C , 32-S ) :   1.0599
B( 31-C , 33-C ) :   1.4570 B( 33-C , 34-C ) :   1.2201 B( 33-C , 37-S ) :   1.0421
B( 34-C , 35-C ) :   1.5567 B( 34-C , 74-H ) :   0.9952 B( 35-C , 36-C ) :   1.1736
B( 35-C , 75-H ) :   0.9988 B( 36-C , 37-S ) :   1.0610 B( 36-C , 38-C ) :   1.5388
B( 38-C , 39-C ) :   1.2128 B( 38-C , 76-H ) :   0.9550 B( 39-C , 40-C ) :   1.3632
B( 39-C , 43-S ) :   1.1059 B( 40-C , 41-C ) :   1.3753 B( 40-C , 77-H ) :   0.9605
B( 41-C , 42-C ) :   1.4107 B( 41-C , 46-C ) :   0.9911 B( 42-C , 43-S ) :   1.0891
B( 42-C , 44-C ) :   1.2425 B( 44-C , 45-C ) :   1.3911 B( 44-C , 54-S ) :   1.1402
B( 45-C , 46-C ) :   1.0217 B( 45-C , 52-C ) :   1.3032 B( 46-C , 47-C ) :   1.6770
B( 47-C , 48-C ) :   1.1414 B( 47-C , 50-C ) :   1.1471 B( 48-C , 49-N ) :   2.9751
B( 50-C , 51-N ) :   2.9645 B( 52-C , 53-C ) :   1.5008 B( 52-C , 78-H ) :   0.9818
B( 53-C , 54-S ) :   1.0668 B( 53-C , 55-C ) :   1.0806 B( 55-C , 56-C ) :   1.5674
B( 55-C , 65-O ) :   1.1459 B( 56-C , 57-C ) :   1.1404 B( 56-C , 79-H ) :   0.9620
B( 57-C , 58-C ) :   1.5655 B( 57-C , 63-C ) :   1.1227 B( 58-C , 59-C ) :   1.1273
B( 58-C , 61-C ) :   1.1345 B( 59-C , 60-N ) :   3.0136 B( 61-C , 62-N ) :   3.0009
B( 63-C , 64-C ) :   1.6951 B( 63-C , 80-H ) :   0.9606 B( 64-C , 65-O ) :   1.0989
B( 64-C , 81-H ) :   0.9745

-----------------------------------------------------------------------------
         ABSORPTION SPECTRUM VIA TRANSITION ELECTRIC DIPOLE MOMENTS
-----------------------------------------------------------------------------
State   Energy  Wavelength   fosc         T2         TX        TY        TZ
        (cm-1)    (nm)                  (au**2)     (au)      (au)      (au)
-----------------------------------------------------------------------------
   0    5730.9   1744.9   0.129668076   7.44874  -0.86207  -1.39778   2.17986
   1    9643.5   1037.0   0.271341848   9.26313   2.31955  -1.03141  -1.67899
   2   13892.6    719.8   0.432247347  10.24293   1.66458   0.94055  -2.56661
   3   14638.9    683.1   0.136550115   3.07086   0.47444  -1.49445   0.78255
   4   17654.3    566.4   0.086789222   1.61842   0.21231  -1.11554   0.57352
   5   18973.4    527.1   0.006340535   0.11002  -0.00430  -0.28006   0.17766
   6   21161.6    472.6   0.010793908   0.16792   0.24313  -0.32986   0.00173
   7   21380.9    467.7   0.739196099  11.38175  -1.60223   2.85001  -0.83190
   8   22033.7    453.9   0.811915722  12.13108   1.62035  -2.92155   0.98494
   9   23134.7    432.3   0.680706359   9.68661  -1.47304   2.66680  -0.63635
  10   23902.3    418.4   0.007745278   0.10668   0.10658   0.15910  -0.26458
  11   24387.9    410.0   0.444912755   6.00586  -0.53728   2.23882  -0.83957
  12   25632.2    390.1   0.026075139   0.33490  -0.48671  -0.01868   0.31251
  13   27424.5    364.6   0.033845962   0.40630  -0.07499  -0.38630   0.50145
  14   27725.1    360.7   0.009322567   0.11070  -0.07245   0.19592  -0.25896
  15   28375.8    352.4   0.084896613   0.98496   0.83746  -0.50968  -0.15444
  16   28679.8    348.7   0.091091018   1.04562  -0.66315   0.15294   0.76320
  17   29162.4    342.9   0.093676671   1.05751  -0.73194   0.48938   0.53130
  18   29731.7    336.3   0.055708013   0.61684  -0.62675   0.46802   0.07052
  19   30226.7    330.8   0.526406416   5.73332  -1.73642   0.29806   1.62152
  20   30388.8    329.1   0.205941558   2.23103   0.89059  -1.19772  -0.05790
  21   30416.6    328.8   0.178001339   1.92659  -0.68134   1.18537  -0.23928
  22   30967.2    322.9   0.280664345   2.98374  -0.08538  -1.25941   1.17913
  23   31230.9    320.2   0.141004061   1.48635  -0.92769   0.21751   0.76055
  24   31362.9    318.8   0.098447266   1.03339  -0.51163   0.87528  -0.07426
  25   31555.8    316.9   0.042492849   0.44331   0.04817  -0.43347   0.50308
  26   32049.3    312.0   0.054034563   0.55504  -0.28444  -0.29106   0.62404
  27   32421.9    308.4   0.454010795   4.61002   0.62685   1.23312  -1.64210
  28   33005.7    303.0   0.003749181   0.03740   0.06275   0.03102  -0.18027
  29   33129.1    301.8   0.009396203   0.09337  -0.11899   0.28100   0.01585
  30   33574.4    297.8   0.213718815   2.09561  -1.09396   0.64709   0.69292
  31   33667.4    297.0   0.034991838   0.34216  -0.41285   0.40028  -0.10718
  32   34240.8    292.0   0.139553405   1.34175  -0.90310   0.56538   0.45444
  33   34278.8    291.7   0.004150109   0.03986  -0.11243   0.03596   0.16101
  34   34417.9    290.5   0.042273289   0.40435   0.04127   0.40858  -0.48550
  35   34662.5    288.5   0.184743936   1.75463  -1.01689   0.28521   0.79951
  36   34833.6    287.1   0.045296882   0.42810  -0.39559   0.02505   0.52056
  37   35163.6    284.4   0.094168704   0.88163   0.08502   0.66672  -0.65566
  38   35524.9    281.5   0.075671573   0.70125   0.08299  -0.70949   0.43702
  39   35739.0    279.8   0.047333873   0.43602  -0.51361   0.12262   0.39647
  40   36369.5    275.0   0.038168236   0.34549  -0.40701  -0.05238   0.42082
  41   36513.5    273.9   0.015465137   0.13944   0.13320  -0.28640   0.19917
  42   37564.4    266.2   0.077584048   0.67994  -0.23484   0.73680  -0.28621
  43   37629.8    265.7   0.073054263   0.63913  -0.20655   0.67534  -0.37469
  44   38052.1    262.8   0.269334599   2.33018   1.11357  -0.35882  -0.98051
  45   38227.1    261.6   0.024192208   0.20834  -0.31613   0.32918   0.00674
  46   38563.2    259.3   0.085848641   0.73289  -0.61244   0.48516   0.34989
  47   38844.4    257.4   0.037255032   0.31574  -0.29429  -0.19015   0.43929
  48   38989.4    256.5   0.029221423   0.24673   0.37919  -0.20808  -0.24424
  49   39380.8    253.9   0.002793075   0.02335   0.04865   0.06716  -0.12834
  50   39555.3    252.8   0.028454555   0.23682  -0.29576   0.07306   0.37949
  51   40141.6    249.1   0.002086164   0.01711   0.00833   0.11031  -0.06980

FINAL SINGLE POINT ENERGY     -4888.393019957649

DIPOLE MOMENT
-------------
                                X             Y             Z
Electronic contribution:      4.59772      -6.92315       0.48549
Nuclear contribution   :    -12.63614      14.27465       2.14390
                        -----------------------------------------
Total Dipole Moment    :     -8.03842       7.35150       2.62940
                        -----------------------------------------
Magnitude (a.u.)       :     11.20600
Magnitude (Debye)      :     28.48339

Rotational constants in cm-1:     0.000889     0.000682     0.000387
Rotational constants in MHz :    26.639432    20.433635    11.605400

                             ****ORCA TERMINATED NORMALLY****
TOTAL RUN TIME: 0 days 0 hours 18 minutes 41 seconds 8 msec
