                         Program Version 4.2.0 -  RELEASE  -
|  1> # ORCA input file
|  2> # SCF done       -199.796085324420          0.000540951649
|  3> ! CAM-B3LYP def2-SVP def2/J RIJCOSX Grid4 TightSCF
|  4> %maxcore 5000
|  5> %tddft
|  6>     Mode sTDDFT
|  7>     Ethresh 5.0
|  8>     maxcore 5000
|  9> end
| 10>
| 11> %pal
| 12>   nprocs 6
| 13>   end
| 14> * xyz 0 1
| 15>    C       -7.02445         3.86776        -6.51808
| 16>    C       -7.35381         2.87264        -7.35461
| 17>    C       -7.80362         1.61359        -6.81601
| 18>    C       -8.15559         0.54337        -7.61656
| 19>    C       -8.59151        -0.67041        -7.06044
| 20>    N       -8.94855        -1.65313        -6.58362
| 21>    C       -8.09586         0.61122        -9.01772
| 22>    N       -8.04351         0.67370       -10.16350
| 23>    C       -7.85913         1.54158        -5.39412
| 24>    C       -7.50410         2.60926        -4.62206
| 25>    O       -7.08374         3.78165        -5.17806
| 26>    C       -7.50877         2.64997        -3.19710
| 27>    S       -6.93362         4.10503        -2.43460
| 28>    C       -7.18424         3.47620        -0.83597
| 29>    C       -7.69920         2.19512        -0.91465
| 30>    C       -7.89035         1.70927        -2.24117
| 31>    C       -8.41702         0.39397        -2.23815
| 32>    C       -8.60523        -0.08320        -0.97619
| 33>    C       -9.13098        -1.39307        -0.56938
| 34>    O       -9.27844        -1.73158         0.57844
| 35>    O       -9.42166        -2.15374        -1.62923
| 36>    C       -9.93891        -3.44682        -1.34529
| 37>    S       -8.15770         1.03240         0.28712
| 38>    C       -6.85660         4.22461         0.32550
| 39>    C       -7.04302         3.84822         1.62722
| 40>    C       -6.57017         4.79581         2.56268
| 41>    C       -6.56943         4.68966         3.96944
| 42>    C       -7.05132         3.49271         4.62655
| 43>    C       -6.85169         2.19134         4.26293
| 44>    C       -7.49760         1.27813         5.12406
| 45>    C       -8.19404         1.86192         6.14304
| 46>    S       -8.04537         3.58419         6.05569
| 47>    C       -8.99125         1.21560         7.21483
| 48>   Cl       -7.41078        -0.42423         4.88240
| 49>    C       -6.07275         5.78175         4.66887
| 50>    C       -5.55562         6.94324         4.04029
| 51>    C       -5.53263         7.03973         2.63209
| 52>    C       -6.05211         5.95500         1.93265
| 53>    S       -6.11380         5.80481         0.19736
| 54>    C       -4.99033         8.18735         1.93474
| 55>    C       -5.45170         8.75822         0.78198
| 56>    C       -4.65800         9.84274         0.35176
| 57>    C       -3.58263        10.10950         1.14895
| 58>    S       -3.54308         8.99880         2.47435
| 59>    C       -2.55005        11.16511         1.00377
| 60>   Cl       -5.03230        10.74635        -1.06514
| 61>    C       -5.11152         7.89597         4.98458
| 62>    C       -5.23694         7.48278         6.28284
| 63>    S       -5.94766         5.88897         6.40197
| 64>    C       -4.84219         8.19864         7.44768
| 65>    C       -4.22889         9.43808         7.49097
| 66>    C       -3.95174         9.83468         8.79850
| 67>    C       -4.35728         8.89015         9.75515
| 68>    S       -5.08206         7.51688         9.04324
| 69>    C       -4.01960         9.38225        11.04302
| 70>    C       -3.40292        10.63815        10.89690
| 71>    C       -3.34072        10.96472         9.48244
| 72>    C       -2.81789        12.08758         8.91095
| 73>    C       -2.80909        12.28155         7.51349
| 74>    N       -2.79932        12.43925         6.37763
| 75>    C       -2.25065        13.12614         9.67930
| 76>    N       -1.79200        13.97157        10.30326
| 77>    C       -3.02357        11.19892        12.11666
| 78>    C       -3.34649        10.37909        13.17991
| 79>    S       -4.13268         8.89468        12.67240
| 80>    C       -3.09418        10.63711        14.56771
| 81>    C       -3.42485         9.78669        15.57913
| 82>    C       -3.13422        10.11356        16.93750
| 83>    C       -3.45373         9.27311        17.98458
| 84>    C       -3.16101         9.60484        19.31788
| 85>    N       -2.91977         9.88200        20.40608
| 86>    C       -4.08922         8.03850        17.76999
| 87>    N       -4.60747         7.03102        17.58020
| 88>    C       -2.48181        11.38400        17.13410
| 89>    C       -2.19669        12.15438        16.07409
| 90>    O       -2.47846        11.82829        14.79950
| 91>    H       -6.67853         4.83874        -6.83902
| 92>    H       -7.28499         3.00211        -8.42178
| 93>    H       -8.17990         0.62502        -4.93231
| 94>    H       -8.65816        -0.19489        -3.10255
| 95>    H      -10.06886        -3.93497        -2.30733
| 96>    H      -10.89366        -3.36559        -0.82175
| 97>    H       -9.24035        -4.00503        -0.71884
| 98>    H       -7.52559         2.93090         1.90502
| 99>    H       -6.23217         1.88130         3.44215
|100>    H       -8.95258         0.13575         7.09726
|101>    H      -10.03042         1.53991         7.16915
|102>    H       -8.60071         1.48063         8.19670
|103>    H       -6.34641         8.45413         0.27176
|104>    H       -1.57215        10.72316         0.81268
|105>    H       -2.47720        11.75700         1.91519
|106>    H       -2.80834        11.81831         0.17406
|107>    H       -4.71754         8.85754         4.71794
|108>    H       -3.99429        10.00977         6.61293
|109>    H       -2.53662        12.14866        12.24233
|110>    H       -3.91243         8.85063        15.35380
|111>    H       -2.22889        11.70338        18.13140
|112>    H       -1.71079        13.11624        16.13879
|113> *
|114>
|115>                          ****END OF INPUT****

CARTESIAN COORDINATES (ANGSTROEM)
---------------------------------
  C     -7.024450    3.867760   -6.518080
  C     -7.353810    2.872640   -7.354610
  C     -7.803620    1.613590   -6.816010
  C     -8.155590    0.543370   -7.616560
  C     -8.591510   -0.670410   -7.060440
  N     -8.948550   -1.653130   -6.583620
  C     -8.095860    0.611220   -9.017720
  N     -8.043510    0.673700  -10.163500
  C     -7.859130    1.541580   -5.394120
  C     -7.504100    2.609260   -4.622060
  O     -7.083740    3.781650   -5.178060
  C     -7.508770    2.649970   -3.197100
  S     -6.933620    4.105030   -2.434600
  C     -7.184240    3.476200   -0.835970
  C     -7.699200    2.195120   -0.914650
  C     -7.890350    1.709270   -2.241170
  C     -8.417020    0.393970   -2.238150
  C     -8.605230   -0.083200   -0.976190
  C     -9.130980   -1.393070   -0.569380
  O     -9.278440   -1.731580    0.578440
  O     -9.421660   -2.153740   -1.629230
  C     -9.938910   -3.446820   -1.345290
  S     -8.157700    1.032400    0.287120
  C     -6.856600    4.224610    0.325500
  C     -7.043020    3.848220    1.627220
  C     -6.570170    4.795810    2.562680
  C     -6.569430    4.689660    3.969440
  C     -7.051320    3.492710    4.626550
  C     -6.851690    2.191340    4.262930
  C     -7.497600    1.278130    5.124060
  C     -8.194040    1.861920    6.143040
  S     -8.045370    3.584190    6.055690
  C     -8.991250    1.215600    7.214830
  Cl    -7.410780   -0.424230    4.882400
  C     -6.072750    5.781750    4.668870
  C     -5.555620    6.943240    4.040290
  C     -5.532630    7.039730    2.632090
  C     -6.052110    5.955000    1.932650
  S     -6.113800    5.804810    0.197360
  C     -4.990330    8.187350    1.934740
  C     -5.451700    8.758220    0.781980
  C     -4.658000    9.842740    0.351760
  C     -3.582630   10.109500    1.148950
  S     -3.543080    8.998800    2.474350
  C     -2.550050   11.165110    1.003770
  Cl    -5.032300   10.746350   -1.065140
  C     -5.111520    7.895970    4.984580
  C     -5.236940    7.482780    6.282840
  S     -5.947660    5.888970    6.401970
  C     -4.842190    8.198640    7.447680
  C     -4.228890    9.438080    7.490970
  C     -3.951740    9.834680    8.798500
  C     -4.357280    8.890150    9.755150
  S     -5.082060    7.516880    9.043240
  C     -4.019600    9.382250   11.043020
  C     -3.402920   10.638150   10.896900
  C     -3.340720   10.964720    9.482440
  C     -2.817890   12.087580    8.910950
  C     -2.809090   12.281550    7.513490
  N     -2.799320   12.439250    6.377630
  C     -2.250650   13.126140    9.679300
  N     -1.792000   13.971570   10.303260
  C     -3.023570   11.198920   12.116660
  C     -3.346490   10.379090   13.179910
  S     -4.132680    8.894680   12.672400
  C     -3.094180   10.637110   14.567710
  C     -3.424850    9.786690   15.579130
  C     -3.134220   10.113560   16.937500
  C     -3.453730    9.273110   17.984580
  C     -3.161010    9.604840   19.317880
  N     -2.919770    9.882000   20.406080
  C     -4.089220    8.038500   17.769990
  N     -4.607470    7.031020   17.580200
  C     -2.481810   11.384000   17.134100
  C     -2.196690   12.154380   16.074090
  O     -2.478460   11.828290   14.799500
  H     -6.678530    4.838740   -6.839020
  H     -7.284990    3.002110   -8.421780
  H     -8.179900    0.625020   -4.932310
  H     -8.658160   -0.194890   -3.102550
  H    -10.068860   -3.934970   -2.307330
  H    -10.893660   -3.365590   -0.821750
  H     -9.240350   -4.005030   -0.718840
  H     -7.525590    2.930900    1.905020
  H     -6.232170    1.881300    3.442150
  H     -8.952580    0.135750    7.097260
  H    -10.030420    1.539910    7.169150
  H     -8.600710    1.480630    8.196700
  H     -6.346410    8.454130    0.271760
  H     -1.572150   10.723160    0.812680
  H     -2.477200   11.757000    1.915190
  H     -2.808340   11.818310    0.174060
  H     -4.717540    8.857540    4.717940
  H     -3.994290   10.009770    6.612930
  H     -2.536620   12.148660   12.242330
  H     -3.912430    8.850630   15.353800
  H     -2.228890   11.703380   18.131400
  H     -1.710790   13.116240   16.138790

 Total Charge           Charge          ....    0
 Multiplicity           Mult            ....    1
 Number of Electrons    NEL             ....  594
 Basis Dimension        Dim             .... 1214

ORBITAL ENERGIES
----------------

  NO   OCC          E(Eh)            E(eV)
   0   2.0000    -101.591234     -2764.4380
   1   2.0000    -101.587979     -2764.3494
   2   2.0000     -89.010900     -2422.1097
   3   2.0000     -89.005289     -2421.9570
   4   2.0000     -88.993240     -2421.6292
   5   2.0000     -88.977301     -2421.1954
   6   2.0000     -88.971285     -2421.0317
   7   2.0000     -88.970059     -2420.9984
   8   2.0000     -88.968403     -2420.9533
   9   2.0000     -88.966723     -2420.9076
  10   2.0000     -19.332488      -526.0637
  11   2.0000     -19.330317      -526.0047
  12   2.0000     -19.270899      -524.3878
  13   2.0000     -19.216928      -522.9192
  14   2.0000     -14.444684      -393.0598
  15   2.0000     -14.443919      -393.0390
  16   2.0000     -14.401753      -391.8916
  17   2.0000     -14.400451      -391.8562
  18   2.0000     -14.400030      -391.8447
  19   2.0000     -14.397845      -391.7853
  20   2.0000     -10.416697      -283.4527
  21   2.0000     -10.398697      -282.9629
  22   2.0000     -10.395113      -282.8654
  23   2.0000     -10.382105      -282.5114
  24   2.0000     -10.380731      -282.4740
  25   2.0000     -10.379794      -282.4486
  26   2.0000     -10.366881      -282.0972
  27   2.0000     -10.355379      -281.7842
  28   2.0000     -10.344867      -281.4981
  29   2.0000     -10.344638      -281.4919
  30   2.0000     -10.343865      -281.4709
  31   2.0000     -10.343353      -281.4569
  32   2.0000     -10.343286      -281.4551
  33   2.0000     -10.342005      -281.4203
  34   2.0000     -10.341418      -281.4043
  35   2.0000     -10.340574      -281.3813
  36   2.0000     -10.337078      -281.2862
  37   2.0000     -10.331162      -281.1252
  38   2.0000     -10.330783      -281.1149
  39   2.0000     -10.329072      -281.0683
  40   2.0000     -10.327464      -281.0246
  41   2.0000     -10.327279      -281.0195
  42   2.0000     -10.327084      -281.0142
  43   2.0000     -10.325429      -280.9692
  44   2.0000     -10.323696      -280.9221
  45   2.0000     -10.323045      -280.9043
  46   2.0000     -10.322852      -280.8991
  47   2.0000     -10.322800      -280.8977
  48   2.0000     -10.320162      -280.8259
  49   2.0000     -10.319923      -280.8194
  50   2.0000     -10.319205      -280.7999
  51   2.0000     -10.319060      -280.7959
  52   2.0000     -10.317804      -280.7617
  53   2.0000     -10.316306      -280.7209
  54   2.0000     -10.314513      -280.6722
  55   2.0000     -10.314181      -280.6631
  56   2.0000     -10.313752      -280.6515
  57   2.0000     -10.313279      -280.6386
  58   2.0000     -10.313069      -280.6329
  59   2.0000     -10.311857      -280.5999
  60   2.0000     -10.311729      -280.5964
  61   2.0000     -10.309730      -280.5420
  62   2.0000     -10.309507      -280.5359
  63   2.0000     -10.308870      -280.5186
  64   2.0000     -10.306073      -280.4425
  65   2.0000     -10.305356      -280.4230
  66   2.0000     -10.304990      -280.4130
  67   2.0000     -10.304372      -280.3962
  68   2.0000     -10.303711      -280.3782
  69   2.0000     -10.301848      -280.3275
  70   2.0000     -10.295515      -280.1552
  71   2.0000     -10.295133      -280.1448
  72   2.0000     -10.289601      -279.9943
  73   2.0000     -10.288648      -279.9684
  74   2.0000     -10.282184      -279.7924
  75   2.0000     -10.281736      -279.7803
  76   2.0000      -9.545987      -259.7595
  77   2.0000      -9.542692      -259.6699
  78   2.0000      -8.105202      -220.5538
  79   2.0000      -8.099824      -220.4074
  80   2.0000      -8.087749      -220.0788
  81   2.0000      -8.072056      -219.6518
  82   2.0000      -8.066867      -219.5106
  83   2.0000      -8.065450      -219.4720
  84   2.0000      -8.063896      -219.4298
  85   2.0000      -8.062462      -219.3907
  86   2.0000      -7.316252      -199.0853
  87   2.0000      -7.312999      -198.9968
  88   2.0000      -7.306052      -198.8078
  89   2.0000      -7.305962      -198.8053
  90   2.0000      -7.302737      -198.7176
  91   2.0000      -7.302635      -198.7148
  92   2.0000      -6.074497      -165.2955
  93   2.0000      -6.070292      -165.1810
  94   2.0000      -6.069105      -165.1487
  95   2.0000      -6.067510      -165.1053
  96   2.0000      -6.064829      -165.0324
  97   2.0000      -6.062219      -164.9614
  98   2.0000      -6.057081      -164.8215
  99   2.0000      -6.052761      -164.7040
 100   2.0000      -6.050043      -164.6300
 101   2.0000      -6.041836      -164.4067
 102   2.0000      -6.037555      -164.2902
 103   2.0000      -6.036563      -164.2632
 104   2.0000      -6.035182      -164.2256
 105   2.0000      -6.033297      -164.1744
 106   2.0000      -6.033230      -164.1725
 107   2.0000      -6.032368      -164.1491
 108   2.0000      -6.031757      -164.1324
 109   2.0000      -6.030978      -164.1112
 110   2.0000      -6.029027      -164.0582
 111   2.0000      -6.028098      -164.0329
 112   2.0000      -6.027548      -164.0179
 113   2.0000      -6.026651      -163.9935
 114   2.0000      -6.025986      -163.9754
 115   2.0000      -6.024581      -163.9372
 116   2.0000      -1.242295       -33.8046
 117   2.0000      -1.240835       -33.7648
 118   2.0000      -1.203306       -32.7436
 119   2.0000      -1.110527       -30.2190
 120   2.0000      -1.061444       -28.8834
 121   2.0000      -1.037949       -28.2440
 122   2.0000      -1.036449       -28.2032
 123   2.0000      -1.028298       -27.9814
 124   2.0000      -1.021792       -27.8044
 125   2.0000      -1.017499       -27.6875
 126   2.0000      -1.010851       -27.5067
 127   2.0000      -1.004921       -27.3453
 128   2.0000      -1.002013       -27.2662
 129   2.0000      -1.000054       -27.2128
 130   2.0000      -0.997298       -27.1379
 131   2.0000      -0.980100       -26.6699
 132   2.0000      -0.978469       -26.6255
 133   2.0000      -0.977483       -26.5987
 134   2.0000      -0.974439       -26.5158
 135   2.0000      -0.963702       -26.2237
 136   2.0000      -0.961606       -26.1666
 137   2.0000      -0.953571       -25.9480
 138   2.0000      -0.950803       -25.8727
 139   2.0000      -0.942621       -25.6500
 140   2.0000      -0.939171       -25.5561
 141   2.0000      -0.924271       -25.1507
 142   2.0000      -0.912451       -24.8290
 143   2.0000      -0.910211       -24.7681
 144   2.0000      -0.887375       -24.1467
 145   2.0000      -0.883757       -24.0482
 146   2.0000      -0.881732       -23.9932
 147   2.0000      -0.875474       -23.8229
 148   2.0000      -0.872723       -23.7480
 149   2.0000      -0.869725       -23.6664
 150   2.0000      -0.865750       -23.5582
 151   2.0000      -0.860632       -23.4190
 152   2.0000      -0.853604       -23.2278
 153   2.0000      -0.848794       -23.0968
 154   2.0000      -0.830633       -22.6027
 155   2.0000      -0.820921       -22.3384
 156   2.0000      -0.818971       -22.2853
 157   2.0000      -0.814088       -22.1525
 158   2.0000      -0.808658       -22.0047
 159   2.0000      -0.806661       -21.9504
 160   2.0000      -0.796784       -21.6816
 161   2.0000      -0.795155       -21.6373
 162   2.0000      -0.786084       -21.3904
 163   2.0000      -0.783393       -21.3172
 164   2.0000      -0.772511       -21.0211
 165   2.0000      -0.759552       -20.6685
 166   2.0000      -0.754354       -20.5270
 167   2.0000      -0.738705       -20.1012
 168   2.0000      -0.731436       -19.9034
 169   2.0000      -0.718585       -19.5537
 170   2.0000      -0.714547       -19.4438
 171   2.0000      -0.705815       -19.2062
 172   2.0000      -0.698932       -19.0189
 173   2.0000      -0.690768       -18.7968
 174   2.0000      -0.685668       -18.6580
 175   2.0000      -0.682488       -18.5714
 176   2.0000      -0.678695       -18.4682
 177   2.0000      -0.673544       -18.3281
 178   2.0000      -0.661969       -18.0131
 179   2.0000      -0.655687       -17.8421
 180   2.0000      -0.650708       -17.7067
 181   2.0000      -0.648889       -17.6572
 182   2.0000      -0.644525       -17.5384
 183   2.0000      -0.642524       -17.4840
 184   2.0000      -0.639372       -17.3982
 185   2.0000      -0.630505       -17.1569
 186   2.0000      -0.628619       -17.1056
 187   2.0000      -0.622143       -16.9294
 188   2.0000      -0.616146       -16.7662
 189   2.0000      -0.608656       -16.5624
 190   2.0000      -0.604760       -16.4564
 191   2.0000      -0.603182       -16.4134
 192   2.0000      -0.600894       -16.3511
 193   2.0000      -0.596813       -16.2401
 194   2.0000      -0.592983       -16.1359
 195   2.0000      -0.592820       -16.1315
 196   2.0000      -0.591451       -16.0942
 197   2.0000      -0.590335       -16.0638
 198   2.0000      -0.586059       -15.9475
 199   2.0000      -0.583329       -15.8732
 200   2.0000      -0.580970       -15.8090
 201   2.0000      -0.574931       -15.6447
 202   2.0000      -0.573926       -15.6173
 203   2.0000      -0.567712       -15.4482
 204   2.0000      -0.563569       -15.3355
 205   2.0000      -0.562079       -15.2950
 206   2.0000      -0.561293       -15.2736
 207   2.0000      -0.551013       -14.9938
 208   2.0000      -0.544342       -14.8123
 209   2.0000      -0.537926       -14.6377
 210   2.0000      -0.535779       -14.5793
 211   2.0000      -0.533141       -14.5075
 212   2.0000      -0.530242       -14.4286
 213   2.0000      -0.527680       -14.3589
 214   2.0000      -0.525372       -14.2961
 215   2.0000      -0.523529       -14.2460
 216   2.0000      -0.520151       -14.1540
 217   2.0000      -0.518596       -14.1117
 218   2.0000      -0.515643       -14.0314
 219   2.0000      -0.511935       -13.9305
 220   2.0000      -0.509562       -13.8659
 221   2.0000      -0.508609       -13.8400
 222   2.0000      -0.506276       -13.7765
 223   2.0000      -0.503007       -13.6875
 224   2.0000      -0.498656       -13.5691
 225   2.0000      -0.496964       -13.5231
 226   2.0000      -0.496740       -13.5170
 227   2.0000      -0.494377       -13.4527
 228   2.0000      -0.494082       -13.4447
 229   2.0000      -0.490150       -13.3377
 230   2.0000      -0.488980       -13.3058
 231   2.0000      -0.486626       -13.2418
 232   2.0000      -0.485279       -13.2051
 233   2.0000      -0.483458       -13.1556
 234   2.0000      -0.480337       -13.0706
 235   2.0000      -0.480001       -13.0615
 236   2.0000      -0.477459       -12.9923
 237   2.0000      -0.475587       -12.9414
 238   2.0000      -0.475126       -12.9288
 239   2.0000      -0.473650       -12.8887
 240   2.0000      -0.473166       -12.8755
 241   2.0000      -0.470531       -12.8038
 242   2.0000      -0.468301       -12.7431
 243   2.0000      -0.465929       -12.6786
 244   2.0000      -0.459833       -12.5127
 245   2.0000      -0.458929       -12.4881
 246   2.0000      -0.454447       -12.3661
 247   2.0000      -0.454085       -12.3563
 248   2.0000      -0.452538       -12.3142
 249   2.0000      -0.450017       -12.2456
 250   2.0000      -0.445100       -12.1118
 251   2.0000      -0.442536       -12.0420
 252   2.0000      -0.440637       -11.9903
 253   2.0000      -0.440244       -11.9797
 254   2.0000      -0.437059       -11.8930
 255   2.0000      -0.435882       -11.8610
 256   2.0000      -0.435391       -11.8476
 257   2.0000      -0.434537       -11.8243
 258   2.0000      -0.431519       -11.7422
 259   2.0000      -0.430918       -11.7259
 260   2.0000      -0.429992       -11.7007
 261   2.0000      -0.428652       -11.6642
 262   2.0000      -0.425455       -11.5772
 263   2.0000      -0.423161       -11.5148
 264   2.0000      -0.421484       -11.4692
 265   2.0000      -0.420203       -11.4343
 266   2.0000      -0.418442       -11.3864
 267   2.0000      -0.418080       -11.3765
 268   2.0000      -0.416630       -11.3371
 269   2.0000      -0.415755       -11.3133
 270   2.0000      -0.413638       -11.2557
 271   2.0000      -0.411016       -11.1843
 272   2.0000      -0.408201       -11.1077
 273   2.0000      -0.402623       -10.9559
 274   2.0000      -0.401071       -10.9137
 275   2.0000      -0.396038       -10.7767
 276   2.0000      -0.390534       -10.6270
 277   2.0000      -0.388462       -10.5706
 278   2.0000      -0.386122       -10.5069
 279   2.0000      -0.383609       -10.4385
 280   2.0000      -0.371344       -10.1048
 281   2.0000      -0.370483       -10.0813
 282   2.0000      -0.366168        -9.9639
 283   2.0000      -0.363780        -9.8990
 284   2.0000      -0.343637        -9.3508
 285   2.0000      -0.338187        -9.2025
 286   2.0000      -0.332645        -9.0517
 287   2.0000      -0.326946        -8.8967
 288   2.0000      -0.326423        -8.8824
 289   2.0000      -0.324734        -8.8365
 290   2.0000      -0.312017        -8.4904
 291   2.0000      -0.305357        -8.3092
 292   2.0000      -0.296423        -8.0661
 293   2.0000      -0.291325        -7.9274
 294   2.0000      -0.274182        -7.4609
 295   2.0000      -0.271314        -7.3828
 296   2.0000      -0.249710        -6.7950
 297   0.0000      -0.121438        -3.3045
 298   0.0000      -0.095200        -2.5905
 299   0.0000      -0.075077        -2.0430
 300   0.0000      -0.055569        -1.5121
 301   0.0000      -0.036900        -1.0041

MULLIKEN ATOMIC CHARGES
-----------------------
   0 C :    0.194374
   1 C :   -0.071394
   2 C :    0.244491
   3 C :   -0.335725
   4 C :   -0.172151
   5 N :    0.122237
   6 C :   -0.182441
   7 N :    0.127033
   8 C :   -0.165134
   9 C :    0.248510
  10 O :   -0.220779
  11 C :   -0.140995
  12 S :    0.209264
  13 C :   -0.101785
  14 C :   -0.056145
  15 C :    0.144185
  16 C :   -0.017994
  17 C :   -0.127376
  18 C :    0.212115
  19 O :   -0.193423
  20 O :   -0.295627
  21 C :    0.186087
  22 S :    0.163486
  23 C :   -0.026245
  24 C :   -0.095642
  25 C :    0.093806
  26 C :    0.140569
  27 C :   -0.213779
  28 C :    0.032715
  29 C :    0.082286
  30 C :   -0.262166
  31 S :    0.141173
  32 C :    0.120439
  33 Cl:   -0.077049
  34 C :   -0.143412
  35 C :    0.089976
  36 C :    0.146985
  37 C :   -0.139534
  38 S :    0.119695
  39 C :   -0.210853
  40 C :    0.029160
  41 C :    0.085172
  42 C :   -0.262357
  43 S :    0.135326
  44 C :    0.119219
  45 Cl:   -0.085968
  46 C :   -0.082456
  47 C :   -0.023040
  48 S :    0.124441
  49 C :   -0.042932
  50 C :   -0.051031
  51 C :    0.022280
  52 C :   -0.104812
  53 S :    0.210945
  54 C :   -0.085930
  55 C :    0.011380
  56 C :    0.298207
  57 C :   -0.291925
  58 C :   -0.181702
  59 N :    0.169937
  60 C :   -0.191898
  61 N :    0.180639
  62 C :   -0.025459
  63 C :   -0.096440
  64 S :    0.210967
  65 C :    0.244123
  66 C :   -0.167350
  67 C :    0.242884
  68 C :   -0.332941
  69 C :   -0.180655
  70 N :    0.130486
  71 C :   -0.175337
  72 N :    0.127034
  73 C :   -0.073412
  74 C :    0.194068
  75 O :   -0.208882
  76 H :    0.040485
  77 H :    0.039133
  78 H :    0.004114
  79 H :    0.023920
  80 H :    0.048809
  81 H :    0.035434
  82 H :    0.037659
  83 H :   -0.003770
  84 H :   -0.008133
  85 H :    0.028396
  86 H :    0.038020
  87 H :    0.035377
  88 H :   -0.005583
  89 H :    0.039232
  90 H :    0.042050
  91 H :    0.026477
  92 H :   -0.003717
  93 H :    0.008624
  94 H :    0.018468
  95 H :    0.031856
  96 H :    0.039075
  97 H :    0.042556
Sum of atomic charges:   -0.0000000

LOEWDIN ATOMIC CHARGES
----------------------
   0 C :    0.102497
   1 C :   -0.052097
   2 C :    0.057063
   3 C :   -0.179649
   4 C :   -0.027615
   5 N :   -0.075441
   6 C :   -0.031529
   7 N :   -0.069383
   8 C :   -0.055740
   9 C :    0.075742
  10 O :   -0.009543
  11 C :   -0.201428
  12 S :    0.490654
  13 C :   -0.195486
  14 C :   -0.181867
  15 C :   -0.052965
  16 C :   -0.022127
  17 C :   -0.182890
  18 C :    0.063266
  19 O :   -0.170041
  20 O :   -0.084453
  21 C :    0.085946
  22 S :    0.450886
  23 C :   -0.174699
  24 C :   -0.050323
  25 C :   -0.033849
  26 C :   -0.050981
  27 C :   -0.178761
  28 C :   -0.065439
  29 C :   -0.176880
  30 C :   -0.194747
  31 S :    0.434967
  32 C :   -0.060753
  33 Cl:    0.136732
  34 C :   -0.147668
  35 C :   -0.038184
  36 C :   -0.051752
  37 C :   -0.139153
  38 S :    0.414074
  39 C :   -0.175506
  40 C :   -0.074788
  41 C :   -0.177807
  42 C :   -0.193461
  43 S :    0.450474
  44 C :   -0.060893
  45 Cl:    0.130406
  46 C :   -0.053097
  47 C :   -0.174869
  48 S :    0.397432
  49 C :   -0.169685
  50 C :   -0.024468
  51 C :   -0.058392
  52 C :   -0.193535
  53 S :    0.486841
  54 C :   -0.158158
  55 C :   -0.076962
  56 C :    0.080824
  57 C :   -0.097617
  58 C :   -0.014596
  59 N :   -0.031487
  60 C :   -0.017600
  61 N :   -0.027175
  62 C :   -0.001130
  63 C :   -0.196305
  64 S :    0.502211
  65 C :    0.076706
  66 C :   -0.064780
  67 C :    0.056551
  68 C :   -0.176903
  69 C :   -0.030998
  70 N :   -0.066942
  71 C :   -0.029084
  72 N :   -0.069904
  73 C :   -0.051252
  74 C :    0.103614
  75 O :    0.003968
  76 H :    0.041029
  77 H :    0.053341
  78 H :    0.044205
  79 H :    0.042013
  80 H :    0.032166
  81 H :    0.025339
  82 H :    0.025627
  83 H :    0.022197
  84 H :    0.033775
  85 H :    0.035717
  86 H :    0.040589
  87 H :    0.039597
  88 H :    0.026058
  89 H :    0.041146
  90 H :    0.042533
  91 H :    0.035067
  92 H :    0.018500
  93 H :    0.041542
  94 H :    0.045528
  95 H :    0.040192
  96 H :    0.053653
  97 H :    0.042169

  Mayer bond orders larger than 0.100000
B(  0-C ,  1-C ) :   1.6894 B(  0-C , 10-O ) :   1.1057 B(  0-C , 76-H ) :   0.9747
B(  1-C ,  2-C ) :   1.1215 B(  1-C , 77-H ) :   0.9623 B(  2-C ,  3-C ) :   1.5585
B(  2-C ,  8-C ) :   1.1526 B(  3-C ,  4-C ) :   1.1341 B(  3-C ,  6-C ) :   1.1263
B(  4-C ,  5-N ) :   3.0104 B(  6-C ,  7-N ) :   3.0152 B(  8-C ,  9-C ) :   1.5431
B(  8-C , 78-H ) :   0.9662 B(  9-C , 10-O ) :   1.1407 B(  9-C , 11-C ) :   1.0988
B( 11-C , 12-S ) :   1.1162 B( 11-C , 13-C ) :   0.1302 B( 11-C , 15-C ) :   1.4159
B( 12-S , 13-C ) :   1.1441 B( 13-C , 14-C ) :   1.5295 B( 13-C , 23-C ) :   1.1363
B( 14-C , 15-C ) :   1.2602 B( 14-C , 22-S ) :   1.0568 B( 15-C , 16-C ) :   1.1173
B( 16-C , 17-C ) :   1.6284 B( 16-C , 79-H ) :   0.9969 B( 17-C , 18-C ) :   0.9426
B( 17-C , 22-S ) :   1.0826 B( 18-C , 19-O ) :   2.1458 B( 18-C , 20-O ) :   1.2506
B( 20-O , 21-C ) :   0.9121 B( 21-C , 80-H ) :   0.9808 B( 21-C , 81-H ) :   0.9773
B( 21-C , 82-H ) :   0.9754 B( 23-C , 24-C ) :   1.5613 B( 23-C , 38-S ) :   1.0543
B( 24-C , 25-C ) :   1.1949 B( 24-C , 83-H ) :   0.9812 B( 25-C , 26-C ) :   1.3159
B( 25-C , 37-C ) :   1.2681 B( 26-C , 27-C ) :   0.9883 B( 26-C , 34-C ) :   1.3992
B( 27-C , 28-C ) :   1.5415 B( 27-C , 31-S ) :   1.1314 B( 28-C , 29-C ) :   1.2191
B( 28-C , 84-H ) :   1.0071 B( 29-C , 30-C ) :   1.5983 B( 29-C , 33-Cl) :   1.0160
B( 30-C , 31-S ) :   1.1279 B( 30-C , 32-C ) :   1.0824 B( 32-C , 85-H ) :   0.9443
B( 32-C , 86-H ) :   0.9489 B( 32-C , 87-H ) :   0.9482 B( 34-C , 35-C ) :   1.2699
B( 34-C , 48-S ) :   1.0635 B( 35-C , 36-C ) :   1.2917 B( 35-C , 46-C ) :   1.1830
B( 36-C , 37-C ) :   1.4203 B( 36-C , 39-C ) :   0.9916 B( 37-C , 38-S ) :   1.0594
B( 39-C , 40-C ) :   1.5461 B( 39-C , 43-S ) :   1.1267 B( 40-C , 41-C ) :   1.2255
B( 40-C , 88-H ) :   0.9931 B( 41-C , 42-C ) :   1.6019 B( 41-C , 45-Cl) :   1.0087
B( 42-C , 43-S ) :   1.1320 B( 42-C , 44-C ) :   1.0820 B( 44-C , 89-H ) :   0.9483
B( 44-C , 90-H ) :   0.9476 B( 44-C , 91-H ) :   0.9444 B( 46-C , 47-C ) :   1.5952
B( 46-C , 92-H ) :   0.9730 B( 47-C , 48-S ) :   1.0591 B( 47-C , 49-C ) :   1.1101
B( 49-C , 50-C ) :   1.4850 B( 49-C , 53-S ) :   1.1153 B( 50-C , 51-C ) :   1.2899
B( 50-C , 93-H ) :   0.9933 B( 51-C , 52-C ) :   1.4409 B( 51-C , 56-C ) :   0.9959
B( 52-C , 53-S ) :   1.1177 B( 52-C , 54-C ) :   1.1922 B( 54-C , 55-C ) :   1.4297
B( 54-C , 64-S ) :   1.1480 B( 55-C , 56-C ) :   0.9967 B( 55-C , 62-C ) :   1.2692
B( 56-C , 57-C ) :   1.7164 B( 57-C , 58-C ) :   1.1339 B( 57-C , 60-C ) :   1.1331
B( 58-C , 59-N ) :   2.9858 B( 60-C , 61-N ) :   2.9964 B( 62-C , 63-C ) :   1.4458
B( 62-C , 94-H ) :   1.0060 B( 63-C , 64-S ) :   1.1001 B( 63-C , 65-C ) :   1.1081
B( 65-C , 66-C ) :   1.5429 B( 65-C , 75-O ) :   1.1534 B( 66-C , 67-C ) :   1.1505
B( 66-C , 95-H ) :   0.9579 B( 67-C , 68-C ) :   1.5738 B( 67-C , 73-C ) :   1.1252
B( 68-C , 69-C ) :   1.1257 B( 68-C , 71-C ) :   1.1334 B( 69-C , 70-N ) :   3.0160
B( 71-C , 72-N ) :   3.0062 B( 73-C , 74-C ) :   1.6871 B( 73-C , 96-H ) :   0.9616
B( 74-C , 75-O ) :   1.1078 B( 74-C , 97-H ) :   0.9749

-----------------------------------------------------------------------------
         ABSORPTION SPECTRUM VIA TRANSITION ELECTRIC DIPOLE MOMENTS
-----------------------------------------------------------------------------
State   Energy  Wavelength   fosc         T2         TX        TY        TZ
        (cm-1)    (nm)                  (au**2)     (au)      (au)      (au)
-----------------------------------------------------------------------------
   0   12614.7    792.7   0.288037857   7.51706   0.54663   0.89583   2.53293
   1   18203.1    549.4   0.278655466   5.03962  -0.26872  -0.60982  -2.14372
   2   19663.8    508.5   1.519206396  25.43455   0.69688   1.55122   4.74791
   3   22212.6    450.2   0.163545376   2.42390   0.50235   1.15739   0.91214
   4   23237.4    430.3   0.216919974   3.07317   0.35771   0.73012   1.55311
   5   24060.1    415.6   0.059369118   0.81234   0.09473  -0.22275   0.86819
   6   24897.5    401.6   0.770643231  10.18998  -0.56328  -0.67349  -3.06906
   7   26716.3    374.3   0.033720861   0.41553   0.32917   0.50578  -0.22662
   8   27285.7    366.5   0.006009921   0.07251  -0.09223  -0.13262  -0.21545
   9   27849.7    359.1   0.063265839   0.74787   0.12504  -0.07407   0.85249
  10   28405.0    352.1   0.090006711   1.04317  -0.39018  -0.83371   0.44256
  11   28873.0    346.3   0.018003798   0.20528  -0.19416  -0.40720  -0.04209
  12   29779.7    335.8   0.013146064   0.14533   0.09322   0.15838  -0.33400
  13   30212.7    331.0   0.095935554   1.04536   0.23967   0.62089  -0.77615
  14   31209.5    320.4   0.354418151   3.73857   0.46165   1.04962  -1.55684
  15   31310.7    319.4   0.590606625   6.20986  -0.94658  -2.05866   1.03719
  16   31576.6    316.7   0.554262722   5.77864   1.00409   2.14038  -0.43500
  17   31738.1    315.1   0.008741402   0.09067   0.07086   0.24067  -0.16653
  18   31981.1    312.7   0.313076318   3.22279  -0.85401  -1.56665  -0.19768
  19   32112.0    311.4   0.043029189   0.44113   0.04850   0.03457  -0.66150
  20   32482.0    307.9   0.004855978   0.04922  -0.00221  -0.18550   0.12166
  21   32843.2    304.5   0.002745464   0.02752  -0.08230  -0.11608   0.08527
  22   32914.2    303.8   0.101473068   1.01495  -0.33651  -0.79958  -0.51223
  23   33278.2    300.5   0.235953264   2.33422   0.34068   0.52787   1.39266
  24   33532.6    298.2   0.089427116   0.87796  -0.18782  -0.34743  -0.84969
  25   33657.5    297.1   0.106873848   1.04536   0.13170   0.07965   1.01078
  26   34487.1    290.0   0.075814026   0.72372  -0.27440  -0.80051   0.08726
  27   35366.0    282.8   0.024736217   0.23026  -0.02573  -0.25944   0.40285
  28   35649.4    280.5   0.285645503   2.63786   0.65357   1.47710  -0.16997
  29   35820.2    279.2   0.006003414   0.05518   0.02427  -0.16790  -0.16247
  30   35901.2    278.5   0.002604687   0.02388   0.02880  -0.04663   0.14450
  31   36180.0    276.4   0.009062455   0.08246   0.14937   0.23830  -0.05799
  32   36487.4    274.1   0.017168793   0.15491   0.04454   0.38973   0.03214
  33   37059.6    269.8   0.041269891   0.36661   0.28513   0.52310   0.10809
  34   37292.6    268.1   0.035545198   0.31379   0.01095   0.23783   0.50705
  35   37876.3    264.0   0.155978864   1.35573  -0.35003  -0.78143  -0.78903
  36   38004.4    263.1   0.107098602   0.92774  -0.37762  -0.87415   0.14489
  37   38527.5    259.6   0.001101328   0.00941  -0.04444  -0.00773  -0.08589
  38   38726.9    258.2   0.009153990   0.07782  -0.19963  -0.02795   0.19283
  39   38785.9    257.8   0.028316343   0.24035   0.23981   0.37705  -0.20168
  40   38828.7    257.5   0.065351489   0.55409   0.23797   0.67830  -0.19332
  41   39227.7    254.9   0.035320334   0.29642   0.21457   0.41226  -0.28359
  42   39425.8    253.6   0.085375598   0.71290   0.18260   0.51139  -0.64656
  43   39461.1    253.4   0.020994775   0.17515  -0.22535  -0.32131   0.14536
  44   39939.9    250.4   0.081087964   0.66838   0.25179   0.44249  -0.63967
  45   40189.8    248.8   0.008147842   0.06674   0.05088  -0.03919  -0.25024

FINAL SINGLE POINT ENERGY     -6877.692986383461

DIPOLE MOMENT
-------------
                                X             Y             Z
Electronic contribution:      6.16844      15.75176       9.22739
Nuclear contribution   :     -5.63691     -13.55853      -9.69221
                        -----------------------------------------
Total Dipole Moment    :      0.53153       2.19323      -0.46481
                        -----------------------------------------
Magnitude (a.u.)       :      2.30409
Magnitude (Debye)      :      5.85653

Rotational constants in cm-1:     0.001288     0.000225     0.000192
Rotational constants in MHz :    38.607870     6.732219     5.765740

                             ****ORCA TERMINATED NORMALLY****
TOTAL RUN TIME: 0 days 0 hours 10 minutes 8 seconds 86 msec
