                         Program Version 4.2.0 -  RELEASE  -
|  1> # ORCA input file
|  2> # SCF done       -139.357375767743          0.000646895503
|  3> ! CAM-B3LYP def2-SVP def2/J RIJCOSX Grid4 TightSCF
|  4> %maxcore 5000
|  5> %tddft
|  6>     Mode sTDDFT
|  7>     Ethresh 5.0
|  8>     maxcore 5000
|  9> end
| 10>
| 11> %pal
| 12>   nprocs 6
| 13>   end
| 14> * xyz 0 1
| 15>    C        1.05884         0.79457        -2.41967
| 16>    N        0.38763         0.18879        -3.35220
| 17>    N       -0.04538        -1.04932        -3.23429
| 18>    C        0.15118        -1.78677        -2.16282
| 19>    C        0.87909        -1.23003        -1.06392
| 20>    C        1.35506         0.12167        -1.20781
| 21>    N        1.99714         0.42957        -0.09696
| 22>    O        1.92625        -0.64709         0.67748
| 23>    N        1.26166        -1.65837         0.12094
| 24>    C       -0.36842        -3.11709        -2.14518
| 25>    C       -0.29827        -4.02836        -1.12609
| 26>    C       -0.92174        -5.25530        -1.44477
| 27>    C       -1.47094        -5.24550        -2.75840
| 28>    S       -1.20566        -3.71947        -3.55477
| 29>    C       -2.12209        -6.33901        -3.28828
| 30>    C       -2.23833        -7.48049        -2.49722
| 31>    C       -1.69373        -7.48480        -1.18268
| 32>    C       -1.04217        -6.39858        -0.64959
| 33>    S       -1.96588        -9.01420        -0.39094
| 34>    C       -2.79254        -9.63398        -1.80979
| 35>    C       -2.85174        -8.71616        -2.81789
| 36>    C       -3.30525       -10.96473        -1.81069
| 37>    C       -3.26994       -11.87577        -0.79595
| 38>    C       -3.86812       -13.11663        -1.12759
| 39>    C       -4.36926       -13.12554        -2.45679
| 40>    S       -4.08940       -11.59868        -3.24824
| 41>    C       -4.98767       -14.22489        -3.00823
| 42>    C       -5.12056       -15.36409        -2.21469
| 43>    C       -4.62603       -15.35283        -0.88305
| 44>    C       -4.00509       -14.25435        -0.33257
| 45>    S       -4.91284       -16.87732        -0.08936
| 46>    C       -5.67994       -17.51744        -1.53336
| 47>    C       -5.70889       -16.60854        -2.55024
| 48>    C       -6.18445       -18.85132        -1.53850
| 49>    C       -6.21090       -19.73793        -0.50172
| 50>    C       -6.78723       -20.98730        -0.83774
| 51>    C       -7.20455       -21.02986        -2.19738
| 52>    S       -6.87481       -19.52123        -3.00682
| 53>    C       -7.78972       -22.14073        -2.75606
| 54>    C       -7.97814       -23.25933        -1.93918
| 55>    C       -7.56746       -23.21780        -0.57655
| 56>    C       -6.97653       -22.10202        -0.02311
| 57>    S       -7.90966       -24.71543         0.24400
| 58>    C       -8.58802       -25.37688        -1.22316
| 59>    C       -8.55406       -24.50421        -2.27732
| 60>    C       -9.10328       -26.70888        -1.20847
| 61>    N       -9.05966       -27.38652        -0.08177
| 62>    N       -9.50901       -28.61824         0.04181
| 63>    C      -10.03587       -29.28048        -0.94365
| 64>    C      -10.14805       -28.67957        -2.22241
| 65>    C       -9.66316       -27.33133        -2.36885
| 66>    N       -9.86374       -26.97422        -3.62033
| 67>    O      -10.43288       -28.02298        -4.21207
| 68>    N      -10.61415       -29.05653        -3.39783
| 69>    H        1.37106         1.80937        -2.60661
| 70>    H        0.18315        -3.81917        -0.18733
| 71>    H       -2.53090        -6.31840        -4.28566
| 72>    H       -0.63305        -6.41838         0.34786
| 73>    H       -3.32150        -8.91876        -3.76423
| 74>    H       -2.82808       -11.66540         0.16220
| 75>    H       -5.35948       -14.21326        -4.02032
| 76>    H       -3.63368       -14.26582         0.67967
| 77>    H       -6.14107       -16.82232        -3.51204
| 78>    H       -5.83117       -19.50237         0.47683
| 79>    H       -8.09780       -22.15797        -3.78919
| 80>    H       -6.66895       -22.08544         1.00994
| 81>    H       -8.93064       -24.75236        -3.25370
| 82>    H      -10.37612       -30.28431        -0.74655
| 83> *
| 84>
| 85>                          ****END OF INPUT****

CARTESIAN COORDINATES (ANGSTROEM)
---------------------------------
  C      1.058840    0.794570   -2.419670
  N      0.387630    0.188790   -3.352200
  N     -0.045380   -1.049320   -3.234290
  C      0.151180   -1.786770   -2.162820
  C      0.879090   -1.230030   -1.063920
  C      1.355060    0.121670   -1.207810
  N      1.997140    0.429570   -0.096960
  O      1.926250   -0.647090    0.677480
  N      1.261660   -1.658370    0.120940
  C     -0.368420   -3.117090   -2.145180
  C     -0.298270   -4.028360   -1.126090
  C     -0.921740   -5.255300   -1.444770
  C     -1.470940   -5.245500   -2.758400
  S     -1.205660   -3.719470   -3.554770
  C     -2.122090   -6.339010   -3.288280
  C     -2.238330   -7.480490   -2.497220
  C     -1.693730   -7.484800   -1.182680
  C     -1.042170   -6.398580   -0.649590
  S     -1.965880   -9.014200   -0.390940
  C     -2.792540   -9.633980   -1.809790
  C     -2.851740   -8.716160   -2.817890
  C     -3.305250  -10.964730   -1.810690
  C     -3.269940  -11.875770   -0.795950
  C     -3.868120  -13.116630   -1.127590
  C     -4.369260  -13.125540   -2.456790
  S     -4.089400  -11.598680   -3.248240
  C     -4.987670  -14.224890   -3.008230
  C     -5.120560  -15.364090   -2.214690
  C     -4.626030  -15.352830   -0.883050
  C     -4.005090  -14.254350   -0.332570
  S     -4.912840  -16.877320   -0.089360
  C     -5.679940  -17.517440   -1.533360
  C     -5.708890  -16.608540   -2.550240
  C     -6.184450  -18.851320   -1.538500
  C     -6.210900  -19.737930   -0.501720
  C     -6.787230  -20.987300   -0.837740
  C     -7.204550  -21.029860   -2.197380
  S     -6.874810  -19.521230   -3.006820
  C     -7.789720  -22.140730   -2.756060
  C     -7.978140  -23.259330   -1.939180
  C     -7.567460  -23.217800   -0.576550
  C     -6.976530  -22.102020   -0.023110
  S     -7.909660  -24.715430    0.244000
  C     -8.588020  -25.376880   -1.223160
  C     -8.554060  -24.504210   -2.277320
  C     -9.103280  -26.708880   -1.208470
  N     -9.059660  -27.386520   -0.081770
  N     -9.509010  -28.618240    0.041810
  C    -10.035870  -29.280480   -0.943650
  C    -10.148050  -28.679570   -2.222410
  C     -9.663160  -27.331330   -2.368850
  N     -9.863740  -26.974220   -3.620330
  O    -10.432880  -28.022980   -4.212070
  N    -10.614150  -29.056530   -3.397830
  H      1.371060    1.809370   -2.606610
  H      0.183150   -3.819170   -0.187330
  H     -2.530900   -6.318400   -4.285660
  H     -0.633050   -6.418380    0.347860
  H     -3.321500   -8.918760   -3.764230
  H     -2.828080  -11.665400    0.162200
  H     -5.359480  -14.213260   -4.020320
  H     -3.633680  -14.265820    0.679670
  H     -6.141070  -16.822320   -3.512040
  H     -5.831170  -19.502370    0.476830
  H     -8.097800  -22.157970   -3.789190
  H     -6.668950  -22.085440    1.009940
  H     -8.930640  -24.752360   -3.253700
  H    -10.376120  -30.284310   -0.746550

 Total Charge           Charge          ....    0
 Multiplicity           Mult            ....    1
 Number of Electrons    NEL             ....  410
 Basis Dimension        Dim             ....  850

ORBITAL ENERGIES
----------------

  NO   OCC          E(Eh)            E(eV)
   0   2.0000     -88.954219     -2420.5674
   1   2.0000     -88.954174     -2420.5661
   2   2.0000     -88.953235     -2420.5406
   3   2.0000     -88.953189     -2420.5393
   4   2.0000     -88.951703     -2420.4989
   5   2.0000     -88.951651     -2420.4975
   6   2.0000     -19.380722      -527.3762
   7   2.0000     -19.380701      -527.3757
   8   2.0000     -14.507094      -394.7581
   9   2.0000     -14.507006      -394.7557
  10   2.0000     -14.505086      -394.7035
  11   2.0000     -14.505081      -394.7033
  12   2.0000     -14.454488      -393.3266
  13   2.0000     -14.454472      -393.3262
  14   2.0000     -14.450171      -393.2092
  15   2.0000     -14.450163      -393.2089
  16   2.0000     -10.356821      -281.8234
  17   2.0000     -10.356821      -281.8234
  18   2.0000     -10.348627      -281.6005
  19   2.0000     -10.348612      -281.6001
  20   2.0000     -10.346042      -281.5301
  21   2.0000     -10.346031      -281.5298
  22   2.0000     -10.338784      -281.3326
  23   2.0000     -10.338757      -281.3319
  24   2.0000     -10.317379      -280.7502
  25   2.0000     -10.317373      -280.7500
  26   2.0000     -10.315327      -280.6943
  27   2.0000     -10.315326      -280.6943
  28   2.0000     -10.312687      -280.6225
  29   2.0000     -10.312678      -280.6222
  30   2.0000     -10.306668      -280.4587
  31   2.0000     -10.306648      -280.4581
  32   2.0000     -10.305386      -280.4238
  33   2.0000     -10.305361      -280.4231
  34   2.0000     -10.305330      -280.4223
  35   2.0000     -10.305321      -280.4220
  36   2.0000     -10.290930      -280.0304
  37   2.0000     -10.290893      -280.0294
  38   2.0000     -10.290277      -280.0127
  39   2.0000     -10.290228      -280.0113
  40   2.0000     -10.289207      -279.9835
  41   2.0000     -10.289189      -279.9831
  42   2.0000     -10.288692      -279.9696
  43   2.0000     -10.288685      -279.9693
  44   2.0000     -10.288096      -279.9533
  45   2.0000     -10.288032      -279.9516
  46   2.0000     -10.285803      -279.8909
  47   2.0000     -10.285679      -279.8876
  48   2.0000     -10.285174      -279.8738
  49   2.0000     -10.285165      -279.8736
  50   2.0000     -10.282322      -279.7962
  51   2.0000     -10.282294      -279.7954
  52   2.0000     -10.281904      -279.7848
  53   2.0000     -10.281892      -279.7845
  54   2.0000      -8.050023      -219.0523
  55   2.0000      -8.050009      -219.0519
  56   2.0000      -8.049031      -219.0253
  57   2.0000      -8.048997      -219.0243
  58   2.0000      -8.046873      -218.9665
  59   2.0000      -8.046864      -218.9663
  60   2.0000      -6.019713      -163.8047
  61   2.0000      -6.019705      -163.8045
  62   2.0000      -6.018715      -163.7776
  63   2.0000      -6.018684      -163.7767
  64   2.0000      -6.016551      -163.7187
  65   2.0000      -6.016548      -163.7186
  66   2.0000      -6.015711      -163.6958
  67   2.0000      -6.015695      -163.6954
  68   2.0000      -6.014706      -163.6685
  69   2.0000      -6.014673      -163.6676
  70   2.0000      -6.012438      -163.6068
  71   2.0000      -6.012427      -163.6065
  72   2.0000      -6.011108      -163.5706
  73   2.0000      -6.011080      -163.5698
  74   2.0000      -6.010136      -163.5441
  75   2.0000      -6.010101      -163.5432
  76   2.0000      -6.008124      -163.4894
  77   2.0000      -6.008094      -163.4885
  78   2.0000      -1.333597       -36.2890
  79   2.0000      -1.333571       -36.2883
  80   2.0000      -1.131900       -30.8006
  81   2.0000      -1.131886       -30.8002
  82   2.0000      -1.036124       -28.1944
  83   2.0000      -1.036096       -28.1936
  84   2.0000      -1.009701       -27.4754
  85   2.0000      -1.007221       -27.4079
  86   2.0000      -1.002493       -27.2792
  87   2.0000      -0.994749       -27.0685
  88   2.0000      -0.993110       -27.0239
  89   2.0000      -0.989321       -26.9208
  90   2.0000      -0.983052       -26.7502
  91   2.0000      -0.973240       -26.4832
  92   2.0000      -0.951508       -25.8918
  93   2.0000      -0.949534       -25.8381
  94   2.0000      -0.921386       -25.0722
  95   2.0000      -0.905953       -24.6522
  96   2.0000      -0.892322       -24.2813
  97   2.0000      -0.880942       -23.9716
  98   2.0000      -0.880087       -23.9484
  99   2.0000      -0.878401       -23.9025
 100   2.0000      -0.849867       -23.1260
 101   2.0000      -0.846770       -23.0418
 102   2.0000      -0.842027       -22.9127
 103   2.0000      -0.837167       -22.7805
 104   2.0000      -0.834828       -22.7168
 105   2.0000      -0.825626       -22.4664
 106   2.0000      -0.808604       -22.0032
 107   2.0000      -0.798000       -21.7147
 108   2.0000      -0.794519       -21.6200
 109   2.0000      -0.791157       -21.5285
 110   2.0000      -0.782372       -21.2894
 111   2.0000      -0.780018       -21.2254
 112   2.0000      -0.774644       -21.0791
 113   2.0000      -0.758461       -20.6388
 114   2.0000      -0.739257       -20.1162
 115   2.0000      -0.720177       -19.5970
 116   2.0000      -0.704561       -19.1721
 117   2.0000      -0.696552       -18.9541
 118   2.0000      -0.685899       -18.6643
 119   2.0000      -0.684255       -18.6195
 120   2.0000      -0.680891       -18.5280
 121   2.0000      -0.670475       -18.2446
 122   2.0000      -0.667968       -18.1763
 123   2.0000      -0.665851       -18.1187
 124   2.0000      -0.660825       -17.9820
 125   2.0000      -0.648295       -17.6410
 126   2.0000      -0.643424       -17.5084
 127   2.0000      -0.639369       -17.3981
 128   2.0000      -0.638585       -17.3768
 129   2.0000      -0.630292       -17.1511
 130   2.0000      -0.630265       -17.1504
 131   2.0000      -0.625793       -17.0287
 132   2.0000      -0.624417       -16.9912
 133   2.0000      -0.616520       -16.7764
 134   2.0000      -0.593633       -16.1536
 135   2.0000      -0.578650       -15.7459
 136   2.0000      -0.577980       -15.7276
 137   2.0000      -0.575130       -15.6501
 138   2.0000      -0.573383       -15.6026
 139   2.0000      -0.567670       -15.4471
 140   2.0000      -0.564052       -15.3486
 141   2.0000      -0.559358       -15.2209
 142   2.0000      -0.552041       -15.0218
 143   2.0000      -0.541790       -14.7429
 144   2.0000      -0.538773       -14.6608
 145   2.0000      -0.538770       -14.6607
 146   2.0000      -0.537226       -14.6187
 147   2.0000      -0.536149       -14.5894
 148   2.0000      -0.531511       -14.4632
 149   2.0000      -0.530412       -14.4332
 150   2.0000      -0.525203       -14.2915
 151   2.0000      -0.517595       -14.0845
 152   2.0000      -0.515153       -14.0180
 153   2.0000      -0.512937       -13.9577
 154   2.0000      -0.510256       -13.8848
 155   2.0000      -0.503847       -13.7104
 156   2.0000      -0.502576       -13.6758
 157   2.0000      -0.501664       -13.6510
 158   2.0000      -0.486208       -13.2304
 159   2.0000      -0.483197       -13.1485
 160   2.0000      -0.482864       -13.1394
 161   2.0000      -0.474916       -12.9231
 162   2.0000      -0.470723       -12.8090
 163   2.0000      -0.463932       -12.6242
 164   2.0000      -0.461924       -12.5696
 165   2.0000      -0.459328       -12.4990
 166   2.0000      -0.452701       -12.3186
 167   2.0000      -0.448734       -12.2107
 168   2.0000      -0.448320       -12.1994
 169   2.0000      -0.446109       -12.1392
 170   2.0000      -0.441755       -12.0208
 171   2.0000      -0.439715       -11.9653
 172   2.0000      -0.434001       -11.8098
 173   2.0000      -0.430392       -11.7116
 174   2.0000      -0.429906       -11.6983
 175   2.0000      -0.423580       -11.5262
 176   2.0000      -0.417568       -11.3626
 177   2.0000      -0.416651       -11.3376
 178   2.0000      -0.415949       -11.3185
 179   2.0000      -0.415074       -11.2947
 180   2.0000      -0.412749       -11.2315
 181   2.0000      -0.412731       -11.2310
 182   2.0000      -0.410565       -11.1721
 183   2.0000      -0.409801       -11.1513
 184   2.0000      -0.407528       -11.0894
 185   2.0000      -0.399920       -10.8824
 186   2.0000      -0.399886       -10.8815
 187   2.0000      -0.397535       -10.8175
 188   2.0000      -0.384989       -10.4761
 189   2.0000      -0.383128       -10.4254
 190   2.0000      -0.380610       -10.3569
 191   2.0000      -0.374811       -10.1991
 192   2.0000      -0.355780        -9.6813
 193   2.0000      -0.348828        -9.4921
 194   2.0000      -0.333793        -9.0830
 195   2.0000      -0.330889        -9.0039
 196   2.0000      -0.322290        -8.7700
 197   2.0000      -0.315763        -8.5924
 198   2.0000      -0.315742        -8.5918
 199   2.0000      -0.305775        -8.3206
 200   2.0000      -0.286264        -7.7896
 201   2.0000      -0.283044        -7.7020
 202   2.0000      -0.269228        -7.3261
 203   2.0000      -0.264180        -7.1887
 204   2.0000      -0.245923        -6.6919
 205   0.0000      -0.093398        -2.5415
 206   0.0000      -0.091311        -2.4847
 207   0.0000      -0.054915        -1.4943
 208   0.0000      -0.031058        -0.8451
 209   0.0000      -0.007533        -0.2050

MULLIKEN ATOMIC CHARGES
-----------------------
   0 C :   -0.007657
   1 N :   -0.031482
   2 N :   -0.059243
   3 C :    0.042076
   4 C :   -0.042519
   5 C :   -0.015537
   6 N :    0.078329
   7 O :   -0.083933
   8 N :    0.064606
   9 C :   -0.110924
  10 C :   -0.040260
  11 C :    0.104555
  12 C :   -0.033159
  13 S :    0.170295
  14 C :   -0.061396
  15 C :    0.127172
  16 C :   -0.042146
  17 C :   -0.046679
  18 S :    0.109400
  19 C :   -0.015747
  20 C :   -0.059691
  21 C :   -0.020721
  22 C :   -0.057113
  23 C :    0.119488
  24 C :   -0.041705
  25 S :    0.108257
  26 C :   -0.054432
  27 C :    0.119423
  28 C :   -0.041825
  29 C :   -0.054472
  30 S :    0.108520
  31 C :   -0.020597
  32 C :   -0.057041
  33 C :   -0.015355
  34 C :   -0.061145
  35 C :    0.128536
  36 C :   -0.041711
  37 S :    0.109377
  38 C :   -0.048240
  39 C :    0.105955
  40 C :   -0.032693
  41 C :   -0.062903
  42 S :    0.170181
  43 C :   -0.110140
  44 C :   -0.041744
  45 C :    0.042567
  46 N :   -0.060037
  47 N :   -0.031180
  48 C :   -0.009410
  49 C :   -0.015746
  50 C :   -0.040525
  51 N :    0.063468
  52 O :   -0.084184
  53 N :    0.080113
  54 H :    0.015134
  55 H :   -0.002713
  56 H :   -0.028907
  57 H :   -0.027366
  58 H :   -0.011925
  59 H :   -0.012941
  60 H :   -0.031081
  61 H :   -0.031061
  62 H :   -0.012893
  63 H :   -0.011831
  64 H :   -0.026975
  65 H :   -0.028533
  66 H :   -0.002427
  67 H :    0.014491
Sum of atomic charges:   -0.0000000

LOEWDIN ATOMIC CHARGES
----------------------
   0 C :    0.009825
   1 N :   -0.024953
   2 N :   -0.064968
   3 C :   -0.004817
   4 C :   -0.061893
   5 C :   -0.074830
   6 N :   -0.001969
   7 O :    0.090580
   8 N :   -0.008891
   9 C :   -0.177793
  10 C :   -0.020285
  11 C :   -0.050564
  12 C :   -0.147858
  13 S :    0.434000
  14 C :   -0.036852
  15 C :   -0.035109
  16 C :   -0.152067
  17 C :   -0.026894
  18 S :    0.395039
  19 C :   -0.158010
  20 C :   -0.057399
  21 C :   -0.164327
  22 C :   -0.053182
  23 C :   -0.042905
  24 C :   -0.150150
  25 S :    0.395329
  26 C :   -0.034826
  27 C :   -0.042923
  28 C :   -0.150174
  29 C :   -0.034819
  30 S :    0.395346
  31 C :   -0.164387
  32 C :   -0.053194
  33 C :   -0.157893
  34 C :   -0.057447
  35 C :   -0.035086
  36 C :   -0.152141
  37 S :    0.395065
  38 C :   -0.026982
  39 C :   -0.050549
  40 C :   -0.147926
  41 C :   -0.036916
  42 S :    0.434237
  43 C :   -0.177807
  44 C :   -0.020304
  45 C :   -0.004767
  46 N :   -0.065065
  47 N :   -0.024928
  48 C :    0.009825
  49 C :   -0.074987
  50 C :   -0.061740
  51 N :   -0.008905
  52 O :    0.090507
  53 N :   -0.001881
  54 H :    0.037810
  55 H :    0.034757
  56 H :    0.032140
  57 H :    0.032918
  58 H :    0.028499
  59 H :    0.028196
  60 H :    0.031477
  61 H :    0.031476
  62 H :    0.028197
  63 H :    0.028526
  64 H :    0.032937
  65 H :    0.032157
  66 H :    0.034769
  67 H :    0.037748

  Mayer bond orders larger than 0.100000
B(  0-C ,  1-N ) :   1.7740 B(  0-C ,  3-C ) :   0.1025 B(  0-C ,  5-C ) :   1.0836
B(  0-C , 54-H ) :   1.0164 B(  1-N ,  2-N ) :   1.1664 B(  2-N ,  3-C ) :   1.7821
B(  3-C ,  4-C ) :   1.0675 B(  3-C ,  9-C ) :   1.1505 B(  4-C ,  5-C ) :   1.1797
B(  4-C ,  8-N ) :   1.6096 B(  5-C ,  6-N ) :   1.5994 B(  6-N ,  7-O ) :   1.0861
B(  6-N ,  8-N ) :   0.1847 B(  7-O ,  8-N ) :   1.0654 B(  9-C , 10-C ) :   1.5783
B(  9-C , 13-S ) :   1.0667 B( 10-C , 11-C ) :   1.1421 B( 10-C , 55-H ) :   0.9865
B( 11-C , 12-C ) :   1.2896 B( 11-C , 17-C ) :   1.3023 B( 12-C , 13-S ) :   1.0382
B( 12-C , 14-C ) :   1.3732 B( 14-C , 15-C ) :   1.3275 B( 14-C , 17-C ) :   0.1008
B( 14-C , 56-H ) :   1.0017 B( 15-C , 16-C ) :   1.2738 B( 15-C , 20-C ) :   1.1497
B( 16-C , 17-C ) :   1.4026 B( 16-C , 18-S ) :   1.0361 B( 17-C , 57-H ) :   1.0010
B( 18-S , 19-C ) :   1.0771 B( 19-C , 20-C ) :   1.5740 B( 19-C , 21-C ) :   1.1460
B( 20-C , 58-H ) :   0.9966 B( 21-C , 22-C ) :   1.5754 B( 21-C , 25-S ) :   1.0758
B( 22-C , 23-C ) :   1.1490 B( 22-C , 59-H ) :   0.9963 B( 23-C , 24-C ) :   1.2869
B( 23-C , 29-C ) :   1.3183 B( 24-C , 25-S ) :   1.0397 B( 24-C , 26-C ) :   1.3871
B( 26-C , 27-C ) :   1.3183 B( 26-C , 29-C ) :   0.1005 B( 26-C , 60-H ) :   1.0010
B( 27-C , 28-C ) :   1.2867 B( 27-C , 32-C ) :   1.1491 B( 28-C , 29-C ) :   1.3871
B( 28-C , 30-S ) :   1.0398 B( 29-C , 61-H ) :   1.0010 B( 30-S , 31-C ) :   1.0758
B( 31-C , 32-C ) :   1.5755 B( 31-C , 33-C ) :   1.1451 B( 32-C , 62-H ) :   0.9963
B( 33-C , 34-C ) :   1.5738 B( 33-C , 37-S ) :   1.0773 B( 34-C , 35-C ) :   1.1500
B( 34-C , 63-H ) :   0.9971 B( 35-C , 36-C ) :   1.2723 B( 35-C , 41-C ) :   1.3275
B( 36-C , 37-S ) :   1.0361 B( 36-C , 38-C ) :   1.4029 B( 38-C , 39-C ) :   1.3020
B( 38-C , 41-C ) :   0.1006 B( 38-C , 64-H ) :   1.0013 B( 39-C , 40-C ) :   1.2881
B( 39-C , 44-C ) :   1.1425 B( 40-C , 41-C ) :   1.3732 B( 40-C , 42-S ) :   1.0382
B( 41-C , 65-H ) :   1.0021 B( 42-S , 43-C ) :   1.0671 B( 43-C , 44-C ) :   1.5775
B( 43-C , 45-C ) :   1.1502 B( 44-C , 66-H ) :   0.9869 B( 45-C , 46-N ) :   1.7811
B( 45-C , 48-C ) :   0.1025 B( 45-C , 50-C ) :   1.0683 B( 46-N , 47-N ) :   1.1670
B( 47-N , 48-C ) :   1.7737 B( 48-C , 49-C ) :   1.0849 B( 48-C , 67-H ) :   1.0167
B( 49-C , 50-C ) :   1.1788 B( 49-C , 53-N ) :   1.6001 B( 50-C , 51-N ) :   1.6082
B( 51-N , 52-O ) :   1.0650 B( 51-N , 53-N ) :   0.1847 B( 52-O , 53-N ) :   1.0858

-----------------------------------------------------------------------------
         ABSORPTION SPECTRUM VIA TRANSITION ELECTRIC DIPOLE MOMENTS
-----------------------------------------------------------------------------
State   Energy  Wavelength   fosc         T2         TX        TY        TZ
        (cm-1)    (nm)                  (au**2)     (au)      (au)      (au)
-----------------------------------------------------------------------------
   0   20274.0    493.2   2.040760335  33.13812  -1.89586  -5.40684   0.55671
   1   20932.8    477.7   0.000008866   0.00014   0.00035  -0.01171   0.00150
   2   21273.3    470.1   0.001186040   0.01835   0.04367   0.12758  -0.01304
   3   21273.9    470.1   0.000066914   0.00104   0.00259   0.03199  -0.00237
   4   23734.6    421.3   0.832211397  11.54324   1.30203   3.12337   0.30413
   5   24398.1    409.9   0.000199447   0.00269  -0.04945   0.00098   0.01565
   6   27579.7    362.6   0.276530233   3.30087   0.14065   1.45390  -1.08040
   7   28487.5    351.0   0.000196503   0.00227   0.03150   0.03564  -0.00291
   8   28501.0    350.9   0.724451511   8.36806  -1.04559  -2.69716  -0.01143
   9   29803.4    335.5   0.540677076   5.97239  -0.77516  -2.29806   0.30070
  10   30792.0    324.8   0.000172220   0.00184   0.03897  -0.01302  -0.01237
  11   31498.7    317.5   0.000135817   0.00142  -0.03449   0.01182   0.00951
  12   32507.2    307.6   0.106109738   1.07461  -0.22062   0.29101  -0.97018
  13   32878.7    304.1   0.001872430   0.01875   0.05276   0.02732   0.12336
  14   33999.7    294.1   0.000001267   0.00001  -0.00119   0.00111   0.00310
  15   34101.7    293.2   0.048495894   0.46817  -0.31945  -0.34273  -0.49866
  16   34328.0    291.3   0.000028704   0.00028  -0.01502   0.00511   0.00485
  17   35401.4    282.5   0.000025808   0.00024  -0.01316   0.00469   0.00669
  18   36001.9    277.8   0.000033605   0.00031  -0.01622   0.00482   0.00457
  19   36529.5    273.8   0.014825988   0.13362  -0.09724   0.05671  -0.34777
  20   38255.3    261.4   0.061159396   0.52632   0.30652   0.64064   0.14812
  21   38610.5    259.0   0.000026759   0.00023   0.01257   0.00786  -0.00292
  22   38901.8    257.1   0.368064725   3.11480  -0.49516  -1.63875   0.42907
  23   39253.3    254.8   0.000018980   0.00016   0.01081  -0.00211  -0.00616
  24   39268.8    254.7   0.003101100   0.02600   0.15072  -0.03930  -0.04167
  25   39269.4    254.7   0.004178505   0.03503   0.15040  -0.08832  -0.06789

FINAL SINGLE POINT ENERGY     -4430.611681710799

DIPOLE MOMENT
-------------
                                X             Y             Z
Electronic contribution:      0.28214      -0.11068      -0.11129
Nuclear contribution   :     -0.25637       0.10137       0.10426
                        -----------------------------------------
Total Dipole Moment    :      0.02577      -0.00931      -0.00703
                        -----------------------------------------
Magnitude (a.u.)       :      0.02829
Magnitude (Debye)      :      0.07190

Rotational constants in cm-1:     0.010899     0.000204     0.000200
Rotational constants in MHz :   326.732007     6.114786     6.003438

                             ****ORCA TERMINATED NORMALLY****
TOTAL RUN TIME: 0 days 0 hours 4 minutes 19 seconds 907 msec
