                         Program Version 4.2.0 -  RELEASE  -
|  1> # ORCA input file
|  2> # SCF done       -177.793556408456          0.000797095048
|  3> ! CAM-B3LYP def2-SVP def2/J RIJCOSX Grid4 TightSCF
|  4> %maxcore 5000
|  5> %tddft
|  6>     Mode sTDDFT
|  7>     Ethresh 5.0
|  8>     maxcore 5000
|  9> end
| 10>
| 11> %pal
| 12>   nprocs 6
| 13>   end
| 14> * xyz 0 1
| 15>    C       -3.44678         0.98267        -3.33372
| 16>    N       -3.72490         0.04496        -4.18905
| 17>    N       -3.71251        -1.23428        -3.87753
| 18>    C       -3.41489        -1.68383        -2.67626
| 19>    C       -3.08738        -0.74750        -1.64660
| 20>    C       -3.10833         0.64887        -1.99860
| 21>    N       -2.78504         1.32891        -0.91507
| 22>    O       -2.57904         0.42425         0.03673
| 23>    N       -2.75418        -0.82989        -0.37571
| 24>    C       -3.43884        -3.09303        -2.45755
| 25>    C       -3.15644        -3.77745        -1.30798
| 26>    C       -3.29275        -5.17427        -1.44865
| 27>    C       -3.69203        -5.54379        -2.76336
| 28>    S       -3.88458        -4.13697        -3.77730
| 29>    C       -3.91172        -6.86787        -3.10918
| 30>    S       -4.44171        -7.43980        -4.69236
| 31>    C       -3.52430        -6.40632        -5.87356
| 32>    C       -3.74561        -7.83443        -2.10190
| 33>    C       -3.34093        -7.46416        -0.79193
| 34>    C       -3.11414        -6.14471        -0.44193
| 35>    S       -2.56569        -5.57246         1.13301
| 36>    C       -3.46528        -6.61078         2.32531
| 37>    S       -3.15820        -8.87850         0.21583
| 38>    C       -3.63193        -9.93218        -1.09895
| 39>    C       -3.90658        -9.23303        -2.23645
| 40>    C       -3.69365       -11.34059        -0.89859
| 41>    C       -3.35392       -12.03431         0.22738
| 42>    C       -3.52590       -13.43280         0.10351
| 43>    C       -4.00886       -13.78429        -1.18640
| 44>    S       -4.25567       -12.38559        -2.18791
| 45>    C       -4.20833       -15.09073        -1.58206
| 46>    S       -4.80954       -15.45780        -3.21497
| 47>    C       -3.23874       -16.00300        -3.96255
| 48>    C       -3.92634       -16.10688        -0.66220
| 49>    C       -3.44573       -15.76013         0.62668
| 50>    C       -3.26326       -14.44888         1.03255
| 51>    S       -2.66936       -14.13342         2.66878
| 52>    C       -3.90787       -12.94173         3.29247
| 53>    S       -3.16188       -17.17079         1.59899
| 54>    C       -3.69894       -18.21069         0.29572
| 55>    C       -4.06705       -17.50488        -0.81579
| 56>    C       -3.71238       -19.62810         0.46405
| 57>    C       -4.18173       -20.56500        -0.41526
| 58>    C       -4.04695       -21.89190         0.05020
| 59>    C       -3.43964       -21.93721         1.33195
| 60>    S       -3.06963       -20.34836         1.92458
| 61>    C       -3.20095       -23.12270         1.99318
| 62>    S       -2.41853       -23.12669         3.58803
| 63>    C       -3.85708       -23.55752         4.62171
| 64>    C       -3.58115       -24.31132         1.35469
| 65>    C       -4.21636       -24.27552         0.07878
| 66>    C       -4.43902       -23.08120        -0.59229
| 67>    S       -5.23551       -22.90042        -2.15584
| 68>    C       -4.72711       -24.35533        -3.11842
| 69>    S       -4.64318       -25.88757        -0.44315
| 70>    C       -3.95311       -26.57034         1.00097
| 71>    C       -3.43294       -25.62711         1.84233
| 72>    C       -3.98332       -27.98605         1.18064
| 73>    N       -4.48833       -28.72987         0.22006
| 74>    N       -4.56008       -30.04357         0.28398
| 75>    C       -4.13840       -30.72505         1.30633
| 76>    C       -3.57694       -30.05659         2.42305
| 77>    C       -3.49283       -28.62041         2.36454
| 78>    N       -2.95820       -28.20934         3.49557
| 79>    O       -2.72296       -29.30984         4.20763
| 80>    N       -3.08368       -30.42833         3.58922
| 81>    H       -3.48554         2.00264        -3.68075
| 82>    H       -2.86594        -3.29377        -0.39273
| 83>    H       -3.46077        -6.99751        -6.78218
| 84>    H       -2.53095        -6.21246        -5.48435
| 85>    H       -4.05433        -5.47983        -6.06914
| 86>    H       -3.52950        -6.01758         3.23235
| 87>    H       -2.92271        -7.53014         2.52079
| 88>    H       -4.45880        -6.81787         1.94364
| 89>    H       -4.21434        -9.70119        -3.15408
| 90>    H       -2.96205       -11.55229         1.10468
| 91>    H       -3.47650       -16.32673        -4.97014
| 92>    H       -2.82442       -16.82555        -3.38794
| 93>    H       -2.54746       -15.16599        -3.99035
| 94>    H       -4.22134       -13.29826         4.26879
| 95>    H       -4.75180       -12.91867         2.61300
| 96>    H       -3.46068       -11.95688         3.38732
| 97>    H       -4.44019       -17.95983        -1.71492
| 98>    H       -4.62231       -20.32669        -1.36544
| 99>    H       -3.48482       -23.63277         5.63779
|100>    H       -4.27593       -24.50635         4.30294
|101>    H       -4.59576       -22.76488         4.55025
|102>    H       -4.83249       -24.05905        -4.15800
|103>    H       -5.37176       -25.20332        -2.90765
|104>    H       -3.69095       -24.58764        -2.90120
|105>    H       -2.94570       -25.87400         2.76881
|106>    H       -4.23704       -31.79786         1.26662
|107> *
|108>
|109>                          ****END OF INPUT****

CARTESIAN COORDINATES (ANGSTROEM)
---------------------------------
  C     -3.446780    0.982670   -3.333720
  N     -3.724900    0.044960   -4.189050
  N     -3.712510   -1.234280   -3.877530
  C     -3.414890   -1.683830   -2.676260
  C     -3.087380   -0.747500   -1.646600
  C     -3.108330    0.648870   -1.998600
  N     -2.785040    1.328910   -0.915070
  O     -2.579040    0.424250    0.036730
  N     -2.754180   -0.829890   -0.375710
  C     -3.438840   -3.093030   -2.457550
  C     -3.156440   -3.777450   -1.307980
  C     -3.292750   -5.174270   -1.448650
  C     -3.692030   -5.543790   -2.763360
  S     -3.884580   -4.136970   -3.777300
  C     -3.911720   -6.867870   -3.109180
  S     -4.441710   -7.439800   -4.692360
  C     -3.524300   -6.406320   -5.873560
  C     -3.745610   -7.834430   -2.101900
  C     -3.340930   -7.464160   -0.791930
  C     -3.114140   -6.144710   -0.441930
  S     -2.565690   -5.572460    1.133010
  C     -3.465280   -6.610780    2.325310
  S     -3.158200   -8.878500    0.215830
  C     -3.631930   -9.932180   -1.098950
  C     -3.906580   -9.233030   -2.236450
  C     -3.693650  -11.340590   -0.898590
  C     -3.353920  -12.034310    0.227380
  C     -3.525900  -13.432800    0.103510
  C     -4.008860  -13.784290   -1.186400
  S     -4.255670  -12.385590   -2.187910
  C     -4.208330  -15.090730   -1.582060
  S     -4.809540  -15.457800   -3.214970
  C     -3.238740  -16.003000   -3.962550
  C     -3.926340  -16.106880   -0.662200
  C     -3.445730  -15.760130    0.626680
  C     -3.263260  -14.448880    1.032550
  S     -2.669360  -14.133420    2.668780
  C     -3.907870  -12.941730    3.292470
  S     -3.161880  -17.170790    1.598990
  C     -3.698940  -18.210690    0.295720
  C     -4.067050  -17.504880   -0.815790
  C     -3.712380  -19.628100    0.464050
  C     -4.181730  -20.565000   -0.415260
  C     -4.046950  -21.891900    0.050200
  C     -3.439640  -21.937210    1.331950
  S     -3.069630  -20.348360    1.924580
  C     -3.200950  -23.122700    1.993180
  S     -2.418530  -23.126690    3.588030
  C     -3.857080  -23.557520    4.621710
  C     -3.581150  -24.311320    1.354690
  C     -4.216360  -24.275520    0.078780
  C     -4.439020  -23.081200   -0.592290
  S     -5.235510  -22.900420   -2.155840
  C     -4.727110  -24.355330   -3.118420
  S     -4.643180  -25.887570   -0.443150
  C     -3.953110  -26.570340    1.000970
  C     -3.432940  -25.627110    1.842330
  C     -3.983320  -27.986050    1.180640
  N     -4.488330  -28.729870    0.220060
  N     -4.560080  -30.043570    0.283980
  C     -4.138400  -30.725050    1.306330
  C     -3.576940  -30.056590    2.423050
  C     -3.492830  -28.620410    2.364540
  N     -2.958200  -28.209340    3.495570
  O     -2.722960  -29.309840    4.207630
  N     -3.083680  -30.428330    3.589220
  H     -3.485540    2.002640   -3.680750
  H     -2.865940   -3.293770   -0.392730
  H     -3.460770   -6.997510   -6.782180
  H     -2.530950   -6.212460   -5.484350
  H     -4.054330   -5.479830   -6.069140
  H     -3.529500   -6.017580    3.232350
  H     -2.922710   -7.530140    2.520790
  H     -4.458800   -6.817870    1.943640
  H     -4.214340   -9.701190   -3.154080
  H     -2.962050  -11.552290    1.104680
  H     -3.476500  -16.326730   -4.970140
  H     -2.824420  -16.825550   -3.387940
  H     -2.547460  -15.165990   -3.990350
  H     -4.221340  -13.298260    4.268790
  H     -4.751800  -12.918670    2.613000
  H     -3.460680  -11.956880    3.387320
  H     -4.440190  -17.959830   -1.714920
  H     -4.622310  -20.326690   -1.365440
  H     -3.484820  -23.632770    5.637790
  H     -4.275930  -24.506350    4.302940
  H     -4.595760  -22.764880    4.550250
  H     -4.832490  -24.059050   -4.158000
  H     -5.371760  -25.203320   -2.907650
  H     -3.690950  -24.587640   -2.901200
  H     -2.945700  -25.874000    2.768810
  H     -4.237040  -31.797860    1.266620

 Total Charge           Charge          ....    0
 Multiplicity           Mult            ....    1
 Number of Electrons    NEL             ....  554
 Basis Dimension        Dim             .... 1102

ORBITAL ENERGIES
----------------

  NO   OCC          E(Eh)            E(eV)
   0   2.0000     -88.956654     -2420.6336
   1   2.0000     -88.956238     -2420.6223
   2   2.0000     -88.953683     -2420.5528
   3   2.0000     -88.953531     -2420.5486
   4   2.0000     -88.952396     -2420.5178
   5   2.0000     -88.951924     -2420.5049
   6   2.0000     -88.930013     -2419.9087
   7   2.0000     -88.929068     -2419.8830
   8   2.0000     -88.926740     -2419.8196
   9   2.0000     -88.925517     -2419.7863
  10   2.0000     -88.923959     -2419.7440
  11   2.0000     -88.922548     -2419.7055
  12   2.0000     -19.382184      -527.4160
  13   2.0000     -19.378837      -527.3250
  14   2.0000     -14.508441      -394.7947
  15   2.0000     -14.506553      -394.7434
  16   2.0000     -14.505203      -394.7066
  17   2.0000     -14.503284      -394.6544
  18   2.0000     -14.456486      -393.3810
  19   2.0000     -14.453711      -393.3055
  20   2.0000     -14.452715      -393.2784
  21   2.0000     -14.449441      -393.1893
  22   2.0000     -10.358953      -281.8814
  23   2.0000     -10.355870      -281.7976
  24   2.0000     -10.350105      -281.6407
  25   2.0000     -10.347701      -281.5753
  26   2.0000     -10.346990      -281.5559
  27   2.0000     -10.344651      -281.4923
  28   2.0000     -10.340939      -281.3912
  29   2.0000     -10.337622      -281.3010
  30   2.0000     -10.315212      -280.6912
  31   2.0000     -10.314380      -280.6686
  32   2.0000     -10.313359      -280.6408
  33   2.0000     -10.313270      -280.6383
  34   2.0000     -10.313111      -280.6340
  35   2.0000     -10.312807      -280.6257
  36   2.0000     -10.312411      -280.6150
  37   2.0000     -10.310836      -280.5721
  38   2.0000     -10.310689      -280.5681
  39   2.0000     -10.309864      -280.5457
  40   2.0000     -10.308823      -280.5173
  41   2.0000     -10.308603      -280.5114
  42   2.0000     -10.308088      -280.4973
  43   2.0000     -10.307555      -280.4828
  44   2.0000     -10.306440      -280.4525
  45   2.0000     -10.305294      -280.4213
  46   2.0000     -10.305045      -280.4145
  47   2.0000     -10.302005      -280.3318
  48   2.0000     -10.296159      -280.1727
  49   2.0000     -10.294968      -280.1403
  50   2.0000     -10.293915      -280.1117
  51   2.0000     -10.292454      -280.0719
  52   2.0000     -10.292195      -280.0649
  53   2.0000     -10.291401      -280.0433
  54   2.0000     -10.290947      -280.0309
  55   2.0000     -10.290780      -280.0263
  56   2.0000     -10.290491      -280.0185
  57   2.0000     -10.290410      -280.0163
  58   2.0000     -10.289662      -279.9959
  59   2.0000     -10.289286      -279.9857
  60   2.0000     -10.288330      -279.9597
  61   2.0000     -10.288000      -279.9507
  62   2.0000     -10.281270      -279.7676
  63   2.0000     -10.278934      -279.7040
  64   2.0000     -10.277432      -279.6631
  65   2.0000     -10.277071      -279.6533
  66   2.0000      -8.051954      -219.1048
  67   2.0000      -8.050836      -219.0744
  68   2.0000      -8.049162      -219.0288
  69   2.0000      -8.048310      -219.0057
  70   2.0000      -8.047825      -218.9924
  71   2.0000      -8.047651      -218.9877
  72   2.0000      -8.025203      -218.3769
  73   2.0000      -8.024374      -218.3543
  74   2.0000      -8.021837      -218.2853
  75   2.0000      -8.020747      -218.2556
  76   2.0000      -8.018703      -218.2000
  77   2.0000      -8.017158      -218.1580
  78   2.0000      -6.021703      -163.8589
  79   2.0000      -6.020610      -163.8291
  80   2.0000      -6.018861      -163.7815
  81   2.0000      -6.018074      -163.7601
  82   2.0000      -6.017546      -163.7458
  83   2.0000      -6.017543      -163.7457
  84   2.0000      -6.017346      -163.7403
  85   2.0000      -6.016264      -163.7109
  86   2.0000      -6.014633      -163.6665
  87   2.0000      -6.013715      -163.6415
  88   2.0000      -6.013378      -163.6323
  89   2.0000      -6.013119      -163.6253
  90   2.0000      -6.013111      -163.6251
  91   2.0000      -6.012175      -163.5996
  92   2.0000      -6.010451      -163.5527
  93   2.0000      -6.009627      -163.5303
  94   2.0000      -6.008976      -163.5126
  95   2.0000      -6.008890      -163.5102
  96   2.0000      -5.995754      -163.1528
  97   2.0000      -5.994930      -163.1303
  98   2.0000      -5.992447      -163.0628
  99   2.0000      -5.991550      -163.0384
 100   2.0000      -5.991314      -163.0319
 101   2.0000      -5.990665      -163.0143
 102   2.0000      -5.989339      -162.9782
 103   2.0000      -5.988402      -162.9527
 104   2.0000      -5.987774      -162.9356
 105   2.0000      -5.987097      -162.9172
 106   2.0000      -5.985367      -162.8701
 107   2.0000      -5.984773      -162.8539
 108   2.0000      -5.983974      -162.8322
 109   2.0000      -5.983855      -162.8290
 110   2.0000      -5.981199      -162.7567
 111   2.0000      -5.980308      -162.7325
 112   2.0000      -5.978007      -162.6698
 113   2.0000      -5.976505      -162.6290
 114   2.0000      -1.335141       -36.3310
 115   2.0000      -1.331399       -36.2292
 116   2.0000      -1.134093       -30.8602
 117   2.0000      -1.131089       -30.7785
 118   2.0000      -1.037701       -28.2373
 119   2.0000      -1.034346       -28.1460
 120   2.0000      -1.013905       -27.5898
 121   2.0000      -1.012164       -27.5424
 122   2.0000      -1.007557       -27.4170
 123   2.0000      -0.995927       -27.1005
 124   2.0000      -0.993409       -27.0320
 125   2.0000      -0.990090       -26.9417
 126   2.0000      -0.985254       -26.8101
 127   2.0000      -0.975231       -26.5374
 128   2.0000      -0.954806       -25.9816
 129   2.0000      -0.951364       -25.8879
 130   2.0000      -0.929320       -25.2881
 131   2.0000      -0.924128       -25.1468
 132   2.0000      -0.923248       -25.1228
 133   2.0000      -0.920699       -25.0535
 134   2.0000      -0.915708       -24.9177
 135   2.0000      -0.906155       -24.6577
 136   2.0000      -0.872884       -23.7524
 137   2.0000      -0.871454       -23.7135
 138   2.0000      -0.866083       -23.5673
 139   2.0000      -0.851908       -23.1816
 140   2.0000      -0.847818       -23.0703
 141   2.0000      -0.847202       -23.0535
 142   2.0000      -0.844080       -22.9686
 143   2.0000      -0.842635       -22.9293
 144   2.0000      -0.839666       -22.8485
 145   2.0000      -0.837434       -22.7877
 146   2.0000      -0.834078       -22.6964
 147   2.0000      -0.825254       -22.4563
 148   2.0000      -0.810151       -22.0453
 149   2.0000      -0.799258       -21.7489
 150   2.0000      -0.796461       -21.6728
 151   2.0000      -0.791611       -21.5408
 152   2.0000      -0.787704       -21.4345
 153   2.0000      -0.780766       -21.2457
 154   2.0000      -0.778980       -21.1971
 155   2.0000      -0.765899       -20.8412
 156   2.0000      -0.753664       -20.5082
 157   2.0000      -0.748721       -20.3737
 158   2.0000      -0.740657       -20.1543
 159   2.0000      -0.735876       -20.0242
 160   2.0000      -0.717876       -19.5344
 161   2.0000      -0.708619       -19.2825
 162   2.0000      -0.707655       -19.2563
 163   2.0000      -0.705450       -19.1963
 164   2.0000      -0.699322       -19.0295
 165   2.0000      -0.683486       -18.5986
 166   2.0000      -0.679612       -18.4932
 167   2.0000      -0.667881       -18.1740
 168   2.0000      -0.666517       -18.1368
 169   2.0000      -0.662597       -18.0302
 170   2.0000      -0.652167       -17.7464
 171   2.0000      -0.648139       -17.6367
 172   2.0000      -0.646353       -17.5882
 173   2.0000      -0.641214       -17.4483
 174   2.0000      -0.638336       -17.3700
 175   2.0000      -0.636674       -17.3248
 176   2.0000      -0.635022       -17.2798
 177   2.0000      -0.631771       -17.1914
 178   2.0000      -0.628794       -17.1103
 179   2.0000      -0.628344       -17.0981
 180   2.0000      -0.624579       -16.9957
 181   2.0000      -0.623355       -16.9623
 182   2.0000      -0.596126       -16.2214
 183   2.0000      -0.579730       -15.7753
 184   2.0000      -0.576742       -15.6940
 185   2.0000      -0.568402       -15.4670
 186   2.0000      -0.565581       -15.3902
 187   2.0000      -0.555626       -15.1193
 188   2.0000      -0.549570       -14.9546
 189   2.0000      -0.548706       -14.9310
 190   2.0000      -0.544524       -14.8173
 191   2.0000      -0.541650       -14.7390
 192   2.0000      -0.538716       -14.6592
 193   2.0000      -0.538577       -14.6554
 194   2.0000      -0.533902       -14.5282
 195   2.0000      -0.533383       -14.5141
 196   2.0000      -0.530821       -14.4444
 197   2.0000      -0.529650       -14.4125
 198   2.0000      -0.527890       -14.3646
 199   2.0000      -0.522696       -14.2233
 200   2.0000      -0.520912       -14.1747
 201   2.0000      -0.520271       -14.1573
 202   2.0000      -0.520130       -14.1534
 203   2.0000      -0.514948       -14.0124
 204   2.0000      -0.514598       -14.0029
 205   2.0000      -0.511713       -13.9244
 206   2.0000      -0.510426       -13.8894
 207   2.0000      -0.509713       -13.8700
 208   2.0000      -0.507915       -13.8211
 209   2.0000      -0.505497       -13.7553
 210   2.0000      -0.505057       -13.7433
 211   2.0000      -0.504585       -13.7305
 212   2.0000      -0.502225       -13.6662
 213   2.0000      -0.501464       -13.6455
 214   2.0000      -0.500540       -13.6204
 215   2.0000      -0.486888       -13.2489
 216   2.0000      -0.485650       -13.2152
 217   2.0000      -0.478268       -13.0143
 218   2.0000      -0.477599       -12.9961
 219   2.0000      -0.473598       -12.8873
 220   2.0000      -0.472064       -12.8455
 221   2.0000      -0.469108       -12.7651
 222   2.0000      -0.467666       -12.7258
 223   2.0000      -0.464977       -12.6527
 224   2.0000      -0.462638       -12.5890
 225   2.0000      -0.461529       -12.5589
 226   2.0000      -0.456123       -12.4117
 227   2.0000      -0.452103       -12.3024
 228   2.0000      -0.448010       -12.1910
 229   2.0000      -0.446241       -12.1428
 230   2.0000      -0.445082       -12.1113
 231   2.0000      -0.440103       -11.9758
 232   2.0000      -0.438076       -11.9207
 233   2.0000      -0.434927       -11.8350
 234   2.0000      -0.432379       -11.7656
 235   2.0000      -0.429207       -11.6793
 236   2.0000      -0.428852       -11.6697
 237   2.0000      -0.424810       -11.5597
 238   2.0000      -0.420915       -11.4537
 239   2.0000      -0.418077       -11.3764
 240   2.0000      -0.417605       -11.3636
 241   2.0000      -0.415047       -11.2940
 242   2.0000      -0.414489       -11.2788
 243   2.0000      -0.413103       -11.2411
 244   2.0000      -0.411414       -11.1951
 245   2.0000      -0.407044       -11.0762
 246   2.0000      -0.404273       -11.0008
 247   2.0000      -0.403425       -10.9777
 248   2.0000      -0.400489       -10.8979
 249   2.0000      -0.396457       -10.7881
 250   2.0000      -0.394918       -10.7463
 251   2.0000      -0.393235       -10.7005
 252   2.0000      -0.390697       -10.6314
 253   2.0000      -0.387409       -10.5419
 254   2.0000      -0.378706       -10.3051
 255   2.0000      -0.376040       -10.2326
 256   2.0000      -0.370822       -10.0906
 257   2.0000      -0.365891        -9.9564
 258   2.0000      -0.357430        -9.7262
 259   2.0000      -0.349195        -9.5021
 260   2.0000      -0.335638        -9.1332
 261   2.0000      -0.331585        -9.0229
 262   2.0000      -0.322103        -8.7649
 263   2.0000      -0.318295        -8.6612
 264   2.0000      -0.315314        -8.5801
 265   2.0000      -0.313093        -8.5197
 266   2.0000      -0.308984        -8.4079
 267   2.0000      -0.307634        -8.3712
 268   2.0000      -0.305568        -8.3149
 269   2.0000      -0.301462        -8.2032
 270   2.0000      -0.300942        -8.1890
 271   2.0000      -0.299558        -8.1514
 272   2.0000      -0.286216        -7.7883
 273   2.0000      -0.274936        -7.4814
 274   2.0000      -0.260626        -7.0920
 275   2.0000      -0.249124        -6.7790
 276   2.0000      -0.238162        -6.4807
 277   0.0000      -0.095236        -2.5915
 278   0.0000      -0.091388        -2.4868
 279   0.0000      -0.057686        -1.5697
 280   0.0000      -0.033696        -0.9169
 281   0.0000      -0.011394        -0.3100

MULLIKEN ATOMIC CHARGES
-----------------------
   0 C :   -0.010455
   1 N :   -0.032065
   2 N :   -0.065736
   3 C :    0.042161
   4 C :   -0.041853
   5 C :   -0.012455
   6 N :    0.076929
   7 O :   -0.084645
   8 N :    0.072345
   9 C :   -0.090249
  10 C :   -0.058927
  11 C :    0.067829
  12 C :   -0.067592
  13 S :    0.147143
  14 C :   -0.102982
  15 S :   -0.023776
  16 C :   -0.100329
  17 C :    0.089719
  18 C :   -0.080379
  19 C :   -0.088834
  20 S :   -0.014363
  21 C :   -0.099990
  22 S :    0.082640
  23 C :    0.003072
  24 C :   -0.076851
  25 C :   -0.014780
  26 C :   -0.093411
  27 C :    0.126351
  28 C :   -0.058887
  29 S :    0.137736
  30 C :   -0.179212
  31 S :   -0.034531
  32 C :   -0.065012
  33 C :    0.130476
  34 C :   -0.077641
  35 C :   -0.138243
  36 S :   -0.016378
  37 C :   -0.099471
  38 S :    0.138512
  39 C :   -0.019470
  40 C :   -0.075409
  41 C :   -0.014649
  42 C :   -0.071561
  43 C :    0.087181
  44 C :   -0.068431
  45 S :    0.146168
  46 C :   -0.168009
  47 S :   -0.028806
  48 C :   -0.068397
  49 C :    0.121300
  50 C :   -0.070110
  51 C :   -0.090358
  52 S :   -0.025612
  53 C :   -0.099288
  54 S :    0.141243
  55 C :   -0.087756
  56 C :   -0.071899
  57 C :    0.039729
  58 N :   -0.061070
  59 N :   -0.031808
  60 C :   -0.011328
  61 C :   -0.013295
  62 C :   -0.042227
  63 N :    0.068119
  64 O :   -0.083711
  65 N :    0.080123
  66 H :    0.014742
  67 H :    0.008417
  68 H :    0.064839
  69 H :    0.071187
  70 H :    0.084449
  71 H :    0.067094
  72 H :    0.075179
  73 H :    0.072346
  74 H :    0.002049
  75 H :   -0.017084
  76 H :    0.057894
  77 H :    0.056335
  78 H :    0.062083
  79 H :    0.066246
  80 H :    0.077468
  81 H :    0.065042
  82 H :   -0.014817
  83 H :   -0.010492
  84 H :    0.061068
  85 H :    0.055554
  86 H :    0.063528
  87 H :    0.065912
  88 H :    0.085606
  89 H :    0.072868
  90 H :    0.008390
  91 H :    0.017564
Sum of atomic charges:   -0.0000000

LOEWDIN ATOMIC CHARGES
----------------------
   0 C :    0.009025
   1 N :   -0.025929
   2 N :   -0.068241
   3 C :   -0.004166
   4 C :   -0.062511
   5 C :   -0.074688
   6 N :   -0.002907
   7 O :    0.090404
   8 N :   -0.004900
   9 C :   -0.180493
  10 C :   -0.021355
  11 C :   -0.066051
  12 C :   -0.167168
  13 S :    0.450974
  14 C :   -0.182101
  15 S :    0.285591
  16 C :   -0.162795
  17 C :   -0.051067
  18 C :   -0.172605
  19 C :   -0.173494
  20 S :    0.292148
  21 C :   -0.163679
  22 S :    0.411329
  23 C :   -0.161210
  24 C :   -0.057506
  25 C :   -0.165401
  26 C :   -0.060555
  27 C :   -0.062771
  28 C :   -0.161799
  29 S :    0.416455
  30 C :   -0.186412
  31 S :    0.254440
  32 C :   -0.147135
  33 C :   -0.052502
  34 C :   -0.171597
  35 C :   -0.177302
  36 S :    0.266755
  37 C :   -0.149913
  38 S :    0.408021
  39 C :   -0.165812
  40 C :   -0.050939
  41 C :   -0.163954
  42 C :   -0.053051
  43 C :   -0.056134
  44 C :   -0.165327
  45 S :    0.412798
  46 C :   -0.181903
  47 S :    0.259583
  48 C :   -0.146276
  49 C :   -0.058732
  50 C :   -0.170593
  51 C :   -0.173631
  52 S :    0.288957
  53 C :   -0.164054
  54 S :    0.448860
  55 C :   -0.179008
  56 C :   -0.022761
  57 C :   -0.004840
  58 N :   -0.065699
  59 N :   -0.025632
  60 C :    0.010504
  61 C :   -0.074843
  62 C :   -0.062176
  63 N :   -0.007057
  64 O :    0.091486
  65 N :   -0.001203
  66 H :    0.037563
  67 H :    0.030125
  68 H :    0.033662
  69 H :    0.030191
  70 H :    0.018236
  71 H :    0.034332
  72 H :    0.015146
  73 H :    0.030397
  74 H :    0.024896
  75 H :    0.025027
  76 H :    0.029233
  77 H :    0.022959
  78 H :    0.026051
  79 H :    0.030574
  80 H :    0.035670
  81 H :    0.021744
  82 H :    0.028383
  83 H :    0.026158
  84 H :    0.031179
  85 H :    0.021903
  86 H :    0.026617
  87 H :    0.034536
  88 H :    0.019320
  89 H :    0.029770
  90 H :    0.032526
  91 H :    0.038345

  Mayer bond orders larger than 0.100000
B(  0-C ,  1-N ) :   1.7708 B(  0-C ,  3-C ) :   0.1021 B(  0-C ,  5-C ) :   1.0840
B(  0-C , 66-H ) :   1.0169 B(  1-N ,  2-N ) :   1.1684 B(  2-N ,  3-C ) :   1.7773
B(  3-C ,  4-C ) :   1.0680 B(  3-C ,  9-C ) :   1.1506 B(  4-C ,  5-C ) :   1.1777
B(  4-C ,  8-N ) :   1.6144 B(  5-C ,  6-N ) :   1.5991 B(  6-N ,  7-O ) :   1.0840
B(  6-N ,  8-N ) :   0.1846 B(  7-O ,  8-N ) :   1.0645 B(  9-C , 10-C ) :   1.5784
B(  9-C , 13-S ) :   1.0579 B( 10-C , 11-C ) :   1.1769 B( 10-C , 67-H ) :   0.9751
B( 11-C , 12-C ) :   1.3154 B( 11-C , 19-C ) :   1.3574 B( 12-C , 13-S ) :   1.0391
B( 12-C , 14-C ) :   1.4108 B( 14-C , 15-S ) :   1.0373 B( 14-C , 17-C ) :   1.3828
B( 15-S , 16-C ) :   0.9948 B( 16-C , 68-H ) :   0.9691 B( 16-C , 69-H ) :   0.9718
B( 16-C , 70-H ) :   0.9623 B( 17-C , 18-C ) :   1.3036 B( 17-C , 24-C ) :   1.1840
B( 18-C , 19-C ) :   1.4323 B( 18-C , 22-S ) :   1.0385 B( 19-C , 20-S ) :   1.0431
B( 20-S , 21-C ) :   0.9959 B( 21-C , 71-H ) :   0.9692 B( 21-C , 72-H ) :   0.9631
B( 21-C , 73-H ) :   0.9717 B( 22-S , 23-C ) :   1.0670 B( 23-C , 24-C ) :   1.5702
B( 23-C , 25-C ) :   1.1447 B( 24-C , 74-H ) :   0.9848 B( 25-C , 26-C ) :   1.5698
B( 25-C , 29-S ) :   1.0592 B( 26-C , 27-C ) :   1.1733 B( 26-C , 75-H ) :   0.9903
B( 27-C , 28-C ) :   1.2947 B( 27-C , 35-C ) :   1.3261 B( 28-C , 29-S ) :   1.0639
B( 28-C , 30-C ) :   1.4509 B( 30-C , 31-S ) :   1.0529 B( 30-C , 33-C ) :   1.3333
B( 31-S , 32-C ) :   0.9939 B( 32-C , 76-H ) :   0.9722 B( 32-C , 77-H ) :   0.9732
B( 32-C , 78-H ) :   0.9726 B( 33-C , 34-C ) :   1.2950 B( 33-C , 40-C ) :   1.1791
B( 34-C , 35-C ) :   1.4490 B( 34-C , 38-S ) :   1.0636 B( 35-C , 36-S ) :   1.0565
B( 36-S , 37-C ) :   0.9816 B( 37-C , 79-H ) :   0.9726 B( 37-C , 80-H ) :   0.9712
B( 37-C , 81-H ) :   0.9733 B( 38-S , 39-C ) :   1.0630 B( 39-C , 40-C ) :   1.5898
B( 39-C , 41-C ) :   1.0920 B( 40-C , 82-H ) :   0.9902 B( 41-C , 42-C ) :   1.5963
B( 41-C , 45-S ) :   1.0582 B( 42-C , 43-C ) :   1.1857 B( 42-C , 83-H ) :   0.9880
B( 43-C , 44-C ) :   1.2903 B( 43-C , 51-C ) :   1.3686 B( 44-C , 45-S ) :   1.0674
B( 44-C , 46-C ) :   1.4594 B( 46-C , 47-S ) :   1.0535 B( 46-C , 49-C ) :   1.3323
B( 47-S , 48-C ) :   0.9938 B( 48-C , 84-H ) :   0.9717 B( 48-C , 85-H ) :   0.9726
B( 48-C , 86-H ) :   0.9724 B( 49-C , 50-C ) :   1.3087 B( 49-C , 56-C ) :   1.1662
B( 50-C , 51-C ) :   1.4178 B( 50-C , 54-S ) :   1.0327 B( 51-C , 52-S ) :   1.0324
B( 52-S , 53-C ) :   0.9956 B( 53-C , 87-H ) :   0.9685 B( 53-C , 88-H ) :   0.9618
B( 53-C , 89-H ) :   0.9712 B( 54-S , 55-C ) :   1.0603 B( 55-C , 56-C ) :   1.5784
B( 55-C , 57-C ) :   1.1446 B( 56-C , 90-H ) :   0.9747 B( 57-C , 58-N ) :   1.7823
B( 57-C , 60-C ) :   0.1021 B( 57-C , 62-C ) :   1.0683 B( 58-N , 59-N ) :   1.1668
B( 59-N , 60-C ) :   1.7724 B( 60-C , 61-C ) :   1.0845 B( 60-C , 91-H ) :   1.0162
B( 61-C , 62-C ) :   1.1772 B( 61-C , 65-N ) :   1.5997 B( 62-C , 63-N ) :   1.6119
B( 63-N , 64-O ) :   1.0646 B( 63-N , 65-N ) :   0.1850 B( 64-O , 65-N ) :   1.0860

-----------------------------------------------------------------------------
         ABSORPTION SPECTRUM VIA TRANSITION ELECTRIC DIPOLE MOMENTS
-----------------------------------------------------------------------------
State   Energy  Wavelength   fosc         T2         TX        TY        TZ
        (cm-1)    (nm)                  (au**2)     (au)      (au)      (au)
-----------------------------------------------------------------------------
   0   17699.2    565.0   0.952754858  17.72161   0.00179  -4.07834   1.04344
   1   18210.6    549.1   0.181523241   3.28159   0.28460   1.73861   0.42170
   2   21325.1    468.9   0.001831387   0.02827   0.00067  -0.16674   0.02168
   3   21409.3    467.1   0.003822212   0.05877  -0.00726   0.23253  -0.06821
   4   22425.0    445.9   1.501283592  22.03975  -0.06654   4.57935  -1.03191
   5   23547.7    424.7   0.038369078   0.53642  -0.27167   0.24244  -0.63548
   6   25510.9    392.0   0.052795195   0.68131   0.05524  -0.55926   0.60456
   7   26224.2    381.3   0.450340541   5.65347   0.22514   2.36588   0.07341
   8   26700.1    374.5   0.065292780   0.80506   0.08681   0.88704   0.10338
   9   27470.2    364.0   0.365878384   4.38481   0.43581   1.90344   0.75618
  10   27550.4    363.0   0.003446118   0.04118  -0.04993  -0.13091  -0.14680
  11   27975.5    357.5   0.459343724   5.40550  -0.34516   1.85706  -1.35561
  12   28960.1    345.3   0.039303502   0.44679  -0.03483   0.65581  -0.12447
  13   29542.5    338.5   0.036579627   0.40763  -0.04084  -0.63540  -0.04730
  14   30069.5    332.6   0.062591860   0.68528  -0.12580   0.70728  -0.41135
  15   30673.3    326.0   0.008434248   0.09052  -0.07829   0.24405  -0.15759
  16   30775.1    324.9   0.040015575   0.42806  -0.25553   0.01567  -0.60210
  17   31428.2    318.2   0.056958300   0.59664  -0.21202  -0.59347  -0.44664
  18   32278.5    309.8   0.019702625   0.20095  -0.10773   0.13598  -0.41334
  19   32535.0    307.4   0.017782119   0.17993   0.11613  -0.13375   0.38543
  20   32819.4    304.7   0.013200850   0.13242   0.01600   0.35641   0.07166
  21   33198.7    301.2   0.014811363   0.14688  -0.05828  -0.30606  -0.22317
  22   33532.3    298.2   0.002212836   0.02173  -0.07745  -0.06622  -0.10649
  23   34438.1    290.4   0.009856838   0.09423  -0.11008  -0.06676  -0.27866
  24   34974.4    285.9   0.118986526   1.12001  -0.06475  -1.05543   0.04339
  25   35225.7    283.9   0.160618281   1.50110   0.05392   1.16794  -0.36622
  26   35619.8    280.7   0.030293812   0.27999  -0.16954  -0.38262  -0.32380
  27   36366.4    275.0   0.044142598   0.39961  -0.23264   0.06273  -0.58442
  28   36671.9    272.7   0.001769687   0.01589  -0.01661  -0.11884  -0.03858
  29   37158.9    269.1   0.092008636   0.81516   0.10435   0.87063   0.21510
  30   37228.0    268.6   0.103944968   0.91920   0.08585   0.93974   0.16948
  31   37554.5    266.3   0.007801020   0.06839  -0.02106  -0.25680  -0.04470
  32   38047.2    262.8   0.010770758   0.09320   0.01251   0.30340  -0.03142
  33   38308.8    261.0   0.091773155   0.78866  -0.20311   0.67020  -0.54611
  34   38366.1    260.6   0.471000296   4.04156   0.40994   1.65062   1.07190
  35   38483.6    259.9   0.056803049   0.48593  -0.02077  -0.69036  -0.09436
  36   38540.4    259.5   0.110719748   0.94577   0.31687  -0.54839   0.73799
  37   38685.0    258.5   0.078162804   0.66517   0.02986  -0.77861   0.24093
  38   38857.1    257.4   0.071702370   0.60749  -0.25482  -0.30924  -0.66853
  39   39078.7    255.9   0.038870365   0.32746   0.17789   0.08287   0.53754
  40   39493.4    253.2   0.055328082   0.46121   0.00200   0.67858  -0.02718
  41   39942.4    250.4   0.000499239   0.00411  -0.03112   0.05406   0.01497
  42   40008.5    249.9   0.016578734   0.13642  -0.14111  -0.08463  -0.33067

FINAL SINGLE POINT ENERGY     -7054.580769280929

DIPOLE MOMENT
-------------
                                X             Y             Z
Electronic contribution:      3.44838       3.55970       4.61828
Nuclear contribution   :     -3.46197      -3.94806      -4.20151
                        -----------------------------------------
Total Dipole Moment    :     -0.01359      -0.38836       0.41677
                        -----------------------------------------
Magnitude (a.u.)       :      0.56983
Magnitude (Debye)      :      1.44839

Rotational constants in cm-1:     0.003446     0.000175     0.000167
Rotational constants in MHz :   103.305653     5.245890     5.009502

                             ****ORCA TERMINATED NORMALLY****
TOTAL RUN TIME: 0 days 0 hours 7 minutes 23 seconds 226 msec
