                         Program Version 4.2.0 -  RELEASE  -
|  1> # ORCA input file
|  2> # SCF done       -197.444373028489          0.000692203963
|  3> ! CAM-B3LYP def2-SVP def2/J RIJCOSX Grid4 TightSCF
|  4> %maxcore 5000
|  5> %tddft
|  6>     Mode sTDDFT
|  7>     Ethresh 5.0
|  8>     maxcore 5000
|  9> end
| 10>
| 11> %pal
| 12>   nprocs 6
| 13>   end
| 14> * xyz 0 1
| 15>    C       -5.11657        -3.98572         5.13729
| 16>    N       -6.01466        -4.53095         4.37135
| 17>    N       -5.77095        -4.93905         3.14499
| 18>    C       -4.58457        -4.83271         2.57591
| 19>    C       -3.51428        -4.24773         3.32068
| 20>    C       -3.79467        -3.80477         4.66056
| 21>    N       -2.67314        -3.30588         5.14561
| 22>    O       -1.76784        -3.43009         4.18088
| 23>    N       -2.24741        -3.99331         3.07306
| 24>    C       -4.41038        -5.30406         1.24262
| 25>    C       -5.37989        -5.88227         0.44063
| 26>    C       -4.87109        -6.23152        -0.80574
| 27>    C       -3.50283        -5.91325        -0.94339
| 28>    S       -2.84932        -5.18777         0.45216
| 29>    C       -3.07790        -6.31008        -2.23628
| 30>    C       -4.16967        -6.87409        -2.91642
| 31>    C       -5.33216        -6.84591        -2.04046
| 32>    C       -6.58299        -7.30862        -2.32170
| 33>    C       -6.90243        -7.89454        -3.56566
| 34>    N       -7.16452        -8.37240        -4.57422
| 35>    C       -7.64497        -7.24029        -1.39383
| 36>    N       -8.51786        -7.19365        -0.65269
| 37>    C       -3.84391        -7.30355        -4.20317
| 38>    C       -2.51477        -7.07370        -4.50279
| 39>    S       -1.65205        -6.31093        -3.17866
| 40>    C       -1.83299        -7.40830        -5.70410
| 41>    C       -0.50691        -7.23975        -5.98784
| 42>    C       -0.13234        -7.72331        -7.26274
| 43>    C        1.15412        -7.75030        -7.84084
| 44>    C        2.33453        -7.26300        -7.15769
| 45>    C        3.39685        -6.59714        -7.70299
| 46>    C        4.40852        -6.31702        -6.76154
| 47>    C        4.14863        -6.77250        -5.50050
| 48>    S        2.60859        -7.55425        -5.46007
| 49>    C        4.99058        -6.64149        -4.28459
| 50>   Cl        5.85272        -5.47565        -7.16840
| 51>    C        1.24613        -8.30472        -9.11356
| 52>    C        0.13663        -8.82966        -9.82350
| 53>    C       -1.15060        -8.79705        -9.24805
| 54>    C       -1.24338        -8.23838        -7.97751
| 55>    S       -2.70395        -8.14518        -7.03199
| 56>    C       -2.32218        -9.33508        -9.90819
| 57>    C       -3.59166        -8.82877        -9.89389
| 58>    C       -4.51077        -9.63533       -10.59700
| 59>    C       -3.97056       -10.76635       -11.13873
| 60>    S       -2.27850       -10.83729       -10.79316
| 61>    C       -4.64409       -11.81846       -11.94070
| 62>   Cl       -6.17460        -9.22583       -10.75038
| 63>    C        0.51712        -9.35295       -11.08071
| 64>    C        1.85993        -9.27968       -11.32275
| 65>    S        2.72662        -8.51367       -10.00868
| 66>    C        2.56321        -9.75245       -12.46388
| 67>    C        3.92723        -9.71790       -12.68178
| 68>    C        4.27428       -10.30159       -13.90056
| 69>    C        3.16310       -10.78030       -14.61324
| 70>    S        1.69304       -10.51275       -13.78454
| 71>    C        3.61365       -11.36185       -15.82605
| 72>    C        5.01994       -11.24972       -15.87562
| 73>    C        5.47872       -10.58059       -14.67000
| 74>    C        6.76257       -10.27991       -14.32359
| 75>    C        7.86450       -10.60162       -15.14528
| 76>    N        8.76859       -10.85759       -15.80165
| 77>    C        7.07892        -9.62570       -13.11359
| 78>    N        7.33843        -9.09717       -12.13009
| 79>    C        5.56177       -11.80273       -17.03323
| 80>    C        4.57523       -12.32610       -17.84895
| 81>    S        2.96112       -12.13991       -17.19357
| 82>    C        4.72094       -12.97470       -19.10651
| 83>    N        3.63310       -13.40087       -19.71809
| 84>    N        3.65205       -14.01512       -20.88150
| 85>    C        4.74863       -14.25790       -21.53539
| 86>    C        5.99822       -13.85625       -21.00056
| 87>    C        5.99144       -13.18308       -19.72774
| 88>    N        7.24069       -12.90305       -19.42145
| 89>    O        7.97449       -13.36666       -20.42889
| 90>    N        7.25704       -13.94194       -21.38729
| 91>    H       -5.42057        -3.68638         6.12720
| 92>    H       -6.38770        -6.02243         0.78621
| 93>    H       -4.52244        -7.76567        -4.89747
| 94>    H        0.17455        -6.78424        -5.29302
| 95>    H        3.44972        -6.27889        -8.72733
| 96>    H        6.02917        -6.86238        -4.52596
| 97>    H        4.64933        -7.32008        -3.50738
| 98>    H        4.94670        -5.62155        -3.90002
| 99>    H       -3.86590        -7.89701        -9.43564
|100>    H       -5.67491       -11.93031       -11.61064
|101>    H       -4.12639       -12.76910       -11.83888
|102>    H       -4.65455       -11.54549       -12.99707
|103>    H       -0.17096        -9.77608       -11.78932
|104>    H        4.61610        -9.29020       -11.97567
|105>    H        6.60507       -11.83745       -17.29220
|106>    H        4.66344       -14.76752       -22.48144
|107> *
|108>
|109>                          ****END OF INPUT****

CARTESIAN COORDINATES (ANGSTROEM)
---------------------------------
  C     -5.116570   -3.985720    5.137290
  N     -6.014660   -4.530950    4.371350
  N     -5.770950   -4.939050    3.144990
  C     -4.584570   -4.832710    2.575910
  C     -3.514280   -4.247730    3.320680
  C     -3.794670   -3.804770    4.660560
  N     -2.673140   -3.305880    5.145610
  O     -1.767840   -3.430090    4.180880
  N     -2.247410   -3.993310    3.073060
  C     -4.410380   -5.304060    1.242620
  C     -5.379890   -5.882270    0.440630
  C     -4.871090   -6.231520   -0.805740
  C     -3.502830   -5.913250   -0.943390
  S     -2.849320   -5.187770    0.452160
  C     -3.077900   -6.310080   -2.236280
  C     -4.169670   -6.874090   -2.916420
  C     -5.332160   -6.845910   -2.040460
  C     -6.582990   -7.308620   -2.321700
  C     -6.902430   -7.894540   -3.565660
  N     -7.164520   -8.372400   -4.574220
  C     -7.644970   -7.240290   -1.393830
  N     -8.517860   -7.193650   -0.652690
  C     -3.843910   -7.303550   -4.203170
  C     -2.514770   -7.073700   -4.502790
  S     -1.652050   -6.310930   -3.178660
  C     -1.832990   -7.408300   -5.704100
  C     -0.506910   -7.239750   -5.987840
  C     -0.132340   -7.723310   -7.262740
  C      1.154120   -7.750300   -7.840840
  C      2.334530   -7.263000   -7.157690
  C      3.396850   -6.597140   -7.702990
  C      4.408520   -6.317020   -6.761540
  C      4.148630   -6.772500   -5.500500
  S      2.608590   -7.554250   -5.460070
  C      4.990580   -6.641490   -4.284590
  Cl     5.852720   -5.475650   -7.168400
  C      1.246130   -8.304720   -9.113560
  C      0.136630   -8.829660   -9.823500
  C     -1.150600   -8.797050   -9.248050
  C     -1.243380   -8.238380   -7.977510
  S     -2.703950   -8.145180   -7.031990
  C     -2.322180   -9.335080   -9.908190
  C     -3.591660   -8.828770   -9.893890
  C     -4.510770   -9.635330  -10.597000
  C     -3.970560  -10.766350  -11.138730
  S     -2.278500  -10.837290  -10.793160
  C     -4.644090  -11.818460  -11.940700
  Cl    -6.174600   -9.225830  -10.750380
  C      0.517120   -9.352950  -11.080710
  C      1.859930   -9.279680  -11.322750
  S      2.726620   -8.513670  -10.008680
  C      2.563210   -9.752450  -12.463880
  C      3.927230   -9.717900  -12.681780
  C      4.274280  -10.301590  -13.900560
  C      3.163100  -10.780300  -14.613240
  S      1.693040  -10.512750  -13.784540
  C      3.613650  -11.361850  -15.826050
  C      5.019940  -11.249720  -15.875620
  C      5.478720  -10.580590  -14.670000
  C      6.762570  -10.279910  -14.323590
  C      7.864500  -10.601620  -15.145280
  N      8.768590  -10.857590  -15.801650
  C      7.078920   -9.625700  -13.113590
  N      7.338430   -9.097170  -12.130090
  C      5.561770  -11.802730  -17.033230
  C      4.575230  -12.326100  -17.848950
  S      2.961120  -12.139910  -17.193570
  C      4.720940  -12.974700  -19.106510
  N      3.633100  -13.400870  -19.718090
  N      3.652050  -14.015120  -20.881500
  C      4.748630  -14.257900  -21.535390
  C      5.998220  -13.856250  -21.000560
  C      5.991440  -13.183080  -19.727740
  N      7.240690  -12.903050  -19.421450
  O      7.974490  -13.366660  -20.428890
  N      7.257040  -13.941940  -21.387290
  H     -5.420570   -3.686380    6.127200
  H     -6.387700   -6.022430    0.786210
  H     -4.522440   -7.765670   -4.897470
  H      0.174550   -6.784240   -5.293020
  H      3.449720   -6.278890   -8.727330
  H      6.029170   -6.862380   -4.525960
  H      4.649330   -7.320080   -3.507380
  H      4.946700   -5.621550   -3.900020
  H     -3.865900   -7.897010   -9.435640
  H     -5.674910  -11.930310  -11.610640
  H     -4.126390  -12.769100  -11.838880
  H     -4.654550  -11.545490  -12.997070
  H     -0.170960   -9.776080  -11.789320
  H      4.616100   -9.290200  -11.975670
  H      6.605070  -11.837450  -17.292200
  H      4.663440  -14.767520  -22.481440

 Total Charge           Charge          ....    0
 Multiplicity           Mult            ....    1
 Number of Electrons    NEL             ....  590
 Basis Dimension        Dim             .... 1184

ORBITAL ENERGIES
----------------

  NO   OCC          E(Eh)            E(eV)
   0   2.0000    -101.586955     -2764.3216
   1   2.0000    -101.586650     -2764.3133
   2   2.0000     -88.998842     -2421.7816
   3   2.0000     -88.997042     -2421.7326
   4   2.0000     -88.996543     -2421.7190
   5   2.0000     -88.995212     -2421.6828
   6   2.0000     -88.966530     -2420.9024
   7   2.0000     -88.965924     -2420.8859
   8   2.0000     -88.964988     -2420.8604
   9   2.0000     -88.964944     -2420.8592
  10   2.0000     -19.385094      -527.4952
  11   2.0000     -19.382931      -527.4364
  12   2.0000     -14.512213      -394.8974
  13   2.0000     -14.509889      -394.8342
  14   2.0000     -14.508784      -394.8041
  15   2.0000     -14.506834      -394.7510
  16   2.0000     -14.458590      -393.4382
  17   2.0000     -14.457158      -393.3993
  18   2.0000     -14.455082      -393.3428
  19   2.0000     -14.452568      -393.2744
  20   2.0000     -14.433884      -392.7660
  21   2.0000     -14.433529      -392.7563
  22   2.0000     -14.432303      -392.7229
  23   2.0000     -14.431881      -392.7114
  24   2.0000     -10.369753      -282.1753
  25   2.0000     -10.369154      -282.1590
  26   2.0000     -10.363918      -282.0166
  27   2.0000     -10.363455      -282.0039
  28   2.0000     -10.356361      -281.8109
  29   2.0000     -10.356123      -281.8044
  30   2.0000     -10.352605      -281.7087
  31   2.0000     -10.351986      -281.6919
  32   2.0000     -10.349958      -281.6367
  33   2.0000     -10.348862      -281.6069
  34   2.0000     -10.343086      -281.4497
  35   2.0000     -10.342381      -281.4305
  36   2.0000     -10.340957      -281.3918
  37   2.0000     -10.340162      -281.3701
  38   2.0000     -10.338078      -281.3134
  39   2.0000     -10.337131      -281.2876
  40   2.0000     -10.335459      -281.2421
  41   2.0000     -10.335444      -281.2417
  42   2.0000     -10.333809      -281.1972
  43   2.0000     -10.333586      -281.1912
  44   2.0000     -10.331909      -281.1455
  45   2.0000     -10.331313      -281.1293
  46   2.0000     -10.327906      -281.0366
  47   2.0000     -10.326757      -281.0053
  48   2.0000     -10.325530      -280.9720
  49   2.0000     -10.325518      -280.9716
  50   2.0000     -10.322628      -280.8930
  51   2.0000     -10.322417      -280.8872
  52   2.0000     -10.317380      -280.7502
  53   2.0000     -10.317257      -280.7468
  54   2.0000     -10.313818      -280.6533
  55   2.0000     -10.313695      -280.6499
  56   2.0000     -10.312538      -280.6184
  57   2.0000     -10.312062      -280.6055
  58   2.0000     -10.312007      -280.6040
  59   2.0000     -10.310383      -280.5598
  60   2.0000     -10.309718      -280.5417
  61   2.0000     -10.309692      -280.5410
  62   2.0000     -10.309246      -280.5288
  63   2.0000     -10.309132      -280.5258
  64   2.0000     -10.308939      -280.5205
  65   2.0000     -10.308247      -280.5017
  66   2.0000     -10.307535      -280.4823
  67   2.0000     -10.307406      -280.4788
  68   2.0000     -10.300825      -280.2997
  69   2.0000     -10.300708      -280.2965
  70   2.0000     -10.290507      -280.0189
  71   2.0000     -10.290387      -280.0157
  72   2.0000     -10.285988      -279.8960
  73   2.0000     -10.285787      -279.8905
  74   2.0000     -10.282790      -279.8089
  75   2.0000     -10.281893      -279.7845
  76   2.0000      -9.541715      -259.6433
  77   2.0000      -9.541432      -259.6356
  78   2.0000      -8.092899      -220.2190
  79   2.0000      -8.091471      -220.1801
  80   2.0000      -8.091054      -220.1688
  81   2.0000      -8.089135      -220.1165
  82   2.0000      -8.062098      -219.3809
  83   2.0000      -8.061497      -219.3645
  84   2.0000      -8.060061      -219.3254
  85   2.0000      -8.060043      -219.3249
  86   2.0000      -7.311996      -198.9695
  87   2.0000      -7.311715      -198.9619
  88   2.0000      -7.301861      -198.6937
  89   2.0000      -7.301600      -198.6866
  90   2.0000      -7.301556      -198.6854
  91   2.0000      -7.301321      -198.6790
  92   2.0000      -6.062108      -164.9583
  93   2.0000      -6.060776      -164.9221
  94   2.0000      -6.060331      -164.9100
  95   2.0000      -6.058402      -164.8575
  96   2.0000      -6.057804      -164.8412
  97   2.0000      -6.056573      -164.8077
  98   2.0000      -6.056167      -164.7967
  99   2.0000      -6.055443      -164.7770
 100   2.0000      -6.054029      -164.7385
 101   2.0000      -6.053768      -164.7314
 102   2.0000      -6.053338      -164.7197
 103   2.0000      -6.051670      -164.6743
 104   2.0000      -6.031303      -164.1201
 105   2.0000      -6.030737      -164.1047
 106   2.0000      -6.029790      -164.0789
 107   2.0000      -6.029788      -164.0789
 108   2.0000      -6.027301      -164.0112
 109   2.0000      -6.026682      -163.9943
 110   2.0000      -6.025586      -163.9645
 111   2.0000      -6.025566      -163.9640
 112   2.0000      -6.024210      -163.9271
 113   2.0000      -6.023596      -163.9104
 114   2.0000      -6.021280      -163.8474
 115   2.0000      -6.021278      -163.8473
 116   2.0000      -1.337751       -36.4020
 117   2.0000      -1.336488       -36.3677
 118   2.0000      -1.136384       -30.9226
 119   2.0000      -1.134571       -30.8733
 120   2.0000      -1.051849       -28.6223
 121   2.0000      -1.051040       -28.6002
 122   2.0000      -1.041041       -28.3282
 123   2.0000      -1.038818       -28.2677
 124   2.0000      -1.026141       -27.9227
 125   2.0000      -1.025392       -27.9023
 126   2.0000      -1.023708       -27.8565
 127   2.0000      -1.011868       -27.5343
 128   2.0000      -1.010577       -27.4992
 129   2.0000      -1.009501       -27.4699
 130   2.0000      -1.008202       -27.4346
 131   2.0000      -1.007959       -27.4280
 132   2.0000      -1.001232       -27.2449
 133   2.0000      -0.997358       -27.1395
 134   2.0000      -0.995291       -27.0832
 135   2.0000      -0.989111       -26.9151
 136   2.0000      -0.970595       -26.4112
 137   2.0000      -0.966218       -26.2921
 138   2.0000      -0.950113       -25.8539
 139   2.0000      -0.949759       -25.8443
 140   2.0000      -0.949201       -25.8291
 141   2.0000      -0.946119       -25.7452
 142   2.0000      -0.928842       -25.2751
 143   2.0000      -0.913528       -24.8584
 144   2.0000      -0.908101       -24.7107
 145   2.0000      -0.904440       -24.6111
 146   2.0000      -0.877765       -23.8852
 147   2.0000      -0.875831       -23.8326
 148   2.0000      -0.868530       -23.6339
 149   2.0000      -0.864782       -23.5319
 150   2.0000      -0.863321       -23.4922
 151   2.0000      -0.856873       -23.3167
 152   2.0000      -0.855478       -23.2787
 153   2.0000      -0.850503       -23.1434
 154   2.0000      -0.845070       -22.9955
 155   2.0000      -0.835100       -22.7242
 156   2.0000      -0.815869       -22.2009
 157   2.0000      -0.814762       -22.1708
 158   2.0000      -0.812598       -22.1119
 159   2.0000      -0.808188       -21.9919
 160   2.0000      -0.798717       -21.7342
 161   2.0000      -0.794566       -21.6213
 162   2.0000      -0.787782       -21.4366
 163   2.0000      -0.785986       -21.3878
 164   2.0000      -0.780280       -21.2325
 165   2.0000      -0.777980       -21.1699
 166   2.0000      -0.760776       -20.7018
 167   2.0000      -0.752219       -20.4689
 168   2.0000      -0.742481       -20.2039
 169   2.0000      -0.724072       -19.7030
 170   2.0000      -0.708973       -19.2921
 171   2.0000      -0.705120       -19.1873
 172   2.0000      -0.702768       -19.1233
 173   2.0000      -0.699896       -19.0451
 174   2.0000      -0.692888       -18.8544
 175   2.0000      -0.689645       -18.7662
 176   2.0000      -0.683593       -18.6015
 177   2.0000      -0.673779       -18.3344
 178   2.0000      -0.672136       -18.2898
 179   2.0000      -0.665143       -18.0995
 180   2.0000      -0.663091       -18.0436
 181   2.0000      -0.659263       -17.9395
 182   2.0000      -0.651860       -17.7380
 183   2.0000      -0.648824       -17.6554
 184   2.0000      -0.645018       -17.5518
 185   2.0000      -0.641448       -17.4547
 186   2.0000      -0.634732       -17.2719
 187   2.0000      -0.633076       -17.2269
 188   2.0000      -0.632797       -17.2193
 189   2.0000      -0.627320       -17.0702
 190   2.0000      -0.622153       -16.9297
 191   2.0000      -0.620969       -16.8974
 192   2.0000      -0.617946       -16.8152
 193   2.0000      -0.613003       -16.6807
 194   2.0000      -0.609357       -16.5814
 195   2.0000      -0.597182       -16.2501
 196   2.0000      -0.591066       -16.0837
 197   2.0000      -0.586745       -15.9661
 198   2.0000      -0.584563       -15.9068
 199   2.0000      -0.582411       -15.8482
 200   2.0000      -0.577262       -15.7081
 201   2.0000      -0.574430       -15.6310
 202   2.0000      -0.555924       -15.1275
 203   2.0000      -0.555127       -15.1058
 204   2.0000      -0.554990       -15.1020
 205   2.0000      -0.554743       -15.0953
 206   2.0000      -0.545279       -14.8378
 207   2.0000      -0.541929       -14.7466
 208   2.0000      -0.541258       -14.7284
 209   2.0000      -0.540147       -14.6981
 210   2.0000      -0.535974       -14.5846
 211   2.0000      -0.533335       -14.5128
 212   2.0000      -0.530287       -14.4298
 213   2.0000      -0.528789       -14.3891
 214   2.0000      -0.525723       -14.3057
 215   2.0000      -0.523431       -14.2433
 216   2.0000      -0.521518       -14.1912
 217   2.0000      -0.519543       -14.1375
 218   2.0000      -0.510877       -13.9017
 219   2.0000      -0.509527       -13.8649
 220   2.0000      -0.507651       -13.8139
 221   2.0000      -0.507140       -13.8000
 222   2.0000      -0.506122       -13.7723
 223   2.0000      -0.501973       -13.6594
 224   2.0000      -0.500505       -13.6194
 225   2.0000      -0.499962       -13.6046
 226   2.0000      -0.498637       -13.5686
 227   2.0000      -0.493108       -13.4181
 228   2.0000      -0.489672       -13.3247
 229   2.0000      -0.488831       -13.3018
 230   2.0000      -0.485109       -13.2005
 231   2.0000      -0.484766       -13.1912
 232   2.0000      -0.476565       -12.9680
 233   2.0000      -0.475227       -12.9316
 234   2.0000      -0.473412       -12.8822
 235   2.0000      -0.472671       -12.8620
 236   2.0000      -0.469398       -12.7730
 237   2.0000      -0.467525       -12.7220
 238   2.0000      -0.464014       -12.6265
 239   2.0000      -0.463576       -12.6146
 240   2.0000      -0.461528       -12.5588
 241   2.0000      -0.459980       -12.5167
 242   2.0000      -0.459427       -12.5016
 243   2.0000      -0.457170       -12.4402
 244   2.0000      -0.454799       -12.3757
 245   2.0000      -0.453901       -12.3513
 246   2.0000      -0.449665       -12.2360
 247   2.0000      -0.448023       -12.1913
 248   2.0000      -0.447724       -12.1832
 249   2.0000      -0.442843       -12.0504
 250   2.0000      -0.442448       -12.0396
 251   2.0000      -0.442411       -12.0386
 252   2.0000      -0.442287       -12.0352
 253   2.0000      -0.442039       -12.0285
 254   2.0000      -0.434400       -11.8206
 255   2.0000      -0.434262       -11.8169
 256   2.0000      -0.431823       -11.7505
 257   2.0000      -0.430795       -11.7225
 258   2.0000      -0.429253       -11.6806
 259   2.0000      -0.428885       -11.6706
 260   2.0000      -0.426623       -11.6090
 261   2.0000      -0.425467       -11.5776
 262   2.0000      -0.420001       -11.4288
 263   2.0000      -0.419403       -11.4125
 264   2.0000      -0.418820       -11.3967
 265   2.0000      -0.417561       -11.3624
 266   2.0000      -0.417264       -11.3543
 267   2.0000      -0.416329       -11.3289
 268   2.0000      -0.415096       -11.2953
 269   2.0000      -0.409421       -11.1409
 270   2.0000      -0.409051       -11.1308
 271   2.0000      -0.408889       -11.1264
 272   2.0000      -0.402225       -10.9451
 273   2.0000      -0.393132       -10.6977
 274   2.0000      -0.387347       -10.5402
 275   2.0000      -0.382923       -10.4199
 276   2.0000      -0.380802       -10.3622
 277   2.0000      -0.380679       -10.3588
 278   2.0000      -0.362286        -9.8583
 279   2.0000      -0.355489        -9.6733
 280   2.0000      -0.354735        -9.6528
 281   2.0000      -0.348820        -9.4919
 282   2.0000      -0.336089        -9.1455
 283   2.0000      -0.328136        -8.9290
 284   2.0000      -0.325804        -8.8656
 285   2.0000      -0.323286        -8.7971
 286   2.0000      -0.322495        -8.7755
 287   2.0000      -0.321722        -8.7545
 288   2.0000      -0.317985        -8.6528
 289   2.0000      -0.312179        -8.4948
 290   2.0000      -0.307438        -8.3658
 291   2.0000      -0.299710        -8.1555
 292   2.0000      -0.273395        -7.4395
 293   2.0000      -0.268661        -7.3106
 294   2.0000      -0.245985        -6.6936
 295   0.0000      -0.115376        -3.1395
 296   0.0000      -0.111797        -3.0421
 297   0.0000      -0.090954        -2.4750
 298   0.0000      -0.090324        -2.4578
 299   0.0000      -0.063141        -1.7182

MULLIKEN ATOMIC CHARGES
-----------------------
   0 C :   -0.014886
   1 N :   -0.029323
   2 N :   -0.055405
   3 C :    0.029509
   4 C :   -0.063150
   5 C :   -0.004048
   6 N :    0.079933
   7 O :   -0.084772
   8 N :    0.050900
   9 C :   -0.113302
  10 C :   -0.051544
  11 C :    0.034866
  12 C :   -0.080299
  13 S :    0.223949
  14 C :   -0.102193
  15 C :    0.025257
  16 C :    0.297875
  17 C :   -0.296899
  18 C :   -0.191992
  19 N :    0.180450
  20 C :   -0.193787
  21 N :    0.191962
  22 C :   -0.066765
  23 C :   -0.041006
  24 S :    0.194435
  25 C :   -0.010863
  26 C :   -0.094300
  27 C :    0.088008
  28 C :    0.143855
  29 C :   -0.219027
  30 C :    0.038449
  31 C :    0.087330
  32 C :   -0.263499
  33 S :    0.135579
  34 C :    0.115863
  35 Cl:   -0.081492
  36 C :   -0.138192
  37 C :    0.088052
  38 C :    0.143524
  39 C :   -0.138541
  40 S :    0.122731
  41 C :   -0.214637
  42 C :    0.034042
  43 C :    0.088803
  44 C :   -0.266685
  45 S :    0.133962
  46 C :    0.120206
  47 Cl:   -0.081570
  48 C :   -0.092932
  49 C :   -0.012287
  50 S :    0.122957
  51 C :   -0.042801
  52 C :   -0.062506
  53 C :    0.022398
  54 C :   -0.109061
  55 S :    0.195594
  56 C :   -0.078906
  57 C :    0.005744
  58 C :    0.305080
  59 C :   -0.295868
  60 C :   -0.192314
  61 N :    0.184619
  62 C :   -0.191075
  63 N :    0.177904
  64 C :   -0.047266
  65 C :   -0.135805
  66 S :    0.251902
  67 C :    0.035335
  68 N :   -0.077748
  69 N :   -0.031909
  70 C :   -0.008983
  71 C :   -0.015199
  72 C :   -0.040458
  73 N :    0.076308
  74 O :   -0.079776
  75 N :    0.080282
  76 H :    0.015353
  77 H :    0.030045
  78 H :    0.019914
  79 H :   -0.009926
  80 H :   -0.003186
  81 H :    0.041302
  82 H :    0.017271
  83 H :    0.045275
  84 H :   -0.003300
  85 H :    0.035842
  86 H :    0.021236
  87 H :    0.045406
  88 H :   -0.008938
  89 H :    0.019588
  90 H :    0.024457
  91 H :    0.015070
Sum of atomic charges:   -0.0000000

LOEWDIN ATOMIC CHARGES
----------------------
   0 C :    0.005667
   1 N :   -0.022851
   2 N :   -0.058938
   3 C :   -0.009542
   4 C :   -0.076042
   5 C :   -0.073157
   6 N :   -0.001422
   7 O :    0.091271
   8 N :   -0.022668
   9 C :   -0.193695
  10 C :    0.018054
  11 C :   -0.073336
  12 C :   -0.166685
  13 S :    0.510486
  14 C :   -0.185795
  15 C :   -0.059114
  16 C :    0.077538
  17 C :   -0.094843
  18 C :   -0.016805
  19 N :   -0.027676
  20 C :   -0.020569
  21 N :   -0.020356
  22 C :   -0.034037
  23 C :   -0.169443
  24 S :    0.484235
  25 C :   -0.169798
  26 C :   -0.068260
  27 C :   -0.039507
  28 C :   -0.052833
  29 C :   -0.178321
  30 C :   -0.072327
  31 C :   -0.177346
  32 C :   -0.199311
  33 S :    0.450706
  34 C :   -0.059836
  35 Cl:    0.132157
  36 C :   -0.140457
  37 C :   -0.039419
  38 C :   -0.052926
  39 C :   -0.140359
  40 S :    0.430226
  41 C :   -0.177389
  42 C :   -0.072664
  43 C :   -0.177202
  44 C :   -0.198262
  45 S :    0.448815
  46 C :   -0.059837
  47 Cl:    0.133050
  48 C :   -0.067847
  49 C :   -0.170074
  50 S :    0.429947
  51 C :   -0.169127
  52 C :   -0.034002
  53 C :   -0.058234
  54 C :   -0.187071
  55 S :    0.485906
  56 C :   -0.162427
  57 C :   -0.077711
  58 C :    0.078258
  59 C :   -0.097053
  60 C :   -0.020337
  61 N :   -0.022421
  62 C :   -0.017211
  63 N :   -0.028731
  64 C :   -0.001267
  65 C :   -0.192085
  66 S :    0.524349
  67 C :   -0.008034
  68 N :   -0.079947
  69 N :   -0.025390
  70 C :    0.006947
  71 C :   -0.073767
  72 C :   -0.065196
  73 N :   -0.003128
  74 O :    0.095315
  75 N :   -0.001191
  76 H :    0.037813
  77 H :    0.050985
  78 H :    0.038741
  79 H :    0.011642
  80 H :    0.027609
  81 H :    0.041614
  82 H :    0.033133
  83 H :    0.043063
  84 H :    0.027688
  85 H :    0.039303
  86 H :    0.034618
  87 H :    0.042858
  88 H :    0.011908
  89 H :    0.038808
  90 H :    0.044642
  91 H :    0.037931

  Mayer bond orders larger than 0.100000
B(  0-C ,  1-N ) :   1.7608 B(  0-C ,  3-C ) :   0.1006 B(  0-C ,  5-C ) :   1.0882
B(  0-C , 76-H ) :   1.0182 B(  1-N ,  2-N ) :   1.1681 B(  2-N ,  3-C ) :   1.7662
B(  3-C ,  4-C ) :   1.0416 B(  3-C ,  9-C ) :   1.1600 B(  4-C ,  5-C ) :   1.1860
B(  4-C ,  8-N ) :   1.5981 B(  5-C ,  6-N ) :   1.5977 B(  6-N ,  7-O ) :   1.0847
B(  6-N ,  8-N ) :   0.1850 B(  7-O ,  8-N ) :   1.0721 B(  9-C , 10-C ) :   1.4233
B(  9-C , 13-S ) :   1.1002 B( 10-C , 11-C ) :   1.2631 B( 10-C , 77-H ) :   1.0152
B( 11-C , 12-C ) :   1.4061 B( 11-C , 16-C ) :   0.9897 B( 12-C , 13-S ) :   1.1389
B( 12-C , 14-C ) :   1.1942 B( 14-C , 15-C ) :   1.4444 B( 14-C , 24-S ) :   1.1161
B( 15-C , 16-C ) :   0.9950 B( 15-C , 22-C ) :   1.2911 B( 16-C , 17-C ) :   1.7226
B( 17-C , 18-C ) :   1.1359 B( 17-C , 20-C ) :   1.1327 B( 18-C , 19-N ) :   2.9925
B( 20-C , 21-N ) :   3.0042 B( 22-C , 23-C ) :   1.4618 B( 22-C , 78-H ) :   0.9889
B( 23-C , 24-S ) :   1.1127 B( 23-C , 25-C ) :   1.1541 B( 25-C , 26-C ) :   1.5691
B( 25-C , 40-S ) :   1.0713 B( 26-C , 27-C ) :   1.1879 B( 26-C , 79-H ) :   0.9672
B( 27-C , 28-C ) :   1.2956 B( 27-C , 39-C ) :   1.2700 B( 28-C , 29-C ) :   0.9904
B( 28-C , 36-C ) :   1.4162 B( 29-C , 30-C ) :   1.5445 B( 29-C , 33-S ) :   1.1315
B( 30-C , 31-C ) :   1.2364 B( 30-C , 80-H ) :   0.9935 B( 31-C , 32-C ) :   1.5893
B( 31-C , 35-Cl) :   1.0363 B( 32-C , 33-S ) :   1.1360 B( 32-C , 34-C ) :   1.0885
B( 34-C , 81-H ) :   0.9492 B( 34-C , 82-H ) :   0.9444 B( 34-C , 83-H ) :   0.9509
B( 36-C , 37-C ) :   1.2708 B( 36-C , 50-S ) :   1.0566 B( 37-C , 38-C ) :   1.2958
B( 37-C , 48-C ) :   1.1874 B( 38-C , 39-C ) :   1.4175 B( 38-C , 41-C ) :   0.9893
B( 39-C , 40-S ) :   1.0569 B( 41-C , 42-C ) :   1.5466 B( 41-C , 45-S ) :   1.1291
B( 42-C , 43-C ) :   1.2300 B( 42-C , 84-H ) :   0.9947 B( 43-C , 44-C ) :   1.5938
B( 43-C , 47-Cl) :   1.0289 B( 44-C , 45-S ) :   1.1330 B( 44-C , 46-C ) :   1.0868
B( 46-C , 85-H ) :   0.9471 B( 46-C , 86-H ) :   0.9453 B( 46-C , 87-H ) :   0.9500
B( 48-C , 49-C ) :   1.5688 B( 48-C , 88-H ) :   0.9676 B( 49-C , 50-S ) :   1.0714
B( 49-C , 51-C ) :   1.1549 B( 51-C , 52-C ) :   1.4589 B( 51-C , 55-S ) :   1.1157
B( 52-C , 53-C ) :   1.2911 B( 52-C , 89-H ) :   0.9899 B( 53-C , 54-C ) :   1.4506
B( 53-C , 58-C ) :   0.9913 B( 54-C , 55-S ) :   1.1157 B( 54-C , 56-C ) :   1.1907
B( 56-C , 57-C ) :   1.4202 B( 56-C , 66-S ) :   1.1406 B( 57-C , 58-C ) :   0.9967
B( 57-C , 64-C ) :   1.2808 B( 58-C , 59-C ) :   1.7156 B( 59-C , 60-C ) :   1.1346
B( 59-C , 62-C ) :   1.1336 B( 60-C , 61-N ) :   2.9947 B( 62-C , 63-N ) :   2.9924
B( 64-C , 65-C ) :   1.4773 B( 64-C , 90-H ) :   0.9833 B( 65-C , 66-S ) :   1.0770
B( 65-C , 67-C ) :   1.1710 B( 67-C , 68-N ) :   1.7647 B( 67-C , 70-C ) :   0.1005
B( 67-C , 72-C ) :   1.0733 B( 68-N , 69-N ) :   1.1738 B( 69-N , 70-C ) :   1.7699
B( 70-C , 71-C ) :   1.0862 B( 70-C , 91-H ) :   1.0164 B( 71-C , 72-C ) :   1.1753
B( 71-C , 75-N ) :   1.6002 B( 72-C , 73-N ) :   1.6140 B( 73-N , 74-O ) :   1.0698
B( 73-N , 75-N ) :   0.1839 B( 74-O , 75-N ) :   1.0854

-----------------------------------------------------------------------------
         ABSORPTION SPECTRUM VIA TRANSITION ELECTRIC DIPOLE MOMENTS
-----------------------------------------------------------------------------
State   Energy  Wavelength   fosc         T2         TX        TY        TZ
        (cm-1)    (nm)                  (au**2)     (au)      (au)      (au)
-----------------------------------------------------------------------------
   0   13249.9    754.7   0.545898717  13.56364  -1.51442   1.14387   3.15622
   1   13750.8    727.2   0.004318375   0.10339   0.21212  -0.19385  -0.14428
   2   18899.3    529.1   0.151651399   2.64165  -1.21766   0.25512   1.04588
   3   19572.8    510.9   0.001015594   0.01708  -0.11057   0.00857   0.06916
   4   20500.4    487.8   0.000065656   0.00105  -0.00318  -0.01362   0.02930
   5   20870.5    479.1   1.801391486  28.41519  -1.58760   1.82666   4.74953
   6   21668.6    461.5   0.104117791   1.58187   0.68773  -0.58143  -0.87797
   7   21717.7    460.5   0.000345280   0.00523  -0.03653   0.03727   0.05010
   8   24350.8    410.7   0.022382446   0.30260  -0.04540   0.21505   0.50428
   9   24506.2    408.1   0.006102661   0.08198   0.01566  -0.07191  -0.27670
  10   25274.4    395.7   0.611699681   7.96771  -2.77645  -0.36935   0.35019
  11   26988.5    370.5   0.154929148   1.88986  -0.62913   0.34190   1.17352
  12   27208.3    367.5   0.320514600   3.87813  -0.84119   0.64981   1.65779
  13   27791.7    359.8   0.008355803   0.09898  -0.31289  -0.02602  -0.02012
  14   28285.1    353.5   0.055049345   0.64072  -0.75773  -0.21079  -0.14876
  15   28851.5    346.6   0.014323032   0.16343   0.20681  -0.08455  -0.33692
  16   29610.8    337.7   0.025912241   0.28809  -0.44526   0.04555   0.29624
  17   29758.8    336.0   0.000143586   0.00159  -0.01478   0.03238  -0.01793
  18   30188.5    331.3   0.029371003   0.32030   0.48784   0.15589   0.24084
  19   30534.2    327.5   0.079266639   0.85463  -0.81867  -0.39696  -0.16381
  20   30587.8    326.9   0.000326025   0.00351  -0.01886   0.04893  -0.02755
  21   30852.0    324.1   0.371032562   3.95917   1.81130  -0.10021  -0.81750
  22   30935.9    323.2   0.223402162   2.37739   0.06324   0.58776   1.42405
  23   31043.2    322.1   0.008359218   0.08865  -0.07111  -0.02487   0.28805
  24   31458.1    317.9   0.084405572   0.88331  -0.49733  -0.29726  -0.74000
  25   31676.3    315.7   0.667674915   6.93915   1.39899   1.17275   1.89911
  26   31982.3    312.7   0.102903837   1.05925  -0.13472  -0.44632  -0.91755
  27   32206.9    310.5   0.286295307   2.92645  -0.42938  -0.72491  -1.48882
  28   32828.1    304.6   0.048572368   0.48710   0.64192   0.02924  -0.27236
  29   33034.2    302.7   0.007209464   0.07185   0.20722   0.13216  -0.10698
  30   33215.9    301.1   0.157732079   1.56333   0.75182  -0.21568  -0.97549
  31   33415.1    299.3   0.072380083   0.71310  -0.53004   0.27776   0.59583
  32   33732.2    296.5   0.044785292   0.43708  -0.30188   0.29572   0.50844
  33   34218.7    292.2   0.002411162   0.02320   0.03099   0.10646   0.10442
  34   34501.8    289.8   0.379093321   3.61726   1.50595   0.67250   0.94717
  35   34645.7    288.6   0.147613329   1.40266  -0.90213  -0.46881  -0.60749
  36   34792.9    287.4   0.124876297   1.18158   0.88022   0.38715   0.50687
  37   35469.0    281.9   0.011500836   0.10675   0.18213   0.26657   0.05018
  38   35724.5    279.9   0.096679040   0.89093   0.71173   0.37805   0.49136
  39   36025.4    277.6   0.000306108   0.00280  -0.02361   0.00428  -0.04713
  40   36264.3    275.8   0.006947465   0.06307   0.23268   0.03060   0.08940
  41   36768.2    272.0   0.040386248   0.36161   0.33655   0.21390   0.45010
  42   37023.1    270.1   0.037383860   0.33242   0.39428   0.32031   0.27270
  43   37520.5    266.5   0.089897789   0.78878  -0.87010  -0.16641   0.06342
  44   37614.9    265.9   0.016270042   0.14240   0.36272   0.09998   0.02888
  45   37942.7    263.6   0.005971617   0.05181   0.19665   0.02756   0.11127
  46   38051.1    262.8   0.001596890   0.01382  -0.03141   0.05645  -0.09820
  47   38315.3    261.0   0.022098308   0.18987   0.16869  -0.10936  -0.38660
  48   38497.5    259.8   0.017350772   0.14838   0.03379   0.18756   0.33475
  49   38660.3    258.7   0.007229205   0.06156   0.05771  -0.22036   0.09834
  50   38769.5    257.9   0.007465238   0.06339   0.02472  -0.22409   0.11209
  51   38935.9    256.8   0.028796728   0.24348  -0.10859   0.12671   0.46437
  52   39047.6    256.1   0.170142257   1.43448  -0.14804   0.44409   1.10243
  53   39271.9    254.6   0.014373621   0.12049  -0.32449  -0.10470   0.06509
  54   39441.9    253.5   0.024326771   0.20305   0.44902  -0.00683   0.03718
  55   39478.7    253.3   0.044728877   0.37299  -0.29765  -0.25032  -0.47089
  56   39597.0    252.5   0.034120487   0.28368   0.33508   0.38461   0.15323
  57   39767.1    251.5   0.000646430   0.00535  -0.01568   0.06636  -0.02650
  58   39875.8    250.8   0.001928246   0.01592   0.08715   0.01646   0.08974
  59   40187.0    248.8   0.000223259   0.00183   0.00537  -0.03847   0.01788
  60   40237.6    248.5   0.018679668   0.15283  -0.36170   0.14349   0.03765
  61   40316.2    248.0   0.028735037   0.23464  -0.14752   0.11627   0.44650

FINAL SINGLE POINT ENERGY     -6899.463954214130

DIPOLE MOMENT
-------------
                                X             Y             Z
Electronic contribution:      2.28666       6.18341      -2.43678
Nuclear contribution   :     -1.86331      -6.16648       2.43061
                        -----------------------------------------
Total Dipole Moment    :      0.42335       0.01693      -0.00617
                        -----------------------------------------
Magnitude (a.u.)       :      0.42374
Magnitude (Debye)      :      1.07705

Rotational constants in cm-1:     0.001458     0.000206     0.000182
Rotational constants in MHz :    43.709511     6.178650     5.450323

                             ****ORCA TERMINATED NORMALLY****
TOTAL RUN TIME: 0 days 0 hours 9 minutes 19 seconds 474 msec
