                         Program Version 4.2.0 -  RELEASE  -
|  1> # ORCA input file
|  2> # SCF done       -158.306052694820          0.000456711899
|  3> ! CAM-B3LYP def2-SVP def2/J RIJCOSX Grid4 TightSCF
|  4> %maxcore 5000
|  5> %tddft
|  6>     Mode sTDDFT
|  7>     Ethresh 5.0
|  8>     maxcore 5000
|  9> end
| 10>
| 11> %pal
| 12>   nprocs 6
| 13>   end
| 14> * xyz 0 1
| 15>    C       -9.14317        -0.19283         2.78951
| 16>    N       -9.15751        -1.36931         2.23548
| 17>    N       -8.27969        -1.74569         1.33231
| 18>    C       -7.30207        -0.96817         0.90425
| 19>    C       -7.18039         0.35092         1.44106
| 20>    C       -8.14970         0.75072         2.42823
| 21>    N       -7.85597         1.98725         2.78268
| 22>    O       -6.78628         2.32851         2.06997
| 23>    N       -6.36085         1.36390         1.25681
| 24>    C       -6.41550        -1.48564        -0.07784
| 25>    C       -5.33072        -0.86438        -0.66973
| 26>    C       -4.70980        -1.69871        -1.59450
| 27>    C       -5.34057        -2.96549        -1.69665
| 28>    S       -6.68525        -3.11973        -0.65738
| 29>    C       -4.64998        -3.73269        -2.65440
| 30>    C       -3.58060        -2.96239        -3.16534
| 31>    C       -3.58824        -1.66003        -2.50694
| 32>    C       -2.70837        -0.63711        -2.71847
| 33>    C       -1.64745        -0.75415        -3.63919
| 34>    N       -0.78530        -0.86175        -4.38862
| 35>    C       -2.79392         0.59421        -2.03545
| 36>    N       -2.84876         1.60073        -1.48948
| 37>    C       -2.83949        -3.61886        -4.13001
| 38>    C       -3.31690        -4.90835        -4.38311
| 39>    S       -4.72776        -5.27681        -3.38159
| 40>    C       -2.89457        -5.89381        -5.28114
| 41>    C       -1.79933        -5.90604        -6.12054
| 42>    C       -0.71581        -5.01485        -6.29120
| 43>    C        0.17873        -5.40105        -7.24753
| 44>    C       -0.15063        -6.61352        -7.88652
| 45>    S       -1.62344        -7.26463        -7.22214
| 46>    C        0.53630        -7.25585        -8.90748
| 47>    C        1.72686        -6.86035        -9.54786
| 48>    C        2.13042        -7.71674       -10.53121
| 49>    C        1.27991        -8.83156       -10.72121
| 50>    S       -0.05293        -8.75079        -9.58833
| 51>    C        1.47008        -9.81964       -11.66442
| 52>    C        0.66942       -10.93834       -11.91304
| 53>    C       -0.50065       -11.36908       -11.27928
| 54>    C       -0.99697       -12.53456       -11.83172
| 55>    C       -0.21983       -13.02719       -12.90465
| 56>    S        1.13492       -12.03257       -13.22036
| 57>    C       -0.81464       -14.20890       -13.38690
| 58>    C       -1.97669       -14.47367       -12.61715
| 59>    C       -2.12614       -13.43418       -11.62182
| 60>    C       -3.10644       -13.30658       -10.68041
| 61>    C       -3.13145       -12.23537        -9.76307
| 62>    N       -3.15758       -11.36673        -9.01452
| 63>    C       -4.16272       -14.23400       -10.55587
| 64>    N       -5.02803       -14.97726       -10.44141
| 65>    C       -2.63383       -15.63193       -13.02011
| 66>    C       -1.98457       -16.23887       -14.08008
| 67>    S       -0.54393       -15.38133       -14.59766
| 68>    C       -2.34106       -17.43161       -14.76424
| 69>    N       -1.57752       -17.83031       -15.76506
| 70>    N       -1.81481       -18.91837       -16.46369
| 71>    C       -2.82403       -19.70441       -16.22925
| 72>    C       -3.73015       -19.40454       -15.18203
| 73>    C       -3.48456       -18.21346       -14.41089
| 74>    N       -4.43305       -18.12611       -13.50293
| 75>    O       -5.21629       -19.18633       -13.69194
| 76>    N       -4.81761       -19.96798       -14.69113
| 77>    H       -9.90596         0.02384         3.51965
| 78>    H       -5.03424         0.13961        -0.42263
| 79>    H       -2.00980        -3.18283        -4.65050
| 80>    H       -3.52735        -6.77149        -5.32776
| 81>    H       -0.59282        -4.12391        -5.70549
| 82>    H        1.06041        -4.84165        -7.50329
| 83>    H        2.25307        -5.96403        -9.27404
| 84>    H        3.01412        -7.57970       -11.12885
| 85>    H        2.34417        -9.70993       -12.29363
| 86>    H       -0.95225       -10.84888       -10.45643
| 87>    H       -3.53237       -16.03404       -12.58673
| 88>    H       -2.93456       -20.57452       -16.85584
| 89> *
| 90>
| 91>                          ****END OF INPUT****

CARTESIAN COORDINATES (ANGSTROEM)
---------------------------------
  C     -9.143170   -0.192830    2.789510
  N     -9.157510   -1.369310    2.235480
  N     -8.279690   -1.745690    1.332310
  C     -7.302070   -0.968170    0.904250
  C     -7.180390    0.350920    1.441060
  C     -8.149700    0.750720    2.428230
  N     -7.855970    1.987250    2.782680
  O     -6.786280    2.328510    2.069970
  N     -6.360850    1.363900    1.256810
  C     -6.415500   -1.485640   -0.077840
  C     -5.330720   -0.864380   -0.669730
  C     -4.709800   -1.698710   -1.594500
  C     -5.340570   -2.965490   -1.696650
  S     -6.685250   -3.119730   -0.657380
  C     -4.649980   -3.732690   -2.654400
  C     -3.580600   -2.962390   -3.165340
  C     -3.588240   -1.660030   -2.506940
  C     -2.708370   -0.637110   -2.718470
  C     -1.647450   -0.754150   -3.639190
  N     -0.785300   -0.861750   -4.388620
  C     -2.793920    0.594210   -2.035450
  N     -2.848760    1.600730   -1.489480
  C     -2.839490   -3.618860   -4.130010
  C     -3.316900   -4.908350   -4.383110
  S     -4.727760   -5.276810   -3.381590
  C     -2.894570   -5.893810   -5.281140
  C     -1.799330   -5.906040   -6.120540
  C     -0.715810   -5.014850   -6.291200
  C      0.178730   -5.401050   -7.247530
  C     -0.150630   -6.613520   -7.886520
  S     -1.623440   -7.264630   -7.222140
  C      0.536300   -7.255850   -8.907480
  C      1.726860   -6.860350   -9.547860
  C      2.130420   -7.716740  -10.531210
  C      1.279910   -8.831560  -10.721210
  S     -0.052930   -8.750790   -9.588330
  C      1.470080   -9.819640  -11.664420
  C      0.669420  -10.938340  -11.913040
  C     -0.500650  -11.369080  -11.279280
  C     -0.996970  -12.534560  -11.831720
  C     -0.219830  -13.027190  -12.904650
  S      1.134920  -12.032570  -13.220360
  C     -0.814640  -14.208900  -13.386900
  C     -1.976690  -14.473670  -12.617150
  C     -2.126140  -13.434180  -11.621820
  C     -3.106440  -13.306580  -10.680410
  C     -3.131450  -12.235370   -9.763070
  N     -3.157580  -11.366730   -9.014520
  C     -4.162720  -14.234000  -10.555870
  N     -5.028030  -14.977260  -10.441410
  C     -2.633830  -15.631930  -13.020110
  C     -1.984570  -16.238870  -14.080080
  S     -0.543930  -15.381330  -14.597660
  C     -2.341060  -17.431610  -14.764240
  N     -1.577520  -17.830310  -15.765060
  N     -1.814810  -18.918370  -16.463690
  C     -2.824030  -19.704410  -16.229250
  C     -3.730150  -19.404540  -15.182030
  C     -3.484560  -18.213460  -14.410890
  N     -4.433050  -18.126110  -13.502930
  O     -5.216290  -19.186330  -13.691940
  N     -4.817610  -19.967980  -14.691130
  H     -9.905960    0.023840    3.519650
  H     -5.034240    0.139610   -0.422630
  H     -2.009800   -3.182830   -4.650500
  H     -3.527350   -6.771490   -5.327760
  H     -0.592820   -4.123910   -5.705490
  H      1.060410   -4.841650   -7.503290
  H      2.253070   -5.964030   -9.274040
  H      3.014120   -7.579700  -11.128850
  H      2.344170   -9.709930  -12.293630
  H     -0.952250  -10.848880  -10.456430
  H     -3.532370  -16.034040  -12.586730
  H     -2.934560  -20.574520  -16.855840

 Total Charge           Charge          ....    0
 Multiplicity           Mult            ....    1
 Number of Electrons    NEL             ....  460
 Basis Dimension        Dim             ....  952

ORBITAL ENERGIES
----------------

  NO   OCC          E(Eh)            E(eV)
   0   2.0000     -88.990273     -2421.5484
   1   2.0000     -88.990108     -2421.5440
   2   2.0000     -88.989675     -2421.5322
   3   2.0000     -88.989545     -2421.5286
   4   2.0000     -88.963424     -2420.8178
   5   2.0000     -88.957920     -2420.6681
   6   2.0000     -19.378219      -527.3082
   7   2.0000     -19.378068      -527.3040
   8   2.0000     -14.505742      -394.7213
   9   2.0000     -14.505617      -394.7179
  10   2.0000     -14.502572      -394.6350
  11   2.0000     -14.502392      -394.6302
  12   2.0000     -14.454301      -393.3215
  13   2.0000     -14.454060      -393.3150
  14   2.0000     -14.449568      -393.1927
  15   2.0000     -14.449430      -393.1890
  16   2.0000     -14.434369      -392.7791
  17   2.0000     -14.431258      -392.6945
  18   2.0000     -14.430090      -392.6627
  19   2.0000     -14.429227      -392.6392
  20   2.0000     -10.366150      -282.0773
  21   2.0000     -10.365363      -282.0559
  22   2.0000     -10.358718      -281.8750
  23   2.0000     -10.358675      -281.8739
  24   2.0000     -10.354115      -281.7498
  25   2.0000     -10.352568      -281.7077
  26   2.0000     -10.347664      -281.5742
  27   2.0000     -10.347605      -281.5726
  28   2.0000     -10.344538      -281.4892
  29   2.0000     -10.344431      -281.4863
  30   2.0000     -10.339651      -281.3562
  31   2.0000     -10.339247      -281.3452
  32   2.0000     -10.335779      -281.2509
  33   2.0000     -10.335650      -281.2473
  34   2.0000     -10.335276      -281.2372
  35   2.0000     -10.332195      -281.1533
  36   2.0000     -10.331619      -281.1376
  37   2.0000     -10.330534      -281.1081
  38   2.0000     -10.329904      -281.0910
  39   2.0000     -10.329856      -281.0897
  40   2.0000     -10.329606      -281.0829
  41   2.0000     -10.328914      -281.0640
  42   2.0000     -10.327123      -281.0153
  43   2.0000     -10.326884      -281.0088
  44   2.0000     -10.326334      -280.9938
  45   2.0000     -10.326303      -280.9930
  46   2.0000     -10.321478      -280.8617
  47   2.0000     -10.321407      -280.8598
  48   2.0000     -10.310115      -280.5525
  49   2.0000     -10.309144      -280.5261
  50   2.0000     -10.308893      -280.5192
  51   2.0000     -10.308418      -280.5063
  52   2.0000     -10.305033      -280.4142
  53   2.0000     -10.304013      -280.3864
  54   2.0000     -10.303556      -280.3740
  55   2.0000     -10.303413      -280.3701
  56   2.0000     -10.303293      -280.3669
  57   2.0000     -10.303204      -280.3644
  58   2.0000     -10.301695      -280.3234
  59   2.0000     -10.301686      -280.3231
  60   2.0000     -10.299471      -280.2628
  61   2.0000     -10.299407      -280.2611
  62   2.0000      -8.084362      -219.9867
  63   2.0000      -8.084159      -219.9811
  64   2.0000      -8.084063      -219.9785
  65   2.0000      -8.083920      -219.9746
  66   2.0000      -8.059129      -219.3000
  67   2.0000      -8.054602      -219.1769
  68   2.0000      -6.053565      -164.7259
  69   2.0000      -6.053420      -164.7219
  70   2.0000      -6.053362      -164.7204
  71   2.0000      -6.053228      -164.7167
  72   2.0000      -6.049501      -164.6153
  73   2.0000      -6.049354      -164.6113
  74   2.0000      -6.049005      -164.6018
  75   2.0000      -6.048877      -164.5983
  76   2.0000      -6.046679      -164.5385
  77   2.0000      -6.046566      -164.5354
  78   2.0000      -6.046401      -164.5309
  79   2.0000      -6.046393      -164.5307
  80   2.0000      -6.028844      -164.0532
  81   2.0000      -6.024696      -163.9403
  82   2.0000      -6.024317      -163.9300
  83   2.0000      -6.020253      -163.8194
  84   2.0000      -6.020231      -163.8188
  85   2.0000      -6.015470      -163.6893
  86   2.0000      -1.330946       -36.2169
  87   2.0000      -1.330825       -36.2136
  88   2.0000      -1.131332       -30.7851
  89   2.0000      -1.131307       -30.7844
  90   2.0000      -1.046540       -28.4778
  91   2.0000      -1.045848       -28.4590
  92   2.0000      -1.034108       -28.1395
  93   2.0000      -1.034048       -28.1379
  94   2.0000      -1.023963       -27.8634
  95   2.0000      -1.022113       -27.8131
  96   2.0000      -1.012582       -27.5538
  97   2.0000      -1.009440       -27.4683
  98   2.0000      -1.007611       -27.4185
  99   2.0000      -1.002284       -27.2735
 100   2.0000      -1.000327       -27.2203
 101   2.0000      -0.991649       -26.9841
 102   2.0000      -0.990671       -26.9575
 103   2.0000      -0.987740       -26.8778
 104   2.0000      -0.966189       -26.2913
 105   2.0000      -0.964903       -26.2564
 106   2.0000      -0.945006       -25.7149
 107   2.0000      -0.944494       -25.7010
 108   2.0000      -0.920085       -25.0368
 109   2.0000      -0.913687       -24.8627
 110   2.0000      -0.896029       -24.3822
 111   2.0000      -0.880301       -23.9542
 112   2.0000      -0.871904       -23.7257
 113   2.0000      -0.868762       -23.6402
 114   2.0000      -0.862255       -23.4632
 115   2.0000      -0.857989       -23.3471
 116   2.0000      -0.857003       -23.3202
 117   2.0000      -0.843916       -22.9641
 118   2.0000      -0.839398       -22.8412
 119   2.0000      -0.834562       -22.7096
 120   2.0000      -0.824474       -22.4351
 121   2.0000      -0.799510       -21.7558
 122   2.0000      -0.790545       -21.5118
 123   2.0000      -0.786305       -21.3964
 124   2.0000      -0.782766       -21.3002
 125   2.0000      -0.780823       -21.2473
 126   2.0000      -0.771815       -21.0022
 127   2.0000      -0.758810       -20.6483
 128   2.0000      -0.735093       -20.0029
 129   2.0000      -0.727616       -19.7994
 130   2.0000      -0.710169       -19.3247
 131   2.0000      -0.701920       -19.1002
 132   2.0000      -0.697155       -18.9706
 133   2.0000      -0.693668       -18.8757
 134   2.0000      -0.687395       -18.7050
 135   2.0000      -0.685281       -18.6475
 136   2.0000      -0.682551       -18.5732
 137   2.0000      -0.667358       -18.1597
 138   2.0000      -0.661902       -18.0113
 139   2.0000      -0.657862       -17.9013
 140   2.0000      -0.653960       -17.7952
 141   2.0000      -0.650424       -17.6989
 142   2.0000      -0.643000       -17.4969
 143   2.0000      -0.641443       -17.4546
 144   2.0000      -0.636604       -17.3229
 145   2.0000      -0.630514       -17.1572
 146   2.0000      -0.628040       -17.0898
 147   2.0000      -0.627912       -17.0864
 148   2.0000      -0.627531       -17.0760
 149   2.0000      -0.618681       -16.8352
 150   2.0000      -0.615721       -16.7546
 151   2.0000      -0.602948       -16.4071
 152   2.0000      -0.593037       -16.1373
 153   2.0000      -0.584999       -15.9186
 154   2.0000      -0.580279       -15.7902
 155   2.0000      -0.575706       -15.6657
 156   2.0000      -0.573837       -15.6149
 157   2.0000      -0.564104       -15.3500
 158   2.0000      -0.550923       -14.9914
 159   2.0000      -0.550398       -14.9771
 160   2.0000      -0.547189       -14.8898
 161   2.0000      -0.544832       -14.8256
 162   2.0000      -0.540211       -14.6999
 163   2.0000      -0.536557       -14.6005
 164   2.0000      -0.536458       -14.5978
 165   2.0000      -0.534220       -14.5369
 166   2.0000      -0.532501       -14.4901
 167   2.0000      -0.522933       -14.2297
 168   2.0000      -0.514481       -13.9997
 169   2.0000      -0.511581       -13.9208
 170   2.0000      -0.508453       -13.8357
 171   2.0000      -0.506357       -13.7787
 172   2.0000      -0.504811       -13.7366
 173   2.0000      -0.504200       -13.7200
 174   2.0000      -0.503530       -13.7017
 175   2.0000      -0.498532       -13.5657
 176   2.0000      -0.496482       -13.5099
 177   2.0000      -0.492941       -13.4136
 178   2.0000      -0.491783       -13.3821
 179   2.0000      -0.485730       -13.2174
 180   2.0000      -0.477584       -12.9957
 181   2.0000      -0.473601       -12.8873
 182   2.0000      -0.471277       -12.8241
 183   2.0000      -0.466834       -12.7032
 184   2.0000      -0.464887       -12.6502
 185   2.0000      -0.461725       -12.5642
 186   2.0000      -0.458360       -12.4726
 187   2.0000      -0.456959       -12.4345
 188   2.0000      -0.453323       -12.3355
 189   2.0000      -0.451696       -12.2913
 190   2.0000      -0.449558       -12.2331
 191   2.0000      -0.446940       -12.1619
 192   2.0000      -0.446012       -12.1366
 193   2.0000      -0.443367       -12.0646
 194   2.0000      -0.442631       -12.0446
 195   2.0000      -0.442103       -12.0302
 196   2.0000      -0.440377       -11.9833
 197   2.0000      -0.440110       -11.9760
 198   2.0000      -0.438781       -11.9398
 199   2.0000      -0.437116       -11.8945
 200   2.0000      -0.430266       -11.7081
 201   2.0000      -0.430178       -11.7057
 202   2.0000      -0.427750       -11.6397
 203   2.0000      -0.426106       -11.5949
 204   2.0000      -0.423182       -11.5154
 205   2.0000      -0.415097       -11.2954
 206   2.0000      -0.414798       -11.2872
 207   2.0000      -0.414734       -11.2855
 208   2.0000      -0.413546       -11.2532
 209   2.0000      -0.412130       -11.2146
 210   2.0000      -0.411945       -11.2096
 211   2.0000      -0.404469       -11.0062
 212   2.0000      -0.404453       -11.0057
 213   2.0000      -0.404345       -11.0028
 214   2.0000      -0.392428       -10.6785
 215   2.0000      -0.380491       -10.3537
 216   2.0000      -0.365791        -9.9537
 217   2.0000      -0.353558        -9.6208
 218   2.0000      -0.351488        -9.5645
 219   2.0000      -0.350529        -9.5384
 220   2.0000      -0.345736        -9.4080
 221   2.0000      -0.338842        -9.2203
 222   2.0000      -0.328168        -8.9299
 223   2.0000      -0.323837        -8.8121
 224   2.0000      -0.316871        -8.6225
 225   2.0000      -0.316688        -8.6175
 226   2.0000      -0.316483        -8.6119
 227   2.0000      -0.290451        -7.9036
 228   2.0000      -0.264248        -7.1906
 229   2.0000      -0.217286        -5.9127
 230   0.0000      -0.121226        -3.2987
 231   0.0000      -0.107495        -2.9251
 232   0.0000      -0.091372        -2.4864
 233   0.0000      -0.087084        -2.3697
 234   0.0000      -0.081001        -2.2042

MULLIKEN ATOMIC CHARGES
-----------------------
   0 C :   -0.017259
   1 N :   -0.032569
   2 N :   -0.081745
   3 C :    0.037401
   4 C :   -0.042649
   5 C :   -0.009973
   6 N :    0.077534
   7 O :   -0.082997
   8 N :    0.073518
   9 C :   -0.135766
  10 C :   -0.043167
  11 C :   -0.002760
  12 C :   -0.076607
  13 S :    0.249820
  14 C :   -0.113068
  15 C :    0.006977
  16 C :    0.309943
  17 C :   -0.295801
  18 C :   -0.184201
  19 N :    0.159081
  20 C :   -0.193929
  21 N :    0.185552
  22 C :   -0.033396
  23 C :   -0.084876
  24 S :    0.191159
  25 C :    0.084403
  26 C :   -0.068725
  27 C :    0.021833
  28 C :    0.022775
  29 C :   -0.042862
  30 S :    0.116416
  31 C :   -0.026953
  32 C :    0.033552
  33 C :    0.031490
  34 C :   -0.027796
  35 S :    0.070455
  36 C :    0.026084
  37 C :   -0.084816
  38 C :   -0.050320
  39 C :    0.009997
  40 C :   -0.113004
  41 S :    0.185974
  42 C :   -0.081282
  43 C :   -0.001604
  44 C :    0.312210
  45 C :   -0.300761
  46 C :   -0.184195
  47 N :    0.169422
  48 C :   -0.196805
  49 N :    0.185993
  50 C :   -0.041116
  51 C :   -0.138165
  52 S :    0.246900
  53 C :    0.035481
  54 N :   -0.080600
  55 N :   -0.032404
  56 C :   -0.017281
  57 C :   -0.009902
  58 C :   -0.046471
  59 N :    0.076528
  60 O :   -0.082390
  61 N :    0.078335
  62 H :    0.014549
  63 H :    0.023150
  64 H :   -0.005079
  65 H :   -0.004826
  66 H :   -0.000802
  67 H :   -0.005043
  68 H :   -0.007400
  69 H :   -0.007726
  70 H :   -0.013019
  71 H :    0.028051
  72 H :    0.023642
  73 H :    0.013886
Sum of atomic charges:   -0.0000000

LOEWDIN ATOMIC CHARGES
----------------------
   0 C :    0.002635
   1 N :   -0.025452
   2 N :   -0.083522
   3 C :   -0.009207
   4 C :   -0.065050
   5 C :   -0.073515
   6 N :   -0.002942
   7 O :    0.091977
   8 N :   -0.004262
   9 C :   -0.193965
  10 C :    0.000110
  11 C :   -0.083723
  12 C :   -0.155534
  13 S :    0.519730
  14 C :   -0.201717
  15 C :   -0.050816
  16 C :    0.081205
  17 C :   -0.103199
  18 C :   -0.011614
  19 N :   -0.042433
  20 C :   -0.021281
  21 N :   -0.023842
  22 C :   -0.037107
  23 C :   -0.145028
  24 S :    0.477425
  25 C :   -0.080989
  26 C :   -0.135612
  27 C :   -0.037241
  28 C :   -0.014664
  29 C :   -0.175500
  30 S :    0.399856
  31 C :   -0.175665
  32 C :   -0.030707
  33 C :   -0.030416
  34 C :   -0.140282
  35 S :    0.408253
  36 C :   -0.081028
  37 C :   -0.152061
  38 C :   -0.043595
  39 C :   -0.050740
  40 C :   -0.199492
  41 S :    0.469711
  42 C :   -0.156585
  43 C :   -0.082296
  44 C :    0.079218
  45 C :   -0.100365
  46 C :   -0.015927
  47 N :   -0.034055
  48 C :   -0.020514
  49 N :   -0.024546
  50 C :   -0.000105
  51 C :   -0.193993
  52 S :    0.517070
  53 C :   -0.009271
  54 N :   -0.083684
  55 N :   -0.025744
  56 C :    0.002327
  57 C :   -0.073700
  58 C :   -0.065253
  59 N :   -0.003900
  60 O :    0.092224
  61 N :   -0.002824
  62 H :    0.037168
  63 H :    0.044330
  64 H :    0.035041
  65 H :    0.032372
  66 H :    0.036558
  67 H :    0.036406
  68 H :    0.034624
  69 H :    0.035351
  70 H :    0.035268
  71 H :    0.024849
  72 H :    0.044254
  73 H :    0.036997

  Mayer bond orders larger than 0.100000
B(  0-C ,  1-N ) :   1.7648 B(  0-C ,  5-C ) :   1.0855 B(  0-C , 62-H ) :   1.0172
B(  1-N ,  2-N ) :   1.1782 B(  2-N ,  3-C ) :   1.7521 B(  3-C ,  4-C ) :   1.0729
B(  3-C ,  9-C ) :   1.1782 B(  4-C ,  5-C ) :   1.1748 B(  4-C ,  8-N ) :   1.6152
B(  5-C ,  6-N ) :   1.6004 B(  6-N ,  7-O ) :   1.0822 B(  6-N ,  8-N ) :   0.1831
B(  7-O ,  8-N ) :   1.0672 B(  9-C , 10-C ) :   1.4766 B(  9-C , 13-S ) :   1.0649
B( 10-C , 11-C ) :   1.2881 B( 10-C , 63-H ) :   0.9809 B( 11-C , 12-C ) :   1.3896
B( 11-C , 16-C ) :   1.0092 B( 12-C , 13-S ) :   1.1402 B( 12-C , 14-C ) :   1.2301
B( 14-C , 15-C ) :   1.4073 B( 14-C , 24-S ) :   1.1025 B( 15-C , 16-C ) :   0.9869
B( 15-C , 22-C ) :   1.3579 B( 16-C , 17-C ) :   1.7057 B( 17-C , 18-C ) :   1.1335
B( 17-C , 20-C ) :   1.1349 B( 18-C , 19-N ) :   2.9919 B( 20-C , 21-N ) :   2.9974
B( 22-C , 23-C ) :   1.3708 B( 22-C , 64-H ) :   0.9874 B( 23-C , 24-S ) :   1.1126
B( 23-C , 25-C ) :   1.2269 B( 25-C , 26-C ) :   1.5533 B( 25-C , 65-H ) :   0.9290
B( 26-C , 27-C ) :   1.1589 B( 26-C , 30-S ) :   1.0505 B( 27-C , 28-C ) :   1.5864
B( 27-C , 66-H ) :   0.9948 B( 28-C , 29-C ) :   1.2044 B( 28-C , 67-H ) :   0.9941
B( 29-C , 30-S ) :   1.0684 B( 29-C , 31-C ) :   1.4588 B( 31-C , 32-C ) :   1.2074
B( 31-C , 35-S ) :   1.0537 B( 32-C , 33-C ) :   1.5677 B( 32-C , 68-H ) :   0.9933
B( 33-C , 34-C ) :   1.1638 B( 33-C , 69-H ) :   1.0002 B( 34-C , 35-S ) :   1.0522
B( 34-C , 36-C ) :   1.5594 B( 36-C , 37-C ) :   1.1994 B( 36-C , 70-H ) :   0.9524
B( 37-C , 38-C ) :   1.3763 B( 37-C , 41-S ) :   1.1022 B( 38-C , 39-C ) :   1.3683
B( 38-C , 71-H ) :   0.9671 B( 39-C , 40-C ) :   1.4112 B( 39-C , 44-C ) :   0.9894
B( 40-C , 41-S ) :   1.1009 B( 40-C , 42-C ) :   1.2331 B( 42-C , 43-C ) :   1.3932
B( 42-C , 52-S ) :   1.1366 B( 43-C , 44-C ) :   1.0067 B( 43-C , 50-C ) :   1.2878
B( 44-C , 45-C ) :   1.7054 B( 45-C , 46-C ) :   1.1380 B( 45-C , 48-C ) :   1.1381
B( 46-C , 47-N ) :   2.9795 B( 48-C , 49-N ) :   2.9971 B( 50-C , 51-C ) :   1.4751
B( 50-C , 72-H ) :   0.9805 B( 51-C , 52-S ) :   1.0657 B( 51-C , 53-C ) :   1.1785
B( 53-C , 54-N ) :   1.7537 B( 53-C , 58-C ) :   1.0741 B( 54-N , 55-N ) :   1.1765
B( 55-N , 56-C ) :   1.7661 B( 56-C , 57-C ) :   1.0853 B( 56-C , 73-H ) :   1.0178
B( 57-C , 58-C ) :   1.1751 B( 57-C , 61-N ) :   1.6000 B( 58-C , 59-N ) :   1.6173
B( 59-N , 60-O ) :   1.0684 B( 59-N , 61-N ) :   0.1830 B( 60-O , 61-N ) :   1.0819

-----------------------------------------------------------------------------
         ABSORPTION SPECTRUM VIA TRANSITION ELECTRIC DIPOLE MOMENTS
-----------------------------------------------------------------------------
State   Energy  Wavelength   fosc         T2         TX        TY        TZ
        (cm-1)    (nm)                  (au**2)     (au)      (au)      (au)
-----------------------------------------------------------------------------
   0    7642.2   1308.5   0.877221310  37.78888   1.26866  -4.38417  -4.11806
   1    9436.7   1059.7   0.064674306   2.25625  -1.24060   0.10087   0.84083
   2   13626.6    733.9   1.223250979  29.55318   1.50576  -3.61954  -3.76627
   3   16903.9    591.6   0.004002019   0.07794  -0.24965  -0.08458   0.09199
   4   17973.3    556.4   0.362936213   6.64781  -2.27288  -1.00168   0.69171
   5   18830.9    531.0   0.008316574   0.14539  -0.14521  -0.32067  -0.14655
   6   19305.3    518.0   0.025075327   0.42761  -0.02092  -0.57526  -0.31024
   7   21559.5    463.8   0.000003282   0.00005   0.00048   0.00186  -0.00681
   8   21564.7    463.7   0.000004294   0.00007  -0.00475   0.00652  -0.00074
   9   22876.9    437.1   0.175384076   2.52388   1.33077   0.83182  -0.24700
  10   24977.1    400.4   0.069874138   0.92098   0.10776   0.83253   0.46504
  11   26006.1    384.5   0.217954482   2.75909   0.05068  -1.29206  -1.04264
  12   26214.7    381.5   0.214616308   2.69522   1.46128   0.22770  -0.71277
  13   27297.1    366.3   0.001225304   0.01478  -0.05225  -0.07704  -0.07819
  14   27587.3    362.5   0.002320039   0.02769  -0.11376  -0.12134  -0.00472
  15   29748.8    336.1   0.228186947   2.52521   1.07721  -0.25863  -1.13927
  16   29762.2    336.0   0.014221670   0.15731  -0.24760   0.04438   0.30666
  17   29927.6    334.1   0.002606503   0.02867   0.10738   0.05179  -0.12025
  18   30172.5    331.4   0.277675468   3.02972   1.31110   0.98967  -0.57558
  19   30370.0    329.3   0.137771173   1.49344   0.39474   1.10915   0.32774
  20   30808.1    324.6   0.144314397   1.54213  -0.94063  -0.65448   0.47853
  21   31902.7    313.5   0.009300510   0.09597  -0.28278  -0.10899   0.06427
  22   32482.4    307.9   0.005949097   0.06029   0.00415  -0.21723  -0.11441
  23   32680.8    306.0   0.103539028   1.04301  -0.39152  -0.86063  -0.38606
  24   32837.6    304.5   0.027323984   0.27394  -0.00337  -0.39424  -0.34423
  25   33113.8    302.0   0.223151357   2.21854   0.35749  -1.03633  -1.00835
  26   33300.2    300.3   0.208927982   2.06550  -0.91010   0.57045   0.95488
  27   33453.4    298.9   0.143943053   1.41653   0.04604  -0.95427  -0.70978
  28   33705.4    296.7   0.371563197   3.62918  -1.45317  -0.31299   1.19144
  29   34221.6    292.2   0.096419963   0.92756   0.28705   0.84755   0.35612
  30   34796.5    287.4   0.011692256   0.11062  -0.15414   0.09229   0.27990
  31   34949.9    286.1   0.113436612   1.06852   0.90244   0.31085  -0.39685
  32   35050.2    285.3   0.304585523   2.86085   1.14989   1.22250  -0.20994
  33   36043.6    277.4   0.056484124   0.51591   0.00740   0.57990   0.42376
  34   36237.6    276.0   0.048892281   0.44418  -0.12446   0.47134   0.45446
  35   36350.1    275.1   0.026377069   0.23889   0.05411   0.39599   0.28135
  36   37093.1    269.6   0.000253784   0.00225   0.02903  -0.01859   0.03262
  37   37211.3    268.7   0.001255330   0.01111   0.06663   0.05670   0.05875
  38   37287.6    268.2   0.053611641   0.47334   0.22994   0.60240   0.23995
  39   37694.0    265.3   0.012932714   0.11295   0.28791   0.11501  -0.12973
  40   38070.0    262.7   0.067534471   0.58401   0.01412  -0.61045  -0.45952
  41   38167.3    262.0   0.020102488   0.17339   0.11180   0.37345   0.14639
  42   38426.5    260.2   0.000464467   0.00398   0.02986  -0.05038   0.02345
  43   38705.8    258.4   0.023022536   0.19582   0.07061   0.37945   0.21645
  44   39086.7    255.8   0.016459707   0.13863  -0.22006  -0.29266  -0.06752
  45   39134.9    255.5   0.007027590   0.05912   0.22222   0.07021  -0.06934
  46   39238.4    254.9   0.009274829   0.07782   0.17291  -0.11820  -0.18425
  47   39378.9    253.9   0.007096855   0.05933  -0.19020  -0.00341   0.15212
  48   39660.5    252.1   0.051166850   0.42472   0.57645   0.17468  -0.24883
  49   39931.8    250.4   0.109211332   0.90038   0.09350   0.81663   0.47408
  50   40037.6    249.8   0.000063624   0.00052  -0.02015  -0.00991  -0.00434

FINAL SINGLE POINT ENERGY     -4800.132307884081

DIPOLE MOMENT
-------------
                                X             Y             Z
Electronic contribution:    -12.89979      -7.88320       3.06092
Nuclear contribution   :     14.78052       7.70603      -4.24170
                        -----------------------------------------
Total Dipole Moment    :      1.88073      -0.17718      -1.18079
                        -----------------------------------------
Magnitude (a.u.)       :      2.22773
Magnitude (Debye)      :      5.66245

Rotational constants in cm-1:     0.002422     0.000237     0.000216
Rotational constants in MHz :    72.595376     7.108795     6.486577

                             ****ORCA TERMINATED NORMALLY****
TOTAL RUN TIME: 0 days 0 hours 7 minutes 6 seconds 299 msec
