                         Program Version 4.2.0 -  RELEASE  -
|  1> # ORCA input file
|  2> # SCF done       -169.880314241620          0.000865459233
|  3> ! CAM-B3LYP def2-SVP def2/J RIJCOSX Grid4 TightSCF
|  4> %maxcore 5000
|  5> %tddft
|  6>     Mode sTDDFT
|  7>     Ethresh 5.0
|  8>     maxcore 5000
|  9> end
| 10>
| 11> %pal
| 12>   nprocs 6
| 13>   end
| 14> * xyz 0 1
| 15>    C        3.27437         0.45582        -8.07903
| 16>    C        3.51744         0.04069        -9.38724
| 17>    N        3.75225        -0.29957       -10.45821
| 18>    C        2.05876         0.64551        -7.45280
| 19>    F        0.88498         0.44811        -8.05004
| 20>    C        2.18784         1.06719        -6.12042
| 21>    F        1.14633         1.31194        -5.32048
| 22>    C        3.50226         1.20478        -5.71194
| 23>    S        4.59509         0.80419        -7.00258
| 24>    C        3.99555         1.59315        -4.47970
| 25>    C        4.45013         1.92811        -3.40302
| 26>    C        5.19373         2.26527        -2.28888
| 27>    C        4.82109         2.65400        -1.01700
| 28>    C        5.93311         2.88592        -0.20037
| 29>    C        7.15211         2.66662        -0.87642
| 30>    S        6.94910         2.18397        -2.49554
| 31>    C        8.21787         2.90905         0.00554
| 32>    C        7.69567         3.28804         1.26257
| 33>    C        6.23590         3.28560         1.16268
| 34>    C        5.34917         3.59627         2.15330
| 35>    C        3.95388         3.56326         1.95083
| 36>    N        2.81877         3.53771         1.79017
| 37>    C        5.77479         3.97132         3.44401
| 38>    N        6.12121         4.27550         4.49426
| 39>    C        8.68958         3.53740         2.19432
| 40>    C        9.97666         3.35079         1.66513
| 41>    S        9.91461         2.86100        -0.02776
| 42>    C       11.19577         3.50788         2.33658
| 43>    C       12.44431         3.29845         1.78535
| 44>    C       13.71663         3.42469         2.39332
| 45>    C       14.77360         3.13314         1.57222
| 46>    C       14.38820         2.76155         0.27158
| 47>    S       12.64892         2.79883         0.12567
| 48>    C       15.08269         2.38120        -0.87133
| 49>    C       16.44436         2.22495        -1.17993
| 50>    C       16.67275         1.81595        -2.46797
| 51>    C       15.50560         1.62583        -3.24553
| 52>    S       14.10655         1.99424        -2.26715
| 53>    C       15.43141         1.21178        -4.56186
| 54>    C       14.26422         1.01968        -5.31170
| 55>    C       12.92619         1.20015        -4.94312
| 56>    C       12.04679         0.89463        -5.96136
| 57>    C       12.67663         0.47036        -7.15107
| 58>    S       14.38458         0.45753        -6.98548
| 59>    C       11.67357         0.18659        -8.10123
| 60>    C       10.40846         0.43108        -7.51259
| 61>    C       10.60109         0.88102        -6.15799
| 62>    C        9.64725         1.22174        -5.23700
| 63>    C        9.96533         1.64640        -3.93252
| 64>    N       10.19524         1.99466        -2.86305
| 65>    C        8.26888         1.17406        -5.51889
| 66>    N        7.13941         1.13996        -5.72010
| 67>    C        9.34439         0.17238        -8.37791
| 68>    C        9.78003        -0.26405        -9.61219
| 69>    S       11.54284        -0.35878        -9.71606
| 70>    C        8.98754        -0.61109       -10.68947
| 71>    C        8.28421        -0.92191       -11.62998
| 72>    C        7.47083        -1.27594       -12.69267
| 73>    C        7.87775        -1.71942       -13.93879
| 74>    C        6.80882        -2.00322       -14.80029
| 75>    C        5.57492        -1.77918       -14.22130
| 76>    S        5.73689        -1.20893       -12.59016
| 77>    C        4.32580        -1.96915       -14.81678
| 78>    N        3.30523        -2.13060       -15.31479
| 79>    F        6.96731        -2.44379       -16.04792
| 80>    F        9.16283        -1.86130       -14.27967
| 81>    H        3.79347         2.75600        -0.71753
| 82>    H        8.52506         3.83752         3.21372
| 83>    H       11.14791         3.81390         3.37313
| 84>    H       13.81869         3.72550         3.42136
| 85>    H       15.80472         3.17633         1.87540
| 86>    H       17.22015         2.41297        -0.45907
| 87>    H       17.65226         1.64427        -2.87885
| 88>    H       16.36981         1.01031        -5.06157
| 89>    H       12.61032         1.53954        -3.97712
| 90>    H        8.30278         0.28953        -8.13845
| 91> *
| 92>
| 93>                          ****END OF INPUT****

CARTESIAN COORDINATES (ANGSTROEM)
---------------------------------
  C      3.274370    0.455820   -8.079030
  C      3.517440    0.040690   -9.387240
  N      3.752250   -0.299570  -10.458210
  C      2.058760    0.645510   -7.452800
  F      0.884980    0.448110   -8.050040
  C      2.187840    1.067190   -6.120420
  F      1.146330    1.311940   -5.320480
  C      3.502260    1.204780   -5.711940
  S      4.595090    0.804190   -7.002580
  C      3.995550    1.593150   -4.479700
  C      4.450130    1.928110   -3.403020
  C      5.193730    2.265270   -2.288880
  C      4.821090    2.654000   -1.017000
  C      5.933110    2.885920   -0.200370
  C      7.152110    2.666620   -0.876420
  S      6.949100    2.183970   -2.495540
  C      8.217870    2.909050    0.005540
  C      7.695670    3.288040    1.262570
  C      6.235900    3.285600    1.162680
  C      5.349170    3.596270    2.153300
  C      3.953880    3.563260    1.950830
  N      2.818770    3.537710    1.790170
  C      5.774790    3.971320    3.444010
  N      6.121210    4.275500    4.494260
  C      8.689580    3.537400    2.194320
  C      9.976660    3.350790    1.665130
  S      9.914610    2.861000   -0.027760
  C     11.195770    3.507880    2.336580
  C     12.444310    3.298450    1.785350
  C     13.716630    3.424690    2.393320
  C     14.773600    3.133140    1.572220
  C     14.388200    2.761550    0.271580
  S     12.648920    2.798830    0.125670
  C     15.082690    2.381200   -0.871330
  C     16.444360    2.224950   -1.179930
  C     16.672750    1.815950   -2.467970
  C     15.505600    1.625830   -3.245530
  S     14.106550    1.994240   -2.267150
  C     15.431410    1.211780   -4.561860
  C     14.264220    1.019680   -5.311700
  C     12.926190    1.200150   -4.943120
  C     12.046790    0.894630   -5.961360
  C     12.676630    0.470360   -7.151070
  S     14.384580    0.457530   -6.985480
  C     11.673570    0.186590   -8.101230
  C     10.408460    0.431080   -7.512590
  C     10.601090    0.881020   -6.157990
  C      9.647250    1.221740   -5.237000
  C      9.965330    1.646400   -3.932520
  N     10.195240    1.994660   -2.863050
  C      8.268880    1.174060   -5.518890
  N      7.139410    1.139960   -5.720100
  C      9.344390    0.172380   -8.377910
  C      9.780030   -0.264050   -9.612190
  S     11.542840   -0.358780   -9.716060
  C      8.987540   -0.611090  -10.689470
  C      8.284210   -0.921910  -11.629980
  C      7.470830   -1.275940  -12.692670
  C      7.877750   -1.719420  -13.938790
  C      6.808820   -2.003220  -14.800290
  C      5.574920   -1.779180  -14.221300
  S      5.736890   -1.208930  -12.590160
  C      4.325800   -1.969150  -14.816780
  N      3.305230   -2.130600  -15.314790
  F      6.967310   -2.443790  -16.047920
  F      9.162830   -1.861300  -14.279670
  H      3.793470    2.756000   -0.717530
  H      8.525060    3.837520    3.213720
  H     11.147910    3.813900    3.373130
  H     13.818690    3.725500    3.421360
  H     15.804720    3.176330    1.875400
  H     17.220150    2.412970   -0.459070
  H     17.652260    1.644270   -2.878850
  H     16.369810    1.010310   -5.061570
  H     12.610320    1.539540   -3.977120
  H      8.302780    0.289530   -8.138450

 Total Charge           Charge          ....    0
 Multiplicity           Mult            ....    1
 Number of Electrons    NEL             ....  504
 Basis Dimension        Dim             .... 1006

ORBITAL ENERGIES
----------------

  NO   OCC          E(Eh)            E(eV)
   0   2.0000     -88.999638     -2421.8033
   1   2.0000     -88.993882     -2421.6466
   2   2.0000     -88.988397     -2421.4974
   3   2.0000     -88.987931     -2421.4847
   4   2.0000     -88.985580     -2421.4207
   5   2.0000     -88.982664     -2421.3414
   6   2.0000     -88.961716     -2420.7714
   7   2.0000     -88.960586     -2420.7406
   8   2.0000     -24.810421      -675.1259
   9   2.0000     -24.807736      -675.0528
  10   2.0000     -24.804760      -674.9718
  11   2.0000     -24.803855      -674.9472
  12   2.0000     -14.449247      -393.1840
  13   2.0000     -14.449104      -393.1801
  14   2.0000     -14.427694      -392.5975
  15   2.0000     -14.426845      -392.5744
  16   2.0000     -14.417650      -392.3242
  17   2.0000     -14.408089      -392.0640
  18   2.0000     -10.393259      -282.8149
  19   2.0000     -10.389521      -282.7132
  20   2.0000     -10.383847      -282.5588
  21   2.0000     -10.382644      -282.5261
  22   2.0000     -10.375912      -282.3429
  23   2.0000     -10.365611      -282.0626
  24   2.0000     -10.360783      -281.9312
  25   2.0000     -10.352038      -281.6933
  26   2.0000     -10.351869      -281.6887
  27   2.0000     -10.351013      -281.6654
  28   2.0000     -10.346739      -281.5491
  29   2.0000     -10.345372      -281.5119
  30   2.0000     -10.341746      -281.4132
  31   2.0000     -10.340147      -281.3697
  32   2.0000     -10.340077      -281.3678
  33   2.0000     -10.339973      -281.3650
  34   2.0000     -10.334285      -281.2102
  35   2.0000     -10.334241      -281.2090
  36   2.0000     -10.332165      -281.1525
  37   2.0000     -10.331590      -281.1369
  38   2.0000     -10.328554      -281.0543
  39   2.0000     -10.328249      -281.0460
  40   2.0000     -10.327437      -281.0239
  41   2.0000     -10.327130      -281.0155
  42   2.0000     -10.325406      -280.9686
  43   2.0000     -10.323164      -280.9076
  44   2.0000     -10.322376      -280.8861
  45   2.0000     -10.321964      -280.8749
  46   2.0000     -10.321458      -280.8611
  47   2.0000     -10.314061      -280.6599
  48   2.0000     -10.312652      -280.6215
  49   2.0000     -10.311483      -280.5897
  50   2.0000     -10.309797      -280.5438
  51   2.0000     -10.306981      -280.4672
  52   2.0000     -10.305867      -280.4369
  53   2.0000     -10.305156      -280.4176
  54   2.0000     -10.304616      -280.4029
  55   2.0000     -10.304472      -280.3989
  56   2.0000     -10.304205      -280.3917
  57   2.0000     -10.303931      -280.3842
  58   2.0000     -10.302600      -280.3480
  59   2.0000     -10.302063      -280.3334
  60   2.0000     -10.301913      -280.3293
  61   2.0000     -10.301862      -280.3279
  62   2.0000     -10.301365      -280.3144
  63   2.0000     -10.301138      -280.3082
  64   2.0000     -10.299738      -280.2701
  65   2.0000     -10.296635      -280.1857
  66   2.0000      -8.094090      -220.2514
  67   2.0000      -8.088245      -220.0923
  68   2.0000      -8.082342      -219.9317
  69   2.0000      -8.082212      -219.9282
  70   2.0000      -8.080119      -219.8712
  71   2.0000      -8.076407      -219.7702
  72   2.0000      -8.057726      -219.2619
  73   2.0000      -8.057327      -219.2510
  74   2.0000      -6.063419      -164.9940
  75   2.0000      -6.059146      -164.8777
  76   2.0000      -6.057527      -164.8337
  77   2.0000      -6.056354      -164.8018
  78   2.0000      -6.053495      -164.7240
  79   2.0000      -6.051883      -164.6801
  80   2.0000      -6.051739      -164.6762
  81   2.0000      -6.050464      -164.6415
  82   2.0000      -6.049655      -164.6195
  83   2.0000      -6.047623      -164.5642
  84   2.0000      -6.047343      -164.5566
  85   2.0000      -6.045639      -164.5102
  86   2.0000      -6.045512      -164.5067
  87   2.0000      -6.044637      -164.4829
  88   2.0000      -6.043492      -164.4518
  89   2.0000      -6.041458      -164.3964
  90   2.0000      -6.041199      -164.3894
  91   2.0000      -6.038908      -164.3270
  92   2.0000      -6.027466      -164.0157
  93   2.0000      -6.027040      -164.0041
  94   2.0000      -6.023218      -163.9001
  95   2.0000      -6.022668      -163.8851
  96   2.0000      -6.018805      -163.7800
  97   2.0000      -6.018352      -163.7677
  98   2.0000      -1.328477       -36.1497
  99   2.0000      -1.326369       -36.0923
 100   2.0000      -1.314590       -35.7718
 101   2.0000      -1.314193       -35.7610
 102   2.0000      -1.054207       -28.6864
 103   2.0000      -1.041929       -28.3523
 104   2.0000      -1.038501       -28.2590
 105   2.0000      -1.027434       -27.9579
 106   2.0000      -1.022485       -27.8232
 107   2.0000      -1.019364       -27.7383
 108   2.0000      -1.019258       -27.7354
 109   2.0000      -1.015802       -27.6414
 110   2.0000      -1.004918       -27.3452
 111   2.0000      -1.003877       -27.3169
 112   2.0000      -0.996900       -27.1270
 113   2.0000      -0.995772       -27.0963
 114   2.0000      -0.987289       -26.8655
 115   2.0000      -0.986724       -26.8501
 116   2.0000      -0.969924       -26.3930
 117   2.0000      -0.956923       -26.0392
 118   2.0000      -0.931024       -25.3345
 119   2.0000      -0.920301       -25.0427
 120   2.0000      -0.905973       -24.6528
 121   2.0000      -0.900459       -24.5027
 122   2.0000      -0.895493       -24.3676
 123   2.0000      -0.883608       -24.0442
 124   2.0000      -0.876861       -23.8606
 125   2.0000      -0.870017       -23.6744
 126   2.0000      -0.868111       -23.6225
 127   2.0000      -0.863273       -23.4909
 128   2.0000      -0.859134       -23.3782
 129   2.0000      -0.856859       -23.3163
 130   2.0000      -0.852903       -23.2087
 131   2.0000      -0.849088       -23.1048
 132   2.0000      -0.845316       -23.0022
 133   2.0000      -0.833933       -22.6925
 134   2.0000      -0.824225       -22.4283
 135   2.0000      -0.802803       -21.8454
 136   2.0000      -0.792375       -21.5616
 137   2.0000      -0.785824       -21.3834
 138   2.0000      -0.776118       -21.1192
 139   2.0000      -0.768843       -20.9213
 140   2.0000      -0.752794       -20.4846
 141   2.0000      -0.744984       -20.2720
 142   2.0000      -0.726676       -19.7739
 143   2.0000      -0.719804       -19.5869
 144   2.0000      -0.712388       -19.3851
 145   2.0000      -0.704807       -19.1788
 146   2.0000      -0.701078       -19.0773
 147   2.0000      -0.697335       -18.9754
 148   2.0000      -0.693113       -18.8606
 149   2.0000      -0.687431       -18.7059
 150   2.0000      -0.680964       -18.5300
 151   2.0000      -0.678724       -18.4690
 152   2.0000      -0.676360       -18.4047
 153   2.0000      -0.667641       -18.1674
 154   2.0000      -0.653025       -17.7697
 155   2.0000      -0.644022       -17.5247
 156   2.0000      -0.643666       -17.5150
 157   2.0000      -0.638595       -17.3770
 158   2.0000      -0.629197       -17.1213
 159   2.0000      -0.627944       -17.0872
 160   2.0000      -0.626159       -17.0387
 161   2.0000      -0.622642       -16.9429
 162   2.0000      -0.616078       -16.7643
 163   2.0000      -0.613859       -16.7040
 164   2.0000      -0.611358       -16.6359
 165   2.0000      -0.609880       -16.5957
 166   2.0000      -0.605854       -16.4861
 167   2.0000      -0.594264       -16.1707
 168   2.0000      -0.593006       -16.1365
 169   2.0000      -0.592699       -16.1282
 170   2.0000      -0.580055       -15.7841
 171   2.0000      -0.571570       -15.5532
 172   2.0000      -0.565225       -15.3806
 173   2.0000      -0.563756       -15.3406
 174   2.0000      -0.559337       -15.2203
 175   2.0000      -0.557154       -15.1609
 176   2.0000      -0.555359       -15.1121
 177   2.0000      -0.554518       -15.0892
 178   2.0000      -0.549060       -14.9407
 179   2.0000      -0.544693       -14.8219
 180   2.0000      -0.540803       -14.7160
 181   2.0000      -0.529110       -14.3978
 182   2.0000      -0.521205       -14.1827
 183   2.0000      -0.520067       -14.1517
 184   2.0000      -0.517363       -14.0782
 185   2.0000      -0.516071       -14.0430
 186   2.0000      -0.514298       -13.9948
 187   2.0000      -0.514284       -13.9944
 188   2.0000      -0.513167       -13.9640
 189   2.0000      -0.509785       -13.8720
 190   2.0000      -0.505977       -13.7683
 191   2.0000      -0.503532       -13.7018
 192   2.0000      -0.502953       -13.6860
 193   2.0000      -0.500014       -13.6061
 194   2.0000      -0.499773       -13.5995
 195   2.0000      -0.495673       -13.4879
 196   2.0000      -0.495073       -13.4716
 197   2.0000      -0.491860       -13.3842
 198   2.0000      -0.490821       -13.3559
 199   2.0000      -0.488460       -13.2917
 200   2.0000      -0.487391       -13.2626
 201   2.0000      -0.483505       -13.1568
 202   2.0000      -0.480052       -13.0629
 203   2.0000      -0.477753       -13.0003
 204   2.0000      -0.475300       -12.9336
 205   2.0000      -0.474509       -12.9120
 206   2.0000      -0.471146       -12.8205
 207   2.0000      -0.468176       -12.7397
 208   2.0000      -0.460755       -12.5378
 209   2.0000      -0.460264       -12.5244
 210   2.0000      -0.458716       -12.4823
 211   2.0000      -0.454756       -12.3745
 212   2.0000      -0.454457       -12.3664
 213   2.0000      -0.452925       -12.3247
 214   2.0000      -0.451497       -12.2859
 215   2.0000      -0.451411       -12.2835
 216   2.0000      -0.449045       -12.2191
 217   2.0000      -0.442914       -12.0523
 218   2.0000      -0.440569       -11.9885
 219   2.0000      -0.437675       -11.9098
 220   2.0000      -0.436085       -11.8665
 221   2.0000      -0.435969       -11.8633
 222   2.0000      -0.435132       -11.8406
 223   2.0000      -0.434796       -11.8314
 224   2.0000      -0.433669       -11.8007
 225   2.0000      -0.426635       -11.6093
 226   2.0000      -0.426581       -11.6078
 227   2.0000      -0.419979       -11.4282
 228   2.0000      -0.414458       -11.2780
 229   2.0000      -0.409799       -11.1512
 230   2.0000      -0.405706       -11.0398
 231   2.0000      -0.402985       -10.9658
 232   2.0000      -0.398052       -10.8316
 233   2.0000      -0.387715       -10.5503
 234   2.0000      -0.384276       -10.4567
 235   2.0000      -0.370523       -10.0824
 236   2.0000      -0.365473        -9.9450
 237   2.0000      -0.363212        -9.8835
 238   2.0000      -0.358912        -9.7665
 239   2.0000      -0.355761        -9.6807
 240   2.0000      -0.346837        -9.4379
 241   2.0000      -0.346550        -9.4301
 242   2.0000      -0.336474        -9.1559
 243   2.0000      -0.333341        -9.0707
 244   2.0000      -0.331909        -9.0317
 245   2.0000      -0.331163        -9.0114
 246   2.0000      -0.322158        -8.7664
 247   2.0000      -0.316648        -8.6164
 248   2.0000      -0.300544        -8.1782
 249   2.0000      -0.276794        -7.5320
 250   2.0000      -0.256453        -6.9784
 251   2.0000      -0.218371        -5.9422
 252   0.0000      -0.122952        -3.3457
 253   0.0000      -0.108336        -2.9480
 254   0.0000      -0.088300        -2.4028
 255   0.0000      -0.063078        -1.7164
 256   0.0000      -0.055259        -1.5037

MULLIKEN ATOMIC CHARGES
-----------------------
   0 C :   -0.337236
   1 C :   -0.125754
   2 N :    0.120693
   3 C :    0.285397
   4 F :   -0.146189
   5 C :    0.217083
   6 F :   -0.155231
   7 C :   -0.202605
   8 S :    0.254251
   9 C :    0.037796
  10 C :    0.015475
  11 C :   -0.154936
  12 C :    0.022744
  13 C :   -0.009974
  14 C :   -0.060851
  15 S :    0.183778
  16 C :   -0.074036
  17 C :    0.041909
  18 C :    0.289975
  19 C :   -0.295835
  20 C :   -0.193708
  21 N :    0.174612
  22 C :   -0.184659
  23 N :    0.169685
  24 C :   -0.044564
  25 C :   -0.058432
  26 S :    0.167191
  27 C :    0.029120
  28 C :   -0.037344
  29 C :    0.046024
  30 C :    0.028905
  31 C :   -0.003205
  32 S :    0.029647
  33 C :   -0.020862
  34 C :    0.038191
  35 C :    0.026149
  36 C :   -0.019206
  37 S :    0.021996
  38 C :    0.036337
  39 C :   -0.091524
  40 C :   -0.049613
  41 C :   -0.008861
  42 C :   -0.101119
  43 S :    0.186679
  44 C :   -0.094399
  45 C :   -0.017317
  46 C :    0.334861
  47 C :   -0.310963
  48 C :   -0.169893
  49 N :    0.157103
  50 C :   -0.195825
  51 N :    0.177013
  52 C :    0.008633
  53 C :   -0.152180
  54 S :    0.229432
  55 C :    0.017185
  56 C :    0.023514
  57 C :   -0.220070
  58 C :    0.213574
  59 C :    0.279655
  60 C :   -0.345347
  61 S :    0.298994
  62 C :   -0.128987
  63 N :    0.142107
  64 F :   -0.148046
  65 F :   -0.161061
  66 H :    0.015146
  67 H :    0.004821
  68 H :   -0.002242
  69 H :   -0.005005
  70 H :   -0.009873
  71 H :   -0.007758
  72 H :   -0.008366
  73 H :   -0.016402
  74 H :    0.034601
  75 H :    0.009200
Sum of atomic charges:   -0.0000000

LOEWDIN ATOMIC CHARGES
----------------------
   0 C :   -0.267068
   1 C :   -0.043236
   2 N :   -0.063374
   3 C :    0.056387
   4 F :   -0.030524
   5 C :    0.031419
   6 F :   -0.039051
   7 C :   -0.196412
   8 S :    0.531642
   9 C :   -0.047294
  10 C :   -0.027164
  11 C :   -0.184701
  12 C :   -0.003876
  13 C :   -0.077578
  14 C :   -0.163911
  15 S :    0.504223
  16 C :   -0.195530
  17 C :   -0.063361
  18 C :    0.082717
  19 C :   -0.105767
  20 C :   -0.018358
  21 N :   -0.032233
  22 C :   -0.015855
  23 N :   -0.037132
  24 C :   -0.021727
  25 C :   -0.170388
  26 S :    0.510910
  27 C :   -0.052110
  28 C :   -0.163613
  29 C :   -0.019768
  30 C :   -0.042003
  31 C :   -0.166710
  32 S :    0.386168
  33 C :   -0.181481
  34 C :   -0.030192
  35 C :   -0.034696
  36 C :   -0.139795
  37 S :    0.405271
  38 C :   -0.085676
  39 C :   -0.152668
  40 C :   -0.047755
  41 C :   -0.059313
  42 C :   -0.201837
  43 S :    0.467484
  44 C :   -0.159639
  45 C :   -0.088196
  46 C :    0.095170
  47 C :   -0.116760
  48 C :   -0.003735
  49 N :   -0.060746
  50 C :   -0.002408
  51 N :   -0.058646
  52 C :   -0.004798
  53 C :   -0.189350
  54 S :    0.494255
  55 C :   -0.034184
  56 C :   -0.043017
  57 C :   -0.212459
  58 C :    0.032811
  59 C :    0.052186
  60 C :   -0.255956
  61 S :    0.554358
  62 C :   -0.052543
  63 N :   -0.034860
  64 F :   -0.032307
  65 F :   -0.043065
  66 H :    0.047137
  67 H :    0.039864
  68 H :    0.044576
  69 H :    0.036336
  70 H :    0.034528
  71 H :    0.035506
  72 H :    0.034435
  73 H :    0.034567
  74 H :    0.019139
  75 H :    0.043737

  Mayer bond orders larger than 0.100000
B(  0-C ,  1-C ) :   1.1901 B(  0-C ,  3-C ) :   1.4626 B(  0-C ,  7-C ) :   0.1492
B(  0-C ,  8-S ) :   1.0908 B(  1-C ,  2-N ) :   3.0046 B(  3-C ,  4-F ) :   1.2140
B(  3-C ,  5-C ) :   1.2157 B(  5-C ,  6-F ) :   1.2061 B(  5-C ,  7-C ) :   1.4276
B(  7-C ,  8-S ) :   1.1287 B(  7-C ,  9-C ) :   0.9744 B(  9-C , 10-C ) :   2.3395
B( 10-C , 11-C ) :   1.0069 B( 11-C , 12-C ) :   1.4503 B( 11-C , 15-S ) :   1.0758
B( 12-C , 13-C ) :   1.2788 B( 12-C , 66-H ) :   1.0070 B( 13-C , 14-C ) :   1.4048
B( 13-C , 18-C ) :   1.0015 B( 14-C , 15-S ) :   1.1386 B( 14-C , 16-C ) :   1.2106
B( 16-C , 17-C ) :   1.3718 B( 16-C , 26-S ) :   1.1493 B( 17-C , 18-C ) :   0.9778
B( 17-C , 24-C ) :   1.3511 B( 18-C , 19-C ) :   1.7143 B( 19-C , 20-C ) :   1.1321
B( 19-C , 22-C ) :   1.1332 B( 20-C , 21-N ) :   2.9995 B( 22-C , 23-N ) :   2.9934
B( 24-C , 25-C ) :   1.3419 B( 24-C , 67-H ) :   1.0048 B( 25-C , 26-S ) :   1.0734
B( 25-C , 27-C ) :   1.2272 B( 27-C , 28-C ) :   1.5146 B( 27-C , 68-H ) :   0.9751
B( 28-C , 29-C ) :   1.1672 B( 28-C , 32-S ) :   1.0380 B( 29-C , 30-C ) :   1.5655
B( 29-C , 69-H ) :   0.9977 B( 30-C , 31-C ) :   1.2098 B( 30-C , 70-H ) :   0.9964
B( 31-C , 32-S ) :   1.0532 B( 31-C , 33-C ) :   1.4552 B( 33-C , 34-C ) :   1.2194
B( 33-C , 37-S ) :   1.0439 B( 34-C , 35-C ) :   1.5569 B( 34-C , 71-H ) :   0.9963
B( 35-C , 36-C ) :   1.1742 B( 35-C , 72-H ) :   0.9983 B( 36-C , 37-S ) :   1.0555
B( 36-C , 38-C ) :   1.5409 B( 38-C , 39-C ) :   1.2114 B( 38-C , 73-H ) :   0.9557
B( 39-C , 40-C ) :   1.3659 B( 39-C , 43-S ) :   1.1020 B( 40-C , 41-C ) :   1.3742
B( 40-C , 74-H ) :   0.9590 B( 41-C , 42-C ) :   1.4148 B( 41-C , 46-C ) :   0.9922
B( 42-C , 43-S ) :   1.0975 B( 42-C , 44-C ) :   1.2285 B( 44-C , 45-C ) :   1.3960
B( 44-C , 54-S ) :   1.1401 B( 45-C , 46-C ) :   1.0150 B( 45-C , 52-C ) :   1.2775
B( 46-C , 47-C ) :   1.6730 B( 47-C , 48-C ) :   1.1461 B( 47-C , 50-C ) :   1.1529
B( 48-C , 49-N ) :   2.9523 B( 50-C , 51-N ) :   2.9674 B( 52-C , 53-C ) :   1.4752
B( 52-C , 75-H ) :   1.0006 B( 53-C , 54-S ) :   1.0587 B( 53-C , 55-C ) :   0.9890
B( 55-C , 56-C ) :   2.3373 B( 56-C , 57-C ) :   0.9679 B( 57-C , 58-C ) :   1.4404
B( 57-C , 60-C ) :   0.1490 B( 57-C , 61-S ) :   1.1037 B( 58-C , 59-C ) :   1.2278
B( 58-C , 65-F ) :   1.1953 B( 59-C , 60-C ) :   1.4543 B( 59-C , 64-F ) :   1.2101
B( 60-C , 61-S ) :   1.1254 B( 60-C , 62-C ) :   1.1894 B( 62-C , 63-N ) :   3.0183

-----------------------------------------------------------------------------
         ABSORPTION SPECTRUM VIA TRANSITION ELECTRIC DIPOLE MOMENTS
-----------------------------------------------------------------------------
State   Energy  Wavelength   fosc         T2         TX        TY        TZ
        (cm-1)    (nm)                  (au**2)     (au)      (au)      (au)
-----------------------------------------------------------------------------
   0    5387.2   1856.2   0.088796967   5.42638  -0.20864   0.71550   2.20701
   1    9155.1   1092.3   0.215628836   7.75392  -2.58353   0.38944   0.96313
   2   13450.6    743.5   0.204610218   5.00796   1.66705  -0.49815  -1.40740
   3   13736.3    728.0   0.288522567   6.91488  -0.00875  -0.80508  -2.50333
   4   17147.3    583.2   0.088501222   1.69914  -0.69491  -0.31340  -1.05736
   5   18948.5    527.7   0.029091495   0.50544   0.07760  -0.21167  -0.67425
   6   21722.3    460.4   0.350808037   5.31666  -1.17097  -0.58628  -1.89783
   7   22377.3    446.9   2.274164611  33.45719   3.98353   1.17923   4.02469
   8   23828.0    419.7   0.114602863   1.58338  -1.22346  -0.08584  -0.28133
   9   24097.2    415.0   0.053424985   0.72988   0.38674  -0.21265  -0.73150
  10   24344.1    410.8   0.022965721   0.31057   0.11399   0.16619   0.51958
  11   27411.4    364.8   0.164575070   1.97655  -1.39061  -0.00922  -0.20657
  12   27814.0    359.5   0.003749948   0.04439   0.18881  -0.04434  -0.08227
  13   27983.9    357.3   0.038613098   0.45426   0.05273  -0.17034  -0.64997
  14   28271.1    353.7   0.092499919   1.07715   1.03781  -0.00556   0.00854
  15   29032.4    344.4   0.090308839   1.02405   0.30218  -0.30521  -0.91629
  16   29694.1    336.8   0.063863695   0.70804   0.78346  -0.14416  -0.27102
  17   29942.1    334.0   0.001629661   0.01792  -0.12412  -0.03352   0.03725
  18   30203.3    331.1   0.761887921   8.30448   1.49633  -0.81457  -2.32421
  19   30429.2    328.6   0.540531410   5.84798  -0.96222   0.69838   2.10579
  20   30642.5    326.3   0.587349547   6.31026   2.00502   0.44457   1.44656
  21   31241.6    320.1   0.007735719   0.08152   0.23434  -0.08856  -0.13696
  22   31769.4    314.8   0.437464144   4.53325   0.70206   0.59388   1.92033
  23   32454.1    308.1   0.047552509   0.48237  -0.67462  -0.00353  -0.16505
  24   32644.7    306.3   0.297013272   2.99529  -1.25083   0.36167   1.14014
  25   32733.5    305.5   0.032198965   0.32384   0.32565  -0.13853  -0.44565
  26   32805.4    304.8   0.077485642   0.77759   0.36145  -0.25700  -0.76216
  27   32898.0    304.0   0.000233460   0.00234  -0.02422   0.00518   0.04151
  28   33433.0    299.1   0.142456046   1.40275   0.57401   0.32968   0.98213
  29   33796.9    295.9   0.009135355   0.08899  -0.29119  -0.01431  -0.06317
  30   33971.2    294.4   0.000502214   0.00487   0.04612  -0.02157  -0.04769
  31   34372.1    290.9   0.039622666   0.37950  -0.49625   0.13017   0.34102
  32   34535.6    289.6   0.004073825   0.03883  -0.15216   0.06332   0.10804
  33   34666.8    288.5   0.036057142   0.34241  -0.57146  -0.02658  -0.12307
  34   35112.8    284.8   0.013243378   0.12417   0.28114  -0.05936  -0.20397
  35   35311.2    283.2   0.001618882   0.01509  -0.10480   0.05460   0.03360
  36   35356.8    282.8   0.024979586   0.23259  -0.22853   0.11894   0.40770
  37   35644.5    280.5   0.000727348   0.00672   0.06112   0.01865   0.05132
  38   35905.3    278.5   0.020092937   0.18423   0.10230   0.11784   0.39985
  39   35951.2    278.2   0.002500174   0.02289  -0.06862  -0.03679  -0.12974
  40   36809.0    271.7   0.046461856   0.41555  -0.18399  -0.18217  -0.59034
  41   37002.3    270.3   0.015745055   0.14008  -0.06276   0.10322   0.35425
  42   37313.9    268.0   0.026258296   0.23167  -0.42362  -0.05796  -0.22103
  43   37336.8    267.8   0.000260254   0.00229   0.04545  -0.00997   0.01138
  44   37376.7    267.5   0.000108369   0.00095   0.01271   0.02816   0.00012
  45   37551.9    266.3   0.009857125   0.08642   0.23082   0.05802   0.17255
  46   38149.8    262.1   0.033195236   0.28646  -0.26834   0.13537   0.44286
  47   38627.2    258.9   0.002177816   0.01856  -0.06590  -0.04069  -0.11208
  48   38798.0    257.7   0.000214016   0.00182  -0.00855   0.03455  -0.02344
  49   39014.2    256.3   0.073116933   0.61698   0.71867   0.07646   0.30764
  50   39137.1    255.5   0.009074980   0.07634   0.13305  -0.06615  -0.23293
  51   39188.5    255.2   0.001427848   0.01199   0.10774  -0.01250  -0.01520
  52   39821.0    251.1   0.027878787   0.23048   0.47811  -0.02665  -0.03435
  53   39861.2    250.9   0.000749872   0.00619  -0.06996   0.03385  -0.01239
  54   39968.8    250.2   0.012708864   0.10468  -0.27938  -0.04913  -0.15560
  55   40056.2    249.6   0.000530455   0.00436   0.06359   0.00331   0.01746
  56   40159.8    249.0   0.004973245   0.04077   0.14323  -0.05030  -0.13313

FINAL SINGLE POINT ENERGY     -5744.038358232854

DIPOLE MOMENT
-------------
                                X             Y             Z
Electronic contribution:    -45.04003     -17.56414     -58.24142
Nuclear contribution   :     51.33532      18.12097      60.40456
                        -----------------------------------------
Total Dipole Moment    :      6.29529       0.55682       2.16314
                        -----------------------------------------
Magnitude (a.u.)       :      6.67982
Magnitude (Debye)      :     16.97874

Rotational constants in cm-1:     0.001090     0.000502     0.000344
Rotational constants in MHz :    32.679500    15.062501    10.311932

                             ****ORCA TERMINATED NORMALLY****
TOTAL RUN TIME: 0 days 0 hours 7 minutes 45 seconds 574 msec
