                         Program Version 4.2.0 -  RELEASE  -
|  1> # ORCA input file
|  2> # SCF done       -141.182371901450          0.000405377165
|  3> ! CAM-B3LYP def2-SVP def2/J RIJCOSX Grid4 TightSCF
|  4> %maxcore 5000
|  5> %tddft
|  6>     Mode sTDDFT
|  7>     Ethresh 5.0
|  8>     maxcore 5000
|  9> end
| 10>
| 11> %pal
| 12>   nprocs 6
| 13>   end
| 14> * xyz 0 1
| 15>    C        1.88441        -4.30040         4.24135
| 16>    S        1.90298        -3.36473         2.80035
| 17>    C        1.16083        -4.64000         1.87653
| 18>    C        0.92677        -5.72360         2.69476
| 19>    C        1.33732        -5.54002         4.04598
| 20>    C        1.07046        -6.70143         4.83542
| 21>    C        0.49653        -7.69646         4.12842
| 22>    C        0.08129        -9.04114         4.60238
| 23>    S        0.23494        -7.28320         2.42810
| 24>    C        0.85000        -4.58424         0.49110
| 25>    O        0.27621        -5.68153        -0.03721
| 26>    C        0.06173        -5.46289        -1.35989
| 27>    C        0.50455        -4.19842        -1.69098
| 28>    C        1.00993        -3.62982        -0.50500
| 29>    C        1.59266        -2.27250        -0.37057
| 30>    F        2.87422        -2.28865         0.04869
| 31>    F        1.58615        -1.60421        -1.53096
| 32>    F        0.92730        -1.50059         0.51312
| 33>    C       -0.54002        -6.48069        -2.14844
| 34>    C       -0.95353        -7.65826        -1.62086
| 35>    C       -1.55457        -8.71226        -2.34319
| 36>    S       -1.78977        -8.66174        -4.07533
| 37>    C       -2.52954       -10.23688        -4.10534
| 38>    C       -2.58484       -10.75018        -2.82364
| 39>    C       -2.03746        -9.90961        -1.82541
| 40>    C       -2.12169       -10.50260        -0.53403
| 41>    C       -2.70229       -11.72403        -0.55335
| 42>    C       -2.96045       -12.63448         0.59107
| 43>    S       -3.18847       -12.23283        -2.17180
| 44>    C       -2.99777       -10.89496        -5.26994
| 45>    O       -3.57313       -12.10205        -5.09516
| 46>    C       -3.94542       -12.58176        -6.30846
| 47>    C       -3.60459       -11.66862        -7.28614
| 48>    C       -2.99700       -10.58437        -6.62516
| 49>    C       -2.46124        -9.36402        -7.27557
| 50>    F       -3.06253        -8.23292        -6.85409
| 51>    F       -1.14317        -9.18409        -7.05378
| 52>    F       -2.61528        -9.39565        -8.60600
| 53>    C       -4.58216       -13.84928        -6.40396
| 54>    C       -4.85652       -14.61456        -5.32191
| 55>    C       -5.48691       -15.88031        -5.35140
| 56>    S       -5.98702       -16.66233        -6.83601
| 57>    C       -6.60818       -18.03545        -6.00266
| 58>    C       -6.44150       -17.89984        -4.66027
| 59>    C       -5.80603       -16.68385        -4.26819
| 60>    C       -5.66158       -16.59461        -2.85628
| 61>    C       -6.15487       -17.67245        -2.20441
| 62>    C       -6.18206       -17.92544        -0.74182
| 63>    S       -6.83728       -18.88824        -3.28422
| 64>    H        2.27831        -3.88097         5.14491
| 65>    H        1.30513        -6.77070         5.88206
| 66>    H        0.29636        -9.14922         5.66237
| 67>    H        0.61178        -9.81840         4.05269
| 68>    H       -0.98622        -9.18867         4.44096
| 69>    H        0.47259        -3.73334        -2.65428
| 70>    H       -0.65945        -6.27078        -3.20082
| 71>    H       -0.82734        -7.82588        -0.55938
| 72>    H       -1.76138       -10.03003         0.36185
| 73>    H       -2.59693       -12.18927         1.51381
| 74>    H       -2.46044       -13.59061         0.43837
| 75>    H       -4.02810       -12.82973         0.68981
| 76>    H       -3.76640       -11.75938        -8.34009
| 77>    H       -4.84436       -14.18002        -7.39797
| 78>    H       -4.58239       -14.24844        -4.34128
| 79>    H       -7.04983       -18.84080        -6.55289
| 80>    H       -5.20839       -15.75713        -2.35679
| 81>    H       -5.73255       -17.09168        -0.20807
| 82>    H       -5.63478       -18.83693        -0.50220
| 83>    H       -7.20768       -18.05597        -0.39703
| 84> *
| 85>
| 86>                          ****END OF INPUT****

CARTESIAN COORDINATES (ANGSTROEM)
---------------------------------
  C      1.884410   -4.300400    4.241350
  S      1.902980   -3.364730    2.800350
  C      1.160830   -4.640000    1.876530
  C      0.926770   -5.723600    2.694760
  C      1.337320   -5.540020    4.045980
  C      1.070460   -6.701430    4.835420
  C      0.496530   -7.696460    4.128420
  C      0.081290   -9.041140    4.602380
  S      0.234940   -7.283200    2.428100
  C      0.850000   -4.584240    0.491100
  O      0.276210   -5.681530   -0.037210
  C      0.061730   -5.462890   -1.359890
  C      0.504550   -4.198420   -1.690980
  C      1.009930   -3.629820   -0.505000
  C      1.592660   -2.272500   -0.370570
  F      2.874220   -2.288650    0.048690
  F      1.586150   -1.604210   -1.530960
  F      0.927300   -1.500590    0.513120
  C     -0.540020   -6.480690   -2.148440
  C     -0.953530   -7.658260   -1.620860
  C     -1.554570   -8.712260   -2.343190
  S     -1.789770   -8.661740   -4.075330
  C     -2.529540  -10.236880   -4.105340
  C     -2.584840  -10.750180   -2.823640
  C     -2.037460   -9.909610   -1.825410
  C     -2.121690  -10.502600   -0.534030
  C     -2.702290  -11.724030   -0.553350
  C     -2.960450  -12.634480    0.591070
  S     -3.188470  -12.232830   -2.171800
  C     -2.997770  -10.894960   -5.269940
  O     -3.573130  -12.102050   -5.095160
  C     -3.945420  -12.581760   -6.308460
  C     -3.604590  -11.668620   -7.286140
  C     -2.997000  -10.584370   -6.625160
  C     -2.461240   -9.364020   -7.275570
  F     -3.062530   -8.232920   -6.854090
  F     -1.143170   -9.184090   -7.053780
  F     -2.615280   -9.395650   -8.606000
  C     -4.582160  -13.849280   -6.403960
  C     -4.856520  -14.614560   -5.321910
  C     -5.486910  -15.880310   -5.351400
  S     -5.987020  -16.662330   -6.836010
  C     -6.608180  -18.035450   -6.002660
  C     -6.441500  -17.899840   -4.660270
  C     -5.806030  -16.683850   -4.268190
  C     -5.661580  -16.594610   -2.856280
  C     -6.154870  -17.672450   -2.204410
  C     -6.182060  -17.925440   -0.741820
  S     -6.837280  -18.888240   -3.284220
  H      2.278310   -3.880970    5.144910
  H      1.305130   -6.770700    5.882060
  H      0.296360   -9.149220    5.662370
  H      0.611780   -9.818400    4.052690
  H     -0.986220   -9.188670    4.440960
  H      0.472590   -3.733340   -2.654280
  H     -0.659450   -6.270780   -3.200820
  H     -0.827340   -7.825880   -0.559380
  H     -1.761380  -10.030030    0.361850
  H     -2.596930  -12.189270    1.513810
  H     -2.460440  -13.590610    0.438370
  H     -4.028100  -12.829730    0.689810
  H     -3.766400  -11.759380   -8.340090
  H     -4.844360  -14.180020   -7.397970
  H     -4.582390  -14.248440   -4.341280
  H     -7.049830  -18.840800   -6.552890
  H     -5.208390  -15.757130   -2.356790
  H     -5.732550  -17.091680   -0.208070
  H     -5.634780  -18.836930   -0.502200
  H     -7.207680  -18.055970   -0.397030

 Total Charge           Charge          ....    0
 Multiplicity           Mult            ....    1
 Number of Electrons    NEL             ....  396
 Basis Dimension        Dim             ....  810

ORBITAL ENERGIES
----------------

  NO   OCC          E(Eh)            E(eV)
   0   2.0000     -88.962345     -2420.7885
   1   2.0000     -88.959094     -2420.7000
   2   2.0000     -88.952858     -2420.5303
   3   2.0000     -88.948634     -2420.4154
   4   2.0000     -88.947715     -2420.3904
   5   2.0000     -88.940462     -2420.1930
   6   2.0000     -24.793230      -674.6581
   7   2.0000     -24.792897      -674.6490
   8   2.0000     -24.787254      -674.4955
   9   2.0000     -24.787093      -674.4911
  10   2.0000     -24.786944      -674.4870
  11   2.0000     -24.786693      -674.4802
  12   2.0000     -19.299025      -525.1532
  13   2.0000     -19.297952      -525.1240
  14   2.0000     -10.512323      -286.0548
  15   2.0000     -10.512164      -286.0505
  16   2.0000     -10.352288      -281.7001
  17   2.0000     -10.350513      -281.6518
  18   2.0000     -10.333194      -281.1805
  19   2.0000     -10.332961      -281.1742
  20   2.0000     -10.310416      -280.5607
  21   2.0000     -10.308151      -280.4991
  22   2.0000     -10.305630      -280.4304
  23   2.0000     -10.304649      -280.4037
  24   2.0000     -10.303693      -280.3777
  25   2.0000     -10.303556      -280.3740
  26   2.0000     -10.300075      -280.2793
  27   2.0000     -10.299619      -280.2669
  28   2.0000     -10.297163      -280.2001
  29   2.0000     -10.295774      -280.1622
  30   2.0000     -10.294197      -280.1193
  31   2.0000     -10.292838      -280.0823
  32   2.0000     -10.287714      -279.9429
  33   2.0000     -10.287667      -279.9416
  34   2.0000     -10.282944      -279.8131
  35   2.0000     -10.282147      -279.7914
  36   2.0000     -10.281521      -279.7744
  37   2.0000     -10.280809      -279.7550
  38   2.0000     -10.280642      -279.7505
  39   2.0000     -10.280579      -279.7488
  40   2.0000     -10.280567      -279.7485
  41   2.0000     -10.280081      -279.7352
  42   2.0000     -10.278976      -279.7052
  43   2.0000     -10.278212      -279.6844
  44   2.0000     -10.277429      -279.6631
  45   2.0000     -10.276277      -279.6317
  46   2.0000     -10.272972      -279.5418
  47   2.0000     -10.272075      -279.5174
  48   2.0000     -10.269283      -279.4414
  49   2.0000      -8.057122      -219.2454
  50   2.0000      -8.053611      -219.1499
  51   2.0000      -8.048151      -219.0013
  52   2.0000      -8.043877      -218.8850
  53   2.0000      -8.043083      -218.8634
  54   2.0000      -8.036834      -218.6934
  55   2.0000      -6.026682      -163.9943
  56   2.0000      -6.023134      -163.8978
  57   2.0000      -6.022014      -163.8673
  58   2.0000      -6.019285      -163.7931
  59   2.0000      -6.018870      -163.7818
  60   2.0000      -6.017491      -163.7443
  61   2.0000      -6.015455      -163.6888
  62   2.0000      -6.013720      -163.6416
  63   2.0000      -6.013261      -163.6292
  64   2.0000      -6.012957      -163.6209
  65   2.0000      -6.010358      -163.5502
  66   2.0000      -6.009443      -163.5253
  67   2.0000      -6.008673      -163.5043
  68   2.0000      -6.006709      -163.4508
  69   2.0000      -6.005051      -163.4057
  70   2.0000      -6.004149      -163.3812
  71   2.0000      -6.002565      -163.3381
  72   2.0000      -5.997611      -163.2033
  73   2.0000      -1.378893       -37.5216
  74   2.0000      -1.378702       -37.5164
  75   2.0000      -1.283409       -34.9233
  76   2.0000      -1.282988       -34.9119
  77   2.0000      -1.277398       -34.7598
  78   2.0000      -1.277383       -34.7594
  79   2.0000      -1.219677       -33.1891
  80   2.0000      -1.218044       -33.1447
  81   2.0000      -1.004902       -27.3448
  82   2.0000      -1.003678       -27.3115
  83   2.0000      -0.996611       -27.1192
  84   2.0000      -0.947925       -25.7943
  85   2.0000      -0.945199       -25.7202
  86   2.0000      -0.940286       -25.5865
  87   2.0000      -0.921442       -25.0737
  88   2.0000      -0.918592       -24.9962
  89   2.0000      -0.915984       -24.9252
  90   2.0000      -0.906315       -24.6621
  91   2.0000      -0.883608       -24.0442
  92   2.0000      -0.864111       -23.5136
  93   2.0000      -0.850610       -23.1463
  94   2.0000      -0.847307       -23.0564
  95   2.0000      -0.846116       -23.0240
  96   2.0000      -0.841859       -22.9081
  97   2.0000      -0.826767       -22.4975
  98   2.0000      -0.823469       -22.4077
  99   2.0000      -0.798879       -21.7386
 100   2.0000      -0.796981       -21.6869
 101   2.0000      -0.787499       -21.4289
 102   2.0000      -0.777143       -21.1471
 103   2.0000      -0.773915       -21.0593
 104   2.0000      -0.772088       -21.0096
 105   2.0000      -0.768101       -20.9011
 106   2.0000      -0.751687       -20.4544
 107   2.0000      -0.728791       -19.8314
 108   2.0000      -0.714753       -19.4494
 109   2.0000      -0.710125       -19.3235
 110   2.0000      -0.699369       -19.0308
 111   2.0000      -0.687754       -18.7147
 112   2.0000      -0.685868       -18.6634
 113   2.0000      -0.670580       -18.2474
 114   2.0000      -0.661239       -17.9932
 115   2.0000      -0.661112       -17.9898
 116   2.0000      -0.658277       -17.9126
 117   2.0000      -0.657717       -17.8974
 118   2.0000      -0.648314       -17.6415
 119   2.0000      -0.636466       -17.3191
 120   2.0000      -0.633773       -17.2458
 121   2.0000      -0.630402       -17.1541
 122   2.0000      -0.629257       -17.1230
 123   2.0000      -0.622757       -16.9461
 124   2.0000      -0.618940       -16.8422
 125   2.0000      -0.614599       -16.7241
 126   2.0000      -0.599174       -16.3044
 127   2.0000      -0.588517       -16.0144
 128   2.0000      -0.584574       -15.9071
 129   2.0000      -0.580382       -15.7930
 130   2.0000      -0.571916       -15.5626
 131   2.0000      -0.567629       -15.4460
 132   2.0000      -0.566392       -15.4123
 133   2.0000      -0.556914       -15.1544
 134   2.0000      -0.548355       -14.9215
 135   2.0000      -0.539679       -14.6854
 136   2.0000      -0.538858       -14.6631
 137   2.0000      -0.537952       -14.6384
 138   2.0000      -0.537819       -14.6348
 139   2.0000      -0.534962       -14.5571
 140   2.0000      -0.526968       -14.3395
 141   2.0000      -0.518798       -14.1172
 142   2.0000      -0.518175       -14.1003
 143   2.0000      -0.517771       -14.0893
 144   2.0000      -0.515098       -14.0165
 145   2.0000      -0.513895       -13.9838
 146   2.0000      -0.506588       -13.7850
 147   2.0000      -0.504864       -13.7381
 148   2.0000      -0.503096       -13.6899
 149   2.0000      -0.500394       -13.6164
 150   2.0000      -0.498885       -13.5753
 151   2.0000      -0.496666       -13.5150
 152   2.0000      -0.496320       -13.5056
 153   2.0000      -0.493847       -13.4383
 154   2.0000      -0.491429       -13.3725
 155   2.0000      -0.490706       -13.3528
 156   2.0000      -0.489896       -13.3307
 157   2.0000      -0.487910       -13.2767
 158   2.0000      -0.486644       -13.2423
 159   2.0000      -0.484746       -13.1906
 160   2.0000      -0.475035       -12.9264
 161   2.0000      -0.474983       -12.9249
 162   2.0000      -0.471791       -12.8381
 163   2.0000      -0.468768       -12.7558
 164   2.0000      -0.465429       -12.6650
 165   2.0000      -0.465219       -12.6593
 166   2.0000      -0.463420       -12.6103
 167   2.0000      -0.460689       -12.5360
 168   2.0000      -0.458193       -12.4681
 169   2.0000      -0.454568       -12.3694
 170   2.0000      -0.452991       -12.3265
 171   2.0000      -0.452230       -12.3058
 172   2.0000      -0.444778       -12.1030
 173   2.0000      -0.437751       -11.9118
 174   2.0000      -0.422418       -11.4946
 175   2.0000      -0.417439       -11.3591
 176   2.0000      -0.412494       -11.2245
 177   2.0000      -0.410110       -11.1597
 178   2.0000      -0.409165       -11.1340
 179   2.0000      -0.408140       -11.1061
 180   2.0000      -0.406949       -11.0736
 181   2.0000      -0.404359       -11.0032
 182   2.0000      -0.401382       -10.9222
 183   2.0000      -0.401039       -10.9128
 184   2.0000      -0.386852       -10.5268
 185   2.0000      -0.375224       -10.2104
 186   2.0000      -0.373153       -10.1540
 187   2.0000      -0.369093       -10.0435
 188   2.0000      -0.349028        -9.4975
 189   2.0000      -0.339400        -9.2355
 190   2.0000      -0.309965        -8.4346
 191   2.0000      -0.303074        -8.2471
 192   2.0000      -0.296870        -8.0783
 193   2.0000      -0.294345        -8.0095
 194   2.0000      -0.293488        -7.9862
 195   2.0000      -0.265691        -7.2298
 196   2.0000      -0.242395        -6.5959
 197   2.0000      -0.215096        -5.8530
 198   0.0000      -0.062059        -1.6887
 199   0.0000      -0.032296        -0.8788
 200   0.0000      -0.014324        -0.3898
 201   0.0000       0.022016         0.5991
 202   0.0000       0.031459         0.8560

MULLIKEN ATOMIC CHARGES
-----------------------
   0 C :   -0.127991
   1 S :    0.167378
   2 C :   -0.225974
   3 C :   -0.000067
   4 C :    0.118156
   5 C :    0.016975
   6 C :   -0.198892
   7 C :    0.113474
   8 S :    0.107773
   9 C :    0.173598
  10 O :   -0.215603
  11 C :    0.197162
  12 C :   -0.065185
  13 C :   -0.166595
  14 C :    0.527482
  15 F :   -0.168828
  16 F :   -0.154573
  17 F :   -0.169159
  18 C :   -0.025841
  19 C :   -0.009352
  20 C :   -0.073198
  21 S :    0.146299
  22 C :   -0.200734
  23 C :   -0.008607
  24 C :    0.104407
  25 C :    0.003032
  26 C :   -0.198856
  27 C :    0.117782
  28 S :    0.114536
  29 C :    0.170362
  30 O :   -0.216325
  31 C :    0.199812
  32 C :   -0.067511
  33 C :   -0.163869
  34 C :    0.531035
  35 F :   -0.169613
  36 F :   -0.169181
  37 F :   -0.156060
  38 C :   -0.034867
  39 C :    0.002579
  40 C :   -0.111213
  41 S :    0.110988
  42 C :   -0.150822
  43 C :    0.003896
  44 C :    0.107724
  45 C :    0.011103
  46 C :   -0.209854
  47 C :    0.114863
  48 S :    0.092895
  49 H :    0.019939
  50 H :   -0.026734
  51 H :    0.023077
  52 H :    0.035738
  53 H :    0.034099
  54 H :   -0.005836
  55 H :    0.001179
  56 H :   -0.001626
  57 H :   -0.028981
  58 H :    0.019433
  59 H :    0.034148
  60 H :    0.034962
  61 H :   -0.007577
  62 H :   -0.005571
  63 H :   -0.004210
  64 H :    0.020905
  65 H :   -0.028193
  66 H :    0.018226
  67 H :    0.035979
  68 H :    0.036506
Sum of atomic charges:   -0.0000000

LOEWDIN ATOMIC CHARGES
----------------------
   0 C :   -0.186958
   1 S :    0.475027
   2 C :   -0.230157
   3 C :   -0.178857
   4 C :   -0.077192
   5 C :   -0.070705
   6 C :   -0.144076
   7 C :   -0.060459
   8 S :    0.380373
   9 C :    0.044863
  10 O :    0.017692
  11 C :    0.032392
  12 C :   -0.041534
  13 C :   -0.139195
  14 C :    0.164662
  15 F :   -0.069741
  16 F :   -0.054679
  17 F :   -0.070080
  18 C :   -0.046093
  19 C :   -0.033152
  20 C :   -0.168668
  21 S :    0.458498
  22 C :   -0.218020
  23 C :   -0.179319
  24 C :   -0.068190
  25 C :   -0.071109
  26 C :   -0.143876
  27 C :   -0.059706
  28 S :    0.385694
  29 C :    0.038789
  30 O :    0.016013
  31 C :    0.036362
  32 C :   -0.046513
  33 C :   -0.136393
  34 C :    0.164692
  35 F :   -0.069856
  36 F :   -0.069695
  37 F :   -0.055704
  38 C :   -0.056344
  39 C :   -0.024851
  40 C :   -0.183476
  41 S :    0.435437
  42 C :   -0.206056
  43 C :   -0.192115
  44 C :   -0.066800
  45 C :   -0.075114
  46 C :   -0.139384
  47 C :   -0.059604
  48 S :    0.360397
  49 H :    0.025749
  50 H :    0.029125
  51 H :    0.039061
  52 H :    0.038253
  53 H :    0.037361
  54 H :    0.037062
  55 H :    0.033784
  56 H :    0.033571
  57 H :    0.027101
  58 H :    0.037804
  59 H :    0.038042
  60 H :    0.038152
  61 H :    0.036063
  62 H :    0.031348
  63 H :    0.033205
  64 H :    0.025314
  65 H :    0.026895
  66 H :    0.037037
  67 H :    0.038854
  68 H :    0.038998

  Mayer bond orders larger than 0.100000
B(  0-C ,  1-S ) :   1.1663 B(  0-C ,  2-C ) :   0.1142 B(  0-C ,  4-C ) :   1.4792
B(  0-C , 49-H ) :   0.9684 B(  1-S ,  2-C ) :   1.1569 B(  2-C ,  3-C ) :   1.5024
B(  2-C ,  9-C ) :   1.1358 B(  3-C ,  4-C ) :   1.2388 B(  3-C ,  8-S ) :   1.0521
B(  4-C ,  5-C ) :   1.0956 B(  5-C ,  6-C ) :   1.7098 B(  5-C , 50-H ) :   1.0000
B(  6-C ,  7-C ) :   1.0704 B(  6-C ,  8-S ) :   1.0463 B(  7-C , 51-H ) :   0.9578
B(  7-C , 52-H ) :   0.9493 B(  7-C , 53-H ) :   0.9492 B(  9-C , 10-O ) :   1.1860
B(  9-C , 11-C ) :   0.1044 B(  9-C , 13-C ) :   1.4764 B( 10-O , 11-C ) :   1.1079
B( 11-C , 12-C ) :   1.4329 B( 11-C , 18-C ) :   1.1590 B( 12-C , 13-C ) :   1.2282
B( 12-C , 54-H ) :   1.0218 B( 13-C , 14-C ) :   0.9518 B( 14-C , 15-F ) :   1.1677
B( 14-C , 16-F ) :   1.1833 B( 14-C , 17-F ) :   1.1669 B( 18-C , 19-C ) :   1.6237
B( 18-C , 55-H ) :   0.9648 B( 19-C , 20-C ) :   1.1712 B( 19-C , 56-H ) :   0.9754
B( 20-C , 21-S ) :   1.0938 B( 20-C , 22-C ) :   0.1150 B( 20-C , 24-C ) :   1.3928
B( 21-S , 22-C ) :   1.1351 B( 22-C , 23-C ) :   1.4980 B( 22-C , 29-C ) :   1.1434
B( 23-C , 24-C ) :   1.2476 B( 23-C , 28-S ) :   1.0478 B( 24-C , 25-C ) :   1.1399
B( 25-C , 26-C ) :   1.6877 B( 25-C , 57-H ) :   0.9918 B( 26-C , 27-C ) :   1.0704
B( 26-C , 28-S ) :   1.0571 B( 27-C , 58-H ) :   0.9576 B( 27-C , 59-H ) :   0.9485
B( 27-C , 60-H ) :   0.9486 B( 29-C , 30-O ) :   1.1792 B( 29-C , 31-C ) :   0.1039
B( 29-C , 33-C ) :   1.4622 B( 30-O , 31-C ) :   1.1138 B( 31-C , 32-C ) :   1.4294
B( 31-C , 38-C ) :   1.1559 B( 32-C , 33-C ) :   1.2342 B( 32-C , 61-H ) :   1.0215
B( 33-C , 34-C ) :   0.9536 B( 34-C , 35-F ) :   1.1646 B( 34-C , 36-F ) :   1.1664
B( 34-C , 37-F ) :   1.1807 B( 38-C , 39-C ) :   1.6403 B( 38-C , 62-H ) :   0.9643
B( 39-C , 40-C ) :   1.1646 B( 39-C , 63-H ) :   0.9747 B( 40-C , 41-S ) :   1.1107
B( 40-C , 44-C ) :   1.4161 B( 41-S , 42-C ) :   1.1582 B( 42-C , 43-C ) :   1.5524
B( 42-C , 64-H ) :   0.9765 B( 43-C , 44-C ) :   1.2241 B( 43-C , 48-S ) :   1.0128
B( 44-C , 45-C ) :   1.1455 B( 45-C , 46-C ) :   1.6833 B( 45-C , 65-H ) :   0.9897
B( 46-C , 47-C ) :   1.0733 B( 46-C , 48-S ) :   1.0716 B( 47-C , 66-H ) :   0.9579
B( 47-C , 67-H ) :   0.9483 B( 47-C , 68-H ) :   0.9482

-----------------------------------------------------------------------------
         ABSORPTION SPECTRUM VIA TRANSITION ELECTRIC DIPOLE MOMENTS
-----------------------------------------------------------------------------
State   Energy  Wavelength   fosc         T2         TX        TY        TZ
        (cm-1)    (nm)                  (au**2)     (au)      (au)      (au)
-----------------------------------------------------------------------------
   0   18345.0    545.1   1.628780979  29.22946   2.42471   4.12300   2.52014
   1   24977.6    400.4   0.233062943   3.07184  -0.14518  -0.85686   1.52202
   2   25787.1    387.8   0.075268116   0.96091  -0.22407  -0.66986   0.67970
   3   28848.9    346.6   0.007076329   0.08075  -0.03163  -0.11374   0.25849
   4   30230.4    330.8   0.036293802   0.39524  -0.44119  -0.37855  -0.23935
   5   33290.9    300.4   0.079316719   0.78436   0.26461   0.71258  -0.45450
   6   33414.0    299.3   0.106266605   1.04699   0.40342   0.88398  -0.32065
   7   35219.0    283.9   0.006388083   0.05971  -0.08081  -0.23014  -0.01482
   8   35970.5    278.0   0.353383083   3.23426   0.17143   1.02383  -1.46855
   9   36500.6    274.0   0.106837674   0.96361   0.37775   0.90340   0.06919
  10   36853.8    271.3   0.105890256   0.94591   0.22849   0.26221   0.90827
  11   37100.8    269.5   0.380599107   3.37723   0.35493   1.07585  -1.44699
  12   37681.2    265.4   0.017582025   0.15361  -0.18420  -0.29650  -0.17823
  13   39006.3    256.4   0.078997483   0.66674   0.15639   0.56514  -0.56824
  14   39186.9    255.2   0.000213289   0.00179  -0.02923  -0.02898  -0.00986

FINAL SINGLE POINT ENERGY     -4481.207391532943

DIPOLE MOMENT
-------------
                                X             Y             Z
Electronic contribution:     21.13431      59.16419     -39.74694
Nuclear contribution   :    -21.70041     -61.17757      41.85900
                        -----------------------------------------
Total Dipole Moment    :     -0.56611      -2.01338       2.11206
                        -----------------------------------------
Magnitude (a.u.)       :      2.97237
Magnitude (Debye)      :      7.55516

Rotational constants in cm-1:     0.002665     0.000567     0.000471
Rotational constants in MHz :    79.900544    17.010172    14.120319

                             ****ORCA TERMINATED NORMALLY****
TOTAL RUN TIME: 0 days 0 hours 4 minutes 12 seconds 923 msec
