                         Program Version 4.2.0 -  RELEASE  -
|  1> # ORCA input file
|  2> # SCF done       -129.812698894616          0.000463333593
|  3> ! CAM-B3LYP def2-SVP def2/J RIJCOSX Grid4 TightSCF
|  4> %maxcore 5000
|  5> %tddft
|  6>     Mode sTDDFT
|  7>     Ethresh 5.0
|  8>     maxcore 5000
|  9> end
| 10>
| 11> %pal
| 12>   nprocs 6
| 13>   end
| 14> * xyz 0 1
| 15>    C        0.34319        -0.42492         1.38254
| 16>    S       -0.87726        -1.61416         1.62361
| 17>    C       -0.49482        -2.43119         0.12524
| 18>    C        0.54393        -1.76708        -0.49093
| 19>    C        1.02413        -0.62520         0.21419
| 20>    C        2.09591         0.01468        -0.48149
| 21>    C        2.41307        -0.59684        -1.64023
| 22>    C        3.45829        -0.22561        -2.62657
| 23>    S        1.41305        -2.01639        -1.97076
| 24>    C       -1.17072        -3.59039        -0.32973
| 25>    C       -2.24699        -4.28092         0.19838
| 26>    C       -2.61572        -5.41758        -0.56180
| 27>    S       -3.93491        -6.51966        -0.19029
| 28>    C       -4.24464        -6.13587         1.56608
| 29>    C       -4.52202        -4.66501         1.75623
| 30>    S       -2.97682        -3.70212         1.68982
| 31>    C       -1.84336        -5.59930        -1.70119
| 32>    S       -0.62086        -4.34764        -1.79628
| 33>    C       -1.91931        -6.62616        -2.68607
| 34>    S       -3.02424        -7.96484        -2.50629
| 35>    C       -2.47755        -8.71684        -3.97352
| 36>    C       -1.48323        -7.95475        -4.58781
| 37>    C       -1.18528        -6.77507        -3.85665
| 38>    O       -0.25336        -5.89513        -4.31922
| 39>    C       -0.83304        -8.36369        -5.85667
| 40>    O       -1.10997        -9.37742        -6.44962
| 41>    O        0.10646        -7.54588        -6.34105
| 42>    C       -3.02263        -9.94780        -4.39784
| 43>    C       -4.00957       -10.60856        -3.74091
| 44>    C       -4.54763       -11.84293        -4.16119
| 45>    C       -5.56082       -12.57035        -3.54882
| 46>    C       -5.85495       -13.78093        -4.20532
| 47>    S       -7.05838       -14.96488        -3.71186
| 48>    C       -7.32903       -14.47055        -1.97655
| 49>    C       -7.73396       -13.01842        -1.88232
| 50>    S       -6.29286       -11.92373        -2.08652
| 51>    C       -5.07948       -13.98344        -5.34383
| 52>    S       -3.97141       -12.66100        -5.58348
| 53>    C       -5.08681       -15.06607        -6.25596
| 54>    S       -6.25204       -16.36770        -6.14416
| 55>    C       -5.59754       -17.18753        -7.50853
| 56>    C       -4.54254       -16.50010        -8.01924
| 57>    C       -4.23392       -15.28805        -7.33140
| 58>    C       -3.12198       -14.62506        -7.92222
| 59>    C       -2.61279       -15.28365        -8.98873
| 60>    C       -1.46191       -14.88858        -9.83783
| 61>    S       -3.46608       -16.78104        -9.35456
| 62>    H        0.47700         0.34601         2.11357
| 63>    H        2.59531         0.89262        -0.11345
| 64>    H        4.01622         0.63865        -2.27497
| 65>    H        3.00539         0.01286        -3.58875
| 66>    H        4.14736        -1.05508        -2.78160
| 67>    H       -3.38885        -6.46177         2.15772
| 68>    H       -5.11542        -6.73997         1.82039
| 69>    H       -4.92401        -4.45932         2.74842
| 70>    H       -5.20931        -4.28851         0.99827
| 71>    H       -0.19283        -5.11065        -3.76200
| 72>    H        0.23852        -6.76591        -5.77521
| 73>    H       -2.60509       -10.36017        -5.30603
| 74>    H       -4.43091       -10.18988        -2.83401
| 75>    H       -6.42165       -14.67018        -1.40572
| 76>    H       -8.12883       -15.12535        -1.63085
| 77>    H       -8.12317       -12.77912        -0.89246
| 78>    H       -8.47932       -12.76590        -2.63724
| 79>    H       -6.02517       -18.11357        -7.83309
| 80>    H       -2.71579       -13.69541        -7.56949
| 81>    H       -1.04837       -13.94541        -9.48994
| 82>    H       -1.77397       -14.77853       -10.87625
| 83>    H       -0.68444       -15.65185        -9.80536
| 84> *
| 85>
| 86>                          ****END OF INPUT****

CARTESIAN COORDINATES (ANGSTROEM)
---------------------------------
  C      0.343190   -0.424920    1.382540
  S     -0.877260   -1.614160    1.623610
  C     -0.494820   -2.431190    0.125240
  C      0.543930   -1.767080   -0.490930
  C      1.024130   -0.625200    0.214190
  C      2.095910    0.014680   -0.481490
  C      2.413070   -0.596840   -1.640230
  C      3.458290   -0.225610   -2.626570
  S      1.413050   -2.016390   -1.970760
  C     -1.170720   -3.590390   -0.329730
  C     -2.246990   -4.280920    0.198380
  C     -2.615720   -5.417580   -0.561800
  S     -3.934910   -6.519660   -0.190290
  C     -4.244640   -6.135870    1.566080
  C     -4.522020   -4.665010    1.756230
  S     -2.976820   -3.702120    1.689820
  C     -1.843360   -5.599300   -1.701190
  S     -0.620860   -4.347640   -1.796280
  C     -1.919310   -6.626160   -2.686070
  S     -3.024240   -7.964840   -2.506290
  C     -2.477550   -8.716840   -3.973520
  C     -1.483230   -7.954750   -4.587810
  C     -1.185280   -6.775070   -3.856650
  O     -0.253360   -5.895130   -4.319220
  C     -0.833040   -8.363690   -5.856670
  O     -1.109970   -9.377420   -6.449620
  O      0.106460   -7.545880   -6.341050
  C     -3.022630   -9.947800   -4.397840
  C     -4.009570  -10.608560   -3.740910
  C     -4.547630  -11.842930   -4.161190
  C     -5.560820  -12.570350   -3.548820
  C     -5.854950  -13.780930   -4.205320
  S     -7.058380  -14.964880   -3.711860
  C     -7.329030  -14.470550   -1.976550
  C     -7.733960  -13.018420   -1.882320
  S     -6.292860  -11.923730   -2.086520
  C     -5.079480  -13.983440   -5.343830
  S     -3.971410  -12.661000   -5.583480
  C     -5.086810  -15.066070   -6.255960
  S     -6.252040  -16.367700   -6.144160
  C     -5.597540  -17.187530   -7.508530
  C     -4.542540  -16.500100   -8.019240
  C     -4.233920  -15.288050   -7.331400
  C     -3.121980  -14.625060   -7.922220
  C     -2.612790  -15.283650   -8.988730
  C     -1.461910  -14.888580   -9.837830
  S     -3.466080  -16.781040   -9.354560
  H      0.477000    0.346010    2.113570
  H      2.595310    0.892620   -0.113450
  H      4.016220    0.638650   -2.274970
  H      3.005390    0.012860   -3.588750
  H      4.147360   -1.055080   -2.781600
  H     -3.388850   -6.461770    2.157720
  H     -5.115420   -6.739970    1.820390
  H     -4.924010   -4.459320    2.748420
  H     -5.209310   -4.288510    0.998270
  H     -0.192830   -5.110650   -3.762000
  H      0.238520   -6.765910   -5.775210
  H     -2.605090  -10.360170   -5.306030
  H     -4.430910  -10.189880   -2.834010
  H     -6.421650  -14.670180   -1.405720
  H     -8.128830  -15.125350   -1.630850
  H     -8.123170  -12.779120   -0.892460
  H     -8.479320  -12.765900   -2.637240
  H     -6.025170  -18.113570   -7.833090
  H     -2.715790  -13.695410   -7.569490
  H     -1.048370  -13.945410   -9.489940
  H     -1.773970  -14.778530  -10.876250
  H     -0.684440  -15.651850   -9.805360

 Total Charge           Charge          ....    0
 Multiplicity           Mult            ....    1
 Number of Electrons    NEL             ....  420
 Basis Dimension        Dim             ....  812

ORBITAL ENERGIES
----------------

  NO   OCC          E(Eh)            E(eV)
   0   2.0000     -88.968163     -2420.9468
   1   2.0000     -88.958316     -2420.6788
   2   2.0000     -88.953518     -2420.5483
   3   2.0000     -88.948107     -2420.4010
   4   2.0000     -88.946216     -2420.3496
   5   2.0000     -88.945495     -2420.3300
   6   2.0000     -88.937445     -2420.1109
   7   2.0000     -88.936196     -2420.0769
   8   2.0000     -88.931951     -2419.9614
   9   2.0000     -88.928258     -2419.8609
  10   2.0000     -88.927704     -2419.8459
  11   2.0000     -19.272760      -524.4385
  12   2.0000     -19.225251      -523.1457
  13   2.0000     -19.171505      -521.6832
  14   2.0000     -10.382369      -282.5186
  15   2.0000     -10.347106      -281.5591
  16   2.0000     -10.318039      -280.7681
  17   2.0000     -10.315473      -280.6983
  18   2.0000     -10.313181      -280.6359
  19   2.0000     -10.312943      -280.6295
  20   2.0000     -10.311604      -280.5930
  21   2.0000     -10.310755      -280.5699
  22   2.0000     -10.309010      -280.5224
  23   2.0000     -10.306347      -280.4500
  24   2.0000     -10.306194      -280.4458
  25   2.0000     -10.305657      -280.4312
  26   2.0000     -10.305343      -280.4226
  27   2.0000     -10.304610      -280.4027
  28   2.0000     -10.303567      -280.3743
  29   2.0000     -10.301212      -280.3102
  30   2.0000     -10.298188      -280.2279
  31   2.0000     -10.296271      -280.1758
  32   2.0000     -10.294636      -280.1313
  33   2.0000     -10.292883      -280.0836
  34   2.0000     -10.290465      -280.0178
  35   2.0000     -10.290073      -280.0071
  36   2.0000     -10.284776      -279.8630
  37   2.0000     -10.283655      -279.8325
  38   2.0000     -10.277932      -279.6767
  39   2.0000     -10.277646      -279.6690
  40   2.0000     -10.277473      -279.6643
  41   2.0000     -10.276845      -279.6472
  42   2.0000     -10.270125      -279.4643
  43   2.0000     -10.269207      -279.4393
  44   2.0000     -10.264420      -279.3091
  45   2.0000     -10.263089      -279.2729
  46   2.0000     -10.257364      -279.1171
  47   2.0000      -8.063422      -219.4169
  48   2.0000      -8.052797      -219.1277
  49   2.0000      -8.048404      -219.0082
  50   2.0000      -8.042825      -218.8564
  51   2.0000      -8.041898      -218.8312
  52   2.0000      -8.040435      -218.7914
  53   2.0000      -8.032869      -218.5855
  54   2.0000      -8.031693      -218.5535
  55   2.0000      -8.028246      -218.4597
  56   2.0000      -8.023770      -218.3379
  57   2.0000      -8.023076      -218.3190
  58   2.0000      -6.032969      -164.1654
  59   2.0000      -6.029175      -164.0622
  60   2.0000      -6.024799      -163.9431
  61   2.0000      -6.022381      -163.8773
  62   2.0000      -6.017866      -163.7545
  63   2.0000      -6.017739      -163.7510
  64   2.0000      -6.014970      -163.6757
  65   2.0000      -6.013719      -163.6416
  66   2.0000      -6.012377      -163.6051
  67   2.0000      -6.011816      -163.5898
  68   2.0000      -6.010093      -163.5429
  69   2.0000      -6.009881      -163.5372
  70   2.0000      -6.007765      -163.4796
  71   2.0000      -6.007503      -163.4725
  72   2.0000      -6.005898      -163.4288
  73   2.0000      -6.004964      -163.4034
  74   2.0000      -6.003352      -163.3595
  75   2.0000      -6.002884      -163.3468
  76   2.0000      -6.002143      -163.3266
  77   2.0000      -6.002084      -163.3250
  78   2.0000      -5.999173      -163.2458
  79   2.0000      -5.998075      -163.2159
  80   2.0000      -5.997991      -163.2136
  81   2.0000      -5.994211      -163.1108
  82   2.0000      -5.993931      -163.1032
  83   2.0000      -5.993561      -163.0931
  84   2.0000      -5.992419      -163.0620
  85   2.0000      -5.991216      -163.0293
  86   2.0000      -5.990169      -163.0008
  87   2.0000      -5.989418      -162.9803
  88   2.0000      -5.989165      -162.9735
  89   2.0000      -5.983335      -162.8148
  90   2.0000      -5.982598      -162.7948
  91   2.0000      -1.170635       -31.8546
  92   2.0000      -1.150382       -31.3035
  93   2.0000      -1.067845       -29.0575
  94   2.0000      -1.012557       -27.5531
  95   2.0000      -0.998100       -27.1597
  96   2.0000      -0.995147       -27.0793
  97   2.0000      -0.982293       -26.7295
  98   2.0000      -0.977781       -26.6068
  99   2.0000      -0.941604       -25.6223
 100   2.0000      -0.938474       -25.5372
 101   2.0000      -0.931601       -25.3502
 102   2.0000      -0.928668       -25.2704
 103   2.0000      -0.903944       -24.5976
 104   2.0000      -0.893897       -24.3242
 105   2.0000      -0.870879       -23.6978
 106   2.0000      -0.863139       -23.4872
 107   2.0000      -0.852971       -23.2105
 108   2.0000      -0.850586       -23.1456
 109   2.0000      -0.844782       -22.9877
 110   2.0000      -0.843079       -22.9413
 111   2.0000      -0.837817       -22.7982
 112   2.0000      -0.830574       -22.6011
 113   2.0000      -0.821654       -22.3583
 114   2.0000      -0.810313       -22.0497
 115   2.0000      -0.792967       -21.5777
 116   2.0000      -0.774976       -21.0882
 117   2.0000      -0.768249       -20.9051
 118   2.0000      -0.758869       -20.6499
 119   2.0000      -0.753531       -20.5046
 120   2.0000      -0.748097       -20.3568
 121   2.0000      -0.735324       -20.0092
 122   2.0000      -0.724790       -19.7225
 123   2.0000      -0.709969       -19.3193
 124   2.0000      -0.705964       -19.2103
 125   2.0000      -0.697596       -18.9825
 126   2.0000      -0.690365       -18.7858
 127   2.0000      -0.679398       -18.4874
 128   2.0000      -0.653698       -17.7880
 129   2.0000      -0.649226       -17.6663
 130   2.0000      -0.638039       -17.3619
 131   2.0000      -0.632046       -17.1989
 132   2.0000      -0.627810       -17.0836
 133   2.0000      -0.621370       -16.9083
 134   2.0000      -0.614166       -16.7123
 135   2.0000      -0.604267       -16.4430
 136   2.0000      -0.597060       -16.2468
 137   2.0000      -0.595761       -16.2115
 138   2.0000      -0.584854       -15.9147
 139   2.0000      -0.572596       -15.5811
 140   2.0000      -0.567619       -15.4457
 141   2.0000      -0.565134       -15.3781
 142   2.0000      -0.552349       -15.0302
 143   2.0000      -0.549984       -14.9658
 144   2.0000      -0.543523       -14.7900
 145   2.0000      -0.537919       -14.6375
 146   2.0000      -0.533946       -14.5294
 147   2.0000      -0.532619       -14.4933
 148   2.0000      -0.529711       -14.4142
 149   2.0000      -0.527007       -14.3406
 150   2.0000      -0.518423       -14.1070
 151   2.0000      -0.517809       -14.0903
 152   2.0000      -0.513450       -13.9717
 153   2.0000      -0.508331       -13.8324
 154   2.0000      -0.506210       -13.7747
 155   2.0000      -0.505789       -13.7632
 156   2.0000      -0.503695       -13.7062
 157   2.0000      -0.498849       -13.5744
 158   2.0000      -0.493603       -13.4316
 159   2.0000      -0.492729       -13.4078
 160   2.0000      -0.491377       -13.3710
 161   2.0000      -0.488275       -13.2866
 162   2.0000      -0.485118       -13.2007
 163   2.0000      -0.482802       -13.1377
 164   2.0000      -0.480072       -13.0634
 165   2.0000      -0.475819       -12.9477
 166   2.0000      -0.474544       -12.9130
 167   2.0000      -0.468558       -12.7501
 168   2.0000      -0.462796       -12.5933
 169   2.0000      -0.459775       -12.5111
 170   2.0000      -0.456540       -12.4231
 171   2.0000      -0.455839       -12.4040
 172   2.0000      -0.453408       -12.3379
 173   2.0000      -0.447325       -12.1723
 174   2.0000      -0.445583       -12.1249
 175   2.0000      -0.440119       -11.9763
 176   2.0000      -0.437374       -11.9015
 177   2.0000      -0.429126       -11.6771
 178   2.0000      -0.425251       -11.5717
 179   2.0000      -0.422201       -11.4887
 180   2.0000      -0.418391       -11.3850
 181   2.0000      -0.413944       -11.2640
 182   2.0000      -0.412529       -11.2255
 183   2.0000      -0.405054       -11.0221
 184   2.0000      -0.402171       -10.9436
 185   2.0000      -0.399942       -10.8830
 186   2.0000      -0.397726       -10.8227
 187   2.0000      -0.391424       -10.6512
 188   2.0000      -0.390643       -10.6299
 189   2.0000      -0.386435       -10.5154
 190   2.0000      -0.379610       -10.3297
 191   2.0000      -0.373507       -10.1636
 192   2.0000      -0.371602       -10.1118
 193   2.0000      -0.368891       -10.0380
 194   2.0000      -0.364440        -9.9169
 195   2.0000      -0.363226        -9.8839
 196   2.0000      -0.344415        -9.3720
 197   2.0000      -0.337442        -9.1823
 198   2.0000      -0.332203        -9.0397
 199   2.0000      -0.325305        -8.8520
 200   2.0000      -0.314226        -8.5505
 201   2.0000      -0.309059        -8.4099
 202   2.0000      -0.300485        -8.1766
 203   2.0000      -0.287669        -7.8279
 204   2.0000      -0.284585        -7.7440
 205   2.0000      -0.279475        -7.6049
 206   2.0000      -0.267287        -7.2732
 207   2.0000      -0.258637        -7.0379
 208   2.0000      -0.235912        -6.4195
 209   2.0000      -0.210115        -5.7175
 210   0.0000      -0.057990        -1.5780
 211   0.0000      -0.026393        -0.7182
 212   0.0000      -0.001235        -0.0336
 213   0.0000       0.019839         0.5399
 214   0.0000       0.023964         0.6521

MULLIKEN ATOMIC CHARGES
-----------------------
   0 C :   -0.134444
   1 S :    0.135610
   2 C :   -0.141737
   3 C :   -0.067285
   4 C :    0.135193
   5 C :    0.013463
   6 C :   -0.191072
   7 C :    0.118391
   8 S :    0.078139
   9 C :   -0.068370
  10 C :   -0.040403
  11 C :   -0.058397
  12 S :   -0.006566
  13 C :   -0.044390
  14 C :   -0.032770
  15 S :   -0.011933
  16 C :   -0.052987
  17 S :    0.023172
  18 C :   -0.129666
  19 S :    0.108751
  20 C :   -0.078533
  21 C :   -0.045423
  22 C :    0.117797
  23 O :   -0.222367
  24 C :    0.154314
  25 O :   -0.196498
  26 O :   -0.161802
  27 C :   -0.022240
  28 C :    0.004781
  29 C :   -0.088571
  30 C :   -0.006981
  31 C :   -0.057327
  32 S :   -0.010355
  33 C :   -0.042624
  34 C :   -0.043673
  35 S :   -0.015394
  36 C :   -0.081471
  37 S :    0.106211
  38 C :   -0.124521
  39 S :    0.126035
  40 C :   -0.141719
  41 C :   -0.007118
  42 C :    0.076667
  43 C :    0.005913
  44 C :   -0.215244
  45 C :    0.113298
  46 S :    0.092116
  47 H :    0.015776
  48 H :   -0.027970
  49 H :    0.021967
  50 H :    0.037044
  51 H :    0.035700
  52 H :    0.075650
  53 H :    0.061501
  54 H :    0.060744
  55 H :    0.075203
  56 H :    0.188056
  57 H :    0.179395
  58 H :    0.025712
  59 H :    0.007710
  60 H :    0.073410
  61 H :    0.057855
  62 H :    0.056550
  63 H :    0.072842
  64 H :    0.016662
  65 H :   -0.001364
  66 H :    0.030737
  67 H :    0.034151
  68 H :    0.034699
Sum of atomic charges:    0.0000000

LOEWDIN ATOMIC CHARGES
----------------------
   0 C :   -0.199589
   1 S :    0.452926
   2 C :   -0.220971
   3 C :   -0.200493
   4 C :   -0.075491
   5 C :   -0.069246
   6 C :   -0.141741
   7 C :   -0.058981
   8 S :    0.354038
   9 C :   -0.202065
  10 C :   -0.213216
  11 C :   -0.219056
  12 S :    0.300905
  13 C :   -0.142523
  14 C :   -0.142652
  15 S :    0.299920
  16 C :   -0.199198
  17 S :    0.425029
  18 C :   -0.242969
  19 S :    0.451110
  20 C :   -0.122401
  21 C :   -0.145897
  22 C :    0.026905
  23 O :   -0.040633
  24 C :    0.084954
  25 O :   -0.180053
  26 O :   -0.034605
  27 C :   -0.056242
  28 C :   -0.031327
  29 C :   -0.201880
  30 C :   -0.198379
  31 C :   -0.225605
  32 S :    0.293471
  33 C :   -0.142941
  34 C :   -0.144049
  35 S :    0.295699
  36 C :   -0.185890
  37 S :    0.462603
  38 C :   -0.205231
  39 S :    0.448514
  40 C :   -0.216031
  41 C :   -0.191194
  42 C :   -0.073932
  43 C :   -0.083671
  44 C :   -0.137450
  45 C :   -0.059191
  46 S :    0.361742
  47 H :    0.023636
  48 H :    0.029345
  49 H :    0.038950
  50 H :    0.039357
  51 H :    0.038732
  52 H :    0.029162
  53 H :    0.034580
  54 H :    0.034206
  55 H :    0.028551
  56 H :    0.051512
  57 H :    0.063025
  58 H :    0.031961
  59 H :    0.019423
  60 H :    0.028295
  61 H :    0.032956
  62 H :    0.032095
  63 H :    0.027281
  64 H :    0.024141
  65 H :    0.020960
  66 H :    0.042086
  67 H :    0.038385
  68 H :    0.038342

  Mayer bond orders larger than 0.100000
B(  0-C ,  1-S ) :   1.1489 B(  0-C ,  2-C ) :   0.1021 B(  0-C ,  4-C ) :   1.4799
B(  0-C , 47-H ) :   0.9685 B(  1-S ,  2-C ) :   1.1371 B(  2-C ,  3-C ) :   1.5022
B(  2-C ,  9-C ) :   1.1687 B(  3-C ,  4-C ) :   1.2521 B(  3-C ,  8-S ) :   1.0357
B(  4-C ,  5-C ) :   1.0938 B(  5-C ,  6-C ) :   1.7114 B(  5-C , 48-H ) :   1.0003
B(  6-C ,  7-C ) :   1.0696 B(  6-C ,  8-S ) :   1.0487 B(  7-C , 49-H ) :   0.9572
B(  7-C , 50-H ) :   0.9490 B(  7-C , 51-H ) :   0.9490 B(  9-C , 10-C ) :   1.5731
B(  9-C , 17-S ) :   1.0965 B( 10-C , 11-C ) :   1.2680 B( 10-C , 15-S ) :   1.0005
B( 11-C , 12-S ) :   1.0017 B( 11-C , 16-C ) :   1.5770 B( 12-S , 13-C ) :   1.0115
B( 13-C , 14-C ) :   1.0177 B( 13-C , 52-H ) :   0.9490 B( 13-C , 53-H ) :   0.9469
B( 14-C , 15-S ) :   1.0106 B( 14-C , 54-H ) :   0.9461 B( 14-C , 55-H ) :   0.9478
B( 16-C , 17-S ) :   1.0789 B( 16-C , 18-C ) :   1.1510 B( 18-C , 19-S ) :   1.0728
B( 18-C , 22-C ) :   1.4839 B( 19-S , 20-C ) :   1.1251 B( 20-C , 21-C ) :   1.4552
B( 20-C , 27-C ) :   1.2133 B( 21-C , 22-C ) :   1.2105 B( 21-C , 24-C ) :   0.9082
B( 22-C , 23-O ) :   1.1528 B( 23-O , 56-H ) :   0.9339 B( 24-C , 25-O ) :   2.0959
B( 24-C , 26-O ) :   1.3012 B( 26-O , 57-H ) :   0.9215 B( 27-C , 28-C ) :   1.5828
B( 27-C , 58-H ) :   0.9548 B( 28-C , 29-C ) :   1.1934 B( 28-C , 59-H ) :   0.9558
B( 29-C , 30-C ) :   1.5266 B( 29-C , 36-C ) :   0.1039 B( 29-C , 37-S ) :   1.0867
B( 30-C , 31-C ) :   1.2923 B( 30-C , 35-S ) :   1.0022 B( 31-C , 32-S ) :   0.9960
B( 31-C , 36-C ) :   1.5298 B( 32-S , 33-C ) :   1.0154 B( 33-C , 34-C ) :   1.0152
B( 33-C , 60-H ) :   0.9492 B( 33-C , 61-H ) :   0.9477 B( 34-C , 35-S ) :   1.0154
B( 34-C , 62-H ) :   0.9468 B( 34-C , 63-H ) :   0.9480 B( 36-C , 37-S ) :   1.1255
B( 36-C , 38-C ) :   1.1879 B( 38-C , 39-S ) :   1.1260 B( 38-C , 42-C ) :   1.4130
B( 39-S , 40-C ) :   1.1531 B( 40-C , 41-C ) :   1.5428 B( 40-C , 64-H ) :   0.9760
B( 41-C , 42-C ) :   1.2396 B( 41-C , 46-S ) :   1.0169 B( 42-C , 43-C ) :   1.1361
B( 43-C , 44-C ) :   1.6869 B( 43-C , 65-H ) :   0.9823 B( 44-C , 45-C ) :   1.0713
B( 44-C , 46-S ) :   1.0732 B( 45-C , 66-H ) :   0.9573 B( 45-C , 67-H ) :   0.9480
B( 45-C , 68-H ) :   0.9484

-----------------------------------------------------------------------------
         ABSORPTION SPECTRUM VIA TRANSITION ELECTRIC DIPOLE MOMENTS
-----------------------------------------------------------------------------
State   Energy  Wavelength   fosc         T2         TX        TY        TZ
        (cm-1)    (nm)                  (au**2)     (au)      (au)      (au)
-----------------------------------------------------------------------------
   0   17945.6    557.2   1.618976395  29.70003  -1.61337  -4.66838  -2.30288
   1   24615.3    406.3   0.062648660   0.83788  -0.75010  -0.51094   0.11906
   2   26204.3    381.6   0.061218169   0.76910  -0.57693  -0.61750  -0.23439
   3   27502.7    363.6   0.082071151   0.98241  -0.48447   0.13044   0.85480
   4   29639.7    337.4   0.155547749   1.72769  -0.99737  -0.46920   0.71609
   5   30150.7    331.7   0.294516620   3.21580   0.33724  -1.02575  -1.43175
   6   31726.8    315.2   0.003665704   0.03804   0.08871  -0.11672  -0.12862
   7   32486.9    307.8   0.073548562   0.74532   0.26894  -0.38859  -0.72249
   8   33346.0    299.9   0.107751108   1.06378  -0.79002  -0.60663   0.26767
   9   34533.4    289.6   0.122351897   1.16640   0.80283   0.30015  -0.65710
  10   34850.3    286.9   0.086510015   0.81721  -0.51651  -0.73642  -0.09009
  11   36014.7    277.7   0.009524109   0.08706  -0.23610  -0.12105   0.12909
  12   36293.0    275.5   0.220153237   1.99700   1.05126   0.36636  -0.87042
  13   36370.2    275.0   0.004708195   0.04262  -0.09348   0.03903   0.17987
  14   36964.1    270.5   0.073334265   0.65313   0.53601   0.10855  -0.59502
  15   37141.2    269.2   0.123457410   1.09430  -0.76536  -0.56760   0.43168
  16   37612.6    265.9   0.013269619   0.11615  -0.24054  -0.19419   0.14343
  17   38252.1    261.4   0.001194798   0.01028  -0.01256  -0.08978  -0.04544
  18   38590.2    259.1   0.033355172   0.28455  -0.33131  -0.09645   0.40679
  19   39082.6    255.9   0.026807160   0.22581   0.14175   0.40294   0.20823
  20   39153.9    255.4   0.001702698   0.01432   0.11852   0.00333  -0.01605

FINAL SINGLE POINT ENERGY     -5873.330810273585

DIPOLE MOMENT
-------------
                                X             Y             Z
Electronic contribution:     -7.17153      -4.59202       1.56832
Nuclear contribution   :      6.43393       5.98782       1.04074
                        -----------------------------------------
Total Dipole Moment    :     -0.73760       1.39580       2.60905
                        -----------------------------------------
Magnitude (a.u.)       :      3.04950
Magnitude (Debye)      :      7.75122

Rotational constants in cm-1:     0.003069     0.000521     0.000447
Rotational constants in MHz :    91.996829    15.632608    13.399589

                             ****ORCA TERMINATED NORMALLY****
TOTAL RUN TIME: 0 days 0 hours 4 minutes 37 seconds 595 msec
