                         Program Version 4.2.0 -  RELEASE  -
|  1> # ORCA input file
|  2> # SCF done       -202.120285977061          0.000525249831
|  3> ! CAM-B3LYP def2-SVP def2/J RIJCOSX Grid4 TightSCF
|  4> %maxcore 5000
|  5> %tddft
|  6>     Mode sTDDFT
|  7>     Ethresh 5.0
|  8>     maxcore 5000
|  9> end
| 10>
| 11> %pal
| 12>   nprocs 6
| 13>   end
| 14> * xyz 0 1
| 15>    C       -0.96806         2.47793         0.71829
| 16>    C        0.11830         2.54120        -0.14166
| 17>    C        0.33527         1.55861        -1.09767
| 18>    C       -0.53447         0.48678        -1.22593
| 19>    C       -1.62306         0.41248        -0.37182
| 20>    C       -1.84212         1.40746         0.60892
| 21>    C       -3.03306         1.06397         1.37652
| 22>    C       -3.59335         1.81939         2.37038
| 23>    C       -3.10888         3.08353         2.77111
| 24>    N       -2.76916         4.11369         3.14587
| 25>    C       -4.73020         1.46911         3.13081
| 26>    N       -5.63367         1.25557         3.80595
| 27>    C       -3.46840        -0.24866         0.91118
| 28>    C       -2.70831        -0.54986        -0.29792
| 29>    C       -3.09974        -1.38957        -1.30793
| 30>    C       -4.34408        -2.04601        -1.34610
| 31>    N       -5.37495        -2.53087        -1.49104
| 32>    C       -2.34700        -1.63927        -2.47235
| 33>    N       -1.76159        -1.91629        -3.42037
| 34>    C       -4.34954        -1.06482         1.56137
| 35>    C       -4.46170        -2.47780         1.40947
| 36>    C       -3.40377        -3.28717         1.13831
| 37>    C       -3.52983        -4.68568         0.97544
| 38>    C       -4.73485        -5.30551         0.99630
| 39>    C       -6.01213        -4.54585         1.29479
| 40>    C       -5.81011        -3.07935         1.75879
| 41>    N       -6.79548        -2.14487         1.26768
| 42>    C       -7.49145        -2.43634         0.26310
| 43>    C       -7.44503        -3.75986        -0.38521
| 44>    N       -6.80356        -4.72549         0.09829
| 45>    F       -8.15257        -3.94129        -1.48946
| 46>    F       -8.34887        -1.54291        -0.20865
| 47>    C       -4.90149        -6.68423         0.65097
| 48>    S       -6.10418        -7.62957         1.45848
| 49>    C       -5.66928        -9.06214         0.56391
| 50>    C       -4.63173        -8.78839        -0.32734
| 51>    C       -4.22030        -7.44356        -0.29235
| 52>    C       -3.26341        -6.88952        -1.31607
| 53>    N       -3.56176        -5.50017        -1.62164
| 54>    C       -3.29741        -7.81788        -2.54204
| 55>    C       -2.90885        -9.22548        -2.12143
| 56>    C       -3.94312        -9.84109        -1.16993
| 57>    N       -3.26547       -10.84474        -0.35934
| 58>    C       -6.44338       -10.21091         0.86887
| 59>    C       -6.45456       -11.42633         0.25607
| 60>    C       -7.24568       -12.53701         0.65195
| 61>    C       -7.00096       -13.77319         0.11115
| 62>    C       -7.62837       -14.94686         0.55880
| 63>    C       -8.65545       -14.94048         1.47048
| 64>    C       -9.28664       -13.59767         1.76067
| 65>    C       -8.27996       -12.43125         1.75715
| 66>    N       -8.96678       -11.15951         1.69085
| 67>    C      -10.04003       -11.09678         1.03666
| 68>    C      -10.66350       -12.28694         0.42534
| 69>    N      -10.32635       -13.45214         0.75598
| 70>    F      -11.60194       -12.10594        -0.49445
| 71>    F      -10.67073        -9.93398         0.93408
| 72>    C       -9.22312       -16.16622         1.87636
| 73>    C      -10.11985       -16.47726         2.87047
| 74>    C      -10.94849       -17.68000         2.84658
| 75>    C      -10.77858       -18.79933         2.07644
| 76>    C       -9.72578       -19.03266         1.16594
| 77>    N       -8.89993       -19.31354         0.41854
| 78>    C      -11.62549       -19.92797         2.12899
| 79>    N      -12.26464       -20.88116         2.12327
| 80>    C      -12.01262       -17.47900         3.82324
| 81>    C      -11.74865       -16.29231         4.54260
| 82>    C      -12.61483       -15.85436         5.52972
| 83>    C      -13.74887       -16.60793         5.79558
| 84>    C      -14.00774       -17.77680         5.09507
| 85>    C      -13.14564       -18.22509         4.10446
| 86>    C      -10.49516       -15.73494         4.05813
| 87>    C       -9.69328       -14.86391         4.75481
| 88>    C      -10.06868       -14.23885         5.96160
| 89>    N      -10.32396       -13.68406         6.93347
| 90>    C       -8.37237       -14.55008         4.38481
| 91>    N       -7.29097       -14.26265         4.12299
| 92>    H       -1.11726         3.25024         1.45443
| 93>    H        0.80599         3.36906        -0.06187
| 94>    H        1.19155         1.62765        -1.75084
| 95>    H       -0.35577        -0.27454        -1.96806
| 96>    H       -5.00256        -0.62947         2.30524
| 97>    H       -2.41827        -2.85543         1.03472
| 98>    H       -2.63576        -5.25922         0.80121
| 99>    H       -6.55609        -5.09595         2.07714
|100>    H       -5.89693        -3.03776         2.85405
|101>    H       -2.24102        -6.90866        -0.90730
|102>    H       -4.53306        -5.38974        -1.89291
|103>    H       -2.98315        -5.18318        -2.39172
|104>    H       -2.59967        -7.44601        -3.29507
|105>    H       -4.30159        -7.81321        -2.97320
|106>    H       -1.94159        -9.19190        -1.61486
|107>    H       -2.79847        -9.87352        -2.99008
|108>    H       -4.70369       -10.35688        -1.76871
|109>    H       -2.55181       -10.40467         0.21208
|110>    H       -3.90689       -11.32110         0.26400
|111>    H       -7.12691       -10.06380         1.69401
|112>    H       -5.80872       -11.62245        -0.58672
|113>    H       -6.23436       -13.86488        -0.64460
|114>    H       -7.24755       -15.89364         0.20370
|115>    H       -9.81377       -13.59652         2.72154
|116>    H       -7.72557       -12.43974         2.70865
|117>    H       -8.94053       -16.99435         1.23829
|118>    H      -12.42797       -14.94322         6.07485
|119>    H      -14.43831       -16.27609         6.55666
|120>    H      -14.89564       -18.34795         5.31892
|121>    H      -13.36797       -19.13258         3.56809
|122> *
|123>
|124>                          ****END OF INPUT****

CARTESIAN COORDINATES (ANGSTROEM)
---------------------------------
  C     -0.968060    2.477930    0.718290
  C      0.118300    2.541200   -0.141660
  C      0.335270    1.558610   -1.097670
  C     -0.534470    0.486780   -1.225930
  C     -1.623060    0.412480   -0.371820
  C     -1.842120    1.407460    0.608920
  C     -3.033060    1.063970    1.376520
  C     -3.593350    1.819390    2.370380
  C     -3.108880    3.083530    2.771110
  N     -2.769160    4.113690    3.145870
  C     -4.730200    1.469110    3.130810
  N     -5.633670    1.255570    3.805950
  C     -3.468400   -0.248660    0.911180
  C     -2.708310   -0.549860   -0.297920
  C     -3.099740   -1.389570   -1.307930
  C     -4.344080   -2.046010   -1.346100
  N     -5.374950   -2.530870   -1.491040
  C     -2.347000   -1.639270   -2.472350
  N     -1.761590   -1.916290   -3.420370
  C     -4.349540   -1.064820    1.561370
  C     -4.461700   -2.477800    1.409470
  C     -3.403770   -3.287170    1.138310
  C     -3.529830   -4.685680    0.975440
  C     -4.734850   -5.305510    0.996300
  C     -6.012130   -4.545850    1.294790
  C     -5.810110   -3.079350    1.758790
  N     -6.795480   -2.144870    1.267680
  C     -7.491450   -2.436340    0.263100
  C     -7.445030   -3.759860   -0.385210
  N     -6.803560   -4.725490    0.098290
  F     -8.152570   -3.941290   -1.489460
  F     -8.348870   -1.542910   -0.208650
  C     -4.901490   -6.684230    0.650970
  S     -6.104180   -7.629570    1.458480
  C     -5.669280   -9.062140    0.563910
  C     -4.631730   -8.788390   -0.327340
  C     -4.220300   -7.443560   -0.292350
  C     -3.263410   -6.889520   -1.316070
  N     -3.561760   -5.500170   -1.621640
  C     -3.297410   -7.817880   -2.542040
  C     -2.908850   -9.225480   -2.121430
  C     -3.943120   -9.841090   -1.169930
  N     -3.265470  -10.844740   -0.359340
  C     -6.443380  -10.210910    0.868870
  C     -6.454560  -11.426330    0.256070
  C     -7.245680  -12.537010    0.651950
  C     -7.000960  -13.773190    0.111150
  C     -7.628370  -14.946860    0.558800
  C     -8.655450  -14.940480    1.470480
  C     -9.286640  -13.597670    1.760670
  C     -8.279960  -12.431250    1.757150
  N     -8.966780  -11.159510    1.690850
  C    -10.040030  -11.096780    1.036660
  C    -10.663500  -12.286940    0.425340
  N    -10.326350  -13.452140    0.755980
  F    -11.601940  -12.105940   -0.494450
  F    -10.670730   -9.933980    0.934080
  C     -9.223120  -16.166220    1.876360
  C    -10.119850  -16.477260    2.870470
  C    -10.948490  -17.680000    2.846580
  C    -10.778580  -18.799330    2.076440
  C     -9.725780  -19.032660    1.165940
  N     -8.899930  -19.313540    0.418540
  C    -11.625490  -19.927970    2.128990
  N    -12.264640  -20.881160    2.123270
  C    -12.012620  -17.479000    3.823240
  C    -11.748650  -16.292310    4.542600
  C    -12.614830  -15.854360    5.529720
  C    -13.748870  -16.607930    5.795580
  C    -14.007740  -17.776800    5.095070
  C    -13.145640  -18.225090    4.104460
  C    -10.495160  -15.734940    4.058130
  C     -9.693280  -14.863910    4.754810
  C    -10.068680  -14.238850    5.961600
  N    -10.323960  -13.684060    6.933470
  C     -8.372370  -14.550080    4.384810
  N     -7.290970  -14.262650    4.122990
  H     -1.117260    3.250240    1.454430
  H      0.805990    3.369060   -0.061870
  H      1.191550    1.627650   -1.750840
  H     -0.355770   -0.274540   -1.968060
  H     -5.002560   -0.629470    2.305240
  H     -2.418270   -2.855430    1.034720
  H     -2.635760   -5.259220    0.801210
  H     -6.556090   -5.095950    2.077140
  H     -5.896930   -3.037760    2.854050
  H     -2.241020   -6.908660   -0.907300
  H     -4.533060   -5.389740   -1.892910
  H     -2.983150   -5.183180   -2.391720
  H     -2.599670   -7.446010   -3.295070
  H     -4.301590   -7.813210   -2.973200
  H     -1.941590   -9.191900   -1.614860
  H     -2.798470   -9.873520   -2.990080
  H     -4.703690  -10.356880   -1.768710
  H     -2.551810  -10.404670    0.212080
  H     -3.906890  -11.321100    0.264000
  H     -7.126910  -10.063800    1.694010
  H     -5.808720  -11.622450   -0.586720
  H     -6.234360  -13.864880   -0.644600
  H     -7.247550  -15.893640    0.203700
  H     -9.813770  -13.596520    2.721540
  H     -7.725570  -12.439740    2.708650
  H     -8.940530  -16.994350    1.238290
  H    -12.427970  -14.943220    6.074850
  H    -14.438310  -16.276090    6.556660
  H    -14.895640  -18.347950    5.318920
  H    -13.367970  -19.132580    3.568090

 Total Charge           Charge          ....    0
 Multiplicity           Mult            ....    1
 Number of Electrons    NEL             ....  528
 Basis Dimension        Dim             .... 1232

ORBITAL ENERGIES
----------------

  NO   OCC          E(Eh)            E(eV)
   0   2.0000     -88.966920     -2420.9130
   1   2.0000     -24.816106      -675.2806
   2   2.0000     -24.812949      -675.1947
   3   2.0000     -24.803533      -674.9384
   4   2.0000     -24.800643      -674.8598
   5   2.0000     -14.443600      -393.0303
   6   2.0000     -14.441192      -392.9648
   7   2.0000     -14.433520      -392.7561
   8   2.0000     -14.430817      -392.6825
   9   2.0000     -14.430370      -392.6703
  10   2.0000     -14.429549      -392.6480
  11   2.0000     -14.425936      -392.5497
  12   2.0000     -14.425290      -392.5321
  13   2.0000     -14.424211      -392.5027
  14   2.0000     -14.423591      -392.4859
  15   2.0000     -14.422922      -392.4676
  16   2.0000     -14.418655      -392.3516
  17   2.0000     -14.393420      -391.6649
  18   2.0000     -14.393105      -391.6563
  19   2.0000     -10.430425      -283.8263
  20   2.0000     -10.426086      -283.7082
  21   2.0000     -10.418592      -283.5043
  22   2.0000     -10.416132      -283.4374
  23   2.0000     -10.357238      -281.8348
  24   2.0000     -10.356535      -281.8156
  25   2.0000     -10.355515      -281.7879
  26   2.0000     -10.353358      -281.7292
  27   2.0000     -10.353070      -281.7214
  28   2.0000     -10.349669      -281.6288
  29   2.0000     -10.349584      -281.6265
  30   2.0000     -10.347901      -281.5807
  31   2.0000     -10.340049      -281.3670
  32   2.0000     -10.340011      -281.3660
  33   2.0000     -10.339639      -281.3559
  34   2.0000     -10.339385      -281.3490
  35   2.0000     -10.338915      -281.3362
  36   2.0000     -10.333395      -281.1860
  37   2.0000     -10.332069      -281.1499
  38   2.0000     -10.329693      -281.0852
  39   2.0000     -10.326867      -281.0083
  40   2.0000     -10.326611      -281.0014
  41   2.0000     -10.326323      -280.9935
  42   2.0000     -10.325403      -280.9685
  43   2.0000     -10.323865      -280.9266
  44   2.0000     -10.322855      -280.8992
  45   2.0000     -10.321767      -280.8696
  46   2.0000     -10.321486      -280.8619
  47   2.0000     -10.320676      -280.8399
  48   2.0000     -10.320345      -280.8309
  49   2.0000     -10.316858      -280.7360
  50   2.0000     -10.316204      -280.7182
  51   2.0000     -10.315183      -280.6904
  52   2.0000     -10.313506      -280.6448
  53   2.0000     -10.313050      -280.6323
  54   2.0000     -10.312571      -280.6193
  55   2.0000     -10.312204      -280.6093
  56   2.0000     -10.311879      -280.6005
  57   2.0000     -10.309978      -280.5488
  58   2.0000     -10.309922      -280.5473
  59   2.0000     -10.309303      -280.5304
  60   2.0000     -10.309136      -280.5258
  61   2.0000     -10.307464      -280.4804
  62   2.0000     -10.307366      -280.4777
  63   2.0000     -10.307272      -280.4751
  64   2.0000     -10.306678      -280.4590
  65   2.0000     -10.306567      -280.4560
  66   2.0000     -10.301546      -280.3193
  67   2.0000     -10.300583      -280.2931
  68   2.0000     -10.299792      -280.2716
  69   2.0000     -10.298951      -280.2487
  70   2.0000     -10.295367      -280.1512
  71   2.0000     -10.294656      -280.1318
  72   2.0000     -10.293534      -280.1013
  73   2.0000     -10.293248      -280.0935
  74   2.0000     -10.292630      -280.0767
  75   2.0000     -10.272358      -279.5251
  76   2.0000     -10.272203      -279.5208
  77   2.0000      -8.062750      -219.3986
  78   2.0000      -6.031754      -164.1324
  79   2.0000      -6.027843      -164.0259
  80   2.0000      -6.025103      -163.9514
  81   2.0000      -1.344686       -36.5908
  82   2.0000      -1.333064       -36.2745
  83   2.0000      -1.330219       -36.1971
  84   2.0000      -1.318027       -35.8653
  85   2.0000      -1.096313       -29.8322
  86   2.0000      -1.083415       -29.4812
  87   2.0000      -1.043649       -28.3991
  88   2.0000      -1.037681       -28.2367
  89   2.0000      -1.026745       -27.9392
  90   2.0000      -1.026320       -27.9276
  91   2.0000      -1.021668       -27.8010
  92   2.0000      -1.021007       -27.7830
  93   2.0000      -1.015075       -27.6216
  94   2.0000      -1.013022       -27.5657
  95   2.0000      -1.010710       -27.5028
  96   2.0000      -1.010269       -27.4908
  97   2.0000      -1.004669       -27.3384
  98   2.0000      -1.002911       -27.2906
  99   2.0000      -0.998929       -27.1823
 100   2.0000      -0.983924       -26.7739
 101   2.0000      -0.978001       -26.6128
 102   2.0000      -0.974318       -26.5125
 103   2.0000      -0.971400       -26.4331
 104   2.0000      -0.958661       -26.0865
 105   2.0000      -0.957699       -26.0603
 106   2.0000      -0.947307       -25.7775
 107   2.0000      -0.941808       -25.6279
 108   2.0000      -0.927579       -25.2407
 109   2.0000      -0.914624       -24.8882
 110   2.0000      -0.901462       -24.5300
 111   2.0000      -0.897699       -24.4276
 112   2.0000      -0.893827       -24.3223
 113   2.0000      -0.885105       -24.0849
 114   2.0000      -0.874258       -23.7898
 115   2.0000      -0.873867       -23.7791
 116   2.0000      -0.872071       -23.7302
 117   2.0000      -0.867109       -23.5952
 118   2.0000      -0.866577       -23.5807
 119   2.0000      -0.851191       -23.1621
 120   2.0000      -0.836537       -22.7633
 121   2.0000      -0.822350       -22.3773
 122   2.0000      -0.799621       -21.7588
 123   2.0000      -0.798425       -21.7263
 124   2.0000      -0.795822       -21.6554
 125   2.0000      -0.792559       -21.5666
 126   2.0000      -0.785392       -21.3716
 127   2.0000      -0.781474       -21.2650
 128   2.0000      -0.776288       -21.1239
 129   2.0000      -0.774485       -21.0748
 130   2.0000      -0.765063       -20.8184
 131   2.0000      -0.742923       -20.2160
 132   2.0000      -0.728024       -19.8105
 133   2.0000      -0.722448       -19.6588
 134   2.0000      -0.719982       -19.5917
 135   2.0000      -0.717181       -19.5155
 136   2.0000      -0.716364       -19.4933
 137   2.0000      -0.713554       -19.4168
 138   2.0000      -0.704015       -19.1572
 139   2.0000      -0.695094       -18.9145
 140   2.0000      -0.690037       -18.7769
 141   2.0000      -0.680818       -18.5260
 142   2.0000      -0.680094       -18.5063
 143   2.0000      -0.674151       -18.3446
 144   2.0000      -0.672291       -18.2940
 145   2.0000      -0.671031       -18.2597
 146   2.0000      -0.667815       -18.1722
 147   2.0000      -0.666032       -18.1237
 148   2.0000      -0.665706       -18.1148
 149   2.0000      -0.660217       -17.9654
 150   2.0000      -0.655027       -17.8242
 151   2.0000      -0.648661       -17.6510
 152   2.0000      -0.643054       -17.4984
 153   2.0000      -0.638198       -17.3662
 154   2.0000      -0.630249       -17.1500
 155   2.0000      -0.627054       -17.0630
 156   2.0000      -0.618749       -16.8370
 157   2.0000      -0.614434       -16.7196
 158   2.0000      -0.608443       -16.5566
 159   2.0000      -0.605868       -16.4865
 160   2.0000      -0.600518       -16.3409
 161   2.0000      -0.597016       -16.2456
 162   2.0000      -0.594712       -16.1829
 163   2.0000      -0.593463       -16.1489
 164   2.0000      -0.590089       -16.0571
 165   2.0000      -0.586269       -15.9532
 166   2.0000      -0.578264       -15.7354
 167   2.0000      -0.575712       -15.6659
 168   2.0000      -0.573122       -15.5955
 169   2.0000      -0.570538       -15.5251
 170   2.0000      -0.563497       -15.3335
 171   2.0000      -0.562505       -15.3066
 172   2.0000      -0.559408       -15.2223
 173   2.0000      -0.556764       -15.1503
 174   2.0000      -0.554239       -15.0816
 175   2.0000      -0.552588       -15.0367
 176   2.0000      -0.549191       -14.9442
 177   2.0000      -0.547374       -14.8948
 178   2.0000      -0.546448       -14.8696
 179   2.0000      -0.543389       -14.7864
 180   2.0000      -0.543194       -14.7811
 181   2.0000      -0.542564       -14.7639
 182   2.0000      -0.539961       -14.6931
 183   2.0000      -0.536731       -14.6052
 184   2.0000      -0.533752       -14.5241
 185   2.0000      -0.532667       -14.4946
 186   2.0000      -0.523117       -14.2347
 187   2.0000      -0.522142       -14.2082
 188   2.0000      -0.518225       -14.1016
 189   2.0000      -0.516552       -14.0561
 190   2.0000      -0.513631       -13.9766
 191   2.0000      -0.511126       -13.9085
 192   2.0000      -0.509648       -13.8682
 193   2.0000      -0.509230       -13.8569
 194   2.0000      -0.508376       -13.8336
 195   2.0000      -0.505307       -13.7501
 196   2.0000      -0.500547       -13.6206
 197   2.0000      -0.498502       -13.5649
 198   2.0000      -0.496397       -13.5077
 199   2.0000      -0.491883       -13.3848
 200   2.0000      -0.490675       -13.3519
 201   2.0000      -0.489001       -13.3064
 202   2.0000      -0.484330       -13.1793
 203   2.0000      -0.479995       -13.0613
 204   2.0000      -0.475795       -12.9470
 205   2.0000      -0.475611       -12.9420
 206   2.0000      -0.475112       -12.9285
 207   2.0000      -0.473788       -12.8924
 208   2.0000      -0.469742       -12.7823
 209   2.0000      -0.467579       -12.7235
 210   2.0000      -0.463972       -12.6253
 211   2.0000      -0.463421       -12.6103
 212   2.0000      -0.461257       -12.5515
 213   2.0000      -0.460935       -12.5427
 214   2.0000      -0.459309       -12.4984
 215   2.0000      -0.457182       -12.4406
 216   2.0000      -0.456435       -12.4202
 217   2.0000      -0.455595       -12.3974
 218   2.0000      -0.453738       -12.3468
 219   2.0000      -0.452928       -12.3248
 220   2.0000      -0.451170       -12.2770
 221   2.0000      -0.451039       -12.2734
 222   2.0000      -0.447235       -12.1699
 223   2.0000      -0.446526       -12.1506
 224   2.0000      -0.444022       -12.0825
 225   2.0000      -0.441869       -12.0239
 226   2.0000      -0.437138       -11.8951
 227   2.0000      -0.435370       -11.8470
 228   2.0000      -0.434766       -11.8306
 229   2.0000      -0.432769       -11.7762
 230   2.0000      -0.432291       -11.7632
 231   2.0000      -0.431276       -11.7356
 232   2.0000      -0.428537       -11.6611
 233   2.0000      -0.427062       -11.6210
 234   2.0000      -0.424930       -11.5629
 235   2.0000      -0.423670       -11.5287
 236   2.0000      -0.422660       -11.5012
 237   2.0000      -0.419672       -11.4199
 238   2.0000      -0.417873       -11.3709
 239   2.0000      -0.415939       -11.3183
 240   2.0000      -0.411163       -11.1883
 241   2.0000      -0.409964       -11.1557
 242   2.0000      -0.407090       -11.0775
 243   2.0000      -0.405654       -11.0384
 244   2.0000      -0.400669       -10.9028
 245   2.0000      -0.393116       -10.6972
 246   2.0000      -0.392626       -10.6839
 247   2.0000      -0.386513       -10.5175
 248   2.0000      -0.373063       -10.1515
 249   2.0000      -0.370614       -10.0849
 250   2.0000      -0.360046        -9.7974
 251   2.0000      -0.356985        -9.7141
 252   2.0000      -0.355295        -9.6681
 253   2.0000      -0.348272        -9.4770
 254   2.0000      -0.341476        -9.2920
 255   2.0000      -0.335682        -9.1344
 256   2.0000      -0.335384        -9.1263
 257   2.0000      -0.333386        -9.0719
 258   2.0000      -0.320084        -8.7099
 259   2.0000      -0.313904        -8.5418
 260   2.0000      -0.307687        -8.3726
 261   2.0000      -0.305496        -8.3130
 262   2.0000      -0.280860        -7.6426
 263   2.0000      -0.252483        -6.8704
 264   0.0000      -0.117108        -3.1867
 265   0.0000      -0.103662        -2.8208
 266   0.0000      -0.095351        -2.5946
 267   0.0000      -0.089484        -2.4350
 268   0.0000      -0.053578        -1.4579

MULLIKEN ATOMIC CHARGES
-----------------------
   0 C :   -0.035239
   1 C :    0.048707
   2 C :    0.046194
   3 C :   -0.031192
   4 C :   -0.001135
   5 C :    0.019300
   6 C :    0.302801
   7 C :   -0.344238
   8 C :   -0.188834
   9 N :    0.165406
  10 C :   -0.185134
  11 N :    0.161081
  12 C :   -0.061498
  13 C :    0.229688
  14 C :   -0.347912
  15 C :   -0.123085
  16 N :    0.133366
  17 C :   -0.187641
  18 N :    0.157469
  19 C :    0.078317
  20 C :   -0.132615
  21 C :    0.034798
  22 C :    0.059076
  23 C :    0.003922
  24 C :    0.109726
  25 C :    0.154461
  26 N :   -0.104567
  27 C :    0.109695
  28 C :    0.138044
  29 N :   -0.097771
  30 F :   -0.138656
  31 F :   -0.136363
  32 C :   -0.107525
  33 S :    0.142662
  34 C :   -0.123532
  35 C :   -0.037530
  36 C :   -0.033191
  37 C :    0.046817
  38 N :   -0.183864
  39 C :    0.066734
  40 C :    0.086413
  41 C :    0.021193
  42 N :   -0.167486
  43 C :    0.087154
  44 C :   -0.067033
  45 C :    0.045274
  46 C :   -0.015300
  47 C :    0.016352
  48 C :    0.029039
  49 C :    0.041971
  50 C :    0.105584
  51 N :   -0.104188
  52 C :    0.128487
  53 C :    0.120255
  54 N :   -0.068882
  55 F :   -0.139080
  56 F :   -0.137928
  57 C :    0.014568
  58 C :   -0.046314
  59 C :    0.295644
  60 C :   -0.346594
  61 C :   -0.177529
  62 N :    0.147802
  63 C :   -0.189754
  64 N :    0.160832
  65 C :    0.016080
  66 C :    0.007043
  67 C :   -0.035586
  68 C :    0.045781
  69 C :    0.047757
  70 C :   -0.033730
  71 C :    0.231313
  72 C :   -0.368303
  73 C :   -0.184624
  74 N :    0.170877
  75 C :   -0.164004
  76 N :    0.152658
  77 H :    0.008406
  78 H :    0.007736
  79 H :    0.006566
  80 H :    0.005955
  81 H :    0.036547
  82 H :   -0.003403
  83 H :   -0.028192
  84 H :    0.042311
  85 H :    0.042927
  86 H :    0.000064
  87 H :    0.110921
  88 H :    0.099253
  89 H :   -0.000856
  90 H :    0.001539
  91 H :   -0.014569
  92 H :    0.010011
  93 H :    0.017641
  94 H :    0.091907
  95 H :    0.086164
  96 H :    0.022245
  97 H :   -0.012143
  98 H :   -0.007583
  99 H :    0.016012
 100 H :    0.044377
 101 H :    0.056860
 102 H :    0.007637
 103 H :    0.004995
 104 H :    0.004669
 105 H :    0.003914
 106 H :    0.005605
Sum of atomic charges:   -0.0000000

LOEWDIN ATOMIC CHARGES
----------------------
   0 C :    0.005362
   1 C :    0.005269
   2 C :    0.003946
   3 C :    0.001984
   4 C :   -0.013754
   5 C :   -0.010076
   6 C :    0.075443
   7 C :   -0.127999
   8 C :   -0.018823
   9 N :   -0.044226
  10 C :   -0.022547
  11 N :   -0.036638
  12 C :   -0.060904
  13 C :    0.075201
  14 C :   -0.139512
  15 C :    0.016260
  16 N :   -0.055701
  17 C :   -0.020696
  18 N :   -0.053356
  19 C :    0.079517
  20 C :   -0.048081
  21 C :    0.024712
  22 C :   -0.011385
  23 C :   -0.010285
  24 C :    0.015947
  25 C :    0.026946
  26 N :   -0.080535
  27 C :    0.056202
  28 C :    0.051566
  29 N :   -0.086125
  30 F :   -0.023903
  31 F :   -0.023815
  32 C :   -0.152263
  33 S :    0.469803
  34 C :   -0.175629
  35 C :   -0.050352
  36 C :   -0.053386
  37 C :    0.015556
  38 N :   -0.086420
  39 C :   -0.038620
  40 C :   -0.024639
  41 C :    0.016755
  42 N :   -0.095517
  43 C :   -0.006160
  44 C :   -0.054055
  45 C :    0.028750
  46 C :   -0.048409
  47 C :    0.053875
  48 C :   -0.043542
  49 C :    0.017701
  50 C :    0.018009
  51 N :   -0.068550
  52 C :    0.056551
  53 C :    0.043927
  54 N :   -0.064826
  55 F :   -0.028228
  56 F :   -0.026719
  57 C :    0.066741
  58 C :   -0.069153
  59 C :    0.081900
  60 C :   -0.133726
  61 C :   -0.021285
  62 N :   -0.048192
  63 C :   -0.018702
  64 N :   -0.047571
  65 C :   -0.012166
  66 C :   -0.011741
  67 C :    0.000763
  68 C :    0.003298
  69 C :    0.002126
  70 C :    0.005810
  71 C :    0.070174
  72 C :   -0.148625
  73 C :   -0.023179
  74 N :   -0.046638
  75 C :   -0.010994
  76 N :   -0.054229
  77 H :    0.042434
  78 H :    0.038952
  79 H :    0.038383
  80 H :    0.040934
  81 H :    0.049697
  82 H :    0.035101
  83 H :    0.032901
  84 H :    0.034404
  85 H :    0.049044
  86 H :    0.022656
  87 H :    0.058899
  88 H :    0.056628
  89 H :    0.022985
  90 H :    0.023099
  91 H :    0.021054
  92 H :    0.031590
  93 H :    0.025201
  94 H :    0.053811
  95 H :    0.048631
  96 H :    0.032259
  97 H :    0.030168
  98 H :    0.035278
  99 H :    0.044352
 100 H :    0.037222
 101 H :    0.050531
 102 H :    0.048354
 103 H :    0.040445
 104 H :    0.037604
 105 H :    0.037651
 106 H :    0.041517

  Mayer bond orders larger than 0.100000
B(  0-C ,  1-C ) :   1.3708 B(  0-C ,  5-C ) :   1.3801 B(  0-C , 77-H ) :   0.9837
B(  1-C ,  2-C ) :   1.3744 B(  1-C , 78-H ) :   0.9862 B(  2-C ,  3-C ) :   1.3686
B(  2-C , 79-H ) :   0.9865 B(  3-C ,  4-C ) :   1.3775 B(  3-C , 80-H ) :   0.9873
B(  4-C ,  5-C ) :   1.3102 B(  4-C , 13-C ) :   1.0174 B(  5-C ,  6-C ) :   0.9958
B(  6-C ,  7-C ) :   1.6458 B(  6-C , 12-C ) :   1.0517 B(  7-C ,  8-C ) :   1.1461
B(  7-C , 10-C ) :   1.1378 B(  8-C ,  9-N ) :   2.9762 B( 10-C , 11-N ) :   2.9643
B( 12-C , 13-C ) :   1.0218 B( 12-C , 19-C ) :   1.6069 B( 13-C , 14-C ) :   1.6344
B( 14-C , 15-C ) :   1.1646 B( 14-C , 17-C ) :   1.1461 B( 15-C , 16-N ) :   2.8983
B( 17-C , 18-N ) :   2.9793 B( 19-C , 20-C ) :   1.1269 B( 19-C , 81-H ) :   0.9189
B( 20-C , 21-C ) :   1.6467 B( 20-C , 25-C ) :   0.9508 B( 21-C , 22-C ) :   1.1159
B( 21-C , 82-H ) :   0.9836 B( 22-C , 23-C ) :   1.7021 B( 22-C , 83-H ) :   0.9794
B( 23-C , 24-C ) :   0.9794 B( 23-C , 32-C ) :   1.0765 B( 24-C , 25-C ) :   0.9552
B( 24-C , 29-N ) :   1.0545 B( 24-C , 84-H ) :   0.8905 B( 25-C , 26-N ) :   1.0531
B( 25-C , 85-H ) :   0.8793 B( 26-N , 27-C ) :   1.9376 B( 27-C , 28-C ) :   0.9246
B( 27-C , 31-F ) :   1.1791 B( 28-C , 29-N ) :   1.9454 B( 28-C , 30-F ) :   1.1741
B( 32-C , 33-S ) :   1.1364 B( 32-C , 34-C ) :   0.1046 B( 32-C , 36-C ) :   1.5163
B( 33-S , 34-C ) :   1.1348 B( 34-C , 35-C ) :   1.4580 B( 34-C , 43-C ) :   1.1622
B( 35-C , 36-C ) :   1.3509 B( 35-C , 41-C ) :   0.9790 B( 36-C , 37-C ) :   0.9885
B( 37-C , 38-N ) :   1.1197 B( 37-C , 39-C ) :   1.0618 B( 37-C , 86-H ) :   0.8739
B( 38-N , 87-H ) :   0.9504 B( 38-N , 88-H ) :   0.9621 B( 39-C , 40-C ) :   1.0758
B( 39-C , 89-H ) :   0.9292 B( 39-C , 90-H ) :   0.9260 B( 40-C , 41-C ) :   1.0613
B( 40-C , 91-H ) :   0.9158 B( 40-C , 92-H ) :   0.9242 B( 41-C , 42-N ) :   1.1246
B( 41-C , 93-H ) :   0.8815 B( 42-N , 94-H ) :   0.9565 B( 42-N , 95-H ) :   0.9695
B( 43-C , 44-C ) :   1.5757 B( 43-C , 96-H ) :   0.9206 B( 44-C , 45-C ) :   1.2001
B( 44-C , 97-H ) :   0.9771 B( 45-C , 46-C ) :   1.5685 B( 45-C , 50-C ) :   0.9273
B( 46-C , 47-C ) :   1.1631 B( 46-C , 98-H ) :   0.9876 B( 47-C , 48-C ) :   1.5106
B( 47-C , 99-H ) :   0.9881 B( 48-C , 49-C ) :   0.9865 B( 48-C , 57-C ) :   1.2538
B( 49-C , 50-C ) :   1.0006 B( 49-C , 54-N ) :   1.0202 B( 49-C ,100-H ) :   0.8870
B( 50-C , 51-N ) :   0.9814 B( 50-C ,101-H ) :   0.8568 B( 51-N , 52-C ) :   1.9219
B( 52-C , 53-C ) :   0.9309 B( 52-C , 56-F ) :   1.1723 B( 53-C , 54-N ) :   1.9485
B( 53-C , 55-F ) :   1.1703 B( 57-C , 58-C ) :   1.4850 B( 57-C ,102-H ) :   0.9292
B( 58-C , 59-C ) :   1.0748 B( 58-C , 71-C ) :   1.0466 B( 59-C , 60-C ) :   1.6308
B( 59-C , 65-C ) :   0.9910 B( 60-C , 61-C ) :   1.1356 B( 60-C , 63-C ) :   1.1483
B( 61-C , 62-N ) :   2.9645 B( 63-C , 64-N ) :   2.9785 B( 65-C , 66-C ) :   1.3128
B( 65-C , 70-C ) :   1.3857 B( 66-C , 67-C ) :   1.3825 B( 66-C , 71-C ) :   1.0107
B( 67-C , 68-C ) :   1.3607 B( 67-C ,103-H ) :   0.9887 B( 68-C , 69-C ) :   1.3807
B( 68-C ,104-H ) :   0.9873 B( 69-C , 70-C ) :   1.3672 B( 69-C ,105-H ) :   0.9864
B( 70-C ,106-H ) :   0.9842 B( 71-C , 72-C ) :   1.6065 B( 72-C , 73-C ) :   1.1421
B( 72-C , 75-C ) :   1.1772 B( 73-C , 74-N ) :   2.9985 B( 75-C , 76-N ) :   2.9171

-----------------------------------------------------------------------------
         ABSORPTION SPECTRUM VIA TRANSITION ELECTRIC DIPOLE MOMENTS
-----------------------------------------------------------------------------
State   Energy  Wavelength   fosc         T2         TX        TY        TZ
        (cm-1)    (nm)                  (au**2)     (au)      (au)      (au)
-----------------------------------------------------------------------------
   0   14108.0    708.8   1.614382463  37.67191   2.46561   5.48773  -1.21552
   1   17455.7    572.9   0.209703411   3.95498  -1.29234  -1.26832   0.82231
   2   20550.0    486.6   0.250578336   4.01428  -0.15272   1.56432   1.24252
   3   21151.0    472.8   0.103026215   1.60358  -0.44883  -1.09083  -0.46067
   4   22361.8    447.2   0.005104867   0.07515   0.06965   0.25814  -0.06057
   5   24287.0    411.7   0.009768334   0.13241  -0.29731   0.17014  -0.12275
   6   24772.1    403.7   0.082104084   1.09113  -0.26610  -0.45381  -0.90243
   7   25869.7    386.6   0.002352394   0.02994  -0.14654  -0.04887  -0.07794
   8   26590.6    376.1   0.068467207   0.84767   0.62144   0.66322  -0.14705
   9   26808.1    373.0   0.058790973   0.72197   0.38120  -0.51497  -0.55809
  10   27721.1    360.7   0.009963498   0.11833  -0.01049  -0.34340   0.01703
  11   28392.8    352.2   0.102738353   1.19124  -0.32220   0.65882   0.80832
  12   29090.0    343.8   0.001024853   0.01160   0.00793  -0.10527  -0.02130
  13   29551.3    338.4   0.157084380   1.74998   0.10623   0.98617   0.87531
  14   29944.2    334.0   0.031415371   0.34539  -0.18319  -0.32063  -0.45719
  15   30150.7    331.7   0.089328913   0.97537   0.70603   0.27583  -0.63310
  16   30332.8    329.7   0.350094387   3.79969   0.33111   1.75655   0.77754
  17   30796.0    324.7   0.109997854   1.17589  -0.38356  -1.01076  -0.08447
  18   31064.8    321.9   0.096106104   1.01849   0.58990   0.81834   0.02877
  19   31440.8    318.1   0.013657608   0.14301   0.03650   0.33890   0.16377
  20   31792.8    314.5   0.030055440   0.31122  -0.00239   0.24925   0.49909
  21   32046.6    312.0   0.100455370   1.03197   0.19950   0.76130   0.64233
  22   32406.6    308.6   0.062182881   0.63170   0.20328   0.59234   0.48940
  23   32797.1    304.9   0.446147190   4.47835   0.63129   1.73972   1.02625
  24   32850.8    304.4   0.024864811   0.24918  -0.21934   0.19320   0.40466
  25   32933.8    303.6   0.055887948   0.55867  -0.15522  -0.64222  -0.34947
  26   33401.8    299.4   0.384519603   3.78987  -0.26811  -1.37035  -1.35651
  27   33896.3    295.0   0.008457294   0.08214  -0.11556   0.20738   0.16055
  28   34031.8    293.8   0.038523019   0.37266   0.33096  -0.18396  -0.47884
  29   34739.8    287.9   0.594779436   5.63644  -2.01792  -0.17722   1.23816
  30   35120.2    284.7   0.028271548   0.26501  -0.05885  -0.51142  -0.00011
  31   35343.5    282.9   0.014134626   0.13166  -0.25123  -0.22989  -0.12528
  32   35624.3    280.7   0.016074028   0.14854  -0.25466  -0.25669  -0.13344
  33   35847.2    279.0   0.001563702   0.01436   0.10453  -0.05856  -0.00218
  34   36164.2    276.5   0.009907595   0.09019   0.25233   0.06407  -0.14972
  35   36303.9    275.5   0.003714044   0.03368  -0.14120   0.09081   0.07414
  36   36550.9    273.6   0.007546630   0.06797  -0.07956   0.20408   0.14140
  37   36799.2    271.7   0.002586651   0.02314  -0.11525   0.07418   0.06600
  38   36880.1    271.1   0.018791597   0.16774  -0.34917   0.07392   0.20090
  39   37543.6    266.4   0.080088269   0.70228  -0.74356  -0.09386   0.37494
  40   37994.7    263.2   0.023519330   0.20379   0.28546   0.00859  -0.34961
  41   38051.4    262.8   0.049059043   0.42445   0.51697   0.33629  -0.21001
  42   38401.0    260.4   0.006870242   0.05890   0.19218   0.13583  -0.05929
  43   38492.4    259.8   0.034441916   0.29457  -0.10694  -0.51731  -0.12460
  44   39004.1    256.4   0.204437166   1.72554  -1.07303  -0.51945   0.55166
  45   39298.8    254.5   0.005108120   0.04279   0.09657   0.11896  -0.13897
  46   39831.3    251.1   0.147763940   1.22129   0.63541  -0.35493  -0.83160
  47   39995.1    250.0   0.005598130   0.04608  -0.03787   0.19594   0.07907

FINAL SINGLE POINT ENERGY     -3787.652706495718

DIPOLE MOMENT
-------------
                                X             Y             Z
Electronic contribution:    -45.10001      15.44098       9.55233
Nuclear contribution   :     47.36963     -14.67067     -10.13648
                        -----------------------------------------
Total Dipole Moment    :      2.26962       0.77031      -0.58415
                        -----------------------------------------
Magnitude (a.u.)       :      2.46694
Magnitude (Debye)      :      6.27046

Rotational constants in cm-1:     0.002299     0.000276     0.000263
Rotational constants in MHz :    68.920164     8.274909     7.875332

                             ****ORCA TERMINATED NORMALLY****
TOTAL RUN TIME: 0 days 0 hours 11 minutes 50 seconds 626 msec
