                         Program Version 4.2.0 -  RELEASE  -
|  1> # ORCA input file
|  2> # SCF done       -169.081457403345          0.000369201311
|  3> ! CAM-B3LYP def2-SVP def2/J RIJCOSX Grid4 TightSCF
|  4> %maxcore 5000
|  5> %tddft
|  6>     Mode sTDDFT
|  7>     Ethresh 5.0
|  8>     maxcore 5000
|  9> end
| 10>
| 11> %pal
| 12>   nprocs 6
| 13>   end
| 14> * xyz 0 1
| 15>    C       -3.76378         1.38309        -6.42350
| 16>    C       -3.24213         1.25809        -7.70286
| 17>    C       -2.59808         0.09644        -8.10265
| 18>    C       -2.44869        -0.97133        -7.23011
| 19>    C       -2.96422        -0.85758        -5.94998
| 20>    C       -3.63018         0.32065        -5.54377
| 21>    C       -4.08852         0.15151        -4.16979
| 22>    C       -4.70775         1.10950        -3.41159
| 23>    C       -4.96918         2.42287        -3.85765
| 24>    N       -5.21420         3.50605        -4.14888
| 25>    C       -5.15404         0.96455        -2.08020
| 26>    N       -5.55242         0.95413        -1.00299
| 27>    C       -3.78682        -1.22375        -3.79083
| 28>    C       -2.93421        -1.77934        -4.82567
| 29>    C       -2.07419        -2.83896        -4.69141
| 30>    C       -1.85150        -3.54119        -3.49131
| 31>    N       -1.60018        -4.13774        -2.54227
| 32>    C       -1.25910        -3.33258        -5.72889
| 33>    N       -0.59799        -3.80968        -6.53783
| 34>    C       -4.30588        -1.84387        -2.68493
| 35>    C       -4.44479        -3.22622        -2.41510
| 36>    C       -4.61373        -3.64346        -1.06736
| 37>    C       -4.72066        -5.02034        -0.69511
| 38>    N       -4.79522        -5.33913         0.61557
| 39>    C       -4.77771        -4.38344         1.50687
| 40>    C       -4.71397        -3.02999         1.12933
| 41>    N       -4.62859        -2.68249        -0.12300
| 42>    C       -4.73628        -6.06400        -1.66923
| 43>    C       -4.68381        -5.63620        -3.01949
| 44>    C       -4.52537        -4.24872        -3.38418
| 45>    N       -4.50783        -4.08300        -4.70758
| 46>    S       -4.66117        -5.51509        -5.42013
| 47>    N       -4.76282        -6.41565        -4.09873
| 48>    C       -4.78216        -7.43773        -1.32843
| 49>    N       -4.82314        -7.87036        -0.02322
| 50>    C       -4.86377        -9.22098        -0.01635
| 51>    C       -4.91731       -10.34105         0.79899
| 52>    C       -4.93843       -11.45311        -0.06208
| 53>    N       -4.89862       -11.02225        -1.37101
| 54>    C       -4.84934        -9.66452        -1.37724
| 55>    C       -4.79516        -8.55507        -2.19686
| 56>    C       -5.00363       -12.81252         0.31969
| 57>    C       -5.06843       -13.87287        -0.52501
| 58>    C       -5.13302       -15.22182        -0.06458
| 59>    N       -5.11752       -15.48374         1.23822
| 60>    N       -5.11722       -16.68370         1.72072
| 61>    C       -5.12752       -17.77383         0.96545
| 62>    C       -5.21547       -17.63754        -0.44413
| 63>    C       -5.21200       -16.31088        -0.97969
| 64>    N       -5.26899       -16.30559        -2.30777
| 65>    S       -5.30993       -17.83043        -2.82252
| 66>    N       -5.26691       -18.56634        -1.39429
| 67>    C       -5.09090       -19.06115         1.60819
| 68>    C       -4.42683       -19.35142         2.74452
| 69>    C       -4.75261       -20.59338         3.52397
| 70>    O       -5.38908       -21.54382         3.13785
| 71>    C       -4.16787       -20.32879         4.83267
| 72>    C       -3.44660       -19.13735         4.83863
| 73>    C       -3.46748       -18.56210         3.51031
| 74>    C       -2.58747       -17.62752         3.04356
| 75>    C       -2.44237       -17.26683         1.68836
| 76>    N       -2.23340       -16.98386         0.59563
| 77>    C       -1.66037       -16.99089         3.89570
| 78>    N       -0.90691       -16.46138         4.57961
| 79>    C       -2.86686       -18.85996         6.09102
| 80>    C       -3.16967       -19.83586         6.99411
| 81>    S       -4.14161       -21.10818         6.35399
| 82>    H       -4.26391         2.29233        -6.13374
| 83>    H       -3.34383         2.07879        -8.39652
| 84>    H       -2.20720         0.01962        -9.10586
| 85>    H       -1.95130        -1.87122        -7.55333
| 86>    H       -4.71138        -1.21829        -1.90005
| 87>    H       -4.83282        -4.68672         2.54349
| 88>    H       -4.74297        -2.23033         1.85581
| 89>    H       -4.81747        -7.19556         0.73637
| 90>    H       -4.94013       -10.39023         1.86866
| 91>    H       -4.88476       -11.62574        -2.17426
| 92>    H       -4.76867        -8.50030        -3.26468
| 93>    H       -5.00847       -13.01779         1.38060
| 94>    H       -5.07524       -13.75893        -1.59965
| 95>    H       -5.68958       -19.84508         1.15974
| 96>    H       -2.27187       -17.99490         6.31799
| 97>    H       -2.86542       -19.88486         8.02150
| 98> *
| 99>
|100>                          ****END OF INPUT****

CARTESIAN COORDINATES (ANGSTROEM)
---------------------------------
  C     -3.763780    1.383090   -6.423500
  C     -3.242130    1.258090   -7.702860
  C     -2.598080    0.096440   -8.102650
  C     -2.448690   -0.971330   -7.230110
  C     -2.964220   -0.857580   -5.949980
  C     -3.630180    0.320650   -5.543770
  C     -4.088520    0.151510   -4.169790
  C     -4.707750    1.109500   -3.411590
  C     -4.969180    2.422870   -3.857650
  N     -5.214200    3.506050   -4.148880
  C     -5.154040    0.964550   -2.080200
  N     -5.552420    0.954130   -1.002990
  C     -3.786820   -1.223750   -3.790830
  C     -2.934210   -1.779340   -4.825670
  C     -2.074190   -2.838960   -4.691410
  C     -1.851500   -3.541190   -3.491310
  N     -1.600180   -4.137740   -2.542270
  C     -1.259100   -3.332580   -5.728890
  N     -0.597990   -3.809680   -6.537830
  C     -4.305880   -1.843870   -2.684930
  C     -4.444790   -3.226220   -2.415100
  C     -4.613730   -3.643460   -1.067360
  C     -4.720660   -5.020340   -0.695110
  N     -4.795220   -5.339130    0.615570
  C     -4.777710   -4.383440    1.506870
  C     -4.713970   -3.029990    1.129330
  N     -4.628590   -2.682490   -0.123000
  C     -4.736280   -6.064000   -1.669230
  C     -4.683810   -5.636200   -3.019490
  C     -4.525370   -4.248720   -3.384180
  N     -4.507830   -4.083000   -4.707580
  S     -4.661170   -5.515090   -5.420130
  N     -4.762820   -6.415650   -4.098730
  C     -4.782160   -7.437730   -1.328430
  N     -4.823140   -7.870360   -0.023220
  C     -4.863770   -9.220980   -0.016350
  C     -4.917310  -10.341050    0.798990
  C     -4.938430  -11.453110   -0.062080
  N     -4.898620  -11.022250   -1.371010
  C     -4.849340   -9.664520   -1.377240
  C     -4.795160   -8.555070   -2.196860
  C     -5.003630  -12.812520    0.319690
  C     -5.068430  -13.872870   -0.525010
  C     -5.133020  -15.221820   -0.064580
  N     -5.117520  -15.483740    1.238220
  N     -5.117220  -16.683700    1.720720
  C     -5.127520  -17.773830    0.965450
  C     -5.215470  -17.637540   -0.444130
  C     -5.212000  -16.310880   -0.979690
  N     -5.268990  -16.305590   -2.307770
  S     -5.309930  -17.830430   -2.822520
  N     -5.266910  -18.566340   -1.394290
  C     -5.090900  -19.061150    1.608190
  C     -4.426830  -19.351420    2.744520
  C     -4.752610  -20.593380    3.523970
  O     -5.389080  -21.543820    3.137850
  C     -4.167870  -20.328790    4.832670
  C     -3.446600  -19.137350    4.838630
  C     -3.467480  -18.562100    3.510310
  C     -2.587470  -17.627520    3.043560
  C     -2.442370  -17.266830    1.688360
  N     -2.233400  -16.983860    0.595630
  C     -1.660370  -16.990890    3.895700
  N     -0.906910  -16.461380    4.579610
  C     -2.866860  -18.859960    6.091020
  C     -3.169670  -19.835860    6.994110
  S     -4.141610  -21.108180    6.353990
  H     -4.263910    2.292330   -6.133740
  H     -3.343830    2.078790   -8.396520
  H     -2.207200    0.019620   -9.105860
  H     -1.951300   -1.871220   -7.553330
  H     -4.711380   -1.218290   -1.900050
  H     -4.832820   -4.686720    2.543490
  H     -4.742970   -2.230330    1.855810
  H     -4.817470   -7.195560    0.736370
  H     -4.940130  -10.390230    1.868660
  H     -4.884760  -11.625740   -2.174260
  H     -4.768670   -8.500300   -3.264680
  H     -5.008470  -13.017790    1.380600
  H     -5.075240  -13.758930   -1.599650
  H     -5.689580  -19.845080    1.159740
  H     -2.271870  -17.994900    6.317990
  H     -2.865420  -19.884860    8.021500

 Total Charge           Charge          ....    0
 Multiplicity           Mult            ....    1
 Number of Electrons    NEL             ....  466
 Basis Dimension        Dim             .... 1030

ORBITAL ENERGIES
----------------

  NO   OCC          E(Eh)            E(eV)
   0   2.0000     -89.048152     -2423.1234
   1   2.0000     -89.038128     -2422.8506
   2   2.0000     -88.991834     -2421.5909
   3   2.0000     -19.222963      -523.0834
   4   2.0000     -14.475395      -393.8955
   5   2.0000     -14.463768      -393.5791
   6   2.0000     -14.461541      -393.5185
   7   2.0000     -14.459021      -393.4500
   8   2.0000     -14.453874      -393.3099
   9   2.0000     -14.453045      -393.2874
  10   2.0000     -14.452522      -393.2731
  11   2.0000     -14.444956      -393.0672
  12   2.0000     -14.443752      -393.0345
  13   2.0000     -14.437898      -392.8752
  14   2.0000     -14.420887      -392.4123
  15   2.0000     -14.418935      -392.3592
  16   2.0000     -14.410038      -392.1171
  17   2.0000     -14.409345      -392.0982
  18   2.0000     -14.409063      -392.0906
  19   2.0000     -14.408161      -392.0660
  20   2.0000     -10.381409      -282.4925
  21   2.0000     -10.349331      -281.6196
  22   2.0000     -10.348704      -281.6026
  23   2.0000     -10.344501      -281.4882
  24   2.0000     -10.343819      -281.4696
  25   2.0000     -10.342572      -281.4357
  26   2.0000     -10.341080      -281.3951
  27   2.0000     -10.340768      -281.3866
  28   2.0000     -10.339891      -281.3627
  29   2.0000     -10.338448      -281.3235
  30   2.0000     -10.337754      -281.3046
  31   2.0000     -10.337031      -281.2849
  32   2.0000     -10.336486      -281.2701
  33   2.0000     -10.336016      -281.2573
  34   2.0000     -10.334201      -281.2079
  35   2.0000     -10.332763      -281.1688
  36   2.0000     -10.332539      -281.1627
  37   2.0000     -10.330594      -281.1097
  38   2.0000     -10.329401      -281.0773
  39   2.0000     -10.327950      -281.0378
  40   2.0000     -10.327015      -281.0124
  41   2.0000     -10.324157      -280.9346
  42   2.0000     -10.321050      -280.8500
  43   2.0000     -10.320965      -280.8477
  44   2.0000     -10.318563      -280.7824
  45   2.0000     -10.317544      -280.7546
  46   2.0000     -10.317459      -280.7523
  47   2.0000     -10.315580      -280.7012
  48   2.0000     -10.312823      -280.6262
  49   2.0000     -10.312431      -280.6155
  50   2.0000     -10.311788      -280.5980
  51   2.0000     -10.311457      -280.5890
  52   2.0000     -10.311004      -280.5767
  53   2.0000     -10.305219      -280.4193
  54   2.0000     -10.304241      -280.3927
  55   2.0000     -10.302945      -280.3574
  56   2.0000     -10.299623      -280.2670
  57   2.0000     -10.299270      -280.2574
  58   2.0000     -10.299127      -280.2535
  59   2.0000     -10.295749      -280.1616
  60   2.0000     -10.294550      -280.1289
  61   2.0000     -10.289194      -279.9832
  62   2.0000     -10.289088      -279.9803
  63   2.0000     -10.288634      -279.9680
  64   2.0000     -10.287775      -279.9446
  65   2.0000     -10.286956      -279.9223
  66   2.0000     -10.283601      -279.8310
  67   2.0000      -8.139954      -221.4994
  68   2.0000      -8.129398      -221.2122
  69   2.0000      -8.087035      -220.0594
  70   2.0000      -6.111040      -166.2898
  71   2.0000      -6.103250      -166.0779
  72   2.0000      -6.102554      -166.0589
  73   2.0000      -6.100581      -166.0052
  74   2.0000      -6.092758      -165.7924
  75   2.0000      -6.092002      -165.7718
  76   2.0000      -6.056208      -164.7978
  77   2.0000      -6.051740      -164.6762
  78   2.0000      -6.049711      -164.6210
  79   2.0000      -1.151664       -31.3384
  80   2.0000      -1.139891       -31.0180
  81   2.0000      -1.137061       -30.9410
  82   2.0000      -1.126270       -30.6474
  83   2.0000      -1.109420       -30.1888
  84   2.0000      -1.100238       -29.9390
  85   2.0000      -1.070326       -29.1250
  86   2.0000      -1.032043       -28.0833
  87   2.0000      -1.024982       -27.8912
  88   2.0000      -1.020958       -27.7817
  89   2.0000      -1.012977       -27.5645
  90   2.0000      -1.007023       -27.4025
  91   2.0000      -1.004779       -27.3414
  92   2.0000      -0.998290       -27.1649
  93   2.0000      -0.995606       -27.0918
  94   2.0000      -0.991825       -26.9889
  95   2.0000      -0.987882       -26.8816
  96   2.0000      -0.986966       -26.8567
  97   2.0000      -0.971781       -26.4435
  98   2.0000      -0.969250       -26.3746
  99   2.0000      -0.952073       -25.9072
 100   2.0000      -0.944733       -25.7075
 101   2.0000      -0.931254       -25.3407
 102   2.0000      -0.925837       -25.1933
 103   2.0000      -0.907522       -24.6949
 104   2.0000      -0.905766       -24.6472
 105   2.0000      -0.902821       -24.5670
 106   2.0000      -0.885997       -24.1092
 107   2.0000      -0.883838       -24.0505
 108   2.0000      -0.880266       -23.9533
 109   2.0000      -0.874831       -23.8054
 110   2.0000      -0.864468       -23.5234
 111   2.0000      -0.858135       -23.3511
 112   2.0000      -0.854198       -23.2439
 113   2.0000      -0.849945       -23.1282
 114   2.0000      -0.818691       -22.2777
 115   2.0000      -0.805553       -21.9202
 116   2.0000      -0.791985       -21.5510
 117   2.0000      -0.779743       -21.2179
 118   2.0000      -0.778469       -21.1832
 119   2.0000      -0.774187       -21.0667
 120   2.0000      -0.766395       -20.8547
 121   2.0000      -0.759788       -20.6749
 122   2.0000      -0.751712       -20.4551
 123   2.0000      -0.740203       -20.1419
 124   2.0000      -0.719106       -19.5679
 125   2.0000      -0.709452       -19.3052
 126   2.0000      -0.707319       -19.2471
 127   2.0000      -0.704265       -19.1640
 128   2.0000      -0.703148       -19.1336
 129   2.0000      -0.698216       -18.9994
 130   2.0000      -0.694374       -18.8949
 131   2.0000      -0.692861       -18.8537
 132   2.0000      -0.676864       -18.4184
 133   2.0000      -0.670548       -18.2465
 134   2.0000      -0.667311       -18.1584
 135   2.0000      -0.664238       -18.0748
 136   2.0000      -0.655752       -17.8439
 137   2.0000      -0.652923       -17.7669
 138   2.0000      -0.651531       -17.7291
 139   2.0000      -0.645154       -17.5555
 140   2.0000      -0.642894       -17.4940
 141   2.0000      -0.627517       -17.0756
 142   2.0000      -0.622743       -16.9457
 143   2.0000      -0.614015       -16.7082
 144   2.0000      -0.609964       -16.5980
 145   2.0000      -0.607696       -16.5363
 146   2.0000      -0.600094       -16.3294
 147   2.0000      -0.589219       -16.0335
 148   2.0000      -0.580144       -15.7865
 149   2.0000      -0.578752       -15.7487
 150   2.0000      -0.573629       -15.6092
 151   2.0000      -0.571581       -15.5535
 152   2.0000      -0.570798       -15.5322
 153   2.0000      -0.567305       -15.4372
 154   2.0000      -0.565813       -15.3966
 155   2.0000      -0.558899       -15.2084
 156   2.0000      -0.556136       -15.1332
 157   2.0000      -0.551769       -15.0144
 158   2.0000      -0.549571       -14.9546
 159   2.0000      -0.547804       -14.9065
 160   2.0000      -0.545070       -14.8321
 161   2.0000      -0.539596       -14.6832
 162   2.0000      -0.535542       -14.5728
 163   2.0000      -0.529370       -14.4049
 164   2.0000      -0.527048       -14.3417
 165   2.0000      -0.526018       -14.3137
 166   2.0000      -0.524981       -14.2855
 167   2.0000      -0.523812       -14.2536
 168   2.0000      -0.520043       -14.1511
 169   2.0000      -0.514618       -14.0035
 170   2.0000      -0.502304       -13.6684
 171   2.0000      -0.499291       -13.5864
 172   2.0000      -0.497968       -13.5504
 173   2.0000      -0.497384       -13.5345
 174   2.0000      -0.496249       -13.5036
 175   2.0000      -0.493954       -13.4412
 176   2.0000      -0.491518       -13.3749
 177   2.0000      -0.487883       -13.2760
 178   2.0000      -0.484590       -13.1864
 179   2.0000      -0.483720       -13.1627
 180   2.0000      -0.476421       -12.9641
 181   2.0000      -0.475421       -12.9369
 182   2.0000      -0.474672       -12.9165
 183   2.0000      -0.472789       -12.8653
 184   2.0000      -0.462642       -12.5891
 185   2.0000      -0.462022       -12.5723
 186   2.0000      -0.459076       -12.4921
 187   2.0000      -0.456203       -12.4139
 188   2.0000      -0.450849       -12.2682
 189   2.0000      -0.450208       -12.2508
 190   2.0000      -0.448273       -12.1981
 191   2.0000      -0.446479       -12.1493
 192   2.0000      -0.445331       -12.1181
 193   2.0000      -0.442328       -12.0364
 194   2.0000      -0.442131       -12.0310
 195   2.0000      -0.439624       -11.9628
 196   2.0000      -0.436513       -11.8781
 197   2.0000      -0.435846       -11.8600
 198   2.0000      -0.433386       -11.7930
 199   2.0000      -0.428425       -11.6580
 200   2.0000      -0.427105       -11.6221
 201   2.0000      -0.423673       -11.5287
 202   2.0000      -0.420502       -11.4424
 203   2.0000      -0.420128       -11.4323
 204   2.0000      -0.417817       -11.3694
 205   2.0000      -0.416576       -11.3356
 206   2.0000      -0.414600       -11.2818
 207   2.0000      -0.411496       -11.1974
 208   2.0000      -0.406276       -11.0553
 209   2.0000      -0.402367       -10.9490
 210   2.0000      -0.402292       -10.9469
 211   2.0000      -0.400855       -10.9078
 212   2.0000      -0.400119       -10.8878
 213   2.0000      -0.396988       -10.8026
 214   2.0000      -0.394051       -10.7227
 215   2.0000      -0.384627       -10.4662
 216   2.0000      -0.377295       -10.2667
 217   2.0000      -0.375626       -10.2213
 218   2.0000      -0.365011        -9.9324
 219   2.0000      -0.360771        -9.8171
 220   2.0000      -0.349054        -9.4982
 221   2.0000      -0.348811        -9.4916
 222   2.0000      -0.347225        -9.4485
 223   2.0000      -0.342397        -9.3171
 224   2.0000      -0.341878        -9.3030
 225   2.0000      -0.325568        -8.8592
 226   2.0000      -0.320144        -8.7116
 227   2.0000      -0.317642        -8.6435
 228   2.0000      -0.305598        -8.3158
 229   2.0000      -0.303344        -8.2544
 230   2.0000      -0.297904        -8.1064
 231   2.0000      -0.284030        -7.7288
 232   2.0000      -0.237670        -6.4673
 233   0.0000      -0.127210        -3.4616
 234   0.0000      -0.099792        -2.7155
 235   0.0000      -0.076938        -2.0936
 236   0.0000      -0.075162        -2.0453
 237   0.0000      -0.061341        -1.6692

MULLIKEN ATOMIC CHARGES
-----------------------
   0 C :   -0.035495
   1 C :    0.043231
   2 C :    0.048164
   3 C :   -0.038683
   4 C :   -0.001344
   5 C :    0.010589
   6 C :    0.300570
   7 C :   -0.361205
   8 C :   -0.190700
   9 N :    0.152195
  10 C :   -0.179908
  11 N :    0.154993
  12 C :   -0.036075
  13 C :    0.309364
  14 C :   -0.347957
  15 C :   -0.199784
  16 N :    0.160684
  17 C :   -0.203088
  18 N :    0.151362
  19 C :   -0.067652
  20 C :    0.061022
  21 C :   -0.031790
  22 C :   -0.029424
  23 N :   -0.087096
  24 C :    0.040621
  25 C :    0.044878
  26 N :   -0.001657
  27 C :    0.222908
  28 C :    0.017863
  29 C :   -0.037005
  30 N :   -0.293928
  31 S :    0.541615
  32 N :   -0.278858
  33 C :   -0.135072
  34 N :   -0.008044
  35 C :    0.154391
  36 C :   -0.163406
  37 C :    0.110617
  38 N :   -0.030780
  39 C :    0.148001
  40 C :   -0.132663
  41 C :    0.068551
  42 C :   -0.061296
  43 C :   -0.026832
  44 N :   -0.068576
  45 N :   -0.040227
  46 C :   -0.135887
  47 C :    0.107748
  48 C :    0.057764
  49 N :   -0.262919
  50 S :    0.539365
  51 N :   -0.241517
  52 C :    0.029592
  53 C :   -0.112260
  54 C :    0.119106
  55 O :   -0.133155
  56 C :   -0.161406
  57 C :   -0.008211
  58 C :    0.301653
  59 C :   -0.301506
  60 C :   -0.160721
  61 N :    0.148462
  62 C :   -0.195435
  63 N :    0.156632
  64 C :    0.033111
  65 C :   -0.058267
  66 S :    0.212504
  67 H :    0.001171
  68 H :   -0.000125
  69 H :   -0.001290
  70 H :   -0.000167
  71 H :    0.030419
  72 H :    0.018766
  73 H :    0.032534
  74 H :    0.131816
  75 H :   -0.018272
  76 H :    0.132814
  77 H :   -0.013571
  78 H :    0.020802
  79 H :   -0.021610
  80 H :    0.033920
  81 H :    0.019662
  82 H :    0.045405
Sum of atomic charges:   -0.0000000

LOEWDIN ATOMIC CHARGES
----------------------
   0 C :    0.002882
   1 C :   -0.003976
   2 C :    0.000395
   3 C :   -0.002609
   4 C :   -0.006095
   5 C :   -0.014095
   6 C :    0.081081
   7 C :   -0.137221
   8 C :   -0.017677
   9 N :   -0.055692
  10 C :   -0.022782
  11 N :   -0.048380
  12 C :   -0.062788
  13 C :    0.079590
  14 C :   -0.142757
  15 C :   -0.015096
  16 N :   -0.063653
  17 C :   -0.021354
  18 N :   -0.061723
  19 C :    0.067815
  20 C :   -0.077474
  21 C :    0.029913
  22 C :   -0.015909
  23 N :   -0.031952
  24 C :    0.007186
  25 C :    0.030396
  26 N :   -0.022423
  27 C :    0.011948
  28 C :   -0.040009
  29 C :   -0.034939
  30 N :   -0.285480
  31 S :    0.664462
  32 N :   -0.269674
  33 C :    0.012802
  34 N :    0.079095
  35 C :    0.009971
  36 C :   -0.072542
  37 C :    0.020673
  38 N :    0.070469
  39 C :   -0.006781
  40 C :   -0.049330
  41 C :    0.028869
  42 C :   -0.047615
  43 C :    0.009145
  44 N :   -0.059760
  45 N :   -0.031758
  46 C :   -0.034794
  47 C :   -0.052380
  48 C :   -0.055292
  49 N :   -0.272564
  50 S :    0.675836
  51 N :   -0.270599
  52 C :    0.057654
  53 C :   -0.049265
  54 C :    0.066560
  55 O :   -0.133781
  56 C :   -0.210525
  57 C :   -0.031130
  58 C :    0.078041
  59 C :   -0.119133
  60 C :   -0.011285
  61 N :   -0.058448
  62 C :   -0.016365
  63 N :   -0.048600
  64 C :   -0.044190
  65 C :   -0.144824
  66 S :    0.503739
  67 H :    0.040084
  68 H :    0.035531
  69 H :    0.035298
  70 H :    0.039019
  71 H :    0.046068
  72 H :    0.028974
  73 H :    0.036048
  74 H :    0.067511
  75 H :    0.032628
  76 H :    0.092811
  77 H :    0.029168
  78 H :    0.047119
  79 H :    0.026513
  80 H :    0.052640
  81 H :    0.044563
  82 H :    0.032222

  Mayer bond orders larger than 0.100000
B(  0-C ,  1-C ) :   1.3676 B(  0-C ,  5-C ) :   1.3836 B(  0-C , 67-H ) :   0.9830
B(  1-C ,  2-C ) :   1.3820 B(  1-C , 68-H ) :   0.9855 B(  2-C ,  3-C ) :   1.3600
B(  2-C , 69-H ) :   0.9857 B(  3-C ,  4-C ) :   1.3870 B(  3-C , 70-H ) :   0.9855
B(  4-C ,  5-C ) :   1.3128 B(  4-C , 13-C ) :   1.0106 B(  5-C ,  6-C ) :   0.9884
B(  6-C ,  7-C ) :   1.6218 B(  6-C , 12-C ) :   1.0816 B(  7-C ,  8-C ) :   1.1518
B(  7-C , 10-C ) :   1.1393 B(  8-C ,  9-N ) :   2.9735 B( 10-C , 11-N ) :   2.9669
B( 12-C , 13-C ) :   1.0490 B( 12-C , 19-C ) :   1.5061 B( 13-C , 14-C ) :   1.6032
B( 14-C , 15-C ) :   1.1735 B( 14-C , 17-C ) :   1.1537 B( 15-C , 16-N ) :   2.9935
B( 17-C , 18-N ) :   2.9862 B( 19-C , 20-C ) :   1.2439 B( 19-C , 71-H ) :   0.9096
B( 20-C , 21-C ) :   1.2345 B( 20-C , 27-C ) :   0.1245 B( 20-C , 29-C ) :   1.1523
B( 21-C , 22-C ) :   1.1625 B( 21-C , 26-N ) :   1.4925 B( 22-C , 23-N ) :   1.4190
B( 22-C , 27-C ) :   1.1881 B( 23-N , 24-C ) :   1.6276 B( 23-N , 74-H ) :   0.1140
B( 24-C , 25-C ) :   1.2101 B( 24-C , 72-H ) :   0.9732 B( 25-C , 26-N ) :   1.6724
B( 25-C , 73-H ) :   0.9770 B( 27-C , 28-C ) :   1.2231 B( 27-C , 33-C ) :   1.1578
B( 28-C , 29-C ) :   1.1139 B( 28-C , 32-N ) :   1.5360 B( 29-C , 30-N ) :   1.5198
B( 30-N , 31-S ) :   1.2488 B( 30-N , 32-N ) :   0.1382 B( 31-S , 32-N ) :   1.2815
B( 33-C , 34-N ) :   1.2450 B( 33-C , 40-C ) :   1.2978 B( 34-N , 35-C ) :   1.2035
B( 34-N , 74-H ) :   0.8691 B( 35-C , 36-C ) :   1.2561 B( 35-C , 39-C ) :   1.2327
B( 36-C , 37-C ) :   1.3279 B( 36-C , 75-H ) :   1.0470 B( 37-C , 38-N ) :   1.2025
B( 37-C , 41-C ) :   1.1291 B( 38-N , 39-C ) :   1.1570 B( 38-N , 76-H ) :   0.9295
B( 39-C , 40-C ) :   1.2845 B( 40-C , 77-H ) :   1.0239 B( 41-C , 42-C ) :   1.5662
B( 41-C , 78-H ) :   0.9676 B( 42-C , 43-C ) :   1.2029 B( 42-C , 79-H ) :   0.9711
B( 43-C , 44-N ) :   1.6196 B( 43-C , 46-C ) :   0.1157 B( 43-C , 48-C ) :   1.0792
B( 44-N , 45-N ) :   1.2414 B( 45-N , 46-C ) :   1.6219 B( 46-C , 47-C ) :   1.1072
B( 46-C , 52-C ) :   1.0439 B( 47-C , 48-C ) :   1.2037 B( 47-C , 51-N ) :   1.5721
B( 48-C , 49-N ) :   1.5587 B( 49-N , 50-S ) :   1.2792 B( 49-N , 51-N ) :   0.1459
B( 50-S , 51-N ) :   1.2772 B( 52-C , 53-C ) :   1.7717 B( 52-C , 80-H ) :   0.9507
B( 53-C , 54-C ) :   0.9257 B( 53-C , 58-C ) :   0.9940 B( 54-C , 55-O ) :   2.2588
B( 54-C , 56-C ) :   1.0256 B( 56-C , 57-C ) :   1.4424 B( 56-C , 66-S ) :   1.1297
B( 57-C , 58-C ) :   1.0269 B( 57-C , 64-C ) :   1.2731 B( 58-C , 59-C ) :   1.6991
B( 59-C , 60-C ) :   1.1533 B( 59-C , 62-C ) :   1.1379 B( 60-C , 61-N ) :   2.9758
B( 62-C , 63-N ) :   2.9988 B( 64-C , 65-C ) :   1.5421 B( 64-C , 81-H ) :   0.9948
B( 65-C , 66-S ) :   1.1902 B( 65-C , 82-H ) :   0.9621

-----------------------------------------------------------------------------
         ABSORPTION SPECTRUM VIA TRANSITION ELECTRIC DIPOLE MOMENTS
-----------------------------------------------------------------------------
State   Energy  Wavelength   fosc         T2         TX        TY        TZ
        (cm-1)    (nm)                  (au**2)     (au)      (au)      (au)
-----------------------------------------------------------------------------
   0    9667.9   1034.3   1.215306116  41.38364   0.51827   6.12251  -1.90522
   1   17016.5    587.7   0.243904203   4.71871   0.47344  -2.10155   0.27935
   2   17636.7    567.0   0.042635952   0.79586   0.06706  -0.88731   0.06351
   3   19302.7    518.1   0.077488458   1.32158   0.09145  -1.12670   0.20917
   4   20407.6    490.0   0.101127494   1.63137  -0.56117   1.11486   0.27120
   5   20935.2    477.7   0.049424965   0.77722  -0.12741  -0.57359   0.65725
   6   22008.9    454.4   0.206296454   3.08581  -0.77540  -1.22927   0.98664
   7   22837.8    437.9   0.030726030   0.44292   0.28565  -0.55350   0.23445
   8   23647.1    422.9   0.062822910   0.87461  -0.28466  -0.85624  -0.24584
   9   25180.4    397.1   0.002150668   0.02812  -0.08616   0.02608  -0.14147
  10   25945.9    385.4   0.023045061   0.29241  -0.41373  -0.19766  -0.28665
  11   27134.8    368.5   0.004346486   0.05273   0.13016   0.18771   0.02364
  12   27417.3    364.7   0.012050961   0.14470  -0.09109  -0.36615   0.04837
  13   28072.0    356.2   0.014041689   0.16467  -0.01900  -0.07319  -0.39869
  14   28398.1    352.1   0.005456064   0.06325  -0.10540  -0.20348   0.10363
  15   28649.1    349.1   0.115488220   1.32710  -0.26798   0.58288  -0.95684
  16   29130.5    343.3   0.030361167   0.34312   0.23286  -0.44008   0.30859
  17   29261.0    341.8   0.061473214   0.69163  -0.32715   0.08112   0.76028
  18   29539.5    338.5   0.268207060   2.98911   0.85526  -1.45501   0.37494
  19   29991.8    333.4   0.159953458   1.75577  -0.09112  -0.74302   1.09334
  20   30275.1    330.3   0.040628006   0.44179  -0.18411   0.55594   0.31437
  21   30935.9    323.2   0.069426932   0.73882  -0.20085  -0.81882   0.16739
  22   30976.0    322.8   0.042365634   0.45026   0.15865   0.55293   0.34549
  23   31606.9    316.4   0.332054319   3.45862  -0.56223   1.55758   0.84644
  24   31732.3    315.1   0.074490497   0.77281   0.87413   0.03050  -0.08824
  25   31832.6    314.1   0.140124024   1.44916  -0.05700   1.18069   0.22778
  26   32146.0    311.1   0.176043556   1.80289   0.09610   1.33926  -0.00533
  27   32928.1    303.7   0.030471643   0.30465  -0.21654   0.50437   0.05806
  28   32969.6    303.3   0.025374145   0.25337   0.37588  -0.29724  -0.15405
  29   33335.6    300.0   0.088745451   0.87642  -0.52003   0.40008  -0.66778
  30   33975.6    294.3   0.007018845   0.06801  -0.07005   0.14089  -0.20797
  31   34118.1    293.1   0.132538155   1.27889  -0.19788   0.57116   0.95577
  32   34523.0    289.7   0.004774007   0.04553   0.12694   0.16622   0.04222
  33   34800.8    287.3   0.095715092   0.90546  -0.65774  -0.39824   0.56057
  34   35413.3    282.4   0.101195224   0.94074   0.02853   0.21956   0.94431
  35   35932.9    278.3   0.100038840   0.91654   0.15877   0.91745  -0.22275
  36   36197.2    276.3   0.621753046   5.65482   0.07862  -0.40079   2.34265
  37   36491.8    274.0   0.298051819   2.68889  -0.79001  -1.24471   0.71797
  38   36636.3    273.0   0.031573545   0.28372  -0.45850  -0.01596  -0.27064
  39   37115.5    269.4   0.201699726   1.78906  -0.47324  -0.88034   0.88888
  40   37214.6    268.7   0.086371122   0.76407   0.63070   0.58973  -0.13604
  41   37732.5    265.0   0.006959823   0.06072  -0.13297  -0.14965   0.14370
  42   38142.0    262.2   0.060952496   0.52609  -0.14807  -0.06791   0.70679
  43   38525.2    259.6   0.138354425   1.18229   0.33795   0.26688  -0.99843
  44   38632.6    258.8   0.002153225   0.01835   0.09235   0.03404   0.09307
  45   38721.2    258.3   0.038635573   0.32848  -0.25046  -0.00162  -0.51551
  46   38924.1    256.9   0.054941688   0.46469  -0.56718   0.37812   0.00358
  47   38988.5    256.5   0.025118552   0.21210   0.24424   0.08890  -0.38019
  48   39015.8    256.3   0.068848577   0.58094  -0.59509   0.46193  -0.11585
  49   39183.1    255.2   0.004327341   0.03636   0.09690  -0.14332  -0.08016
  50   39419.5    253.7   0.192062038   1.60400  -0.06837  -0.65898  -1.07938
  51   39556.8    252.8   0.011843114   0.09856  -0.21423  -0.22838   0.02264
  52   39737.7    251.6   0.043052332   0.35667  -0.25714   0.16585   0.51288
  53   39979.3    250.1   0.001013104   0.00834   0.03367   0.06175  -0.05827

FINAL SINGLE POINT ENERGY     -3942.397122126462

DIPOLE MOMENT
-------------
                                X             Y             Z
Electronic contribution:     -1.68904     -25.99020       0.57516
Nuclear contribution   :     -0.19178      22.93406      -0.20503
                        -----------------------------------------
Total Dipole Moment    :     -1.88082      -3.05614       0.37013
                        -----------------------------------------
Magnitude (a.u.)       :      3.60755
Magnitude (Debye)      :      9.16967

Rotational constants in cm-1:     0.002920     0.000264     0.000252
Rotational constants in MHz :    87.547523     7.924578     7.564148

                             ****ORCA TERMINATED NORMALLY****
TOTAL RUN TIME: 0 days 0 hours 8 minutes 16 seconds 730 msec
