                         Program Version 4.2.0 -  RELEASE  -
|  1> # ORCA input file
|  2> # SCF done       -174.279848241327          0.000824385187
|  3> ! CAM-B3LYP def2-SVP def2/J RIJCOSX Grid4 TightSCF
|  4> %maxcore 5000
|  5> %tddft
|  6>     Mode sTDDFT
|  7>     Ethresh 5.0
|  8>     maxcore 5000
|  9> end
| 10>
| 11> %pal
| 12>   nprocs 6
| 13>   end
| 14> * xyz 0 1
| 15>    C       -7.34720         2.01591         3.63888
| 16>    C       -7.54841         1.80193         4.99370
| 17>    C       -7.15230         0.61660         5.59921
| 18>    C       -6.53420        -0.38613         4.86831
| 19>    C       -6.32236        -0.18300         3.51389
| 20>    C       -6.73598         1.01921         2.89263
| 21>    C       -6.41551         0.95597         1.47501
| 22>    C       -6.53291         1.96865         0.56624
| 23>    C       -7.00040         3.26379         0.88174
| 24>    N       -7.36993         4.33309         1.07185
| 25>    C       -6.17020         1.88316        -0.79649
| 26>    N       -5.89327         1.89156        -1.90996
| 27>    C       -5.94832        -0.40759         1.21583
| 28>    C       -5.67356        -1.01981         2.51941
| 29>    C       -4.78107        -2.01993         2.77455
| 30>    C       -3.96116        -2.62709         1.79898
| 31>    N       -3.22999        -3.11811         1.06242
| 32>    C       -4.50410        -2.51708         4.06661
| 33>    N       -4.24369        -2.96531         5.08989
| 34>    C       -5.93128        -1.01063         0.00495
| 35>    C       -5.80704        -2.42808        -0.20956
| 36>    N       -6.38606        -3.26771         0.63568
| 37>    N       -6.28503        -4.55476         0.53958
| 38>    C       -5.62580        -5.16665        -0.43700
| 39>    C       -5.03475        -4.37143        -1.46023
| 40>    C       -5.12392        -2.95045        -1.33871
| 41>    N       -4.49400        -2.31950        -2.32493
| 42>    S       -3.86031        -3.41702        -3.30924
| 43>    N       -4.35327        -4.73964        -2.53890
| 44>    C       -5.52257        -6.58823        -0.43963
| 45>    S       -4.64065        -7.38034        -1.70405
| 46>    C       -5.01673        -8.92748        -1.02059
| 47>    C       -5.77483        -8.82072         0.14220
| 48>    C       -6.06340        -7.48990         0.47357
| 49>    C       -6.85627        -7.11331         1.67801
| 50>    C       -7.60594        -8.31771         2.23925
| 51>    C       -6.66899        -9.51742         2.35613
| 52>    C       -7.29731       -10.66455         3.10604
| 53>    O       -8.32906       -10.61585         3.71159
| 54>    C       -6.22305        -9.98053         0.96492
| 55>    C       -4.54198       -10.11826        -1.64020
| 56>    N       -4.98988       -11.29570        -1.21243
| 57>    N       -4.54944       -12.42345        -1.66914
| 58>    C       -3.64978       -12.53223        -2.63492
| 59>    C       -3.15118       -11.34196        -3.23586
| 60>    C       -3.59896       -10.09152        -2.70680
| 61>    N       -3.04482        -9.05638        -3.32843
| 62>    S       -2.06115        -9.61154        -4.47270
| 63>    N       -2.29048       -11.18375        -4.23610
| 64>    C       -3.22096       -13.81266        -3.11452
| 65>    C       -3.52179       -15.04092        -2.62449
| 66>    C       -3.32991       -16.27988        -3.38450
| 67>    C       -2.42100       -16.49437        -4.38067
| 68>    C       -1.44866       -15.56019        -4.80450
| 69>    N       -0.62193       -14.86319        -5.18804
| 70>    C       -2.29555       -17.71300        -5.08378
| 71>    N       -2.14846       -18.67380        -5.69318
| 72>    C       -4.28002       -17.24271        -2.85005
| 73>    C       -4.87524       -16.70098        -1.68658
| 74>    C       -5.83463       -17.41605        -0.98798
| 75>    C       -6.19409       -18.67117        -1.45463
| 76>    C       -5.60463       -19.20780        -2.59182
| 77>    C       -4.64361       -18.50314        -3.30003
| 78>    C       -4.28258       -15.39909        -1.42457
| 79>    C       -4.25337       -14.75592        -0.22400
| 80>    C       -4.98043       -15.17189         0.91178
| 81>    N       -5.56106       -15.45336         1.86038
| 82>    C       -3.40216       -13.66432         0.06677
| 83>    N       -2.64929       -12.86791         0.40933
| 84>    H       -7.66790         2.93860         3.18371
| 85>    H       -8.02494         2.56946         5.58405
| 86>    H       -7.32825         0.47143         6.65400
| 87>    H       -6.23888        -1.30617         5.34586
| 88>    H       -6.06696        -0.42627        -0.89430
| 89>    H       -7.54239        -6.30365         1.42572
| 90>    H       -6.17164        -6.70846         2.42940
| 91>    H       -8.43575        -8.58072         1.58065
| 92>    H       -8.02168        -8.07723         3.21770
| 93>    H       -5.77870        -9.22662         2.92903
| 94>    H       -6.70102       -11.59709         3.05649
| 95>    H       -7.05357       -10.47361         0.45113
| 96>    H       -5.42003       -10.71742         1.02832
| 97>    H       -2.64938       -13.74805        -4.03112
| 98>    H       -6.30366       -17.00589        -0.10837
| 99>    H       -6.94483       -19.23769        -0.92534
|100>    H       -5.90044       -20.18740        -2.93465
|101>    H       -4.20052       -18.93042        -4.18472
|102> *
|103>
|104>                          ****END OF INPUT****

CARTESIAN COORDINATES (ANGSTROEM)
---------------------------------
  C     -7.347200    2.015910    3.638880
  C     -7.548410    1.801930    4.993700
  C     -7.152300    0.616600    5.599210
  C     -6.534200   -0.386130    4.868310
  C     -6.322360   -0.183000    3.513890
  C     -6.735980    1.019210    2.892630
  C     -6.415510    0.955970    1.475010
  C     -6.532910    1.968650    0.566240
  C     -7.000400    3.263790    0.881740
  N     -7.369930    4.333090    1.071850
  C     -6.170200    1.883160   -0.796490
  N     -5.893270    1.891560   -1.909960
  C     -5.948320   -0.407590    1.215830
  C     -5.673560   -1.019810    2.519410
  C     -4.781070   -2.019930    2.774550
  C     -3.961160   -2.627090    1.798980
  N     -3.229990   -3.118110    1.062420
  C     -4.504100   -2.517080    4.066610
  N     -4.243690   -2.965310    5.089890
  C     -5.931280   -1.010630    0.004950
  C     -5.807040   -2.428080   -0.209560
  N     -6.386060   -3.267710    0.635680
  N     -6.285030   -4.554760    0.539580
  C     -5.625800   -5.166650   -0.437000
  C     -5.034750   -4.371430   -1.460230
  C     -5.123920   -2.950450   -1.338710
  N     -4.494000   -2.319500   -2.324930
  S     -3.860310   -3.417020   -3.309240
  N     -4.353270   -4.739640   -2.538900
  C     -5.522570   -6.588230   -0.439630
  S     -4.640650   -7.380340   -1.704050
  C     -5.016730   -8.927480   -1.020590
  C     -5.774830   -8.820720    0.142200
  C     -6.063400   -7.489900    0.473570
  C     -6.856270   -7.113310    1.678010
  C     -7.605940   -8.317710    2.239250
  C     -6.668990   -9.517420    2.356130
  C     -7.297310  -10.664550    3.106040
  O     -8.329060  -10.615850    3.711590
  C     -6.223050   -9.980530    0.964920
  C     -4.541980  -10.118260   -1.640200
  N     -4.989880  -11.295700   -1.212430
  N     -4.549440  -12.423450   -1.669140
  C     -3.649780  -12.532230   -2.634920
  C     -3.151180  -11.341960   -3.235860
  C     -3.598960  -10.091520   -2.706800
  N     -3.044820   -9.056380   -3.328430
  S     -2.061150   -9.611540   -4.472700
  N     -2.290480  -11.183750   -4.236100
  C     -3.220960  -13.812660   -3.114520
  C     -3.521790  -15.040920   -2.624490
  C     -3.329910  -16.279880   -3.384500
  C     -2.421000  -16.494370   -4.380670
  C     -1.448660  -15.560190   -4.804500
  N     -0.621930  -14.863190   -5.188040
  C     -2.295550  -17.713000   -5.083780
  N     -2.148460  -18.673800   -5.693180
  C     -4.280020  -17.242710   -2.850050
  C     -4.875240  -16.700980   -1.686580
  C     -5.834630  -17.416050   -0.987980
  C     -6.194090  -18.671170   -1.454630
  C     -5.604630  -19.207800   -2.591820
  C     -4.643610  -18.503140   -3.300030
  C     -4.282580  -15.399090   -1.424570
  C     -4.253370  -14.755920   -0.224000
  C     -4.980430  -15.171890    0.911780
  N     -5.561060  -15.453360    1.860380
  C     -3.402160  -13.664320    0.066770
  N     -2.649290  -12.867910    0.409330
  H     -7.667900    2.938600    3.183710
  H     -8.024940    2.569460    5.584050
  H     -7.328250    0.471430    6.654000
  H     -6.238880   -1.306170    5.345860
  H     -6.066960   -0.426270   -0.894300
  H     -7.542390   -6.303650    1.425720
  H     -6.171640   -6.708460    2.429400
  H     -8.435750   -8.580720    1.580650
  H     -8.021680   -8.077230    3.217700
  H     -5.778700   -9.226620    2.929030
  H     -6.701020  -11.597090    3.056490
  H     -7.053570  -10.473610    0.451130
  H     -5.420030  -10.717420    1.028320
  H     -2.649380  -13.748050   -4.031120
  H     -6.303660  -17.005890   -0.108370
  H     -6.944830  -19.237690   -0.925340
  H     -5.900440  -20.187400   -2.934650
  H     -4.200520  -18.930420   -4.184720

 Total Charge           Charge          ....    0
 Multiplicity           Mult            ....    1
 Number of Electrons    NEL             ....  480
 Basis Dimension        Dim             .... 1068

ORBITAL ENERGIES
----------------

  NO   OCC          E(Eh)            E(eV)
   0   2.0000     -89.059611     -2423.4352
   1   2.0000     -89.056332     -2423.3460
   2   2.0000     -88.970554     -2421.0118
   3   2.0000     -19.209507      -522.7173
   4   2.0000     -14.474236      -393.8640
   5   2.0000     -14.472394      -393.8139
   6   2.0000     -14.470758      -393.7693
   7   2.0000     -14.469654      -393.7393
   8   2.0000     -14.469131      -393.7251
   9   2.0000     -14.464344      -393.5948
  10   2.0000     -14.459991      -393.4764
  11   2.0000     -14.456004      -393.3679
  12   2.0000     -14.431743      -392.7077
  13   2.0000     -14.431675      -392.7058
  14   2.0000     -14.430476      -392.6732
  15   2.0000     -14.428449      -392.6181
  16   2.0000     -14.428340      -392.6151
  17   2.0000     -14.428001      -392.6059
  18   2.0000     -14.427466      -392.5913
  19   2.0000     -14.422026      -392.4433
  20   2.0000     -10.363558      -282.0067
  21   2.0000     -10.361172      -281.9418
  22   2.0000     -10.360304      -281.9182
  23   2.0000     -10.360142      -281.9138
  24   2.0000     -10.359223      -281.8888
  25   2.0000     -10.358457      -281.8680
  26   2.0000     -10.357827      -281.8508
  27   2.0000     -10.356935      -281.8265
  28   2.0000     -10.356503      -281.8148
  29   2.0000     -10.356466      -281.8138
  30   2.0000     -10.356051      -281.8025
  31   2.0000     -10.353082      -281.7217
  32   2.0000     -10.352589      -281.7083
  33   2.0000     -10.352374      -281.7024
  34   2.0000     -10.350543      -281.6526
  35   2.0000     -10.349045      -281.6118
  36   2.0000     -10.347646      -281.5738
  37   2.0000     -10.336756      -281.2774
  38   2.0000     -10.335511      -281.2436
  39   2.0000     -10.334306      -281.2108
  40   2.0000     -10.333140      -281.1790
  41   2.0000     -10.332749      -281.1684
  42   2.0000     -10.332114      -281.1511
  43   2.0000     -10.330200      -281.0990
  44   2.0000     -10.330094      -281.0961
  45   2.0000     -10.329549      -281.0813
  46   2.0000     -10.329492      -281.0798
  47   2.0000     -10.328380      -281.0495
  48   2.0000     -10.326322      -280.9935
  49   2.0000     -10.322880      -280.8998
  50   2.0000     -10.322297      -280.8840
  51   2.0000     -10.319625      -280.8113
  52   2.0000     -10.319225      -280.8004
  53   2.0000     -10.318113      -280.7701
  54   2.0000     -10.317847      -280.7629
  55   2.0000     -10.309719      -280.5417
  56   2.0000     -10.309007      -280.5224
  57   2.0000     -10.308279      -280.5025
  58   2.0000     -10.307565      -280.4831
  59   2.0000     -10.307063      -280.4694
  60   2.0000     -10.305876      -280.4371
  61   2.0000     -10.305468      -280.4260
  62   2.0000     -10.304277      -280.3936
  63   2.0000     -10.298653      -280.2406
  64   2.0000     -10.296429      -280.1801
  65   2.0000     -10.276213      -279.6300
  66   2.0000     -10.274151      -279.5739
  67   2.0000     -10.265553      -279.3399
  68   2.0000     -10.260202      -279.1943
  69   2.0000      -8.151090      -221.8024
  70   2.0000      -8.147780      -221.7124
  71   2.0000      -8.064510      -219.4465
  72   2.0000      -6.122189      -166.5932
  73   2.0000      -6.118877      -166.5031
  74   2.0000      -6.114348      -166.3799
  75   2.0000      -6.113756      -166.3638
  76   2.0000      -6.111045      -166.2900
  77   2.0000      -6.110467      -166.2743
  78   2.0000      -6.033895      -164.1906
  79   2.0000      -6.029448      -164.0696
  80   2.0000      -6.026638      -163.9931
  81   2.0000      -1.164753       -31.6945
  82   2.0000      -1.161322       -31.6012
  83   2.0000      -1.141100       -31.0509
  84   2.0000      -1.137264       -30.9465
  85   2.0000      -1.123873       -30.5821
  86   2.0000      -1.046484       -28.4763
  87   2.0000      -1.043314       -28.3900
  88   2.0000      -1.027783       -27.9674
  89   2.0000      -1.024621       -27.8813
  90   2.0000      -1.022834       -27.8327
  91   2.0000      -1.017332       -27.6830
  92   2.0000      -1.015948       -27.6454
  93   2.0000      -1.013293       -27.5731
  94   2.0000      -1.008902       -27.4536
  95   2.0000      -1.007760       -27.4225
  96   2.0000      -1.006233       -27.3810
  97   2.0000      -1.002991       -27.2928
  98   2.0000      -1.000989       -27.2383
  99   2.0000      -0.973792       -26.4982
 100   2.0000      -0.971235       -26.4287
 101   2.0000      -0.959057       -26.0973
 102   2.0000      -0.952791       -25.9268
 103   2.0000      -0.949137       -25.8273
 104   2.0000      -0.946063       -25.7437
 105   2.0000      -0.941651       -25.6236
 106   2.0000      -0.937809       -25.5191
 107   2.0000      -0.919675       -25.0256
 108   2.0000      -0.905048       -24.6276
 109   2.0000      -0.902065       -24.5464
 110   2.0000      -0.892261       -24.2796
 111   2.0000      -0.884799       -24.0766
 112   2.0000      -0.875055       -23.8115
 113   2.0000      -0.871983       -23.7279
 114   2.0000      -0.861946       -23.4547
 115   2.0000      -0.846128       -23.0243
 116   2.0000      -0.830340       -22.5947
 117   2.0000      -0.826457       -22.4891
 118   2.0000      -0.805154       -21.9094
 119   2.0000      -0.801145       -21.8003
 120   2.0000      -0.797411       -21.6986
 121   2.0000      -0.791628       -21.5413
 122   2.0000      -0.782898       -21.3037
 123   2.0000      -0.763914       -20.7872
 124   2.0000      -0.763345       -20.7717
 125   2.0000      -0.743792       -20.2396
 126   2.0000      -0.737394       -20.0655
 127   2.0000      -0.727480       -19.7957
 128   2.0000      -0.725059       -19.7299
 129   2.0000      -0.722523       -19.6609
 130   2.0000      -0.720232       -19.5985
 131   2.0000      -0.718829       -19.5603
 132   2.0000      -0.704903       -19.1814
 133   2.0000      -0.703656       -19.1475
 134   2.0000      -0.690858       -18.7992
 135   2.0000      -0.678228       -18.4555
 136   2.0000      -0.677513       -18.4361
 137   2.0000      -0.675429       -18.3794
 138   2.0000      -0.672164       -18.2905
 139   2.0000      -0.667190       -18.1552
 140   2.0000      -0.664970       -18.0947
 141   2.0000      -0.662526       -18.0282
 142   2.0000      -0.646262       -17.5857
 143   2.0000      -0.640740       -17.4354
 144   2.0000      -0.627311       -17.0700
 145   2.0000      -0.622172       -16.9302
 146   2.0000      -0.619428       -16.8555
 147   2.0000      -0.599609       -16.3162
 148   2.0000      -0.597445       -16.2573
 149   2.0000      -0.595433       -16.2026
 150   2.0000      -0.594220       -16.1696
 151   2.0000      -0.592354       -16.1188
 152   2.0000      -0.592110       -16.1121
 153   2.0000      -0.589340       -16.0368
 154   2.0000      -0.584654       -15.9092
 155   2.0000      -0.580188       -15.7877
 156   2.0000      -0.577979       -15.7276
 157   2.0000      -0.562475       -15.3057
 158   2.0000      -0.554925       -15.1003
 159   2.0000      -0.552152       -15.0248
 160   2.0000      -0.549184       -14.9441
 161   2.0000      -0.546739       -14.8775
 162   2.0000      -0.546107       -14.8603
 163   2.0000      -0.544492       -14.8164
 164   2.0000      -0.542603       -14.7650
 165   2.0000      -0.536829       -14.6079
 166   2.0000      -0.534821       -14.5532
 167   2.0000      -0.525068       -14.2878
 168   2.0000      -0.524630       -14.2759
 169   2.0000      -0.521283       -14.1848
 170   2.0000      -0.518974       -14.1220
 171   2.0000      -0.515958       -14.0399
 172   2.0000      -0.514501       -14.0003
 173   2.0000      -0.513387       -13.9700
 174   2.0000      -0.511115       -13.9081
 175   2.0000      -0.508371       -13.8335
 176   2.0000      -0.506749       -13.7894
 177   2.0000      -0.505301       -13.7499
 178   2.0000      -0.504811       -13.7366
 179   2.0000      -0.494613       -13.4591
 180   2.0000      -0.489835       -13.3291
 181   2.0000      -0.488387       -13.2897
 182   2.0000      -0.481520       -13.1028
 183   2.0000      -0.477454       -12.9922
 184   2.0000      -0.473582       -12.8868
 185   2.0000      -0.469177       -12.7670
 186   2.0000      -0.468143       -12.7388
 187   2.0000      -0.467427       -12.7193
 188   2.0000      -0.465439       -12.6652
 189   2.0000      -0.464296       -12.6341
 190   2.0000      -0.462093       -12.5742
 191   2.0000      -0.461658       -12.5623
 192   2.0000      -0.459542       -12.5048
 193   2.0000      -0.458076       -12.4649
 194   2.0000      -0.457281       -12.4432
 195   2.0000      -0.455471       -12.3940
 196   2.0000      -0.454420       -12.3654
 197   2.0000      -0.452508       -12.3134
 198   2.0000      -0.451308       -12.2807
 199   2.0000      -0.448608       -12.2072
 200   2.0000      -0.445313       -12.1176
 201   2.0000      -0.443453       -12.0670
 202   2.0000      -0.441639       -12.0176
 203   2.0000      -0.439882       -11.9698
 204   2.0000      -0.439078       -11.9479
 205   2.0000      -0.437887       -11.9155
 206   2.0000      -0.436594       -11.8803
 207   2.0000      -0.434840       -11.8326
 208   2.0000      -0.433404       -11.7935
 209   2.0000      -0.431891       -11.7523
 210   2.0000      -0.427978       -11.6459
 211   2.0000      -0.426662       -11.6101
 212   2.0000      -0.424804       -11.5595
 213   2.0000      -0.423807       -11.5324
 214   2.0000      -0.421972       -11.4824
 215   2.0000      -0.420998       -11.4559
 216   2.0000      -0.418966       -11.4006
 217   2.0000      -0.413942       -11.2639
 218   2.0000      -0.410128       -11.1601
 219   2.0000      -0.405584       -11.0365
 220   2.0000      -0.400870       -10.9082
 221   2.0000      -0.396207       -10.7813
 222   2.0000      -0.393106       -10.6970
 223   2.0000      -0.391663       -10.6577
 224   2.0000      -0.388342       -10.5673
 225   2.0000      -0.387319       -10.5395
 226   2.0000      -0.384641       -10.4666
 227   2.0000      -0.380233       -10.3467
 228   2.0000      -0.377355       -10.2683
 229   2.0000      -0.357616        -9.7312
 230   2.0000      -0.343263        -9.3407
 231   2.0000      -0.342346        -9.3157
 232   2.0000      -0.338933        -9.2228
 233   2.0000      -0.325532        -8.8582
 234   2.0000      -0.322252        -8.7689
 235   2.0000      -0.319876        -8.7043
 236   2.0000      -0.318382        -8.6636
 237   2.0000      -0.311821        -8.4851
 238   2.0000      -0.305432        -8.3112
 239   2.0000      -0.279357        -7.6017
 240   0.0000      -0.132635        -3.6092
 241   0.0000      -0.111475        -3.0334
 242   0.0000      -0.095218        -2.5910
 243   0.0000      -0.090272        -2.4564
 244   0.0000      -0.079867        -2.1733

MULLIKEN ATOMIC CHARGES
-----------------------
   0 C :   -0.031726
   1 C :    0.049059
   2 C :    0.049487
   3 C :   -0.027930
   4 C :    0.008988
   5 C :    0.014634
   6 C :    0.282880
   7 C :   -0.332745
   8 C :   -0.187915
   9 N :    0.168439
  10 C :   -0.188676
  11 N :    0.176622
  12 C :   -0.044661
  13 C :    0.266651
  14 C :   -0.306856
  15 C :   -0.156297
  16 N :    0.152699
  17 C :   -0.195608
  18 N :    0.171706
  19 C :    0.025723
  20 C :   -0.166493
  21 N :   -0.021006
  22 N :   -0.079180
  23 C :    0.041310
  24 C :    0.012138
  25 C :    0.129271
  26 N :   -0.242828
  27 S :    0.559646
  28 N :   -0.275788
  29 C :   -0.133186
  30 S :    0.207670
  31 C :   -0.132860
  32 C :   -0.090447
  33 C :   -0.132128
  34 C :    0.186502
  35 C :    0.075038
  36 C :   -0.134397
  37 C :    0.154903
  38 O :   -0.169972
  39 C :    0.190413
  40 C :    0.025127
  41 N :   -0.070514
  42 N :   -0.071726
  43 C :   -0.032987
  44 C :    0.061373
  45 C :    0.014576
  46 N :   -0.262629
  47 S :    0.561164
  48 N :   -0.239968
  49 C :   -0.012910
  50 C :   -0.013046
  51 C :    0.269913
  52 C :   -0.324020
  53 C :   -0.193798
  54 N :    0.175047
  55 C :   -0.187987
  56 N :    0.166805
  57 C :    0.012030
  58 C :    0.015603
  59 C :   -0.031289
  60 C :    0.047358
  61 C :    0.046933
  62 C :   -0.029341
  63 C :    0.228375
  64 C :   -0.251335
  65 C :   -0.199262
  66 N :    0.170639
  67 C :   -0.181289
  68 N :    0.159404
  69 H :    0.007616
  70 H :    0.008462
  71 H :    0.009905
  72 H :    0.011846
  73 H :    0.040576
  74 H :    0.028707
  75 H :    0.015582
  76 H :    0.004876
  77 H :    0.013320
  78 H :    0.027485
  79 H :   -0.000853
  80 H :    0.019918
  81 H :    0.030676
  82 H :    0.024826
  83 H :    0.009758
  84 H :    0.008741
  85 H :    0.005819
  86 H :    0.007415
Sum of atomic charges:   -0.0000000

LOEWDIN ATOMIC CHARGES
----------------------
   0 C :    0.006714
   1 C :    0.005445
   2 C :    0.009384
   3 C :    0.006197
   4 C :   -0.006061
   5 C :   -0.013027
   6 C :    0.076410
   7 C :   -0.120390
   8 C :   -0.018503
   9 N :   -0.036852
  10 C :   -0.023551
  11 N :   -0.031699
  12 C :   -0.015280
  13 C :    0.080562
  14 C :   -0.111961
  15 C :   -0.011291
  16 N :   -0.052242
  17 C :   -0.018304
  18 N :   -0.037695
  19 C :    0.055798
  20 C :   -0.032657
  21 N :   -0.032838
  22 N :   -0.046396
  23 C :    0.001312
  24 C :   -0.059146
  25 C :   -0.050703
  26 N :   -0.262077
  27 S :    0.690445
  28 N :   -0.275992
  29 C :   -0.179117
  30 S :    0.514716
  31 C :   -0.182274
  32 C :   -0.016549
  33 C :   -0.016004
  34 C :   -0.026320
  35 C :   -0.020333
  36 C :   -0.077003
  37 C :    0.119904
  38 O :   -0.121631
  39 C :   -0.018494
  40 C :    0.000987
  41 N :   -0.044750
  42 N :   -0.012221
  43 C :   -0.026298
  44 C :   -0.051419
  45 C :   -0.063883
  46 N :   -0.273548
  47 S :    0.690534
  48 N :   -0.263403
  49 C :    0.041620
  50 C :   -0.011547
  51 C :    0.076464
  52 C :   -0.121559
  53 C :   -0.026419
  54 N :   -0.031510
  55 C :   -0.018524
  56 N :   -0.038173
  57 C :   -0.016522
  58 C :   -0.005150
  59 C :    0.001793
  60 C :    0.008543
  61 C :    0.001700
  62 C :    0.006403
  63 C :    0.063763
  64 C :   -0.095896
  65 C :   -0.017591
  66 N :   -0.037286
  67 C :   -0.016652
  68 N :   -0.051926
  69 H :    0.042211
  70 H :    0.039410
  71 H :    0.039826
  72 H :    0.043106
  73 H :    0.053030
  74 H :    0.037700
  75 H :    0.040397
  76 H :    0.024627
  77 H :    0.030421
  78 H :    0.041138
  79 H :   -0.003882
  80 H :    0.040688
  81 H :    0.038046
  82 H :    0.051776
  83 H :    0.042158
  84 H :    0.039136
  85 H :    0.038381
  86 H :    0.041803

  Mayer bond orders larger than 0.100000
B(  0-C ,  1-C ) :   1.3791 B(  0-C ,  5-C ) :   1.3767 B(  0-C , 69-H ) :   0.9838
B(  1-C ,  2-C ) :   1.3686 B(  1-C , 70-H ) :   0.9856 B(  2-C ,  3-C ) :   1.3728
B(  2-C , 71-H ) :   0.9869 B(  3-C ,  4-C ) :   1.3772 B(  3-C , 72-H ) :   0.9859
B(  4-C ,  5-C ) :   1.3008 B(  4-C , 13-C ) :   1.0179 B(  5-C ,  6-C ) :   1.0105
B(  6-C ,  7-C ) :   1.6709 B(  6-C , 12-C ) :   1.0174 B(  7-C ,  8-C ) :   1.1430
B(  7-C , 10-C ) :   1.1330 B(  8-C ,  9-N ) :   2.9824 B( 10-C , 11-N ) :   2.9884
B( 12-C , 13-C ) :   0.9831 B( 12-C , 19-C ) :   1.7315 B( 13-C , 14-C ) :   1.6913
B( 14-C , 15-C ) :   1.1547 B( 14-C , 17-C ) :   1.1439 B( 15-C , 16-N ) :   2.9602
B( 17-C , 18-N ) :   2.9958 B( 19-C , 20-C ) :   1.0717 B( 19-C , 73-H ) :   0.9322
B( 20-C , 21-N ) :   1.6338 B( 20-C , 23-C ) :   0.1130 B( 20-C , 25-C ) :   1.0985
B( 21-N , 22-N ) :   1.2272 B( 22-N , 23-C ) :   1.6263 B( 23-C , 24-C ) :   1.0895
B( 23-C , 29-C ) :   1.1838 B( 24-C , 25-C ) :   1.2120 B( 24-C , 28-N ) :   1.5332
B( 25-C , 26-N ) :   1.5583 B( 26-N , 27-S ) :   1.2871 B( 26-N , 28-N ) :   0.1446
B( 27-S , 28-N ) :   1.2772 B( 29-C , 30-S ) :   1.1238 B( 29-C , 31-C ) :   0.1106
B( 29-C , 33-C ) :   1.4363 B( 30-S , 31-C ) :   1.1187 B( 31-C , 32-C ) :   1.4382
B( 31-C , 40-C ) :   1.1839 B( 32-C , 33-C ) :   1.3375 B( 32-C , 39-C ) :   1.0786
B( 33-C , 34-C ) :   1.0645 B( 34-C , 35-C ) :   1.0732 B( 34-C , 74-H ) :   0.8973
B( 34-C , 75-H ) :   0.8967 B( 35-C , 36-C ) :   1.0257 B( 35-C , 76-H ) :   0.9433
B( 35-C , 77-H ) :   0.9253 B( 36-C , 37-C ) :   0.9205 B( 36-C , 39-C ) :   1.0167
B( 36-C , 78-H ) :   0.8992 B( 37-C , 38-O ) :   2.2181 B( 37-C , 79-H ) :   0.9533
B( 39-C , 80-H ) :   0.8966 B( 39-C , 81-H ) :   0.8903 B( 40-C , 41-N ) :   1.6216
B( 40-C , 43-C ) :   0.1081 B( 40-C , 45-C ) :   1.0938 B( 41-N , 42-N ) :   1.2398
B( 42-N , 43-C ) :   1.5561 B( 43-C , 44-C ) :   1.1028 B( 43-C , 49-C ) :   1.1700
B( 44-C , 45-C ) :   1.1999 B( 44-C , 48-N ) :   1.5666 B( 45-C , 46-N ) :   1.5379
B( 46-N , 47-S ) :   1.2784 B( 46-N , 48-N ) :   0.1443 B( 47-S , 48-N ) :   1.2824
B( 49-C , 50-C ) :   1.6338 B( 49-C , 82-H ) :   0.9373 B( 50-C , 51-C ) :   1.0170
B( 50-C , 63-C ) :   0.9901 B( 51-C , 52-C ) :   1.6691 B( 51-C , 57-C ) :   1.0116
B( 52-C , 53-C ) :   1.1294 B( 52-C , 55-C ) :   1.1407 B( 53-C , 54-N ) :   3.0006
B( 55-C , 56-N ) :   2.9846 B( 57-C , 58-C ) :   1.3067 B( 57-C , 62-C ) :   1.3741
B( 58-C , 59-C ) :   1.3805 B( 58-C , 63-C ) :   1.0129 B( 59-C , 60-C ) :   1.3683
B( 59-C , 83-H ) :   0.9877 B( 60-C , 61-C ) :   1.3720 B( 60-C , 84-H ) :   0.9870
B( 61-C , 62-C ) :   1.3777 B( 61-C , 85-H ) :   0.9859 B( 62-C , 86-H ) :   0.9857
B( 63-C , 64-C ) :   1.7165 B( 64-C , 65-C ) :   1.1486 B( 64-C , 67-C ) :   1.1345
B( 65-C , 66-N ) :   2.9888 B( 67-C , 68-N ) :   2.9792

-----------------------------------------------------------------------------
         ABSORPTION SPECTRUM VIA TRANSITION ELECTRIC DIPOLE MOMENTS
-----------------------------------------------------------------------------
State   Energy  Wavelength   fosc         T2         TX        TY        TZ
        (cm-1)    (nm)                  (au**2)     (au)      (au)      (au)
-----------------------------------------------------------------------------
   0   15427.9    648.2   0.788118037  16.81744  -0.62781   3.94956   0.90789
   1   16571.0    603.5   0.058743332   1.16704   0.02831  -1.03903  -0.29435
   2   17542.2    570.1   0.479176830   8.99266   0.61885  -2.83285  -0.76464
   3   21246.4    470.7   0.028466613   0.44109   0.65415   0.03930   0.10784
   4   23534.0    424.9   0.014913554   0.20862  -0.37925  -0.18266   0.17728
   5   24232.3    412.7   0.008898445   0.12089   0.15285  -0.00799   0.31219
   6   24742.0    404.2   0.024202371   0.32203  -0.13554   0.42789   0.34724
   7   25678.6    389.4   0.149984730   1.92287  -0.60118   1.24910  -0.03482
   8   26058.5    383.8   0.078148207   0.98729  -0.01674   0.63839  -0.76123
   9   26215.2    381.5   0.079426575   0.99744   0.40287  -0.44972  -0.79554
  10   26829.0    372.7   0.000334767   0.00411  -0.03388   0.05440   0.00078
  11   26914.8    371.5   0.053677014   0.65656  -0.16543   0.55475   0.56696
  12   27836.3    359.2   0.021859814   0.25853   0.19104  -0.13304  -0.45204
  13   28252.6    353.9   0.010655519   0.12416  -0.00958   0.28289  -0.20986
  14   28478.3    351.1   0.055894588   0.64615   0.13526  -0.78993   0.06216
  15   28784.3    347.4   0.010348117   0.11835  -0.07448   0.25794  -0.21512
  16   29081.9    343.9   0.015679697   0.17750  -0.13996   0.06188  -0.39253
  17   29756.7    336.1   0.080024864   0.88535   0.50686  -0.04336  -0.79156
  18   29918.1    334.2   0.007619683   0.08385   0.05345   0.16462   0.23213
  19   30465.5    328.2   0.017988432   0.19438  -0.10495   0.37790   0.20139
  20   30600.4    326.8   0.016819878   0.18096   0.16563   0.37821   0.10237
  21   31088.8    321.7   0.037811888   0.40041  -0.23109  -0.34491   0.47754
  22   31866.9    313.8   0.149638790   1.54590   0.12777   0.92287   0.82333
  23   32317.3    309.4   0.005713846   0.05821  -0.02655   0.11166  -0.21221
  24   32632.9    306.4   0.052969766   0.53438   0.38205  -0.35099   0.51499
  25   32793.7    304.9   0.064134295   0.64384  -0.21837   0.76993  -0.05794
  26   32961.7    303.4   0.676314081   6.75484   0.89917  -2.40056   0.42856
  27   33363.9    299.7   0.275311478   2.71659   0.41239   0.05944  -1.59467
  28   33727.5    296.5   0.163747478   1.59833   0.62019  -0.35350  -1.04343
  29   34543.8    289.5   0.109706503   1.04553   0.03514   0.82271   0.60617
  30   35056.2    285.3   0.050826763   0.47731   0.27747   0.36406   0.51748
  31   35241.2    283.8   0.145817415   1.36218  -0.03082  -0.81454  -0.83532
  32   35888.7    278.6   0.204761535   1.87831  -0.70080   0.41049   1.10394
  33   36229.7    276.0   0.032620650   0.29642   0.02747   0.40245  -0.36565
  34   36326.5    275.3   0.223281898   2.02351  -0.78454  -0.51879   1.06717
  35   36482.3    274.1   0.011389323   0.10278   0.27609  -0.06993   0.14716
  36   36563.1    273.5   0.040855652   0.36786   0.29624   0.49256   0.19364
  37   36627.5    273.0   0.139246970   1.25157  -0.87238   0.06062   0.69775
  38   36874.3    271.2   0.096009966   0.85717   0.28120   0.88051  -0.05290
  39   36940.2    270.7   0.122540478   1.09208   0.89771   0.14685  -0.51443
  40   37062.3    269.8   0.209390916   1.85995  -0.54737  -1.23292  -0.20058
  41   37207.3    268.8   0.008590734   0.07601  -0.01086   0.05749  -0.26942
  42   37348.4    267.7   0.052330666   0.46127   0.12732   0.01926  -0.66685
  43   37443.0    267.1   0.236777794   2.08183   0.57119   0.70078  -1.12449
  44   37631.7    265.7   0.024438636   0.21380   0.04103  -0.10085   0.44938
  45   37769.6    264.8   0.020773142   0.18107   0.03704   0.14810   0.39719
  46   38287.8    261.2   0.110649928   0.95141  -0.36759   0.65690   0.62030
  47   38415.2    260.3   0.030311002   0.25976  -0.21935   0.24313   0.39055
  48   38693.3    258.4   0.008040966   0.06841  -0.03743   0.17673   0.18916
  49   38912.7    257.0   0.007295547   0.06172   0.21095  -0.12897  -0.02427
  50   39077.8    255.9   0.039449505   0.33234  -0.15325   0.48674   0.26823
  51   39149.2    255.4   0.007219837   0.06071   0.16508  -0.12733  -0.13133
  52   39328.5    254.3   0.032161148   0.26922   0.38636  -0.17875  -0.29663
  53   39494.7    253.2   0.068202009   0.56850   0.37581   0.50047  -0.42048
  54   39669.9    252.1   0.008337483   0.06919   0.15108  -0.03215   0.21291
  55   39849.1    250.9   0.027198269   0.22470  -0.33479  -0.33426   0.02975
  56   40029.9    249.8   0.032037618   0.26348  -0.12777  -0.31632   0.38354
  57   40179.0    248.9   0.108865704   0.89201  -0.34574  -0.63490   0.60777

FINAL SINGLE POINT ENERGY     -4019.626457966525

DIPOLE MOMENT
-------------
                                X             Y             Z
Electronic contribution:     25.10563      14.48550     -32.03319
Nuclear contribution   :    -26.50925     -14.24714      31.13621
                        -----------------------------------------
Total Dipole Moment    :     -1.40362       0.23835      -0.89697
                        -----------------------------------------
Magnitude (a.u.)       :      1.68271
Magnitude (Debye)      :      4.27711

Rotational constants in cm-1:     0.002506     0.000380     0.000343
Rotational constants in MHz :    75.134314    11.395799    10.273935

                             ****ORCA TERMINATED NORMALLY****
TOTAL RUN TIME: 0 days 0 hours 9 minutes 14 seconds 850 msec
