                         Program Version 4.2.0 -  RELEASE  -
|  1> # ORCA input file
|  2> # SCF done       -203.172771365769          0.000437274331
|  3> ! CAM-B3LYP def2-SVP def2/J RIJCOSX Grid4 TightSCF
|  4> %maxcore 5000
|  5> %tddft
|  6>     Mode sTDDFT
|  7>     Ethresh 5.0
|  8>     maxcore 5000
|  9> end
| 10>
| 11> %pal
| 12>   nprocs 6
| 13>   end
| 14> * xyz 0 1
| 15>    C       -4.77787         3.35888         0.28532
| 16>    C       -4.84993         3.63241        -1.07187
| 17>    C       -5.34983         2.69581        -1.96689
| 18>    C       -5.80030         1.45980        -1.52933
| 19>    C       -5.73525         1.17446        -0.17521
| 20>    C       -5.21730         2.12366         0.73713
| 21>    C       -5.24052         1.55475         2.07625
| 22>    C       -4.98079         2.20928         3.24673
| 23>    C       -4.63169         3.57512         3.32572
| 24>    N       -4.34699         4.67910         3.45497
| 25>    C       -5.07298         1.63193         4.53250
| 26>    N       -5.13437         1.23356         5.60691
| 27>    C       -5.60225         0.14565         1.91947
| 28>    C       -6.14772        -0.00440         0.56749
| 29>    C       -7.07043        -0.92484         0.16423
| 30>    C       -7.63232        -1.90423         1.01188
| 31>    N       -8.15855        -2.68134         1.67249
| 32>    C       -7.63532        -0.95403        -1.12850
| 33>    N       -8.12350        -1.02138        -2.16445
| 34>    C       -5.31528        -0.83609         2.80653
| 35>    C       -5.32651        -2.24216         2.51116
| 36>    N       -5.00592        -2.65818         1.29480
| 37>    N       -5.03473        -3.90398         0.94951
| 38>    C       -5.32144        -4.90137         1.77195
| 39>    C       -5.57391        -4.59340         3.14094
| 40>    C       -5.59766        -3.20969         3.51218
| 41>    N       -5.90746        -3.02776         4.79142
| 42>    S       -6.14153        -4.46334         5.46758
| 43>    N       -5.86034        -5.38041         4.17726
| 44>    C       -5.38001        -6.23714         1.21483
| 45>    C       -5.38331        -7.36414         2.04874
| 46>    C       -5.46202        -8.61369         1.48404
| 47>    C       -5.50523        -8.76081         0.08441
| 48>    C       -5.49756        -7.64653        -0.74679
| 49>    C       -5.43683        -6.39329        -0.17761
| 50>    C       -5.50163       -10.17141        -0.23052
| 51>    C       -5.43895       -10.89707         0.97191
| 52>    C       -5.48181        -9.96367         2.16279
| 53>    C       -4.28244       -10.15800         3.10181
| 54>    C       -2.94920       -10.03719         2.37239
| 55>    C       -6.82443       -10.21784         2.88942
| 56>    C       -7.15339        -9.26331         4.02978
| 57>    C       -5.38010       -12.26832         0.95329
| 58>    C       -5.39919       -12.95264        -0.27346
| 59>    C       -5.47521       -12.21308        -1.46316
| 60>    C       -5.52095       -10.83504        -1.45079
| 61>    C       -5.32816       -14.39195        -0.25406
| 62>    C       -5.55449       -15.21861        -1.29772
| 63>    C       -5.44041       -16.63662        -1.17816
| 64>    O       -4.99401       -17.14599        -0.02154
| 65>    C       -4.94136       -18.49460        -0.11717
| 66>    C       -5.37856       -18.88486        -1.38863
| 67>    C       -5.70109       -17.68144        -2.07325
| 68>    C       -6.23255       -17.52729        -3.45340
| 69>    F       -6.47848       -16.25819        -3.80004
| 70>    F       -5.39216       -17.99662        -4.40139
| 71>    F       -7.39953       -18.17896        -3.64397
| 72>    O       -5.41785       -20.18656        -1.71474
| 73>    C       -5.77962       -20.62156        -3.01185
| 74>    C       -4.46936       -19.22752         1.00116
| 75>    C       -4.35571       -20.57601         1.05493
| 76>    C       -3.86109       -21.29474         2.17500
| 77>    C       -3.40243       -20.82582         3.39511
| 78>    C       -2.98932       -21.85934         4.23500
| 79>    C       -3.13197       -23.12838         3.65731
| 80>    S       -3.77558       -23.04805         2.07906
| 81>    C       -2.68121       -24.10174         4.59378
| 82>    C       -2.25665       -23.44450         5.75510
| 83>    C       -2.43325       -22.01718         5.57512
| 84>    C       -2.14284       -21.02312         6.46413
| 85>    C       -2.36337       -19.66257         6.16728
| 86>    N       -2.54123       -18.55456         5.92961
| 87>    C       -1.60338       -21.28798         7.73998
| 88>    N       -1.16439       -21.49554         8.77892
| 89>    C       -1.79099       -24.33848         6.73937
| 90>    C       -1.86982       -25.62879         6.31446
| 91>    S       -2.51012       -25.79561         4.71078
| 92>    H       -4.37931         4.09380         0.96546
| 93>    H       -4.50598         4.58824        -1.43646
| 94>    H       -5.38652         2.93072        -3.01960
| 95>    H       -6.17742         0.73524        -2.23268
| 96>    H       -4.98872        -0.58445         3.80582
| 97>    H       -5.30567        -7.23119         3.11510
| 98>    H       -5.53208        -7.76068        -1.81959
| 99>    H       -5.42951        -5.50508        -0.78929
|100>    H       -4.35475       -11.14280         3.56773
|101>    H       -4.32408        -9.40749         3.89169
|102>    H       -2.86530       -10.79099         1.59261
|103>    H       -2.12660       -10.17212         3.07082
|104>    H       -2.85216        -9.05648         1.91159
|105>    H       -6.80371       -11.24016         3.27393
|106>    H       -7.62277       -10.16256         2.14456
|107>    H       -6.38564        -9.28275         4.79837
|108>    H       -8.09391        -9.56429         4.48644
|109>    H       -7.26475        -8.24532         3.66802
|110>    H       -5.32192       -12.83359         1.87232
|111>    H       -5.47895       -12.73071        -2.40942
|112>    H       -5.56826       -10.28138        -2.37632
|113>    H       -5.08537       -14.83642         0.70238
|114>    H       -5.83996       -14.82915        -2.25885
|115>    H       -5.67254       -21.70492        -2.98261
|116>    H       -5.11166       -20.21742        -3.77447
|117>    H       -6.81568       -20.37322        -3.24811
|118>    H       -4.18538       -18.61597         1.84525
|119>    H       -4.65116       -21.16183         0.19827
|120>    H       -3.37231       -19.78344         3.65112
|121>    H       -1.41899       -24.04947         7.70526
|122>    H       -1.58870       -26.51536         6.84646
|123> *
|124>
|125>                          ****END OF INPUT****

CARTESIAN COORDINATES (ANGSTROEM)
---------------------------------
  C     -4.777870    3.358880    0.285320
  C     -4.849930    3.632410   -1.071870
  C     -5.349830    2.695810   -1.966890
  C     -5.800300    1.459800   -1.529330
  C     -5.735250    1.174460   -0.175210
  C     -5.217300    2.123660    0.737130
  C     -5.240520    1.554750    2.076250
  C     -4.980790    2.209280    3.246730
  C     -4.631690    3.575120    3.325720
  N     -4.346990    4.679100    3.454970
  C     -5.072980    1.631930    4.532500
  N     -5.134370    1.233560    5.606910
  C     -5.602250    0.145650    1.919470
  C     -6.147720   -0.004400    0.567490
  C     -7.070430   -0.924840    0.164230
  C     -7.632320   -1.904230    1.011880
  N     -8.158550   -2.681340    1.672490
  C     -7.635320   -0.954030   -1.128500
  N     -8.123500   -1.021380   -2.164450
  C     -5.315280   -0.836090    2.806530
  C     -5.326510   -2.242160    2.511160
  N     -5.005920   -2.658180    1.294800
  N     -5.034730   -3.903980    0.949510
  C     -5.321440   -4.901370    1.771950
  C     -5.573910   -4.593400    3.140940
  C     -5.597660   -3.209690    3.512180
  N     -5.907460   -3.027760    4.791420
  S     -6.141530   -4.463340    5.467580
  N     -5.860340   -5.380410    4.177260
  C     -5.380010   -6.237140    1.214830
  C     -5.383310   -7.364140    2.048740
  C     -5.462020   -8.613690    1.484040
  C     -5.505230   -8.760810    0.084410
  C     -5.497560   -7.646530   -0.746790
  C     -5.436830   -6.393290   -0.177610
  C     -5.501630  -10.171410   -0.230520
  C     -5.438950  -10.897070    0.971910
  C     -5.481810   -9.963670    2.162790
  C     -4.282440  -10.158000    3.101810
  C     -2.949200  -10.037190    2.372390
  C     -6.824430  -10.217840    2.889420
  C     -7.153390   -9.263310    4.029780
  C     -5.380100  -12.268320    0.953290
  C     -5.399190  -12.952640   -0.273460
  C     -5.475210  -12.213080   -1.463160
  C     -5.520950  -10.835040   -1.450790
  C     -5.328160  -14.391950   -0.254060
  C     -5.554490  -15.218610   -1.297720
  C     -5.440410  -16.636620   -1.178160
  O     -4.994010  -17.145990   -0.021540
  C     -4.941360  -18.494600   -0.117170
  C     -5.378560  -18.884860   -1.388630
  C     -5.701090  -17.681440   -2.073250
  C     -6.232550  -17.527290   -3.453400
  F     -6.478480  -16.258190   -3.800040
  F     -5.392160  -17.996620   -4.401390
  F     -7.399530  -18.178960   -3.643970
  O     -5.417850  -20.186560   -1.714740
  C     -5.779620  -20.621560   -3.011850
  C     -4.469360  -19.227520    1.001160
  C     -4.355710  -20.576010    1.054930
  C     -3.861090  -21.294740    2.175000
  C     -3.402430  -20.825820    3.395110
  C     -2.989320  -21.859340    4.235000
  C     -3.131970  -23.128380    3.657310
  S     -3.775580  -23.048050    2.079060
  C     -2.681210  -24.101740    4.593780
  C     -2.256650  -23.444500    5.755100
  C     -2.433250  -22.017180    5.575120
  C     -2.142840  -21.023120    6.464130
  C     -2.363370  -19.662570    6.167280
  N     -2.541230  -18.554560    5.929610
  C     -1.603380  -21.287980    7.739980
  N     -1.164390  -21.495540    8.778920
  C     -1.790990  -24.338480    6.739370
  C     -1.869820  -25.628790    6.314460
  S     -2.510120  -25.795610    4.710780
  H     -4.379310    4.093800    0.965460
  H     -4.505980    4.588240   -1.436460
  H     -5.386520    2.930720   -3.019600
  H     -6.177420    0.735240   -2.232680
  H     -4.988720   -0.584450    3.805820
  H     -5.305670   -7.231190    3.115100
  H     -5.532080   -7.760680   -1.819590
  H     -5.429510   -5.505080   -0.789290
  H     -4.354750  -11.142800    3.567730
  H     -4.324080   -9.407490    3.891690
  H     -2.865300  -10.790990    1.592610
  H     -2.126600  -10.172120    3.070820
  H     -2.852160   -9.056480    1.911590
  H     -6.803710  -11.240160    3.273930
  H     -7.622770  -10.162560    2.144560
  H     -6.385640   -9.282750    4.798370
  H     -8.093910   -9.564290    4.486440
  H     -7.264750   -8.245320    3.668020
  H     -5.321920  -12.833590    1.872320
  H     -5.478950  -12.730710   -2.409420
  H     -5.568260  -10.281380   -2.376320
  H     -5.085370  -14.836420    0.702380
  H     -5.839960  -14.829150   -2.258850
  H     -5.672540  -21.704920   -2.982610
  H     -5.111660  -20.217420   -3.774470
  H     -6.815680  -20.373220   -3.248110
  H     -4.185380  -18.615970    1.845250
  H     -4.651160  -21.161830    0.198270
  H     -3.372310  -19.783440    3.651120
  H     -1.418990  -24.049470    7.705260
  H     -1.588700  -26.515360    6.846460

 Total Charge           Charge          ....    0
 Multiplicity           Mult            ....    1
 Number of Electrons    NEL             ....  546
 Basis Dimension        Dim             .... 1245

ORBITAL ENERGIES
----------------

  NO   OCC          E(Eh)            E(eV)
   0   2.0000     -89.049808     -2423.1685
   1   2.0000     -88.980133     -2421.2725
   2   2.0000     -88.978023     -2421.2151
   3   2.0000     -24.810158      -675.1187
   4   2.0000     -24.803160      -674.9283
   5   2.0000     -24.802749      -674.9171
   6   2.0000     -19.301121      -525.2102
   7   2.0000     -19.266159      -524.2588
   8   2.0000     -14.464229      -393.5917
   9   2.0000     -14.462341      -393.5403
  10   2.0000     -14.456169      -393.3723
  11   2.0000     -14.445051      -393.0698
  12   2.0000     -14.426044      -392.5526
  13   2.0000     -14.425596      -392.5404
  14   2.0000     -14.424328      -392.5059
  15   2.0000     -14.423296      -392.4778
  16   2.0000     -14.422486      -392.4558
  17   2.0000     -14.422425      -392.4541
  18   2.0000     -10.529651      -286.5264
  19   2.0000     -10.357856      -281.8516
  20   2.0000     -10.354932      -281.7720
  21   2.0000     -10.354854      -281.7699
  22   2.0000     -10.354053      -281.7481
  23   2.0000     -10.353889      -281.7436
  24   2.0000     -10.351891      -281.6893
  25   2.0000     -10.349686      -281.6293
  26   2.0000     -10.346479      -281.5420
  27   2.0000     -10.345888      -281.5259
  28   2.0000     -10.344335      -281.4837
  29   2.0000     -10.343389      -281.4579
  30   2.0000     -10.341431      -281.4046
  31   2.0000     -10.330896      -281.1180
  32   2.0000     -10.329928      -281.0916
  33   2.0000     -10.328929      -281.0644
  34   2.0000     -10.327455      -281.0243
  35   2.0000     -10.327178      -281.0168
  36   2.0000     -10.326764      -281.0055
  37   2.0000     -10.326644      -281.0023
  38   2.0000     -10.324310      -280.9387
  39   2.0000     -10.324221      -280.9363
  40   2.0000     -10.323159      -280.9074
  41   2.0000     -10.322618      -280.8927
  42   2.0000     -10.317891      -280.7641
  43   2.0000     -10.317890      -280.7641
  44   2.0000     -10.317292      -280.7478
  45   2.0000     -10.311944      -280.6022
  46   2.0000     -10.305112      -280.4164
  47   2.0000     -10.304306      -280.3944
  48   2.0000     -10.303864      -280.3824
  49   2.0000     -10.303561      -280.3742
  50   2.0000     -10.303198      -280.3643
  51   2.0000     -10.301834      -280.3272
  52   2.0000     -10.292780      -280.0808
  53   2.0000     -10.290494      -280.0186
  54   2.0000     -10.289932      -280.0033
  55   2.0000     -10.287485      -279.9367
  56   2.0000     -10.286060      -279.8979
  57   2.0000     -10.284193      -279.8471
  58   2.0000     -10.284032      -279.8428
  59   2.0000     -10.283333      -279.8237
  60   2.0000     -10.283007      -279.8148
  61   2.0000     -10.281566      -279.7756
  62   2.0000     -10.280634      -279.7503
  63   2.0000     -10.279464      -279.7184
  64   2.0000     -10.276212      -279.6299
  65   2.0000     -10.274592      -279.5859
  66   2.0000     -10.273945      -279.5683
  67   2.0000     -10.273617      -279.5593
  68   2.0000     -10.273520      -279.5567
  69   2.0000     -10.273402      -279.5535
  70   2.0000     -10.273119      -279.5458
  71   2.0000     -10.272009      -279.5156
  72   2.0000     -10.271433      -279.4999
  73   2.0000     -10.264278      -279.3052
  74   2.0000     -10.264057      -279.2992
  75   2.0000     -10.250425      -278.9283
  76   2.0000     -10.247698      -278.8540
  77   2.0000      -8.141416      -221.5392
  78   2.0000      -8.075177      -219.7367
  79   2.0000      -8.072840      -219.6731
  80   2.0000      -6.112515      -166.3300
  81   2.0000      -6.104611      -166.1149
  82   2.0000      -6.104144      -166.1022
  83   2.0000      -6.044405      -164.4766
  84   2.0000      -6.042005      -164.4113
  85   2.0000      -6.040034      -164.3577
  86   2.0000      -6.037895      -164.2995
  87   2.0000      -6.037778      -164.2963
  88   2.0000      -6.035323      -164.2295
  89   2.0000      -1.396245       -37.9938
  90   2.0000      -1.299223       -35.3537
  91   2.0000      -1.293262       -35.1914
  92   2.0000      -1.224500       -33.3203
  93   2.0000      -1.166745       -31.7487
  94   2.0000      -1.153543       -31.3895
  95   2.0000      -1.128908       -30.7192
  96   2.0000      -1.040894       -28.3242
  97   2.0000      -1.033578       -28.1251
  98   2.0000      -1.021594       -27.7990
  99   2.0000      -1.013861       -27.5886
 100   2.0000      -1.011248       -27.5175
 101   2.0000      -1.007025       -27.4025
 102   2.0000      -1.003611       -27.3096
 103   2.0000      -1.001312       -27.2471
 104   2.0000      -1.000594       -27.2275
 105   2.0000      -0.990872       -26.9630
 106   2.0000      -0.984892       -26.8003
 107   2.0000      -0.968214       -26.3464
 108   2.0000      -0.957443       -26.0533
 109   2.0000      -0.948766       -25.8172
 110   2.0000      -0.945633       -25.7320
 111   2.0000      -0.942311       -25.6416
 112   2.0000      -0.932722       -25.3807
 113   2.0000      -0.926409       -25.2089
 114   2.0000      -0.920854       -25.0577
 115   2.0000      -0.912298       -24.8249
 116   2.0000      -0.903059       -24.5735
 117   2.0000      -0.899145       -24.4670
 118   2.0000      -0.888903       -24.1883
 119   2.0000      -0.881321       -23.9820
 120   2.0000      -0.870284       -23.6816
 121   2.0000      -0.868011       -23.6198
 122   2.0000      -0.854651       -23.2562
 123   2.0000      -0.842918       -22.9370
 124   2.0000      -0.842489       -22.9253
 125   2.0000      -0.837824       -22.7983
 126   2.0000      -0.836067       -22.7505
 127   2.0000      -0.835064       -22.7232
 128   2.0000      -0.826130       -22.4801
 129   2.0000      -0.812876       -22.1195
 130   2.0000      -0.799544       -21.7567
 131   2.0000      -0.795260       -21.6401
 132   2.0000      -0.793947       -21.6044
 133   2.0000      -0.782112       -21.2823
 134   2.0000      -0.770518       -20.9669
 135   2.0000      -0.767891       -20.8954
 136   2.0000      -0.767492       -20.8845
 137   2.0000      -0.753376       -20.5004
 138   2.0000      -0.743978       -20.2447
 139   2.0000      -0.727090       -19.7851
 140   2.0000      -0.721922       -19.6445
 141   2.0000      -0.719822       -19.5874
 142   2.0000      -0.717707       -19.5298
 143   2.0000      -0.714605       -19.4454
 144   2.0000      -0.705621       -19.2009
 145   2.0000      -0.695822       -18.9343
 146   2.0000      -0.694979       -18.9113
 147   2.0000      -0.691794       -18.8247
 148   2.0000      -0.689282       -18.7563
 149   2.0000      -0.683162       -18.5898
 150   2.0000      -0.678313       -18.4578
 151   2.0000      -0.674142       -18.3443
 152   2.0000      -0.670776       -18.2527
 153   2.0000      -0.669136       -18.2081
 154   2.0000      -0.666867       -18.1464
 155   2.0000      -0.663353       -18.0507
 156   2.0000      -0.659118       -17.9355
 157   2.0000      -0.654500       -17.8099
 158   2.0000      -0.650849       -17.7105
 159   2.0000      -0.641740       -17.4626
 160   2.0000      -0.630294       -17.1512
 161   2.0000      -0.622806       -16.9474
 162   2.0000      -0.619326       -16.8527
 163   2.0000      -0.611887       -16.6503
 164   2.0000      -0.610572       -16.6145
 165   2.0000      -0.605303       -16.4711
 166   2.0000      -0.597211       -16.2509
 167   2.0000      -0.593447       -16.1485
 168   2.0000      -0.591894       -16.1062
 169   2.0000      -0.587461       -15.9856
 170   2.0000      -0.586030       -15.9467
 171   2.0000      -0.584650       -15.9091
 172   2.0000      -0.582431       -15.8488
 173   2.0000      -0.574211       -15.6251
 174   2.0000      -0.573735       -15.6121
 175   2.0000      -0.567546       -15.4437
 176   2.0000      -0.557970       -15.1831
 177   2.0000      -0.556987       -15.1564
 178   2.0000      -0.553101       -15.0506
 179   2.0000      -0.550009       -14.9665
 180   2.0000      -0.548519       -14.9260
 181   2.0000      -0.544043       -14.8042
 182   2.0000      -0.542667       -14.7667
 183   2.0000      -0.541733       -14.7413
 184   2.0000      -0.540847       -14.7172
 185   2.0000      -0.538519       -14.6538
 186   2.0000      -0.536363       -14.5952
 187   2.0000      -0.536092       -14.5878
 188   2.0000      -0.533085       -14.5060
 189   2.0000      -0.527802       -14.3622
 190   2.0000      -0.525130       -14.2895
 191   2.0000      -0.523856       -14.2548
 192   2.0000      -0.520648       -14.1675
 193   2.0000      -0.519346       -14.1321
 194   2.0000      -0.518016       -14.0959
 195   2.0000      -0.510681       -13.8963
 196   2.0000      -0.510451       -13.8901
 197   2.0000      -0.508727       -13.8432
 198   2.0000      -0.507276       -13.8037
 199   2.0000      -0.505705       -13.7609
 200   2.0000      -0.500122       -13.6090
 201   2.0000      -0.499204       -13.5840
 202   2.0000      -0.496352       -13.5064
 203   2.0000      -0.495868       -13.4932
 204   2.0000      -0.494866       -13.4660
 205   2.0000      -0.491776       -13.3819
 206   2.0000      -0.485297       -13.2056
 207   2.0000      -0.484601       -13.1867
 208   2.0000      -0.481720       -13.1083
 209   2.0000      -0.476954       -12.9786
 210   2.0000      -0.475481       -12.9385
 211   2.0000      -0.473217       -12.8769
 212   2.0000      -0.470828       -12.8119
 213   2.0000      -0.469812       -12.7842
 214   2.0000      -0.464204       -12.6316
 215   2.0000      -0.463280       -12.6065
 216   2.0000      -0.461575       -12.5601
 217   2.0000      -0.458797       -12.4845
 218   2.0000      -0.457426       -12.4472
 219   2.0000      -0.456926       -12.4336
 220   2.0000      -0.455775       -12.4023
 221   2.0000      -0.455104       -12.3840
 222   2.0000      -0.454109       -12.3569
 223   2.0000      -0.451886       -12.2964
 224   2.0000      -0.450392       -12.2558
 225   2.0000      -0.449934       -12.2433
 226   2.0000      -0.448068       -12.1925
 227   2.0000      -0.447036       -12.1645
 228   2.0000      -0.444181       -12.0868
 229   2.0000      -0.441248       -12.0070
 230   2.0000      -0.440303       -11.9813
 231   2.0000      -0.439590       -11.9618
 232   2.0000      -0.438138       -11.9223
 233   2.0000      -0.435981       -11.8636
 234   2.0000      -0.434820       -11.8321
 235   2.0000      -0.433944       -11.8082
 236   2.0000      -0.433653       -11.8003
 237   2.0000      -0.432446       -11.7675
 238   2.0000      -0.431802       -11.7499
 239   2.0000      -0.430996       -11.7280
 240   2.0000      -0.427799       -11.6410
 241   2.0000      -0.424320       -11.5463
 242   2.0000      -0.422609       -11.4998
 243   2.0000      -0.419254       -11.4085
 244   2.0000      -0.418640       -11.3918
 245   2.0000      -0.417915       -11.3720
 246   2.0000      -0.416242       -11.3265
 247   2.0000      -0.413100       -11.2410
 248   2.0000      -0.410728       -11.1765
 249   2.0000      -0.404977       -11.0200
 250   2.0000      -0.398843       -10.8531
 251   2.0000      -0.395163       -10.7529
 252   2.0000      -0.392738       -10.6870
 253   2.0000      -0.388038       -10.5590
 254   2.0000      -0.387410       -10.5420
 255   2.0000      -0.386435       -10.5154
 256   2.0000      -0.379425       -10.3247
 257   2.0000      -0.377730       -10.2785
 258   2.0000      -0.377119       -10.2619
 259   2.0000      -0.363006        -9.8779
 260   2.0000      -0.347391        -9.4530
 261   2.0000      -0.343406        -9.3445
 262   2.0000      -0.338217        -9.2034
 263   2.0000      -0.337720        -9.1898
 264   2.0000      -0.324527        -8.8308
 265   2.0000      -0.323772        -8.8103
 266   2.0000      -0.317626        -8.6430
 267   2.0000      -0.313800        -8.5389
 268   2.0000      -0.312378        -8.5002
 269   2.0000      -0.301068        -8.1925
 270   2.0000      -0.289581        -7.8799
 271   2.0000      -0.266594        -7.2544
 272   2.0000      -0.228618        -6.2210
 273   0.0000      -0.113542        -3.0896
 274   0.0000      -0.093888        -2.5548
 275   0.0000      -0.089163        -2.4262
 276   0.0000      -0.071081        -1.9342
 277   0.0000      -0.053703        -1.4613

MULLIKEN ATOMIC CHARGES
-----------------------
   0 C :   -0.030018
   1 C :    0.049120
   2 C :    0.046655
   3 C :   -0.024981
   4 C :    0.007147
   5 C :    0.012998
   6 C :    0.276281
   7 C :   -0.327389
   8 C :   -0.190688
   9 N :    0.168973
  10 C :   -0.191068
  11 N :    0.173355
  12 C :   -0.043666
  13 C :    0.258316
  14 C :   -0.294690
  15 C :   -0.162464
  16 N :    0.155266
  17 C :   -0.195172
  18 N :    0.166925
  19 C :    0.022540
  20 C :   -0.137207
  21 N :   -0.033763
  22 N :   -0.059177
  23 C :    0.014234
  24 C :    0.045875
  25 C :    0.102972
  26 N :   -0.241855
  27 S :    0.556137
  28 N :   -0.269904
  29 C :    0.034803
  30 C :   -0.093061
  31 C :    0.013457
  32 C :    0.117613
  33 C :   -0.047850
  34 C :    0.002513
  35 C :    0.101913
  36 C :    0.017637
  37 C :   -0.129570
  38 C :    0.049219
  39 C :    0.025214
  40 C :    0.076243
  41 C :    0.031974
  42 C :   -0.102257
  43 C :    0.116604
  44 C :   -0.007439
  45 C :   -0.035685
  46 C :    0.007526
  47 C :   -0.034916
  48 C :    0.121826
  49 O :   -0.187686
  50 C :    0.130173
  51 C :    0.134033
  52 C :   -0.161458
  53 C :    0.509543
  54 F :   -0.146903
  55 F :   -0.167559
  56 F :   -0.165541
  57 O :   -0.309326
  58 C :    0.181707
  59 C :   -0.023265
  60 C :    0.030787
  61 C :   -0.069448
  62 C :   -0.044845
  63 C :    0.006659
  64 C :   -0.109977
  65 S :    0.177782
  66 C :   -0.116636
  67 C :   -0.037342
  68 C :    0.303881
  69 C :   -0.302506
  70 C :   -0.182912
  71 N :    0.160429
  72 C :   -0.191135
  73 N :    0.170813
  74 C :    0.037268
  75 C :   -0.084967
  76 S :    0.173569
  77 H :    0.007693
  78 H :    0.005452
  79 H :    0.007990
  80 H :    0.011502
  81 H :    0.037459
  82 H :   -0.014718
  83 H :   -0.028868
  84 H :   -0.002500
  85 H :   -0.000111
  86 H :    0.009801
  87 H :    0.020843
  88 H :    0.011555
  89 H :    0.018068
  90 H :   -0.003732
  91 H :    0.006635
  92 H :    0.002544
  93 H :    0.011436
  94 H :    0.022845
  95 H :   -0.035950
  96 H :   -0.027683
  97 H :   -0.032911
  98 H :   -0.005618
  99 H :    0.003693
 100 H :    0.035542
 101 H :    0.035176
 102 H :    0.036857
 103 H :   -0.005494
 104 H :   -0.007004
 105 H :    0.001954
 106 H :    0.009300
 107 H :    0.032586
Sum of atomic charges:   -0.0000000

LOEWDIN ATOMIC CHARGES
----------------------
   0 C :    0.006061
   1 C :    0.003765
   2 C :    0.007914
   3 C :    0.005689
   4 C :   -0.005212
   5 C :   -0.013200
   6 C :    0.077519
   7 C :   -0.122714
   8 C :   -0.018701
   9 N :   -0.039498
  10 C :   -0.024184
  11 N :   -0.032951
  12 C :   -0.017121
  13 C :    0.080284
  14 C :   -0.111082
  15 C :   -0.013131
  16 N :   -0.050639
  17 C :   -0.017627
  18 N :   -0.040962
  19 C :    0.056104
  20 C :   -0.035094
  21 N :   -0.031155
  22 N :   -0.053093
  23 C :    0.029477
  24 C :   -0.049356
  25 C :   -0.050052
  26 N :   -0.264169
  27 S :    0.687423
  28 N :   -0.266106
  29 C :   -0.044634
  30 C :   -0.004918
  31 C :   -0.000757
  32 C :    0.002922
  33 C :   -0.022402
  34 C :    0.018073
  35 C :   -0.018321
  36 C :    0.009274
  37 C :   -0.034766
  38 C :   -0.015310
  39 C :   -0.056486
  40 C :   -0.009024
  41 C :   -0.058907
  42 C :   -0.016426
  43 C :   -0.024201
  44 C :   -0.011746
  45 C :   -0.011985
  46 C :    0.008600
  47 C :   -0.053425
  48 C :    0.060690
  49 O :    0.032547
  50 C :   -0.005549
  51 C :    0.032147
  52 C :   -0.165100
  53 C :    0.175348
  54 F :   -0.046127
  55 F :   -0.067406
  56 F :   -0.065212
  57 O :   -0.086439
  58 C :    0.074757
  59 C :   -0.026877
  60 C :   -0.051871
  61 C :   -0.159296
  62 C :   -0.035270
  63 C :   -0.067123
  64 C :   -0.194916
  65 S :    0.470228
  66 C :   -0.178325
  67 C :   -0.083671
  68 C :    0.086419
  69 C :   -0.109283
  70 C :   -0.014607
  71 N :   -0.042108
  72 C :   -0.016929
  73 N :   -0.037823
  74 C :   -0.034234
  75 C :   -0.183430
  76 S :    0.471137
  77 H :    0.042014
  78 H :    0.038373
  79 H :    0.038941
  80 H :    0.042915
  81 H :    0.052111
  82 H :    0.025446
  83 H :    0.028943
  84 H :    0.033993
  85 H :    0.020960
  86 H :    0.021061
  87 H :    0.024928
  88 H :    0.024831
  89 H :    0.024695
  90 H :    0.019988
  91 H :    0.026934
  92 H :    0.019911
  93 H :    0.027546
  94 H :    0.025467
  95 H :    0.025590
  96 H :    0.027041
  97 H :    0.028466
  98 H :    0.030667
  99 H :    0.029743
 100 H :    0.029373
 101 H :    0.017477
 102 H :    0.017218
 103 H :    0.038033
 104 H :    0.027528
 105 H :    0.036861
 106 H :    0.041564
 107 H :    0.025952

  Mayer bond orders larger than 0.100000
B(  0-C ,  1-C ) :   1.3783 B(  0-C ,  5-C ) :   1.3758 B(  0-C , 77-H ) :   0.9841
B(  1-C ,  2-C ) :   1.3712 B(  1-C , 78-H ) :   0.9853 B(  2-C ,  3-C ) :   1.3700
B(  2-C , 79-H ) :   0.9871 B(  3-C ,  4-C ) :   1.3801 B(  3-C , 80-H ) :   0.9865
B(  4-C ,  5-C ) :   1.3041 B(  4-C , 13-C ) :   1.0145 B(  5-C ,  6-C ) :   1.0114
B(  6-C ,  7-C ) :   1.6693 B(  6-C , 12-C ) :   1.0176 B(  7-C ,  8-C ) :   1.1416
B(  7-C , 10-C ) :   1.1327 B(  8-C ,  9-N ) :   2.9851 B( 10-C , 11-N ) :   2.9929
B( 12-C , 13-C ) :   0.9846 B( 12-C , 19-C ) :   1.7160 B( 13-C , 14-C ) :   1.6991
B( 14-C , 15-C ) :   1.1504 B( 14-C , 17-C ) :   1.1435 B( 15-C , 16-N ) :   2.9749
B( 17-C , 18-N ) :   2.9970 B( 19-C , 20-C ) :   1.0868 B( 19-C , 81-H ) :   0.9349
B( 20-C , 21-N ) :   1.6273 B( 20-C , 23-C ) :   0.1211 B( 20-C , 25-C ) :   1.1055
B( 21-N , 22-N ) :   1.2294 B( 22-N , 23-C ) :   1.6705 B( 23-C , 24-C ) :   1.1067
B( 23-C , 29-C ) :   1.0647 B( 24-C , 25-C ) :   1.2018 B( 24-C , 28-N ) :   1.5234
B( 25-C , 26-N ) :   1.5621 B( 26-N , 27-S ) :   1.2832 B( 26-N , 28-N ) :   0.1453
B( 27-S , 28-N ) :   1.2816 B( 29-C , 30-C ) :   1.3006 B( 29-C , 34-C ) :   1.3475
B( 30-C , 31-C ) :   1.3906 B( 30-C , 82-H ) :   0.9849 B( 31-C , 32-C ) :   1.3794
B( 31-C , 37-C ) :   0.9153 B( 32-C , 33-C ) :   1.3186 B( 32-C , 35-C ) :   1.0021
B( 33-C , 34-C ) :   1.3690 B( 33-C , 83-H ) :   0.9958 B( 34-C , 84-H ) :   0.9880
B( 35-C , 36-C ) :   1.3752 B( 35-C , 45-C ) :   1.3229 B( 36-C , 37-C ) :   0.9247
B( 36-C , 42-C ) :   1.3796 B( 37-C , 38-C ) :   1.0329 B( 37-C , 40-C ) :   1.0119
B( 38-C , 39-C ) :   1.1046 B( 38-C , 85-H ) :   0.9390 B( 38-C , 86-H ) :   0.9383
B( 39-C , 87-H ) :   0.9630 B( 39-C , 88-H ) :   0.9648 B( 39-C , 89-H ) :   0.9650
B( 40-C , 41-C ) :   1.1142 B( 40-C , 90-H ) :   0.9372 B( 40-C , 91-H ) :   0.9391
B( 41-C , 92-H ) :   0.9626 B( 41-C , 93-H ) :   0.9589 B( 41-C , 94-H ) :   0.9597
B( 42-C , 43-C ) :   1.2895 B( 42-C , 95-H ) :   1.0121 B( 43-C , 44-C ) :   1.3399
B( 43-C , 46-C ) :   1.0508 B( 44-C , 45-C ) :   1.4043 B( 44-C , 96-H ) :   0.9849
B( 45-C , 97-H ) :   0.9909 B( 46-C , 47-C ) :   1.6690 B( 46-C , 98-H ) :   0.9893
B( 47-C , 48-C ) :   1.1611 B( 47-C , 99-H ) :   0.9513 B( 48-C , 49-O ) :   1.1915
B( 48-C , 50-C ) :   0.1104 B( 48-C , 52-C ) :   1.3939 B( 49-O , 50-C ) :   1.1035
B( 50-C , 51-C ) :   1.4189 B( 50-C , 59-C ) :   1.1585 B( 51-C , 52-C ) :   1.2277
B( 51-C , 57-O ) :   1.1886 B( 52-C , 53-C ) :   0.9525 B( 53-C , 54-F ) :   1.1478
B( 53-C , 55-F ) :   1.1489 B( 53-C , 56-F ) :   1.1526 B( 57-O , 58-C ) :   0.9234
B( 58-C ,100-H ) :   0.9764 B( 58-C ,101-H ) :   0.9651 B( 58-C ,102-H ) :   0.9650
B( 59-C , 60-C ) :   1.6685 B( 59-C ,103-H ) :   0.9547 B( 60-C , 61-C ) :   1.1117
B( 60-C ,104-H ) :   0.9573 B( 61-C , 62-C ) :   1.4564 B( 61-C , 65-S ) :   1.1112
B( 62-C , 63-C ) :   1.2939 B( 62-C ,105-H ) :   0.9934 B( 63-C , 64-C ) :   1.4566
B( 63-C , 68-C ) :   0.9944 B( 64-C , 65-S ) :   1.1163 B( 64-C , 66-C ) :   1.1853
B( 66-C , 67-C ) :   1.4553 B( 66-C , 76-S ) :   1.1399 B( 67-C , 68-C ) :   1.0198
B( 67-C , 74-C ) :   1.2741 B( 68-C , 69-C ) :   1.7047 B( 69-C , 70-C ) :   1.1326
B( 69-C , 72-C ) :   1.1299 B( 70-C , 71-N ) :   2.9876 B( 72-C , 73-N ) :   3.0034
B( 74-C , 75-C ) :   1.5559 B( 74-C ,106-H ) :   0.9952 B( 75-C , 76-S ) :   1.1406
B( 75-C ,107-H ) :   0.9642

-----------------------------------------------------------------------------
         ABSORPTION SPECTRUM VIA TRANSITION ELECTRIC DIPOLE MOMENTS
-----------------------------------------------------------------------------
State   Energy  Wavelength   fosc         T2         TX        TY        TZ
        (cm-1)    (nm)                  (au**2)     (au)      (au)      (au)
-----------------------------------------------------------------------------
   0   12054.4    829.6   0.124932730   3.41198  -0.50641   1.48171  -0.97983
   1   16195.4    617.5   0.787821769  16.01447  -0.35295   3.95850   0.46925
   2   16850.2    593.5   0.051703980   1.01017   0.00079  -1.00375  -0.05161
   3   20791.3    481.0   0.189684487   3.00349  -0.14388   1.62988   0.57122
   4   22456.5    445.3   1.013714641  14.86106   0.79269  -3.44819   1.53059
   5   23575.6    424.2   0.310750598   4.33934  -0.29550   2.00213  -0.49345
   6   23701.6    421.9   0.080735184   1.12140  -0.45476   0.41819  -0.86007
   7   25069.3    398.9   0.034196971   0.44908  -0.44214  -0.19817  -0.46294
   8   26037.5    384.1   0.133800195   1.69173   0.42263  -0.27252   1.19952
   9   26773.4    373.5   0.114257036   1.40493  -0.50682  -0.96648  -0.46258
  10   27158.1    368.2   0.016762859   0.20320  -0.17818  -0.23365  -0.34185
  11   27981.7    357.4   0.009221903   0.10850   0.02860  -0.23100   0.23306
  12   28569.3    350.0   0.013266899   0.15288  -0.23628   0.23757  -0.20152
  13   29209.2    342.4   0.108812087   1.22640  -0.16891  -1.08028   0.17567
  14   29842.9    335.1   0.024057983   0.26540   0.04462  -0.43999   0.26423
  15   30504.6    327.8   0.013513554   0.14584  -0.07206  -0.26206  -0.26828
  16   30765.4    325.0   0.554420694   5.93270   0.75170   0.96227   2.10753
  17   30870.1    323.9   0.124248526   1.32504  -0.34676  -0.72534  -0.82382
  18   32136.0    311.2   0.094170183   0.96471   0.13778  -0.95456   0.18585
  19   32229.3    310.3   0.729545431   7.45208  -0.45992  -2.35200  -1.30715
  20   32267.7    309.9   0.219731412   2.24181  -0.17375  -1.32263  -0.67990
  21   32751.3    305.3   0.263437683   2.64804  -0.67318  -0.97300  -1.11720
  22   33121.3    301.9   0.163513984   1.62526   0.55519   1.04802   0.46763
  23   33503.4    298.5   0.186266981   1.83030   0.49626   0.07980   1.25605
  24   34062.8    293.6   0.126482841   1.22244   0.03850   0.56670  -0.94858
  25   34816.8    287.2   0.129194488   1.22160  -0.47258  -0.46683  -0.88337
  26   36002.3    277.8   0.250432240   2.29000   0.64070   0.91990  -1.01651
  27   36281.0    275.6   0.015140401   0.13738   0.30885  -0.05476   0.19748
  28   36760.8    272.0   0.160153244   1.43426  -0.01047   0.95357  -0.72447
  29   36983.2    270.4   0.220511229   1.96292  -0.01220   0.96746  -1.01331
  30   37204.3    268.8   0.039800435   0.35218   0.27035  -0.17350  -0.49899
  31   37243.3    268.5   0.014995873   0.13256  -0.08168  -0.35158   0.04772
  32   37436.7    267.1   0.058137179   0.51125  -0.02404   0.71306  -0.04707
  33   37892.6    263.9   0.001683575   0.01463   0.04445  -0.01409   0.11159
  34   37920.1    263.7   0.052041467   0.45181   0.00650  -0.34443   0.57718
  35   37944.3    263.5   0.009315677   0.08082   0.04848   0.26225  -0.09849
  36   38225.5    261.6   0.064868039   0.55867  -0.03482   0.73286   0.14272
  37   38533.9    259.5   0.003986613   0.03406   0.04105  -0.17829   0.02425
  38   38928.6    256.9   0.003269962   0.02765   0.01645   0.15161  -0.06631
  39   39052.7    256.1   0.029005243   0.24451  -0.09101   0.17686   0.45272
  40   39328.8    254.3   0.065328644   0.54685  -0.34332  -0.43936   0.48574
  41   39744.6    251.6   0.038033685   0.31504  -0.08416  -0.55378   0.03580
  42   40000.7    250.0   0.025527251   0.21009  -0.19120  -0.26382   0.32239

FINAL SINGLE POINT ENERGY     -4454.375889833651

DIPOLE MOMENT
-------------
                                X             Y             Z
Electronic contribution:     -2.65352     -15.95873      -2.80862
Nuclear contribution   :      3.00698      13.63369       0.85419
                        -----------------------------------------
Total Dipole Moment    :      0.35346      -2.32505      -1.95442
                        -----------------------------------------
Magnitude (a.u.)       :      3.05787
Magnitude (Debye)      :      7.77248

Rotational constants in cm-1:     0.001524     0.000182     0.000165
Rotational constants in MHz :    45.698000     5.454431     4.954139

                             ****ORCA TERMINATED NORMALLY****
TOTAL RUN TIME: 0 days 0 hours 29 minutes 16 seconds 663 msec
