                         Program Version 4.2.0 -  RELEASE  -
|  1> # ORCA input file
|  2> # SCF done       -178.917736832658          0.000778062201
|  3> ! CAM-B3LYP def2-SVP def2/J RIJCOSX Grid4 TightSCF
|  4> %maxcore 5000
|  5> %tddft
|  6>     Mode sTDDFT
|  7>     Ethresh 5.0
|  8>     maxcore 5000
|  9> end
| 10>
| 11> %pal
| 12>   nprocs 6
| 13>   end
| 14> * xyz 0 1
| 15>    C       -7.97478         2.66864        -2.54815
| 16>    C       -7.53331         3.88470        -2.04618
| 17>    C       -6.48589         3.94681        -1.13967
| 18>    C       -5.84217         2.79345        -0.71463
| 19>    C       -6.27448         1.57539        -1.20903
| 20>    C       -7.34804         1.50799        -2.12452
| 21>    C       -7.60111         0.10854        -2.44893
| 22>    C       -8.52473        -0.34496        -3.35398
| 23>    C       -9.35232         0.49551        -4.12912
| 24>    N      -10.05731         1.11233        -4.79252
| 25>    C       -8.77985        -1.69471        -3.67473
| 26>    N       -9.05370        -2.76503        -3.98906
| 27>    C       -6.71511        -0.68545        -1.60781
| 28>    C       -5.78628         0.22431        -0.97682
| 29>    C       -4.55134        -0.09826        -0.46486
| 30>    C       -3.96808        -1.37662        -0.55718
| 31>    N       -3.43592        -2.39156        -0.63383
| 32>    C       -3.67143         0.83053         0.12505
| 33>    N       -2.92327         1.52515         0.65027
| 34>    C       -6.83449        -2.04720        -1.43282
| 35>    C       -6.39797        -2.84167        -0.36611
| 36>    C       -6.05679        -2.56282         0.95432
| 37>    S       -6.00191        -1.08683         1.84744
| 38>    C       -5.55074        -1.95794         3.30015
| 39>    C       -5.30343        -1.19210         4.54545
| 40>    C       -5.45989        -3.29296         3.09970
| 41>    C       -5.75827        -3.68882         1.76372
| 42>    C       -5.84669        -4.88979         1.04587
| 43>    S       -6.35297        -4.57696        -0.59063
| 44>    C       -5.60101        -6.23350         1.43403
| 45>    C       -5.21649        -6.61290         2.70389
| 46>    C       -4.98770        -7.91919         3.11531
| 47>    C       -5.00179        -9.02883         2.15637
| 48>    C       -5.36156        -8.89612         0.85952
| 49>    S       -5.83960        -7.41347         0.14916
| 50>    C       -4.57511       -10.17230         2.88550
| 51>    C       -4.32552        -9.81629         4.21253
| 52>    C       -3.91212       -10.91834         4.99234
| 53>    C       -3.85426       -12.05570         4.25137
| 54>    S       -4.30150       -11.84130         2.59186
| 55>    C       -4.61066        -8.41718         4.38802
| 56>    C       -4.54385        -7.76837         5.63500
| 57>    C       -5.12885        -6.58288         5.97587
| 58>    C       -5.02636        -5.98560         7.24156
| 59>    C       -5.63793        -4.81498         7.66830
| 60>    S       -6.68286        -3.68004         6.88025
| 61>    C       -6.74909        -2.70972         8.34323
| 62>    C       -7.54870        -1.46108         8.34440
| 63>    C       -6.02066        -3.23648         9.35966
| 64>    C       -5.37005        -4.44293         8.99985
| 65>    C       -4.54121        -5.35942         9.66536
| 66>    S       -4.07781        -6.64180         8.55375
| 67>    C       -4.06174        -5.19387        10.96291
| 68>    C       -3.34573        -6.06563        11.75650
| 69>    C       -2.46349        -5.65104        12.83043
| 70>    C       -2.40445        -4.41984        13.43645
| 71>    C       -3.24185        -3.32547        13.14383
| 72>    N       -3.88858        -2.39369        12.95608
| 73>    C       -1.50842        -4.09008        14.47346
| 74>    N       -0.81075        -3.75182        15.32043
| 75>    C       -1.61518        -6.79708        13.14275
| 76>    C       -2.04582        -7.90521        12.37860
| 77>    C       -1.39618        -9.12356        12.46897
| 78>    C       -0.30989        -9.23161        13.32537
| 79>    C        0.10955        -8.14872        14.08344
| 80>    C       -0.53720        -6.92348        14.00315
| 81>    C       -3.22070        -7.50276        11.62012
| 82>    C       -4.18693        -8.34938        11.13451
| 83>    C       -4.03450        -9.74396        11.02908
| 84>    N       -3.95016       -10.87984        10.88084
| 85>    C       -5.47846        -7.91256        10.77652
| 86>    N       -6.55613        -7.59533        10.53756
| 87>    H       -8.79175         2.64198        -3.24993
| 88>    H       -8.01768         4.79430        -2.36679
| 89>    H       -6.16460         4.90374        -0.75760
| 90>    H       -5.03204         2.85279        -0.00620
| 91>    H       -7.39341        -2.59088        -2.18284
| 92>    H       -4.51187        -0.45961         4.38852
| 93>    H       -5.01110        -1.86414         5.34788
| 94>    H       -6.20198        -0.65180         4.84286
| 95>    H       -5.18865        -3.95379         3.90110
| 96>    H       -5.05625        -5.82285         3.41519
| 97>    H       -5.38381        -9.73019         0.17596
| 98>    H       -3.67129       -10.88012         6.03900
| 99>    H       -3.57236       -13.03733         4.57837
|100>    H       -4.01298        -8.30108         6.41576
|101>    H       -5.77537        -6.06414         5.28245
|102>    H       -8.57988        -1.66640         8.05849
|103>    H       -7.14180        -0.74536         7.62971
|104>    H       -7.53751        -1.01304         9.33449
|105>    H       -5.94695        -2.78014        10.33004
|106>    H       -4.21213        -4.19447        11.34931
|107>    H       -1.71425        -9.96991        11.88155
|108>    H        0.21354       -10.17251        13.40107
|109>    H        0.95409        -8.25609        14.74691
|110>    H       -0.19614        -6.09422        14.60070
|111> *
|112>
|113>                          ****END OF INPUT****

CARTESIAN COORDINATES (ANGSTROEM)
---------------------------------
  C     -7.974780    2.668640   -2.548150
  C     -7.533310    3.884700   -2.046180
  C     -6.485890    3.946810   -1.139670
  C     -5.842170    2.793450   -0.714630
  C     -6.274480    1.575390   -1.209030
  C     -7.348040    1.507990   -2.124520
  C     -7.601110    0.108540   -2.448930
  C     -8.524730   -0.344960   -3.353980
  C     -9.352320    0.495510   -4.129120
  N    -10.057310    1.112330   -4.792520
  C     -8.779850   -1.694710   -3.674730
  N     -9.053700   -2.765030   -3.989060
  C     -6.715110   -0.685450   -1.607810
  C     -5.786280    0.224310   -0.976820
  C     -4.551340   -0.098260   -0.464860
  C     -3.968080   -1.376620   -0.557180
  N     -3.435920   -2.391560   -0.633830
  C     -3.671430    0.830530    0.125050
  N     -2.923270    1.525150    0.650270
  C     -6.834490   -2.047200   -1.432820
  C     -6.397970   -2.841670   -0.366110
  C     -6.056790   -2.562820    0.954320
  S     -6.001910   -1.086830    1.847440
  C     -5.550740   -1.957940    3.300150
  C     -5.303430   -1.192100    4.545450
  C     -5.459890   -3.292960    3.099700
  C     -5.758270   -3.688820    1.763720
  C     -5.846690   -4.889790    1.045870
  S     -6.352970   -4.576960   -0.590630
  C     -5.601010   -6.233500    1.434030
  C     -5.216490   -6.612900    2.703890
  C     -4.987700   -7.919190    3.115310
  C     -5.001790   -9.028830    2.156370
  C     -5.361560   -8.896120    0.859520
  S     -5.839600   -7.413470    0.149160
  C     -4.575110  -10.172300    2.885500
  C     -4.325520   -9.816290    4.212530
  C     -3.912120  -10.918340    4.992340
  C     -3.854260  -12.055700    4.251370
  S     -4.301500  -11.841300    2.591860
  C     -4.610660   -8.417180    4.388020
  C     -4.543850   -7.768370    5.635000
  C     -5.128850   -6.582880    5.975870
  C     -5.026360   -5.985600    7.241560
  C     -5.637930   -4.814980    7.668300
  S     -6.682860   -3.680040    6.880250
  C     -6.749090   -2.709720    8.343230
  C     -7.548700   -1.461080    8.344400
  C     -6.020660   -3.236480    9.359660
  C     -5.370050   -4.442930    8.999850
  C     -4.541210   -5.359420    9.665360
  S     -4.077810   -6.641800    8.553750
  C     -4.061740   -5.193870   10.962910
  C     -3.345730   -6.065630   11.756500
  C     -2.463490   -5.651040   12.830430
  C     -2.404450   -4.419840   13.436450
  C     -3.241850   -3.325470   13.143830
  N     -3.888580   -2.393690   12.956080
  C     -1.508420   -4.090080   14.473460
  N     -0.810750   -3.751820   15.320430
  C     -1.615180   -6.797080   13.142750
  C     -2.045820   -7.905210   12.378600
  C     -1.396180   -9.123560   12.468970
  C     -0.309890   -9.231610   13.325370
  C      0.109550   -8.148720   14.083440
  C     -0.537200   -6.923480   14.003150
  C     -3.220700   -7.502760   11.620120
  C     -4.186930   -8.349380   11.134510
  C     -4.034500   -9.743960   11.029080
  N     -3.950160  -10.879840   10.880840
  C     -5.478460   -7.912560   10.776520
  N     -6.556130   -7.595330   10.537560
  H     -8.791750    2.641980   -3.249930
  H     -8.017680    4.794300   -2.366790
  H     -6.164600    4.903740   -0.757600
  H     -5.032040    2.852790   -0.006200
  H     -7.393410   -2.590880   -2.182840
  H     -4.511870   -0.459610    4.388520
  H     -5.011100   -1.864140    5.347880
  H     -6.201980   -0.651800    4.842860
  H     -5.188650   -3.953790    3.901100
  H     -5.056250   -5.822850    3.415190
  H     -5.383810   -9.730190    0.175960
  H     -3.671290  -10.880120    6.039000
  H     -3.572360  -13.037330    4.578370
  H     -4.012980   -8.301080    6.415760
  H     -5.775370   -6.064140    5.282450
  H     -8.579880   -1.666400    8.058490
  H     -7.141800   -0.745360    7.629710
  H     -7.537510   -1.013040    9.334490
  H     -5.946950   -2.780140   10.330040
  H     -4.212130   -4.194470   11.349310
  H     -1.714250   -9.969910   11.881550
  H      0.213540  -10.172510   13.401070
  H      0.954090   -8.256090   14.746910
  H     -0.196140   -6.094220   14.600700

 Total Charge           Charge          ....    0
 Multiplicity           Mult            ....    1
 Number of Electrons    NEL             ....  524
 Basis Dimension        Dim             .... 1152

ORBITAL ENERGIES
----------------

  NO   OCC          E(Eh)            E(eV)
   0   2.0000     -88.998055     -2421.7602
   1   2.0000     -88.987993     -2421.4864
   2   2.0000     -88.982530     -2421.3377
   3   2.0000     -88.977446     -2421.1994
   4   2.0000     -88.974577     -2421.1213
   5   2.0000     -88.971442     -2421.0360
   6   2.0000     -14.425262      -392.5313
   7   2.0000     -14.421723      -392.4350
   8   2.0000     -14.420951      -392.4140
   9   2.0000     -14.420854      -392.4114
  10   2.0000     -14.418063      -392.3354
  11   2.0000     -14.415601      -392.2684
  12   2.0000     -14.411165      -392.1477
  13   2.0000     -14.410914      -392.1409
  14   2.0000     -10.352292      -281.7002
  15   2.0000     -10.351832      -281.6877
  16   2.0000     -10.351740      -281.6852
  17   2.0000     -10.351591      -281.6811
  18   2.0000     -10.349224      -281.6167
  19   2.0000     -10.348914      -281.6083
  20   2.0000     -10.343127      -281.4508
  21   2.0000     -10.342166      -281.4247
  22   2.0000     -10.341385      -281.4034
  23   2.0000     -10.340286      -281.3735
  24   2.0000     -10.339200      -281.3439
  25   2.0000     -10.338432      -281.3230
  26   2.0000     -10.337413      -281.2953
  27   2.0000     -10.334682      -281.2210
  28   2.0000     -10.333452      -281.1875
  29   2.0000     -10.331210      -281.1265
  30   2.0000     -10.330302      -281.1018
  31   2.0000     -10.327506      -281.0257
  32   2.0000     -10.324696      -280.9493
  33   2.0000     -10.323597      -280.9194
  34   2.0000     -10.322827      -280.8984
  35   2.0000     -10.322731      -280.8958
  36   2.0000     -10.322000      -280.8759
  37   2.0000     -10.321753      -280.8692
  38   2.0000     -10.321517      -280.8627
  39   2.0000     -10.319726      -280.8140
  40   2.0000     -10.319097      -280.7969
  41   2.0000     -10.319074      -280.7963
  42   2.0000     -10.318635      -280.7843
  43   2.0000     -10.316455      -280.7250
  44   2.0000     -10.314853      -280.6814
  45   2.0000     -10.313663      -280.6490
  46   2.0000     -10.312297      -280.6119
  47   2.0000     -10.312046      -280.6050
  48   2.0000     -10.311869      -280.6002
  49   2.0000     -10.311481      -280.5897
  50   2.0000     -10.311061      -280.5782
  51   2.0000     -10.310782      -280.5707
  52   2.0000     -10.305287      -280.4211
  53   2.0000     -10.304972      -280.4125
  54   2.0000     -10.304960      -280.4122
  55   2.0000     -10.304706      -280.4053
  56   2.0000     -10.304692      -280.4049
  57   2.0000     -10.300523      -280.2915
  58   2.0000     -10.300425      -280.2888
  59   2.0000     -10.299870      -280.2737
  60   2.0000     -10.299863      -280.2735
  61   2.0000     -10.299380      -280.2604
  62   2.0000     -10.297669      -280.2138
  63   2.0000     -10.295794      -280.1628
  64   2.0000     -10.294627      -280.1310
  65   2.0000     -10.294522      -280.1282
  66   2.0000     -10.293991      -280.1137
  67   2.0000     -10.293615      -280.1035
  68   2.0000     -10.292882      -280.0836
  69   2.0000     -10.292472      -280.0724
  70   2.0000     -10.291248      -280.0391
  71   2.0000     -10.288522      -279.9649
  72   2.0000      -8.093455      -220.2341
  73   2.0000      -8.083263      -219.9568
  74   2.0000      -8.077422      -219.7978
  75   2.0000      -8.071837      -219.6459
  76   2.0000      -8.069979      -219.5953
  77   2.0000      -8.066859      -219.5104
  78   2.0000      -6.063045      -164.9838
  79   2.0000      -6.058370      -164.8566
  80   2.0000      -6.055367      -164.7749
  81   2.0000      -6.052788      -164.7047
  82   2.0000      -6.048408      -164.5855
  83   2.0000      -6.047011      -164.5475
  84   2.0000      -6.045074      -164.4948
  85   2.0000      -6.042540      -164.4259
  86   2.0000      -6.041373      -164.3941
  87   2.0000      -6.039710      -164.3489
  88   2.0000      -6.039249      -164.3363
  89   2.0000      -6.037267      -164.2824
  90   2.0000      -6.036339      -164.2571
  91   2.0000      -6.035456      -164.2331
  92   2.0000      -6.033487      -164.1795
  93   2.0000      -6.032018      -164.1396
  94   2.0000      -6.031327      -164.1208
  95   2.0000      -6.028855      -164.0535
  96   2.0000      -1.042955       -28.3803
  97   2.0000      -1.033901       -28.1339
  98   2.0000      -1.032169       -28.0867
  99   2.0000      -1.025563       -27.9070
 100   2.0000      -1.024389       -27.8751
 101   2.0000      -1.019411       -27.7396
 102   2.0000      -1.011550       -27.5257
 103   2.0000      -1.008722       -27.4487
 104   2.0000      -1.001097       -27.2412
 105   2.0000      -1.000981       -27.2381
 106   2.0000      -0.999717       -27.2037
 107   2.0000      -0.995201       -27.0808
 108   2.0000      -0.992694       -27.0126
 109   2.0000      -0.991677       -26.9849
 110   2.0000      -0.974126       -26.5073
 111   2.0000      -0.970398       -26.4059
 112   2.0000      -0.959671       -26.1140
 113   2.0000      -0.953369       -25.9425
 114   2.0000      -0.947082       -25.7714
 115   2.0000      -0.941043       -25.6071
 116   2.0000      -0.932156       -25.3653
 117   2.0000      -0.929667       -25.2975
 118   2.0000      -0.919625       -25.0243
 119   2.0000      -0.899511       -24.4769
 120   2.0000      -0.894752       -24.3474
 121   2.0000      -0.890326       -24.2270
 122   2.0000      -0.885850       -24.1052
 123   2.0000      -0.875371       -23.8201
 124   2.0000      -0.869263       -23.6539
 125   2.0000      -0.865967       -23.5642
 126   2.0000      -0.863898       -23.5079
 127   2.0000      -0.861069       -23.4309
 128   2.0000      -0.859489       -23.3879
 129   2.0000      -0.853146       -23.2153
 130   2.0000      -0.838714       -22.8226
 131   2.0000      -0.820383       -22.3237
 132   2.0000      -0.814837       -22.1728
 133   2.0000      -0.804798       -21.8997
 134   2.0000      -0.799392       -21.7526
 135   2.0000      -0.796165       -21.6648
 136   2.0000      -0.792236       -21.5578
 137   2.0000      -0.783964       -21.3327
 138   2.0000      -0.783576       -21.3222
 139   2.0000      -0.764918       -20.8145
 140   2.0000      -0.745224       -20.2786
 141   2.0000      -0.736695       -20.0465
 142   2.0000      -0.719177       -19.5698
 143   2.0000      -0.716587       -19.4993
 144   2.0000      -0.712763       -19.3953
 145   2.0000      -0.709256       -19.2998
 146   2.0000      -0.706641       -19.2287
 147   2.0000      -0.700563       -19.0633
 148   2.0000      -0.686717       -18.6865
 149   2.0000      -0.672313       -18.2946
 150   2.0000      -0.668745       -18.1975
 151   2.0000      -0.667735       -18.1700
 152   2.0000      -0.665719       -18.1151
 153   2.0000      -0.663784       -18.0625
 154   2.0000      -0.660135       -17.9632
 155   2.0000      -0.657148       -17.8819
 156   2.0000      -0.656313       -17.8592
 157   2.0000      -0.650945       -17.7131
 158   2.0000      -0.646673       -17.5969
 159   2.0000      -0.642186       -17.4748
 160   2.0000      -0.638253       -17.3677
 161   2.0000      -0.625251       -17.0139
 162   2.0000      -0.617959       -16.8155
 163   2.0000      -0.610288       -16.6068
 164   2.0000      -0.605047       -16.4642
 165   2.0000      -0.593182       -16.1413
 166   2.0000      -0.585829       -15.9412
 167   2.0000      -0.584952       -15.9174
 168   2.0000      -0.582524       -15.8513
 169   2.0000      -0.578200       -15.7336
 170   2.0000      -0.575226       -15.6527
 171   2.0000      -0.570969       -15.5369
 172   2.0000      -0.566183       -15.4066
 173   2.0000      -0.552591       -15.0368
 174   2.0000      -0.550355       -14.9759
 175   2.0000      -0.549612       -14.9557
 176   2.0000      -0.547181       -14.8896
 177   2.0000      -0.542872       -14.7723
 178   2.0000      -0.541249       -14.7281
 179   2.0000      -0.539773       -14.6880
 180   2.0000      -0.537444       -14.6246
 181   2.0000      -0.535696       -14.5770
 182   2.0000      -0.534620       -14.5477
 183   2.0000      -0.532471       -14.4893
 184   2.0000      -0.530769       -14.4430
 185   2.0000      -0.526671       -14.3314
 186   2.0000      -0.523651       -14.2493
 187   2.0000      -0.521524       -14.1914
 188   2.0000      -0.520603       -14.1663
 189   2.0000      -0.519394       -14.1334
 190   2.0000      -0.515832       -14.0365
 191   2.0000      -0.513805       -13.9814
 192   2.0000      -0.510307       -13.8862
 193   2.0000      -0.506381       -13.7793
 194   2.0000      -0.504477       -13.7275
 195   2.0000      -0.501240       -13.6394
 196   2.0000      -0.497899       -13.5485
 197   2.0000      -0.496509       -13.5107
 198   2.0000      -0.490290       -13.3415
 199   2.0000      -0.488785       -13.3005
 200   2.0000      -0.483884       -13.1671
 201   2.0000      -0.481412       -13.0999
 202   2.0000      -0.477965       -13.0061
 203   2.0000      -0.475838       -12.9482
 204   2.0000      -0.470641       -12.8068
 205   2.0000      -0.468774       -12.7560
 206   2.0000      -0.467571       -12.7233
 207   2.0000      -0.466168       -12.6851
 208   2.0000      -0.461182       -12.5494
 209   2.0000      -0.460491       -12.5306
 210   2.0000      -0.459921       -12.5151
 211   2.0000      -0.456367       -12.4184
 212   2.0000      -0.454890       -12.3782
 213   2.0000      -0.453632       -12.3439
 214   2.0000      -0.451322       -12.2811
 215   2.0000      -0.450344       -12.2545
 216   2.0000      -0.449506       -12.2317
 217   2.0000      -0.448796       -12.2124
 218   2.0000      -0.448267       -12.1980
 219   2.0000      -0.447658       -12.1814
 220   2.0000      -0.446194       -12.1416
 221   2.0000      -0.443653       -12.0724
 222   2.0000      -0.443316       -12.0632
 223   2.0000      -0.441966       -12.0265
 224   2.0000      -0.440474       -11.9859
 225   2.0000      -0.437255       -11.8983
 226   2.0000      -0.436028       -11.8649
 227   2.0000      -0.434688       -11.8285
 228   2.0000      -0.433703       -11.8017
 229   2.0000      -0.432987       -11.7822
 230   2.0000      -0.431082       -11.7304
 231   2.0000      -0.429670       -11.6919
 232   2.0000      -0.428452       -11.6588
 233   2.0000      -0.426603       -11.6085
 234   2.0000      -0.426008       -11.5923
 235   2.0000      -0.423452       -11.5227
 236   2.0000      -0.422399       -11.4941
 237   2.0000      -0.418533       -11.3889
 238   2.0000      -0.416057       -11.3215
 239   2.0000      -0.415203       -11.2982
 240   2.0000      -0.412969       -11.2375
 241   2.0000      -0.409161       -11.1338
 242   2.0000      -0.405916       -11.0455
 243   2.0000      -0.405472       -11.0334
 244   2.0000      -0.396459       -10.7882
 245   2.0000      -0.385011       -10.4767
 246   2.0000      -0.377859       -10.2821
 247   2.0000      -0.377282       -10.2664
 248   2.0000      -0.368341       -10.0231
 249   2.0000      -0.349238        -9.5032
 250   2.0000      -0.343810        -9.3555
 251   2.0000      -0.342106        -9.3092
 252   2.0000      -0.334520        -9.1027
 253   2.0000      -0.327277        -8.9057
 254   2.0000      -0.324421        -8.8279
 255   2.0000      -0.319237        -8.6869
 256   2.0000      -0.311712        -8.4821
 257   2.0000      -0.307663        -8.3719
 258   2.0000      -0.303086        -8.2474
 259   2.0000      -0.289301        -7.8723
 260   2.0000      -0.269055        -7.3213
 261   2.0000      -0.238170        -6.4809
 262   0.0000      -0.123454        -3.3593
 263   0.0000      -0.097666        -2.6576
 264   0.0000      -0.089461        -2.4344
 265   0.0000      -0.081763        -2.2249
 266   0.0000      -0.065015        -1.7692

MULLIKEN ATOMIC CHARGES
-----------------------
   0 C :   -0.038768
   1 C :    0.045457
   2 C :    0.049553
   3 C :   -0.042495
   4 C :    0.008975
   5 C :    0.010978
   6 C :    0.306549
   7 C :   -0.352173
   8 C :   -0.190678
   9 N :    0.161985
  10 C :   -0.178549
  11 N :    0.153872
  12 C :   -0.071134
  13 C :    0.238611
  14 C :   -0.363877
  15 C :   -0.200008
  16 N :    0.176870
  17 C :   -0.177237
  18 N :    0.161625
  19 C :    0.059191
  20 C :   -0.180945
  21 C :   -0.044650
  22 S :    0.157323
  23 C :   -0.203524
  24 C :    0.115173
  25 C :    0.002399
  26 C :    0.121406
  27 C :   -0.065940
  28 S :    0.174787
  29 C :   -0.023806
  30 C :   -0.042973
  31 C :    0.051621
  32 C :    0.061885
  33 C :   -0.117595
  34 S :    0.152626
  35 C :   -0.105693
  36 C :    0.051681
  37 C :    0.012141
  38 C :   -0.064218
  39 S :    0.142299
  40 C :    0.087131
  41 C :   -0.013355
  42 C :   -0.046989
  43 C :   -0.069631
  44 C :   -0.046596
  45 S :    0.109741
  46 C :   -0.196645
  47 C :    0.114690
  48 C :    0.008936
  49 C :    0.159277
  50 C :   -0.117590
  51 S :    0.141147
  52 C :    0.000103
  53 C :   -0.073867
  54 C :    0.304857
  55 C :   -0.352419
  56 C :   -0.177884
  57 N :    0.133541
  58 C :   -0.188957
  59 N :    0.148463
  60 C :    0.006952
  61 C :    0.008447
  62 C :   -0.035816
  63 C :    0.047318
  64 C :    0.043699
  65 C :   -0.033225
  66 C :    0.215749
  67 C :   -0.332926
  68 C :   -0.173166
  69 N :    0.143986
  70 C :   -0.209705
  71 N :    0.170044
  72 H :    0.006101
  73 H :    0.002202
  74 H :    0.002234
  75 H :    0.003297
  76 H :    0.012446
  77 H :    0.049914
  78 H :    0.032963
  79 H :    0.034763
  80 H :   -0.024483
  81 H :   -0.056686
  82 H :    0.047785
  83 H :   -0.003661
  84 H :    0.035265
  85 H :   -0.001676
  86 H :   -0.009461
  87 H :    0.045235
  88 H :    0.039319
  89 H :    0.038249
  90 H :    0.007819
  91 H :    0.003142
  92 H :    0.001266
  93 H :    0.000521
  94 H :    0.001458
  95 H :    0.003934
Sum of atomic charges:   -0.0000000

LOEWDIN ATOMIC CHARGES
----------------------
   0 C :    0.005158
   1 C :   -0.002583
   2 C :    0.003794
   3 C :   -0.003449
   4 C :   -0.008765
   5 C :   -0.017036
   6 C :    0.079766
   7 C :   -0.133252
   8 C :   -0.018631
   9 N :   -0.046749
  10 C :   -0.021443
  11 N :   -0.046374
  12 C :   -0.066079
  13 C :    0.042738
  14 C :   -0.149583
  15 C :   -0.023901
  16 N :   -0.046746
  17 C :   -0.022104
  18 N :   -0.051973
  19 C :    0.022344
  20 C :   -0.192268
  21 C :   -0.166233
  22 S :    0.459957
  23 C :   -0.135536
  24 C :   -0.062175
  25 C :   -0.071706
  26 C :   -0.062928
  27 C :   -0.154158
  28 S :    0.471265
  29 C :   -0.179333
  30 C :   -0.007747
  31 C :   -0.007584
  32 C :   -0.046583
  33 C :   -0.131668
  34 S :    0.467779
  35 C :   -0.199612
  36 C :   -0.036879
  37 C :   -0.060025
  38 C :   -0.154434
  39 S :    0.432613
  40 C :   -0.047336
  41 C :    0.017948
  42 C :   -0.068883
  43 C :   -0.133032
  44 C :   -0.204017
  45 S :    0.401084
  46 C :   -0.121831
  47 C :   -0.057217
  48 C :   -0.061983
  49 C :   -0.020684
  50 C :   -0.185930
  51 S :    0.464445
  52 C :    0.039040
  53 C :   -0.084743
  54 C :    0.080940
  55 C :   -0.148264
  56 C :   -0.016351
  57 N :   -0.064354
  58 C :   -0.020172
  59 N :   -0.056775
  60 C :   -0.013474
  61 C :   -0.009561
  62 C :   -0.002394
  63 C :    0.000606
  64 C :   -0.002455
  65 C :    0.003518
  66 C :    0.060648
  67 C :   -0.151330
  68 C :   -0.020019
  69 N :   -0.058738
  70 C :   -0.039111
  71 N :   -0.052507
  72 H :    0.041166
  73 H :    0.036867
  74 H :    0.036748
  75 H :    0.039810
  76 H :    0.045179
  77 H :    0.045965
  78 H :    0.032586
  79 H :    0.037918
  80 H :    0.024490
  81 H :    0.036236
  82 H :    0.041827
  83 H :    0.035451
  84 H :    0.027576
  85 H :    0.030794
  86 H :    0.028813
  87 H :    0.044050
  88 H :    0.041129
  89 H :    0.046483
  90 H :    0.040322
  91 H :    0.049177
  92 H :    0.039294
  93 H :    0.035896
  94 H :    0.036277
  95 H :    0.040997

  Mayer bond orders larger than 0.100000
B(  0-C ,  1-C ) :   1.3648 B(  0-C ,  5-C ) :   1.3838 B(  0-C , 72-H ) :   0.9841
B(  1-C ,  2-C ) :   1.3839 B(  1-C , 73-H ) :   0.9862 B(  2-C ,  3-C ) :   1.3552
B(  2-C , 74-H ) :   0.9869 B(  3-C ,  4-C ) :   1.3905 B(  3-C , 75-H ) :   0.9874
B(  4-C ,  5-C ) :   1.3141 B(  4-C , 13-C ) :   1.0075 B(  5-C ,  6-C ) :   0.9926
B(  6-C ,  7-C ) :   1.6244 B(  6-C , 12-C ) :   1.0785 B(  7-C ,  8-C ) :   1.1524
B(  7-C , 10-C ) :   1.1380 B(  8-C ,  9-N ) :   2.9744 B( 10-C , 11-N ) :   2.9579
B( 12-C , 13-C ) :   1.0754 B( 12-C , 19-C ) :   1.5194 B( 13-C , 14-C ) :   1.5811
B( 14-C , 15-C ) :   1.1641 B( 14-C , 17-C ) :   1.1395 B( 15-C , 16-N ) :   3.0157
B( 17-C , 18-N ) :   2.9924 B( 19-C , 20-C ) :   1.2746 B( 19-C , 76-H ) :   0.9080
B( 20-C , 21-C ) :   1.3923 B( 20-C , 28-S ) :   1.1065 B( 21-C , 22-S ) :   1.1033
B( 21-C , 26-C ) :   1.2757 B( 22-S , 23-C ) :   1.0661 B( 23-C , 24-C ) :   1.0655
B( 23-C , 25-C ) :   1.6891 B( 24-C , 77-H ) :   0.9425 B( 24-C , 78-H ) :   0.9499
B( 24-C , 79-H ) :   0.9455 B( 25-C , 26-C ) :   1.1231 B( 25-C , 80-H ) :   0.9859
B( 26-C , 27-C ) :   1.3978 B( 27-C , 28-S ) :   1.1429 B( 27-C , 29-C ) :   1.1700
B( 29-C , 30-C ) :   1.4946 B( 29-C , 34-S ) :   1.0500 B( 30-C , 31-C ) :   1.2858
B( 30-C , 81-H ) :   0.9629 B( 31-C , 32-C ) :   1.0618 B( 31-C , 40-C ) :   1.3221
B( 32-C , 33-C ) :   1.5860 B( 32-C , 35-C ) :   1.1827 B( 33-C , 34-S ) :   1.1593
B( 33-C , 82-H ) :   0.9415 B( 35-C , 36-C ) :   1.4321 B( 35-C , 39-S ) :   1.0822
B( 36-C , 37-C ) :   1.2233 B( 36-C , 40-C ) :   1.1056 B( 37-C , 38-C ) :   1.5888
B( 37-C , 83-H ) :   0.9982 B( 38-C , 39-S ) :   1.1556 B( 38-C , 84-H ) :   0.9661
B( 40-C , 41-C ) :   1.2069 B( 41-C , 42-C ) :   1.5419 B( 41-C , 85-H ) :   0.9617
B( 42-C , 43-C ) :   1.2261 B( 42-C , 86-H ) :   0.9669 B( 43-C , 44-C ) :   1.4155
B( 43-C , 51-S ) :   1.1376 B( 44-C , 45-S ) :   1.0299 B( 44-C , 49-C ) :   1.2868
B( 45-S , 46-C ) :   1.0930 B( 46-C , 47-C ) :   1.0698 B( 46-C , 48-C ) :   1.6373
B( 47-C , 87-H ) :   0.9469 B( 47-C , 88-H ) :   0.9470 B( 47-C , 89-H ) :   0.9540
B( 48-C , 49-C ) :   1.1808 B( 48-C , 90-H ) :   0.9892 B( 49-C , 50-C ) :   1.2857
B( 50-C , 51-S ) :   1.0560 B( 50-C , 52-C ) :   1.3280 B( 52-C , 53-C ) :   1.4615
B( 52-C , 91-H ) :   0.9260 B( 53-C , 54-C ) :   1.1022 B( 53-C , 66-C ) :   1.0534
B( 54-C , 55-C ) :   1.6012 B( 54-C , 60-C ) :   0.9912 B( 55-C , 56-C ) :   1.1462
B( 55-C , 58-C ) :   1.1477 B( 56-C , 57-N ) :   2.9640 B( 58-C , 59-N ) :   2.9722
B( 60-C , 61-C ) :   1.3152 B( 60-C , 65-C ) :   1.3895 B( 61-C , 62-C ) :   1.3909
B( 61-C , 66-C ) :   1.0127 B( 62-C , 63-C ) :   1.3557 B( 62-C , 92-H ) :   0.9869
B( 63-C , 64-C ) :   1.3849 B( 63-C , 93-H ) :   0.9865 B( 64-C , 65-C ) :   1.3637
B( 64-C , 94-H ) :   0.9864 B( 65-C , 95-H ) :   0.9834 B( 66-C , 67-C ) :   1.6139
B( 67-C , 68-C ) :   1.1448 B( 67-C , 70-C ) :   1.1479 B( 68-C , 69-N ) :   2.9871
B( 70-C , 71-N ) :   3.0280

-----------------------------------------------------------------------------
         ABSORPTION SPECTRUM VIA TRANSITION ELECTRIC DIPOLE MOMENTS
-----------------------------------------------------------------------------
State   Energy  Wavelength   fosc         T2         TX        TY        TZ
        (cm-1)    (nm)                  (au**2)     (au)      (au)      (au)
-----------------------------------------------------------------------------
   0   10630.1    940.7   1.162311062  35.99662  -1.27077   2.12359  -5.46554
   1   16325.9    612.5   0.258494431   5.21256   0.24492   2.10903   0.83939
   2   17518.1    570.8   0.080627913   1.51521   0.08159   1.22783   0.03140
   3   19304.0    518.0   0.201873676   3.44276  -0.60231  -1.45279  -0.98457
   4   20004.2    499.9   0.069109504   1.13735  -0.88489  -0.17277  -0.56962
   5   21422.6    466.8   0.301899652   4.63943  -0.49080   1.97241  -0.71286
   6   21604.9    462.9   0.055109035   0.83974   0.13906   0.80825   0.40881
   7   23760.2    420.9   0.105846582   1.46657  -0.21010   0.74565  -0.93082
   8   24482.9    408.4   0.036913257   0.49636  -0.17272   0.66860   0.13963
   9   25065.4    399.0   0.047242886   0.62049  -0.12467  -0.33607  -0.70143
  10   25534.7    391.6   0.110114291   1.41967   0.86946  -0.50412   0.63998
  11   26125.6    382.8   0.005049491   0.06363  -0.10231   0.07881   0.21668
  12   26269.5    380.7   0.036515233   0.45761   0.63015   0.17504   0.17288
  13   26852.5    372.4   0.042344428   0.51914  -0.53811   0.39686  -0.26848
  14   27040.9    369.8   0.070687415   0.86059   0.03619   0.38418   0.84362
  15   27770.7    360.1   0.246413995   2.92115  -0.13589   1.48222   0.84007
  16   28143.1    355.3   0.045341270   0.53039  -0.64084   0.28508   0.19608
  17   29641.4    337.4   0.395251335   4.38985   1.55468  -0.70490   1.21489
  18   30083.5    332.4   0.017758201   0.19433  -0.01275  -0.39421  -0.19689
  19   30514.3    327.7   0.132604217   1.43064   0.17581   0.44305   1.09701
  20   30756.5    325.1   0.055352623   0.59248   0.47661   0.57190   0.19559
  21   31305.1    319.4   0.030022267   0.31572  -0.33079   0.19117  -0.41202
  22   31673.2    315.7   0.015449653   0.16058  -0.30985  -0.04347  -0.25038
  23   31760.4    314.9   0.324368603   3.36224   0.54869   1.58497   0.74097
  24   32133.3    311.2   0.671252015   6.87712   1.62890   1.24120   1.63806
  25   32206.1    310.5   0.100276373   1.02503   0.74322  -0.68520   0.05613
  26   32526.6    307.4   0.059369419   0.60090  -0.10869   0.55847   0.52649
  27   32562.1    307.1   0.096956802   0.98026   0.25420  -0.94138  -0.17159
  28   32675.1    306.0   0.006014139   0.06059   0.24091   0.04671  -0.01931
  29   33483.4    298.7   0.008039227   0.07904   0.02749  -0.01471   0.27941
  30   33783.7    296.0   0.002974123   0.02898   0.04575   0.08753   0.13866
  31   34019.0    294.0   0.043586845   0.42180  -0.05298  -0.56150  -0.32205
  32   34335.2    291.2   0.113566308   1.08889   0.28403  -1.00325   0.04133
  33   34384.0    290.8   0.299370273   2.86634   0.32805  -1.66086   0.01615
  34   34499.3    289.9   0.072519313   0.69202   0.60895  -0.36347   0.43484
  35   34675.4    288.4   0.125333615   1.18993   1.03146  -0.20184   0.29202
  36   34724.1    288.0   0.560424159   5.31327   0.80887  -2.13756   0.29974
  37   35067.9    285.2   0.072990146   0.68522   0.36545  -0.73187   0.12662
  38   35270.4    283.5   0.139379710   1.30096   0.32059  -0.97071   0.50587
  39   35637.5    280.6   0.010380578   0.09589   0.28305   0.06221   0.10912
  40   35944.0    278.2   0.044821362   0.41052   0.18089  -0.21372  -0.57630
  41   36587.9    273.3   0.086601379   0.77923   0.39035  -0.73321   0.29875
  42   36739.5    272.2   0.070600622   0.63263   0.24558  -0.62882  -0.42060
  43   37349.4    267.7   0.034819682   0.30691  -0.53955  -0.12384  -0.02153
  44   37625.5    265.8   0.062791502   0.54941   0.29444  -0.65187  -0.19434
  45   38250.2    261.4   0.023689192   0.20389   0.25685  -0.26389   0.26130
  46   38475.6    259.9   0.021689228   0.18558   0.27545  -0.33105   0.01079
  47   38985.3    256.5   0.007540347   0.06367   0.22835   0.10698   0.00929
  48   39087.3    255.8   0.013877460   0.11688  -0.14083  -0.01372  -0.31123
  49   39262.8    254.7   0.009227104   0.07737   0.00830  -0.26754  -0.07563
  50   39346.8    254.2   0.007445668   0.06230  -0.03880  -0.09320   0.22827
  51   39434.0    253.6   0.003418079   0.02854   0.06537  -0.04089  -0.15030
  52   39775.8    251.4   0.004040041   0.03344   0.12955  -0.12462   0.03351
  53   40193.5    248.8   0.020184145   0.16532  -0.34494   0.14177  -0.16199
  54   40239.5    248.5   0.000563414   0.00461  -0.02800  -0.05764  -0.02244

FINAL SINGLE POINT ENERGY     -5047.402888929877

DIPOLE MOMENT
-------------
                                X             Y             Z
Electronic contribution:     -3.04588     -15.14678     -24.22938
Nuclear contribution   :      3.24470      14.53425      23.44737
                        -----------------------------------------
Total Dipole Moment    :      0.19882      -0.61253      -0.78202
                        -----------------------------------------
Magnitude (a.u.)       :      1.01305
Magnitude (Debye)      :      2.57498

Rotational constants in cm-1:     0.001370     0.000394     0.000327
Rotational constants in MHz :    41.059698    11.825655     9.811234

                             ****ORCA TERMINATED NORMALLY****
TOTAL RUN TIME: 0 days 0 hours 11 minutes 59 seconds 543 msec
