                         Program Version 4.2.0 -  RELEASE  -
|  1> # ORCA input file
|  2> # SCF done       -217.718975127770          0.000995645965
|  3> ! CAM-B3LYP def2-SVP def2/J RIJCOSX Grid4 TightSCF
|  4> %maxcore 5000
|  5> %tddft
|  6>     Mode sTDDFT
|  7>     Ethresh 5.0
|  8>     maxcore 5000
|  9> end
| 10>
| 11> %pal
| 12>   nprocs 6
| 13>   end
| 14> * xyz 0 1
| 15>    C        6.32089       -13.96971        10.04070
| 16>    C        7.31927       -13.76776         9.09980
| 17>    C        7.12846       -12.91146         8.02420
| 18>    C        5.93487       -12.22460         7.86346
| 19>    C        4.93101       -12.41604         8.79895
| 20>    C        5.11869       -13.29580         9.88933
| 21>    C        3.89878       -13.33088        10.68457
| 22>    C        3.74073       -13.96957        11.88277
| 23>    C        4.77223       -14.67460        12.54137
| 24>    N        5.56386       -15.25853        13.13176
| 25>    C        2.56033       -14.00084        12.65785
| 26>    N        1.64714       -14.08661        13.34784
| 27>    C        2.89235       -12.56998         9.94332
| 28>    C        3.60468       -11.82950         8.90389
| 29>    C        3.21198       -10.65009         8.33238
| 30>    C        2.01665        -9.96672         8.63956
| 31>    N        1.08330        -9.34059         8.87129
| 32>    C        4.00254        -9.92409         7.41583
| 33>    N        4.59561        -9.30017         6.65726
| 34>    C        1.55138       -12.64400        10.16545
| 35>    C        0.49064       -12.26905         9.28476
| 36>    C        0.54360       -12.29942         7.89646
| 37>    C       -0.53894       -11.99053         7.07291
| 38>    C       -1.78302       -11.61094         7.56329
| 39>    C       -1.88631       -11.58630         8.98083
| 40>    C       -0.77666       -11.92749         9.82823
| 41>    N       -1.19184       -11.81911        11.07403
| 42>    O       -2.46276       -11.44380        11.01238
| 43>    N       -2.90340       -11.29659         9.76584
| 44>    C       -2.91058       -11.29869         6.75268
| 45>    C       -2.97926       -11.23467         5.36883
| 46>    C       -4.26317       -10.94042         4.92432
| 47>    C       -5.18243       -10.78046         5.98248
| 48>    S       -4.46114       -10.97455         7.51403
| 49>    C       -6.46080       -10.52638         5.42574
| 50>    C       -6.35076       -10.51983         4.02355
| 51>    C       -4.96378       -10.76945         3.66275
| 52>    C       -4.43700       -10.84109         2.40631
| 53>    C       -5.22399       -10.64847         1.25156
| 54>    N       -5.86472       -10.49159         0.31381
| 55>    C       -3.07196       -11.11862         2.18415
| 56>    N       -1.96388       -11.35473         2.00746
| 57>    C       -7.57299       -10.32535         3.38238
| 58>    C       -8.61254       -10.18787         4.28588
| 59>    S       -8.06697       -10.28355         5.94973
| 60>    C       -9.99679       -10.04046         3.99313
| 61>    C      -10.59134       -10.00983         2.76089
| 62>    C      -12.00191        -9.92540         2.81273
| 63>    C      -12.90331        -9.86556         1.73237
| 64>    C      -12.44425        -9.99035         0.36441
| 65>    C      -11.52207       -10.86753        -0.13346
| 66>    C      -11.32617       -10.71952        -1.52263
| 67>    C      -12.07885        -9.73366        -2.09456
| 68>    S      -13.07103        -8.97082        -0.89994
| 69>    C      -12.12036        -9.30335        -3.51449
| 70>   Cl      -10.22577       -11.70801        -2.40483
| 71>    C      -14.25203        -9.71173         2.04553
| 72>    C      -14.72573        -9.63602         3.38294
| 73>    C      -13.82268        -9.70442         4.47318
| 74>    C      -12.48305        -9.86053         4.14772
| 75>    S      -11.16888        -9.94508         5.29055
| 76>    C      -14.24979        -9.61196         5.85250
| 77>    C      -13.74457       -10.28075         6.93235
| 78>    C      -14.35769        -9.90436         8.14583
| 79>    C      -15.31998        -8.94420         8.01946
| 80>    S      -15.49066        -8.49466         6.35744
| 81>    C      -16.15480        -8.31778         9.07440
| 82>   Cl      -13.91432       -10.60787         9.65331
| 83>    C      -16.12613        -9.56568         3.41642
| 84>    C      -16.72552        -9.58025         2.16963
| 85>    S      -15.54544        -9.67418         0.88408
| 86>    C      -18.12776        -9.54651         2.02892
| 87>    C      -18.95924        -9.59388         0.94344
| 88>    C      -18.50949        -9.67326        -0.43744
| 89>    O      -17.33620        -9.67722        -0.77222
| 90>    N      -19.50127        -9.74535        -1.39416
| 91>    C      -20.86355        -9.74195        -1.15283
| 92>    O      -21.65720        -9.81184        -2.06034
| 93>    N      -21.25240        -9.65389         0.16727
| 94>    C      -20.39816        -9.57004         1.24906
| 95>    O      -20.84355        -9.48961         2.37513
| 96>    C      -22.67655        -9.64748         0.46014
| 97>    C      -19.11663        -9.83120        -2.79410
| 98>    H        6.48513       -14.64441        10.86443
| 99>    H        8.25723       -14.29087         9.20576
|100>    H        7.91751       -12.77830         7.30011
|101>    H        5.79449       -11.56886         7.01951
|102>    H        1.21092       -13.08076        11.09516
|103>    H        1.46065       -12.61434         7.41898
|104>    H       -0.39497       -12.05807         6.00616
|105>    H       -2.13398       -11.39408         4.72522
|106>    H       -7.70958       -10.29215         2.31762
|107>    H      -10.03757       -10.02692         1.84147
|108>    H      -11.03409       -11.62593         0.45056
|109>    H      -11.43989        -9.91322        -4.10327
|110>    H      -11.82913        -8.25770        -3.60752
|111>    H      -13.12805        -9.40707        -3.91498
|112>    H      -12.99266       -11.04537         6.87388
|113>    H      -15.89536        -8.73759        10.04294
|114>    H      -17.21270        -8.49505         8.88318
|115>    H      -15.99582        -7.24024         9.10109
|116>    H      -16.70481        -9.52606         4.32107
|117>    H      -18.66109        -9.48664         2.97518
|118>    H      -23.21625        -9.74273        -0.47801
|119>    H      -22.94168        -8.71624         0.95994
|120>    H      -22.91308       -10.47842         1.12400
|121>    H      -18.03081        -9.84108        -2.84116
|122>    H      -19.51350        -8.97421        -3.33720
|123>    H      -19.52649       -10.74123        -3.23056
|124> *
|125>
|126>                          ****END OF INPUT****

CARTESIAN COORDINATES (ANGSTROEM)
---------------------------------
  C      6.320890  -13.969710   10.040700
  C      7.319270  -13.767760    9.099800
  C      7.128460  -12.911460    8.024200
  C      5.934870  -12.224600    7.863460
  C      4.931010  -12.416040    8.798950
  C      5.118690  -13.295800    9.889330
  C      3.898780  -13.330880   10.684570
  C      3.740730  -13.969570   11.882770
  C      4.772230  -14.674600   12.541370
  N      5.563860  -15.258530   13.131760
  C      2.560330  -14.000840   12.657850
  N      1.647140  -14.086610   13.347840
  C      2.892350  -12.569980    9.943320
  C      3.604680  -11.829500    8.903890
  C      3.211980  -10.650090    8.332380
  C      2.016650   -9.966720    8.639560
  N      1.083300   -9.340590    8.871290
  C      4.002540   -9.924090    7.415830
  N      4.595610   -9.300170    6.657260
  C      1.551380  -12.644000   10.165450
  C      0.490640  -12.269050    9.284760
  C      0.543600  -12.299420    7.896460
  C     -0.538940  -11.990530    7.072910
  C     -1.783020  -11.610940    7.563290
  C     -1.886310  -11.586300    8.980830
  C     -0.776660  -11.927490    9.828230
  N     -1.191840  -11.819110   11.074030
  O     -2.462760  -11.443800   11.012380
  N     -2.903400  -11.296590    9.765840
  C     -2.910580  -11.298690    6.752680
  C     -2.979260  -11.234670    5.368830
  C     -4.263170  -10.940420    4.924320
  C     -5.182430  -10.780460    5.982480
  S     -4.461140  -10.974550    7.514030
  C     -6.460800  -10.526380    5.425740
  C     -6.350760  -10.519830    4.023550
  C     -4.963780  -10.769450    3.662750
  C     -4.437000  -10.841090    2.406310
  C     -5.223990  -10.648470    1.251560
  N     -5.864720  -10.491590    0.313810
  C     -3.071960  -11.118620    2.184150
  N     -1.963880  -11.354730    2.007460
  C     -7.572990  -10.325350    3.382380
  C     -8.612540  -10.187870    4.285880
  S     -8.066970  -10.283550    5.949730
  C     -9.996790  -10.040460    3.993130
  C    -10.591340  -10.009830    2.760890
  C    -12.001910   -9.925400    2.812730
  C    -12.903310   -9.865560    1.732370
  C    -12.444250   -9.990350    0.364410
  C    -11.522070  -10.867530   -0.133460
  C    -11.326170  -10.719520   -1.522630
  C    -12.078850   -9.733660   -2.094560
  S    -13.071030   -8.970820   -0.899940
  C    -12.120360   -9.303350   -3.514490
  Cl   -10.225770  -11.708010   -2.404830
  C    -14.252030   -9.711730    2.045530
  C    -14.725730   -9.636020    3.382940
  C    -13.822680   -9.704420    4.473180
  C    -12.483050   -9.860530    4.147720
  S    -11.168880   -9.945080    5.290550
  C    -14.249790   -9.611960    5.852500
  C    -13.744570  -10.280750    6.932350
  C    -14.357690   -9.904360    8.145830
  C    -15.319980   -8.944200    8.019460
  S    -15.490660   -8.494660    6.357440
  C    -16.154800   -8.317780    9.074400
  Cl   -13.914320  -10.607870    9.653310
  C    -16.126130   -9.565680    3.416420
  C    -16.725520   -9.580250    2.169630
  S    -15.545440   -9.674180    0.884080
  C    -18.127760   -9.546510    2.028920
  C    -18.959240   -9.593880    0.943440
  C    -18.509490   -9.673260   -0.437440
  O    -17.336200   -9.677220   -0.772220
  N    -19.501270   -9.745350   -1.394160
  C    -20.863550   -9.741950   -1.152830
  O    -21.657200   -9.811840   -2.060340
  N    -21.252400   -9.653890    0.167270
  C    -20.398160   -9.570040    1.249060
  O    -20.843550   -9.489610    2.375130
  C    -22.676550   -9.647480    0.460140
  C    -19.116630   -9.831200   -2.794100
  H      6.485130  -14.644410   10.864430
  H      8.257230  -14.290870    9.205760
  H      7.917510  -12.778300    7.300110
  H      5.794490  -11.568860    7.019510
  H      1.210920  -13.080760   11.095160
  H      1.460650  -12.614340    7.418980
  H     -0.394970  -12.058070    6.006160
  H     -2.133980  -11.394080    4.725220
  H     -7.709580  -10.292150    2.317620
  H    -10.037570  -10.026920    1.841470
  H    -11.034090  -11.625930    0.450560
  H    -11.439890   -9.913220   -4.103270
  H    -11.829130   -8.257700   -3.607520
  H    -13.128050   -9.407070   -3.914980
  H    -12.992660  -11.045370    6.873880
  H    -15.895360   -8.737590   10.042940
  H    -17.212700   -8.495050    8.883180
  H    -15.995820   -7.240240    9.101090
  H    -16.704810   -9.526060    4.321070
  H    -18.661090   -9.486640    2.975180
  H    -23.216250   -9.742730   -0.478010
  H    -22.941680   -8.716240    0.959940
  H    -22.913080  -10.478420    1.124000
  H    -18.030810   -9.841080   -2.841160
  H    -19.513500   -8.974210   -3.337200
  H    -19.526490  -10.741230   -3.230560

 Total Charge           Charge          ....    0
 Multiplicity           Mult            ....    1
 Number of Electrons    NEL             ....  624
 Basis Dimension        Dim             .... 1324

ORBITAL ENERGIES
----------------

  NO   OCC          E(Eh)            E(eV)
   0   2.0000    -101.588907     -2764.3747
   1   2.0000    -101.581994     -2764.1866
   2   2.0000     -88.998573     -2421.7743
   3   2.0000     -88.996910     -2421.7290
   4   2.0000     -88.966131     -2420.8915
   5   2.0000     -88.965778     -2420.8819
   6   2.0000     -88.957163     -2420.6475
   7   2.0000     -88.953922     -2420.5593
   8   2.0000     -19.370430      -527.0962
   9   2.0000     -19.208101      -522.6790
  10   2.0000     -19.200799      -522.4803
  11   2.0000     -19.199240      -522.4379
  12   2.0000     -14.497093      -394.4859
  13   2.0000     -14.493074      -394.3766
  14   2.0000     -14.467376      -393.6773
  15   2.0000     -14.465217      -393.6186
  16   2.0000     -14.437829      -392.8733
  17   2.0000     -14.436314      -392.8321
  18   2.0000     -14.430253      -392.6672
  19   2.0000     -14.429650      -392.6507
  20   2.0000     -14.427398      -392.5895
  21   2.0000     -14.426511      -392.5653
  22   2.0000     -10.419901      -283.5399
  23   2.0000     -10.398545      -282.9588
  24   2.0000     -10.390662      -282.7443
  25   2.0000     -10.371780      -282.2305
  26   2.0000     -10.361601      -281.9535
  27   2.0000     -10.359671      -281.9010
  28   2.0000     -10.359155      -281.8869
  29   2.0000     -10.357757      -281.8489
  30   2.0000     -10.356014      -281.8015
  31   2.0000     -10.341790      -281.4144
  32   2.0000     -10.341632      -281.4101
  33   2.0000     -10.339709      -281.3578
  34   2.0000     -10.338843      -281.3342
  35   2.0000     -10.338825      -281.3337
  36   2.0000     -10.338195      -281.3166
  37   2.0000     -10.336760      -281.2775
  38   2.0000     -10.336468      -281.2696
  39   2.0000     -10.334275      -281.2099
  40   2.0000     -10.334051      -281.2038
  41   2.0000     -10.331602      -281.1372
  42   2.0000     -10.331485      -281.1340
  43   2.0000     -10.330581      -281.1094
  44   2.0000     -10.328599      -281.0555
  45   2.0000     -10.328342      -281.0485
  46   2.0000     -10.327894      -281.0363
  47   2.0000     -10.324887      -280.9545
  48   2.0000     -10.323907      -280.9278
  49   2.0000     -10.322819      -280.8982
  50   2.0000     -10.322344      -280.8852
  51   2.0000     -10.321684      -280.8673
  52   2.0000     -10.321371      -280.8588
  53   2.0000     -10.317700      -280.7589
  54   2.0000     -10.317607      -280.7564
  55   2.0000     -10.315503      -280.6991
  56   2.0000     -10.315089      -280.6878
  57   2.0000     -10.315052      -280.6868
  58   2.0000     -10.313440      -280.6430
  59   2.0000     -10.313353      -280.6406
  60   2.0000     -10.311074      -280.5786
  61   2.0000     -10.311053      -280.5780
  62   2.0000     -10.310698      -280.5684
  63   2.0000     -10.309336      -280.5313
  64   2.0000     -10.309276      -280.5297
  65   2.0000     -10.308381      -280.5053
  66   2.0000     -10.307675      -280.4861
  67   2.0000     -10.307006      -280.4679
  68   2.0000     -10.306885      -280.4646
  69   2.0000     -10.306419      -280.4519
  70   2.0000     -10.303882      -280.3829
  71   2.0000     -10.303249      -280.3657
  72   2.0000     -10.301269      -280.3118
  73   2.0000     -10.298634      -280.2401
  74   2.0000     -10.297604      -280.2120
  75   2.0000     -10.296780      -280.1896
  76   2.0000     -10.296200      -280.1739
  77   2.0000     -10.295522      -280.1554
  78   2.0000     -10.290193      -280.0104
  79   2.0000     -10.287087      -279.9259
  80   2.0000     -10.281539      -279.7749
  81   2.0000     -10.280582      -279.7489
  82   2.0000     -10.274743      -279.5900
  83   2.0000      -9.543662      -259.6962
  84   2.0000      -9.536723      -259.5074
  85   2.0000      -8.093207      -220.2273
  86   2.0000      -8.090642      -220.1576
  87   2.0000      -8.061427      -219.3626
  88   2.0000      -8.061396      -219.3617
  89   2.0000      -8.052927      -219.1313
  90   2.0000      -8.047208      -218.9757
  91   2.0000      -7.313899      -199.0213
  92   2.0000      -7.306951      -198.8322
  93   2.0000      -7.303733      -198.7447
  94   2.0000      -7.303658      -198.7426
  95   2.0000      -7.296793      -198.5558
  96   2.0000      -7.296742      -198.5544
  97   2.0000      -6.062476      -164.9684
  98   2.0000      -6.059923      -164.8989
  99   2.0000      -6.058187      -164.8516
 100   2.0000      -6.055610      -164.7815
 101   2.0000      -6.055446      -164.7771
 102   2.0000      -6.053168      -164.7151
 103   2.0000      -6.031207      -164.1175
 104   2.0000      -6.030710      -164.1039
 105   2.0000      -6.026957      -164.0018
 106   2.0000      -6.026541      -163.9905
 107   2.0000      -6.023453      -163.9065
 108   2.0000      -6.022630      -163.8841
 109   2.0000      -6.022184      -163.8719
 110   2.0000      -6.018014      -163.7585
 111   2.0000      -6.016885      -163.7278
 112   2.0000      -6.015040      -163.6776
 113   2.0000      -6.012394      -163.6056
 114   2.0000      -6.008771      -163.5070
 115   2.0000      -1.324997       -36.0550
 116   2.0000      -1.175403       -31.9843
 117   2.0000      -1.143511       -31.1165
 118   2.0000      -1.136032       -30.9130
 119   2.0000      -1.053570       -28.6691
 120   2.0000      -1.047592       -28.5064
 121   2.0000      -1.045597       -28.4521
 122   2.0000      -1.032093       -28.0847
 123   2.0000      -1.028541       -27.9880
 124   2.0000      -1.026255       -27.9258
 125   2.0000      -1.023695       -27.8562
 126   2.0000      -1.022646       -27.8276
 127   2.0000      -1.020263       -27.7628
 128   2.0000      -1.015281       -27.6272
 129   2.0000      -1.014681       -27.6109
 130   2.0000      -1.008273       -27.4365
 131   2.0000      -1.006978       -27.4013
 132   2.0000      -1.004932       -27.3456
 133   2.0000      -1.004320       -27.3289
 134   2.0000      -0.997351       -27.1393
 135   2.0000      -0.987791       -26.8792
 136   2.0000      -0.968838       -26.3634
 137   2.0000      -0.965568       -26.2744
 138   2.0000      -0.949895       -25.8480
 139   2.0000      -0.949138       -25.8273
 140   2.0000      -0.944366       -25.6975
 141   2.0000      -0.939393       -25.5622
 142   2.0000      -0.933156       -25.3925
 143   2.0000      -0.928263       -25.2593
 144   2.0000      -0.913647       -24.8616
 145   2.0000      -0.906249       -24.6603
 146   2.0000      -0.903631       -24.5891
 147   2.0000      -0.901023       -24.5181
 148   2.0000      -0.879071       -23.9207
 149   2.0000      -0.874457       -23.7952
 150   2.0000      -0.871137       -23.7049
 151   2.0000      -0.865165       -23.5423
 152   2.0000      -0.864839       -23.5335
 153   2.0000      -0.854666       -23.2566
 154   2.0000      -0.849403       -23.1134
 155   2.0000      -0.846952       -23.0467
 156   2.0000      -0.828132       -22.5346
 157   2.0000      -0.818806       -22.2808
 158   2.0000      -0.815032       -22.1781
 159   2.0000      -0.809099       -22.0167
 160   2.0000      -0.804643       -21.8955
 161   2.0000      -0.800720       -21.7887
 162   2.0000      -0.800253       -21.7760
 163   2.0000      -0.792490       -21.5648
 164   2.0000      -0.785344       -21.3703
 165   2.0000      -0.783625       -21.3235
 166   2.0000      -0.781243       -21.2587
 167   2.0000      -0.773192       -21.0396
 168   2.0000      -0.763590       -20.7783
 169   2.0000      -0.749976       -20.4079
 170   2.0000      -0.747337       -20.3361
 171   2.0000      -0.728795       -19.8315
 172   2.0000      -0.724564       -19.7164
 173   2.0000      -0.721282       -19.6271
 174   2.0000      -0.720488       -19.6055
 175   2.0000      -0.712182       -19.3795
 176   2.0000      -0.709226       -19.2990
 177   2.0000      -0.701264       -19.0824
 178   2.0000      -0.690920       -18.8009
 179   2.0000      -0.686922       -18.6921
 180   2.0000      -0.677523       -18.4364
 181   2.0000      -0.674650       -18.3582
 182   2.0000      -0.673598       -18.3295
 183   2.0000      -0.670138       -18.2354
 184   2.0000      -0.663880       -18.0651
 185   2.0000      -0.656158       -17.8550
 186   2.0000      -0.650693       -17.7062
 187   2.0000      -0.647023       -17.6064
 188   2.0000      -0.641035       -17.4434
 189   2.0000      -0.635304       -17.2875
 190   2.0000      -0.631873       -17.1941
 191   2.0000      -0.630988       -17.1701
 192   2.0000      -0.624195       -16.9852
 193   2.0000      -0.621993       -16.9253
 194   2.0000      -0.621474       -16.9112
 195   2.0000      -0.610562       -16.6142
 196   2.0000      -0.609111       -16.5748
 197   2.0000      -0.601788       -16.3755
 198   2.0000      -0.596878       -16.2419
 199   2.0000      -0.596756       -16.2385
 200   2.0000      -0.595269       -16.1981
 201   2.0000      -0.589665       -16.0456
 202   2.0000      -0.585894       -15.9430
 203   2.0000      -0.583424       -15.8758
 204   2.0000      -0.581001       -15.8098
 205   2.0000      -0.576612       -15.6904
 206   2.0000      -0.564498       -15.3608
 207   2.0000      -0.555701       -15.1214
 208   2.0000      -0.555318       -15.1110
 209   2.0000      -0.552557       -15.0358
 210   2.0000      -0.549822       -14.9614
 211   2.0000      -0.547529       -14.8990
 212   2.0000      -0.546637       -14.8748
 213   2.0000      -0.543975       -14.8023
 214   2.0000      -0.543831       -14.7984
 215   2.0000      -0.537716       -14.6320
 216   2.0000      -0.533759       -14.5243
 217   2.0000      -0.531134       -14.4529
 218   2.0000      -0.528184       -14.3726
 219   2.0000      -0.527210       -14.3461
 220   2.0000      -0.525553       -14.3010
 221   2.0000      -0.524045       -14.2600
 222   2.0000      -0.523057       -14.2331
 223   2.0000      -0.521937       -14.2026
 224   2.0000      -0.520685       -14.1686
 225   2.0000      -0.519728       -14.1425
 226   2.0000      -0.517097       -14.0709
 227   2.0000      -0.514782       -14.0079
 228   2.0000      -0.513536       -13.9740
 229   2.0000      -0.509983       -13.8774
 230   2.0000      -0.508299       -13.8315
 231   2.0000      -0.505902       -13.7663
 232   2.0000      -0.504687       -13.7332
 233   2.0000      -0.503297       -13.6954
 234   2.0000      -0.498489       -13.5646
 235   2.0000      -0.496806       -13.5188
 236   2.0000      -0.494124       -13.4458
 237   2.0000      -0.491009       -13.3610
 238   2.0000      -0.488507       -13.2930
 239   2.0000      -0.486174       -13.2295
 240   2.0000      -0.483592       -13.1592
 241   2.0000      -0.480267       -13.0687
 242   2.0000      -0.477603       -12.9962
 243   2.0000      -0.476693       -12.9715
 244   2.0000      -0.475587       -12.9414
 245   2.0000      -0.474849       -12.9213
 246   2.0000      -0.473576       -12.8867
 247   2.0000      -0.470923       -12.8145
 248   2.0000      -0.470208       -12.7950
 249   2.0000      -0.469249       -12.7689
 250   2.0000      -0.468581       -12.7507
 251   2.0000      -0.468158       -12.7392
 252   2.0000      -0.467280       -12.7153
 253   2.0000      -0.466482       -12.6936
 254   2.0000      -0.465758       -12.6739
 255   2.0000      -0.463826       -12.6213
 256   2.0000      -0.462590       -12.5877
 257   2.0000      -0.459994       -12.5171
 258   2.0000      -0.457991       -12.4626
 259   2.0000      -0.457321       -12.4443
 260   2.0000      -0.455890       -12.4054
 261   2.0000      -0.454805       -12.3759
 262   2.0000      -0.453832       -12.3494
 263   2.0000      -0.452248       -12.3063
 264   2.0000      -0.450545       -12.2600
 265   2.0000      -0.447245       -12.1702
 266   2.0000      -0.446067       -12.1381
 267   2.0000      -0.444824       -12.1043
 268   2.0000      -0.443588       -12.0706
 269   2.0000      -0.440532       -11.9875
 270   2.0000      -0.436563       -11.8795
 271   2.0000      -0.435390       -11.8476
 272   2.0000      -0.434354       -11.8194
 273   2.0000      -0.428970       -11.6729
 274   2.0000      -0.427610       -11.6359
 275   2.0000      -0.426559       -11.6073
 276   2.0000      -0.423642       -11.5279
 277   2.0000      -0.422903       -11.5078
 278   2.0000      -0.420680       -11.4473
 279   2.0000      -0.418992       -11.4014
 280   2.0000      -0.416868       -11.3436
 281   2.0000      -0.416087       -11.3223
 282   2.0000      -0.412159       -11.2154
 283   2.0000      -0.405610       -11.0372
 284   2.0000      -0.401982       -10.9385
 285   2.0000      -0.400472       -10.8974
 286   2.0000      -0.393957       -10.7201
 287   2.0000      -0.391443       -10.6517
 288   2.0000      -0.385881       -10.5004
 289   2.0000      -0.382542       -10.4095
 290   2.0000      -0.379800       -10.3349
 291   2.0000      -0.378214       -10.2917
 292   2.0000      -0.377292       -10.2666
 293   2.0000      -0.371556       -10.1106
 294   2.0000      -0.362656        -9.8684
 295   2.0000      -0.360248        -9.8028
 296   2.0000      -0.356793        -9.7088
 297   2.0000      -0.353818        -9.6279
 298   2.0000      -0.344317        -9.3694
 299   2.0000      -0.342590        -9.3223
 300   2.0000      -0.338641        -9.2149
 301   2.0000      -0.333358        -9.0711
 302   2.0000      -0.329392        -8.9632
 303   2.0000      -0.326169        -8.8755
 304   2.0000      -0.323067        -8.7911
 305   2.0000      -0.315483        -8.5847
 306   2.0000      -0.310661        -8.4535
 307   2.0000      -0.305519        -8.3136
 308   2.0000      -0.295653        -8.0451
 309   2.0000      -0.290835        -7.9140
 310   2.0000      -0.264945        -7.2095
 311   2.0000      -0.245868        -6.6904
 312   0.0000      -0.123573        -3.3626
 313   0.0000      -0.106765        -2.9052
 314   0.0000      -0.095294        -2.5931
 315   0.0000      -0.084843        -2.3087
 316   0.0000      -0.066211        -1.8017

MULLIKEN ATOMIC CHARGES
-----------------------
   0 C :   -0.034024
   1 C :    0.049687
   2 C :    0.046923
   3 C :   -0.032446
   4 C :    0.001757
   5 C :    0.018249
   6 C :    0.290776
   7 C :   -0.337558
   8 C :   -0.189712
   9 N :    0.165651
  10 C :   -0.184658
  11 N :    0.172087
  12 C :   -0.049346
  13 C :    0.223300
  14 C :   -0.333618
  15 C :   -0.183151
  16 N :    0.182021
  17 C :   -0.186301
  18 N :    0.171364
  19 C :    0.008392
  20 C :    0.000280
  21 C :    0.015896
  22 C :   -0.067299
  23 C :    0.185173
  24 C :   -0.071595
  25 C :   -0.001860
  26 N :    0.068806
  27 O :   -0.082791
  28 N :    0.019448
  29 C :   -0.109287
  30 C :   -0.041625
  31 C :    0.014821
  32 C :   -0.073666
  33 S :    0.230839
  34 C :   -0.106533
  35 C :    0.017751
  36 C :    0.302774
  37 C :   -0.293899
  38 C :   -0.188204
  39 N :    0.176869
  40 C :   -0.185243
  41 N :    0.170360
  42 C :   -0.050797
  43 C :   -0.041245
  44 S :    0.208114
  45 C :   -0.011642
  46 C :   -0.086528
  47 C :    0.101800
  48 C :    0.126935
  49 C :   -0.211830
  50 C :    0.029192
  51 C :    0.084091
  52 C :   -0.265336
  53 S :    0.160268
  54 C :    0.123016
  55 Cl:   -0.085516
  56 C :   -0.128434
  57 C :    0.090341
  58 C :    0.169455
  59 C :   -0.144764
  60 S :    0.107832
  61 C :   -0.213308
  62 C :    0.027289
  63 C :    0.088445
  64 C :   -0.263585
  65 S :    0.138577
  66 C :    0.118832
  67 Cl:   -0.084954
  68 C :   -0.059489
  69 C :   -0.005201
  70 S :    0.180422
  71 C :    0.012011
  72 C :   -0.159288
  73 C :    0.223009
  74 O :   -0.228691
  75 N :   -0.286518
  76 C :    0.223511
  77 O :   -0.217050
  78 N :   -0.279001
  79 C :    0.185808
  80 O :   -0.211049
  81 C :    0.144145
  82 C :    0.142077
  83 H :    0.009321
  84 H :    0.007099
  85 H :    0.008875
  86 H :    0.009415
  87 H :    0.039314
  88 H :    0.005779
  89 H :   -0.005807
  90 H :    0.009829
  91 H :    0.011095
  92 H :   -0.003752
  93 H :   -0.011891
  94 H :    0.025227
  95 H :    0.034649
  96 H :    0.035707
  97 H :   -0.004728
  98 H :    0.026716
  99 H :    0.037747
 100 H :    0.038487
 101 H :   -0.004353
 102 H :    0.032493
 103 H :    0.056771
 104 H :    0.036974
 105 H :    0.037959
 106 H :    0.056570
 107 H :    0.039237
 108 H :    0.039913
Sum of atomic charges:   -0.0000000

LOEWDIN ATOMIC CHARGES
----------------------
   0 C :    0.006122
   1 C :    0.005255
   2 C :    0.006201
   3 C :    0.002723
   4 C :   -0.012467
   5 C :   -0.012015
   6 C :    0.074923
   7 C :   -0.123595
   8 C :   -0.018307
   9 N :   -0.040781
  10 C :   -0.025795
  11 N :   -0.028914
  12 C :   -0.046125
  13 C :    0.065035
  14 C :   -0.127404
  15 C :   -0.017716
  16 N :   -0.036600
  17 C :   -0.021308
  18 N :   -0.039047
  19 C :    0.069759
  20 C :   -0.053747
  21 C :    0.029534
  22 C :   -0.014126
  23 C :   -0.007357
  24 C :   -0.054984
  25 C :   -0.040128
  26 N :   -0.009354
  27 O :    0.089185
  28 N :   -0.037541
  29 C :   -0.173115
  30 C :   -0.006950
  31 C :   -0.073561
  32 C :   -0.168855
  33 S :    0.527413
  34 C :   -0.186687
  35 C :   -0.060458
  36 C :    0.081353
  37 C :   -0.101030
  38 C :   -0.017605
  39 N :   -0.028464
  40 C :   -0.015257
  41 N :   -0.033660
  42 C :   -0.022462
  43 C :   -0.173309
  44 S :    0.485970
  45 C :   -0.169266
  46 C :   -0.045815
  47 C :   -0.027189
  48 C :   -0.055456
  49 C :   -0.178076
  50 C :   -0.068751
  51 C :   -0.178741
  52 C :   -0.195990
  53 S :    0.447588
  54 C :   -0.060977
  55 Cl:    0.130307
  56 C :   -0.153607
  57 C :   -0.052343
  58 C :   -0.045484
  59 C :   -0.142815
  60 S :    0.406376
  61 C :   -0.174642
  62 C :   -0.075166
  63 C :   -0.177075
  64 C :   -0.195039
  65 S :    0.448856
  66 C :   -0.061040
  67 Cl:    0.131422
  68 C :   -0.018418
  69 C :   -0.177449
  70 S :    0.472829
  71 C :    0.083531
  72 C :   -0.148382
  73 C :    0.090054
  74 O :   -0.201235
  75 N :   -0.036882
  76 C :    0.096994
  77 O :   -0.190859
  78 N :   -0.038160
  79 C :    0.083523
  80 O :   -0.191061
  81 C :    0.042488
  82 C :    0.041700
  83 H :    0.042518
  84 H :    0.039112
  85 H :    0.039225
  86 H :    0.041705
  87 H :    0.052774
  88 H :    0.039246
  89 H :    0.039202
  90 H :    0.040660
  91 H :    0.042192
  92 H :    0.034618
  93 H :    0.032597
  94 H :    0.034138
  95 H :    0.039413
  96 H :    0.039702
  97 H :    0.026121
  98 H :    0.035005
  99 H :    0.040458
 100 H :    0.040658
 101 H :    0.021097
 102 H :    0.053633
 103 H :    0.035011
 104 H :    0.031349
 105 H :    0.031655
 106 H :    0.033761
 107 H :    0.031643
 108 H :    0.032008

  Mayer bond orders larger than 0.100000
B(  0-C ,  1-C ) :   1.3747 B(  0-C ,  5-C ) :   1.3787 B(  0-C , 83-H ) :   0.9834
B(  1-C ,  2-C ) :   1.3738 B(  1-C , 84-H ) :   0.9856 B(  2-C ,  3-C ) :   1.3709
B(  2-C , 85-H ) :   0.9860 B(  3-C ,  4-C ) :   1.3768 B(  3-C , 86-H ) :   0.9874
B(  4-C ,  5-C ) :   1.3108 B(  4-C , 13-C ) :   1.0087 B(  5-C ,  6-C ) :   0.9990
B(  6-C ,  7-C ) :   1.6560 B(  6-C , 12-C ) :   1.0408 B(  7-C ,  8-C ) :   1.1469
B(  7-C , 10-C ) :   1.1323 B(  8-C ,  9-N ) :   2.9790 B( 10-C , 11-N ) :   2.9729
B( 12-C , 13-C ) :   1.0040 B( 12-C , 19-C ) :   1.6442 B( 13-C , 14-C ) :   1.6662
B( 14-C , 15-C ) :   1.1558 B( 14-C , 17-C ) :   1.1386 B( 15-C , 16-N ) :   3.0003
B( 17-C , 18-N ) :   2.9973 B( 19-C , 20-C ) :   1.1166 B( 19-C , 87-H ) :   0.9271
B( 20-C , 21-C ) :   1.4244 B( 20-C , 23-C ) :   0.1040 B( 20-C , 25-C ) :   1.1546
B( 21-C , 22-C ) :   1.2540 B( 21-C , 88-H ) :   0.9874 B( 22-C , 23-C ) :   1.4435
B( 22-C , 89-H ) :   0.9963 B( 23-C , 24-C ) :   1.1223 B( 23-C , 29-C ) :   1.1403
B( 24-C , 25-C ) :   1.1562 B( 24-C , 28-N ) :   1.5755 B( 25-C , 26-N ) :   1.6187
B( 26-N , 27-O ) :   1.0682 B( 26-N , 28-N ) :   0.1811 B( 27-O , 28-N ) :   1.0755
B( 29-C , 30-C ) :   1.4259 B( 29-C , 33-S ) :   1.1000 B( 30-C , 31-C ) :   1.3240
B( 30-C , 90-H ) :   0.9862 B( 31-C , 32-C ) :   1.4028 B( 31-C , 36-C ) :   0.9967
B( 32-C , 33-S ) :   1.1302 B( 32-C , 34-C ) :   1.1951 B( 34-C , 35-C ) :   1.4324
B( 34-C , 44-S ) :   1.1232 B( 35-C , 36-C ) :   0.9948 B( 35-C , 42-C ) :   1.2948
B( 36-C , 37-C ) :   1.7132 B( 37-C , 38-C ) :   1.1332 B( 37-C , 40-C ) :   1.1345
B( 38-C , 39-N ) :   2.9897 B( 40-C , 41-N ) :   2.9870 B( 42-C , 43-C ) :   1.4806
B( 42-C , 91-H ) :   0.9945 B( 43-C , 44-S ) :   1.1100 B( 43-C , 45-C ) :   1.1108
B( 45-C , 46-C ) :   1.5738 B( 45-C , 60-S ) :   1.0549 B( 46-C , 47-C ) :   1.1787
B( 46-C , 92-H ) :   0.9936 B( 47-C , 48-C ) :   1.3275 B( 47-C , 59-C ) :   1.2455
B( 48-C , 49-C ) :   0.9850 B( 48-C , 56-C ) :   1.3862 B( 49-C , 50-C ) :   1.5384
B( 49-C , 53-S ) :   1.1418 B( 50-C , 51-C ) :   1.2228 B( 50-C , 93-H ) :   1.0073
B( 51-C , 52-C ) :   1.5959 B( 51-C , 55-Cl) :   1.0077 B( 52-C , 53-S ) :   1.1354
B( 52-C , 54-C ) :   1.0835 B( 54-C , 94-H ) :   0.9444 B( 54-C , 95-H ) :   0.9486
B( 54-C , 96-H ) :   0.9476 B( 56-C , 57-C ) :   1.2459 B( 56-C , 70-S ) :   1.0461
B( 57-C , 58-C ) :   1.2546 B( 57-C , 68-C ) :   1.2115 B( 58-C , 59-C ) :   1.4553
B( 58-C , 61-C ) :   0.9971 B( 59-C , 60-S ) :   1.0513 B( 61-C , 62-C ) :   1.5425
B( 61-C , 65-S ) :   1.1278 B( 62-C , 63-C ) :   1.2252 B( 62-C , 97-H ) :   0.9929
B( 63-C , 64-C ) :   1.6010 B( 63-C , 67-Cl) :   1.0092 B( 64-C , 65-S ) :   1.1314
B( 64-C , 66-C ) :   1.0808 B( 66-C , 98-H ) :   0.9444 B( 66-C , 99-H ) :   0.9487
B( 66-C ,100-H ) :   0.9488 B( 68-C , 69-C ) :   1.4476 B( 68-C ,101-H ) :   0.9886
B( 69-C , 70-S ) :   1.0688 B( 69-C , 71-C ) :   1.1609 B( 71-C , 72-C ) :   1.6492
B( 71-C ,102-H ) :   0.9499 B( 72-C , 73-C ) :   0.9772 B( 72-C , 79-C ) :   0.9424
B( 73-C , 74-O ) :   2.0168 B( 73-C , 75-N ) :   1.1007 B( 75-N , 76-C ) :   1.0515
B( 75-N , 82-C ) :   0.9328 B( 76-C , 77-O ) :   2.0897 B( 76-C , 78-N ) :   1.0667
B( 78-N , 79-C ) :   1.0785 B( 78-N , 81-C ) :   0.9348 B( 79-C , 80-O ) :   2.1194
B( 81-C ,103-H ) :   0.9562 B( 81-C ,104-H ) :   0.9765 B( 81-C ,105-H ) :   0.9753
B( 82-C ,106-H ) :   0.9548 B( 82-C ,107-H ) :   0.9765 B( 82-C ,108-H ) :   0.9757

-----------------------------------------------------------------------------
         ABSORPTION SPECTRUM VIA TRANSITION ELECTRIC DIPOLE MOMENTS
-----------------------------------------------------------------------------
State   Energy  Wavelength   fosc         T2         TX        TY        TZ
        (cm-1)    (nm)                  (au**2)     (au)      (au)      (au)
-----------------------------------------------------------------------------
   0   12315.1    812.0   0.619465994  16.55982   3.60950  -0.55584   1.79510
   1   16008.9    624.7   0.997488941  20.51268  -3.92853   0.52470  -2.19180
   2   17568.3    569.2   0.015606813   0.29246   0.30884  -0.12085  -0.42717
   3   20243.4    494.0   0.404989339   6.58622  -1.67254   0.08990  -1.94442
   4   21928.7    456.0   0.060988858   0.91562  -0.37516   0.72308  -0.50202
   5   22349.0    447.4   0.182883742   2.69397   1.21667  -0.49505   0.98418
   6   23570.4    424.3   0.219514517   3.06600   1.73877  -0.20596   0.01643
   7   24975.1    400.4   0.611904729   8.06588  -2.83225   0.14233  -0.15494
   8   25966.4    385.1   0.028037470   0.35547  -0.32898   0.48045  -0.12809
   9   26325.2    379.9   0.060967679   0.76244  -0.85277   0.16037  -0.09748
  10   26943.4    371.1   0.052622794   0.64298   0.69520   0.15935  -0.36645
  11   27812.7    359.5   0.039236637   0.46443  -0.11711  -0.44940   0.49876
  12   28509.3    350.8   0.019020017   0.21963  -0.22141   0.25335   0.32622
  13   28718.7    348.2   0.109551959   1.25583   0.85448  -0.20049   0.69678
  14   29008.4    344.7   0.048150004   0.54645  -0.08990   0.12555  -0.72291
  15   29503.0    338.9   0.099966728   1.11549   0.82228  -0.11586   0.65262
  16   29756.3    336.1   0.056352943   0.62347   0.34222   0.11840   0.70166
  17   30007.1    333.3   0.010779353   0.11826   0.24471  -0.13128  -0.20284
  18   30406.4    328.9   0.037933355   0.41071   0.35646  -0.51368   0.14061
  19   30550.9    327.3   0.331965713   3.57721  -0.96289  -0.00709   1.62788
  20   30768.6    325.0   0.153967099   1.64739  -1.28089   0.06279  -0.05259
  21   31135.0    321.2   0.369389370   3.90581  -1.69779   0.30144   0.96564
  22   31368.9    318.8   0.041966133   0.44043  -0.65285   0.00912  -0.11888
  23   32001.7    312.5   0.020951479   0.21553   0.31218   0.05496  -0.33920
  24   32256.2    310.0   0.289320095   2.95285  -0.13935   1.11043  -1.30399
  25   32343.0    309.2   0.123072755   1.25273   0.13356  -0.68367   0.87606
  26   32521.7    307.5   0.141525551   1.43264   0.51090  -0.06364  -1.08054
  27   33016.6    302.9   0.116601374   1.16265  -0.15685   0.11447   1.06063
  28   33113.8    302.0   0.037987061   0.37766  -0.09671   0.08480   0.60093
  29   33229.3    300.9   0.080376800   0.79631  -0.55496  -0.24512  -0.65441
  30   33560.0    298.0   0.291262485   2.85718   1.49591  -0.73871  -0.27154
  31   33944.5    294.6   0.347679192   3.37197   0.16478  -1.05626   1.49303
  32   33950.4    294.5   0.092561786   0.89756   0.21208   0.49408  -0.78004
  33   34183.5    292.5   0.029819555   0.28718  -0.20600   0.04459  -0.49271
  34   34420.1    290.5   0.015480049   0.14806   0.32146   0.13696   0.16114
  35   34756.2    287.7   0.077854737   0.73744  -0.78339  -0.00650  -0.35170
  36   35025.4    285.5   0.030832154   0.28980   0.14149  -0.04401  -0.51754
  37   36021.9    277.6   0.064270296   0.58738   0.69179  -0.32740   0.04019
  38   36223.2    276.1   0.076406993   0.69442  -0.74788   0.13110   0.34338
  39   36267.0    275.7   0.031162701   0.28288  -0.49094   0.15260   0.13627
  40   36780.7    271.9   0.096289601   0.86186  -0.71110   0.21429   0.55702
  41   37003.7    270.2   0.020701015   0.18417  -0.15666   0.09513   0.38805
  42   37359.4    267.7   0.183084691   1.61335  -0.96877   0.25436   0.78111
  43   37426.8    267.2   0.070645655   0.62141  -0.27558  -0.01059  -0.73848
  44   37528.7    266.5   0.005784803   0.05075  -0.17419   0.06632  -0.12652
  45   37600.4    266.0   0.024822387   0.21733  -0.45519   0.08694  -0.05081
  46   37835.9    264.3   0.082942463   0.72169  -0.67365   0.11809  -0.50392
  47   37893.3    263.9   0.007224984   0.06277   0.19209  -0.12871   0.09647
  48   38581.5    259.2   0.094124919   0.80316   0.75236  -0.10061  -0.47644
  49   38841.5    257.5   0.061130188   0.51813  -0.43079   0.07474   0.57181
  50   38915.8    257.0   0.001292232   0.01093   0.04795   0.01055   0.09231
  51   39140.3    255.5   0.005798039   0.04877   0.04288   0.05923  -0.20838
  52   39312.4    254.4   0.018160913   0.15208  -0.36653  -0.06496  -0.11629
  53   39373.9    254.0   0.049397723   0.41302   0.59506   0.02755  -0.24118
  54   39759.3    251.5   0.096309801   0.79746   0.60625  -0.03781  -0.65459
  55   39893.6    250.7   0.008493197   0.07009  -0.01221  -0.24455  -0.10067
  56   40106.0    249.3   0.043392198   0.35619   0.55099  -0.08988   0.21099
  57   40183.9    248.9   0.006568975   0.05382  -0.10030  -0.00985   0.20895
  58   40321.7    248.0   0.066000909   0.53887   0.04578  -0.01487   0.73250

FINAL SINGLE POINT ENERGY     -6492.951414838541

DIPOLE MOMENT
-------------
                                X             Y             Z
Electronic contribution:     39.56828      -5.14537      29.86991
Nuclear contribution   :    -39.95445       4.80248     -31.04620
                        -----------------------------------------
Total Dipole Moment    :     -0.38616      -0.34288      -1.17629
                        -----------------------------------------
Magnitude (a.u.)       :      1.28466
Magnitude (Debye)      :      3.26535

Rotational constants in cm-1:     0.001420     0.000168     0.000153
Rotational constants in MHz :    42.570247     5.041316     4.593954

                             ****ORCA TERMINATED NORMALLY****
TOTAL RUN TIME: 0 days 0 hours 12 minutes 36 seconds 555 msec
