                         Program Version 4.2.0 -  RELEASE  -
|  1> # ORCA input file
|  2> # SCF done       -197.305619795014          0.000531530122
|  3> ! CAM-B3LYP def2-SVP def2/J RIJCOSX Grid4 TightSCF
|  4> %maxcore 5000
|  5> %tddft
|  6>     Mode sTDDFT
|  7>     Ethresh 5.0
|  8>     maxcore 5000
|  9> end
| 10>
| 11> %pal
| 12>   nprocs 6
| 13>   end
| 14> * xyz 0 1
| 15>    C       -9.16079        -2.42641         6.88826
| 16>    C      -10.09426        -3.33034         7.37275
| 17>    C      -10.04833        -4.67120         7.01583
| 18>    C       -9.06008        -5.14925         6.16914
| 19>    C       -8.12135        -4.25558         5.68018
| 20>    C       -8.17111        -2.88714         6.03343
| 21>    C       -7.09108        -2.18039         5.35636
| 22>    C       -6.75025        -0.87003         5.53326
| 23>    C       -7.39568        -0.00477         6.44537
| 24>    N       -7.87091         0.74894         7.16787
| 25>    C       -5.70519        -0.18762         4.86942
| 26>    N       -4.89010         0.44780         4.37188
| 27>    C       -6.47560        -3.14201         4.44063
| 28>    C       -6.96741        -4.46449         4.82353
| 29>    C       -6.29981        -5.64519         4.65088
| 30>    C       -5.01367        -5.74252         4.07612
| 31>    N       -3.95270        -5.85851         3.65467
| 32>    C       -6.78094        -6.89217         5.10291
| 33>    N       -7.13503        -7.93355         5.42859
| 34>    C       -5.70164        -2.81640         3.36972
| 35>    C       -5.42099        -3.60543         2.22484
| 36>    C       -4.38866        -3.41724         1.33636
| 37>    C       -3.19005        -2.55688         1.26423
| 38>    O       -2.82140        -1.67963         1.99799
| 39>    N       -2.53742        -2.97193         0.10920
| 40>    C       -1.29552        -2.39281        -0.34141
| 41>    C       -3.18156        -3.99418        -0.57420
| 42>    O       -2.79380        -4.48638        -1.60360
| 43>    C       -4.38422        -4.28647         0.22848
| 44>    C       -5.44257        -5.17088         0.21132
| 45>    S       -6.45353        -4.89598         1.61446
| 46>    C       -5.75997        -6.18097        -0.72788
| 47>    C       -5.19695        -6.36634        -1.98103
| 48>    C       -5.75231        -7.46263        -2.63431
| 49>    C       -6.72349        -8.12934        -1.86068
| 50>    S       -6.98058        -7.38701        -0.34849
| 51>    C       -7.19930        -9.24250        -2.59325
| 52>    C       -6.54738        -9.27212        -3.84235
| 53>    C       -5.61321        -8.15692        -3.90676
| 54>    C       -4.78453        -7.83346        -4.93730
| 55>    C       -3.95753        -6.68671        -4.92710
| 56>    N       -3.29846        -5.75038        -4.96463
| 57>    C       -4.67555        -8.61689        -6.10923
| 58>    N       -4.54020        -9.24218        -7.05966
| 59>    C       -6.97446       -10.31994        -4.65289
| 60>    C       -7.92567       -11.10150        -4.01586
| 61>    S       -8.30722       -10.52285        -2.40099
| 62>    C       -8.57612       -12.24797        -4.53136
| 63>    C       -8.61239       -12.73497        -5.82115
| 64>    C       -8.11083       -12.35438        -7.15530
| 65>    O       -7.41633       -11.42879        -7.49132
| 66>    N       -8.60852       -13.32588        -8.01296
| 67>    C       -8.35601       -13.31536        -9.43313
| 68>    C       -9.37234       -14.30408        -7.38683
| 69>    O       -9.88717       -15.24371        -7.93103
| 70>    C       -9.37209       -13.91241        -5.96261
| 71>    C       -9.96924       -14.36591        -4.81028
| 72>    S       -9.51573       -13.29386        -3.48772
| 73>    C      -10.71401       -15.56358        -4.65694
| 74>    C      -11.59147       -15.87677        -3.66506
| 75>    C      -11.98678       -17.23455        -3.28804
| 76>    C      -11.84885       -18.37271        -4.02974
| 77>    C      -11.31080       -18.45165        -5.33460
| 78>    N      -10.87823       -18.61413        -6.38448
| 79>    C      -12.25890       -19.65222        -3.59176
| 80>    N      -12.57352       -20.71557        -3.29816
| 81>    C      -12.53494       -17.14634        -1.94037
| 82>    C      -12.62911       -15.78544        -1.56753
| 83>    C      -13.09584       -15.42335        -0.31456
| 84>    C      -13.47184       -16.42675         0.56511
| 85>    C      -13.39053       -17.76339         0.19883
| 86>    C      -12.92343       -18.13766        -1.05218
| 87>    C      -12.20584       -14.97265        -2.69402
| 88>    C      -12.57030       -13.67610        -2.92977
| 89>    C      -13.23179       -12.86266        -1.98552
| 90>    N      -13.74878       -12.15215        -1.24807
| 91>    C      -12.40127       -13.02568        -4.17172
| 92>    N      -12.32296       -12.47682        -5.17637
| 93>    H       -9.21723        -1.38884         7.17288
| 94>    H      -10.87103        -2.98098         8.03541
| 95>    H      -10.79176        -5.35228         7.40039
| 96>    H       -9.03624        -6.19034         5.89034
| 97>    H       -5.27897        -1.81989         3.31703
| 98>    H       -1.25141        -1.35997        -0.00013
| 99>    H       -1.26213        -2.44180        -1.42867
|100>    H       -0.44673        -2.94341         0.06858
|101>    H       -4.41860        -5.73120        -2.36689
|102>    H       -6.63830       -10.51799        -5.65584
|103>    H       -9.00842       -12.59515        -9.93004
|104>    H       -8.55504       -14.31317        -9.81967
|105>    H       -7.31857       -13.03428        -9.61005
|106>    H      -10.48128       -16.31347        -5.40379
|107>    H      -13.15413       -14.38808        -0.01964
|108>    H      -13.83087       -16.16281         1.54790
|109>    H      -13.69123       -18.52755         0.89894
|110>    H      -12.86267       -19.18079        -1.31469
|111> *
|112>
|113>                          ****END OF INPUT****

CARTESIAN COORDINATES (ANGSTROEM)
---------------------------------
  C     -9.160790   -2.426410    6.888260
  C    -10.094260   -3.330340    7.372750
  C    -10.048330   -4.671200    7.015830
  C     -9.060080   -5.149250    6.169140
  C     -8.121350   -4.255580    5.680180
  C     -8.171110   -2.887140    6.033430
  C     -7.091080   -2.180390    5.356360
  C     -6.750250   -0.870030    5.533260
  C     -7.395680   -0.004770    6.445370
  N     -7.870910    0.748940    7.167870
  C     -5.705190   -0.187620    4.869420
  N     -4.890100    0.447800    4.371880
  C     -6.475600   -3.142010    4.440630
  C     -6.967410   -4.464490    4.823530
  C     -6.299810   -5.645190    4.650880
  C     -5.013670   -5.742520    4.076120
  N     -3.952700   -5.858510    3.654670
  C     -6.780940   -6.892170    5.102910
  N     -7.135030   -7.933550    5.428590
  C     -5.701640   -2.816400    3.369720
  C     -5.420990   -3.605430    2.224840
  C     -4.388660   -3.417240    1.336360
  C     -3.190050   -2.556880    1.264230
  O     -2.821400   -1.679630    1.997990
  N     -2.537420   -2.971930    0.109200
  C     -1.295520   -2.392810   -0.341410
  C     -3.181560   -3.994180   -0.574200
  O     -2.793800   -4.486380   -1.603600
  C     -4.384220   -4.286470    0.228480
  C     -5.442570   -5.170880    0.211320
  S     -6.453530   -4.895980    1.614460
  C     -5.759970   -6.180970   -0.727880
  C     -5.196950   -6.366340   -1.981030
  C     -5.752310   -7.462630   -2.634310
  C     -6.723490   -8.129340   -1.860680
  S     -6.980580   -7.387010   -0.348490
  C     -7.199300   -9.242500   -2.593250
  C     -6.547380   -9.272120   -3.842350
  C     -5.613210   -8.156920   -3.906760
  C     -4.784530   -7.833460   -4.937300
  C     -3.957530   -6.686710   -4.927100
  N     -3.298460   -5.750380   -4.964630
  C     -4.675550   -8.616890   -6.109230
  N     -4.540200   -9.242180   -7.059660
  C     -6.974460  -10.319940   -4.652890
  C     -7.925670  -11.101500   -4.015860
  S     -8.307220  -10.522850   -2.400990
  C     -8.576120  -12.247970   -4.531360
  C     -8.612390  -12.734970   -5.821150
  C     -8.110830  -12.354380   -7.155300
  O     -7.416330  -11.428790   -7.491320
  N     -8.608520  -13.325880   -8.012960
  C     -8.356010  -13.315360   -9.433130
  C     -9.372340  -14.304080   -7.386830
  O     -9.887170  -15.243710   -7.931030
  C     -9.372090  -13.912410   -5.962610
  C     -9.969240  -14.365910   -4.810280
  S     -9.515730  -13.293860   -3.487720
  C    -10.714010  -15.563580   -4.656940
  C    -11.591470  -15.876770   -3.665060
  C    -11.986780  -17.234550   -3.288040
  C    -11.848850  -18.372710   -4.029740
  C    -11.310800  -18.451650   -5.334600
  N    -10.878230  -18.614130   -6.384480
  C    -12.258900  -19.652220   -3.591760
  N    -12.573520  -20.715570   -3.298160
  C    -12.534940  -17.146340   -1.940370
  C    -12.629110  -15.785440   -1.567530
  C    -13.095840  -15.423350   -0.314560
  C    -13.471840  -16.426750    0.565110
  C    -13.390530  -17.763390    0.198830
  C    -12.923430  -18.137660   -1.052180
  C    -12.205840  -14.972650   -2.694020
  C    -12.570300  -13.676100   -2.929770
  C    -13.231790  -12.862660   -1.985520
  N    -13.748780  -12.152150   -1.248070
  C    -12.401270  -13.025680   -4.171720
  N    -12.322960  -12.476820   -5.176370
  H     -9.217230   -1.388840    7.172880
  H    -10.871030   -2.980980    8.035410
  H    -10.791760   -5.352280    7.400390
  H     -9.036240   -6.190340    5.890340
  H     -5.278970   -1.819890    3.317030
  H     -1.251410   -1.359970   -0.000130
  H     -1.262130   -2.441800   -1.428670
  H     -0.446730   -2.943410    0.068580
  H     -4.418600   -5.731200   -2.366890
  H     -6.638300  -10.517990   -5.655840
  H     -9.008420  -12.595150   -9.930040
  H     -8.555040  -14.313170   -9.819670
  H     -7.318570  -13.034280   -9.610050
  H    -10.481280  -16.313470   -5.403790
  H    -13.154130  -14.388080   -0.019640
  H    -13.830870  -16.162810    1.547900
  H    -13.691230  -18.527550    0.898940
  H    -12.862670  -19.180790   -1.314690

 Total Charge           Charge          ....    0
 Multiplicity           Mult            ....    1
 Number of Electrons    NEL             ....  546
 Basis Dimension        Dim             .... 1198

ORBITAL ENERGIES
----------------

  NO   OCC          E(Eh)            E(eV)
   0   2.0000     -89.010217     -2422.0911
   1   2.0000     -89.010121     -2422.0885
   2   2.0000     -89.001810     -2421.8624
   3   2.0000     -89.001800     -2421.8621
   4   2.0000     -19.227214      -523.1991
   5   2.0000     -19.227093      -523.1958
   6   2.0000     -19.226801      -523.1879
   7   2.0000     -19.226685      -523.1847
   8   2.0000     -14.471159      -393.7802
   9   2.0000     -14.470984      -393.7755
  10   2.0000     -14.436353      -392.8331
  11   2.0000     -14.436279      -392.8311
  12   2.0000     -14.435971      -392.8227
  13   2.0000     -14.435895      -392.8207
  14   2.0000     -14.434187      -392.7742
  15   2.0000     -14.434034      -392.7700
  16   2.0000     -14.430502      -392.6739
  17   2.0000     -14.430417      -392.6716
  18   2.0000     -14.430313      -392.6688
  19   2.0000     -14.430131      -392.6638
  20   2.0000     -10.410716      -283.2900
  21   2.0000     -10.410346      -283.2799
  22   2.0000     -10.409622      -283.2602
  23   2.0000     -10.409360      -283.2531
  24   2.0000     -10.377739      -282.3926
  25   2.0000     -10.368250      -282.1344
  26   2.0000     -10.368229      -282.1338
  27   2.0000     -10.365800      -282.0678
  28   2.0000     -10.365768      -282.0669
  29   2.0000     -10.364074      -282.0208
  30   2.0000     -10.363952      -282.0175
  31   2.0000     -10.362048      -281.9657
  32   2.0000     -10.362045      -281.9656
  33   2.0000     -10.361985      -281.9639
  34   2.0000     -10.360354      -281.9196
  35   2.0000     -10.360228      -281.9161
  36   2.0000     -10.353511      -281.7334
  37   2.0000     -10.353294      -281.7275
  38   2.0000     -10.352722      -281.7119
  39   2.0000     -10.352674      -281.7106
  40   2.0000     -10.347230      -281.5625
  41   2.0000     -10.347226      -281.5623
  42   2.0000     -10.343783      -281.4686
  43   2.0000     -10.343564      -281.4627
  44   2.0000     -10.337771      -281.3050
  45   2.0000     -10.337698      -281.3031
  46   2.0000     -10.337355      -281.2937
  47   2.0000     -10.337176      -281.2889
  48   2.0000     -10.335584      -281.2455
  49   2.0000     -10.335533      -281.2442
  50   2.0000     -10.334304      -281.2107
  51   2.0000     -10.334257      -281.2094
  52   2.0000     -10.332239      -281.1545
  53   2.0000     -10.332185      -281.1530
  54   2.0000     -10.330596      -281.1098
  55   2.0000     -10.330366      -281.1036
  56   2.0000     -10.325931      -280.9829
  57   2.0000     -10.325873      -280.9813
  58   2.0000     -10.325612      -280.9742
  59   2.0000     -10.325560      -280.9728
  60   2.0000     -10.322809      -280.8979
  61   2.0000     -10.322716      -280.8954
  62   2.0000     -10.321382      -280.8591
  63   2.0000     -10.321342      -280.8580
  64   2.0000     -10.317660      -280.7578
  65   2.0000     -10.317574      -280.7555
  66   2.0000     -10.314861      -280.6816
  67   2.0000     -10.314834      -280.6809
  68   2.0000     -10.313450      -280.6432
  69   2.0000     -10.313400      -280.6419
  70   2.0000     -10.312114      -280.6069
  71   2.0000     -10.312095      -280.6064
  72   2.0000     -10.311579      -280.5923
  73   2.0000     -10.311474      -280.5895
  74   2.0000     -10.311088      -280.5790
  75   2.0000     -10.310975      -280.5759
  76   2.0000     -10.310530      -280.5638
  77   2.0000     -10.310451      -280.5616
  78   2.0000      -8.104894      -220.5454
  79   2.0000      -8.104828      -220.5436
  80   2.0000      -8.096430      -220.3151
  81   2.0000      -8.096407      -220.3144
  82   2.0000      -6.074153      -165.2861
  83   2.0000      -6.074108      -165.2849
  84   2.0000      -6.069924      -165.1710
  85   2.0000      -6.069911      -165.1707
  86   2.0000      -6.067214      -165.0973
  87   2.0000      -6.067172      -165.0961
  88   2.0000      -6.066040      -165.0653
  89   2.0000      -6.066028      -165.0650
  90   2.0000      -6.061659      -164.9461
  91   2.0000      -6.061629      -164.9453
  92   2.0000      -6.058164      -164.8510
  93   2.0000      -6.058152      -164.8507
  94   2.0000      -1.174033       -31.9471
  95   2.0000      -1.173927       -31.9442
  96   2.0000      -1.150844       -31.3161
  97   2.0000      -1.150759       -31.3138
  98   2.0000      -1.066798       -29.0291
  99   2.0000      -1.066489       -29.0206
 100   2.0000      -1.062075       -28.9005
 101   2.0000      -1.050955       -28.5979
 102   2.0000      -1.050798       -28.5937
 103   2.0000      -1.033829       -28.1319
 104   2.0000      -1.031360       -28.0647
 105   2.0000      -1.029698       -28.0195
 106   2.0000      -1.029573       -28.0161
 107   2.0000      -1.024319       -27.8731
 108   2.0000      -1.019330       -27.7374
 109   2.0000      -1.019237       -27.7348
 110   2.0000      -1.014208       -27.5980
 111   2.0000      -1.012457       -27.5504
 112   2.0000      -1.012298       -27.5460
 113   2.0000      -1.008351       -27.4386
 114   2.0000      -1.008118       -27.4323
 115   2.0000      -1.007042       -27.4030
 116   2.0000      -0.975370       -26.5412
 117   2.0000      -0.972048       -26.4508
 118   2.0000      -0.969639       -26.3852
 119   2.0000      -0.953913       -25.9573
 120   2.0000      -0.953830       -25.9550
 121   2.0000      -0.936965       -25.4961
 122   2.0000      -0.926536       -25.2123
 123   2.0000      -0.919905       -25.0319
 124   2.0000      -0.911803       -24.8114
 125   2.0000      -0.907898       -24.7051
 126   2.0000      -0.906720       -24.6731
 127   2.0000      -0.900708       -24.5095
 128   2.0000      -0.888188       -24.1688
 129   2.0000      -0.878501       -23.9052
 130   2.0000      -0.878365       -23.9015
 131   2.0000      -0.875487       -23.8232
 132   2.0000      -0.871529       -23.7155
 133   2.0000      -0.858589       -23.3634
 134   2.0000      -0.827135       -22.5075
 135   2.0000      -0.816521       -22.2187
 136   2.0000      -0.813317       -22.1315
 137   2.0000      -0.808223       -21.9929
 138   2.0000      -0.804409       -21.8891
 139   2.0000      -0.804290       -21.8858
 140   2.0000      -0.795425       -21.6446
 141   2.0000      -0.793527       -21.5930
 142   2.0000      -0.775035       -21.0898
 143   2.0000      -0.758167       -20.6308
 144   2.0000      -0.749422       -20.3928
 145   2.0000      -0.731576       -19.9072
 146   2.0000      -0.729171       -19.8418
 147   2.0000      -0.728501       -19.8235
 148   2.0000      -0.728258       -19.8169
 149   2.0000      -0.723929       -19.6991
 150   2.0000      -0.714450       -19.4412
 151   2.0000      -0.714412       -19.4401
 152   2.0000      -0.700825       -19.0704
 153   2.0000      -0.699689       -19.0395
 154   2.0000      -0.694449       -18.8969
 155   2.0000      -0.692938       -18.8558
 156   2.0000      -0.683398       -18.5962
 157   2.0000      -0.682840       -18.5810
 158   2.0000      -0.677721       -18.4417
 159   2.0000      -0.677557       -18.4373
 160   2.0000      -0.670334       -18.2407
 161   2.0000      -0.664123       -18.0717
 162   2.0000      -0.649937       -17.6857
 163   2.0000      -0.646107       -17.5815
 164   2.0000      -0.634852       -17.2752
 165   2.0000      -0.630575       -17.1588
 166   2.0000      -0.625121       -17.0104
 167   2.0000      -0.617187       -16.7945
 168   2.0000      -0.605514       -16.4769
 169   2.0000      -0.604010       -16.4359
 170   2.0000      -0.599771       -16.3206
 171   2.0000      -0.599655       -16.3174
 172   2.0000      -0.593948       -16.1621
 173   2.0000      -0.593182       -16.1413
 174   2.0000      -0.589316       -16.0361
 175   2.0000      -0.586901       -15.9704
 176   2.0000      -0.580709       -15.8019
 177   2.0000      -0.577010       -15.7012
 178   2.0000      -0.564430       -15.3589
 179   2.0000      -0.563049       -15.3214
 180   2.0000      -0.561676       -15.2840
 181   2.0000      -0.559114       -15.2143
 182   2.0000      -0.558792       -15.2055
 183   2.0000      -0.558268       -15.1912
 184   2.0000      -0.554295       -15.0831
 185   2.0000      -0.550932       -14.9916
 186   2.0000      -0.550540       -14.9810
 187   2.0000      -0.547927       -14.9098
 188   2.0000      -0.543971       -14.8022
 189   2.0000      -0.541097       -14.7240
 190   2.0000      -0.537778       -14.6337
 191   2.0000      -0.535325       -14.5669
 192   2.0000      -0.532607       -14.4930
 193   2.0000      -0.532068       -14.4783
 194   2.0000      -0.527684       -14.3590
 195   2.0000      -0.526361       -14.3230
 196   2.0000      -0.524943       -14.2844
 197   2.0000      -0.520210       -14.1556
 198   2.0000      -0.517476       -14.0812
 199   2.0000      -0.515959       -14.0399
 200   2.0000      -0.512998       -13.9594
 201   2.0000      -0.512679       -13.9507
 202   2.0000      -0.508461       -13.8359
 203   2.0000      -0.502518       -13.6742
 204   2.0000      -0.500436       -13.6175
 205   2.0000      -0.499503       -13.5922
 206   2.0000      -0.497039       -13.5251
 207   2.0000      -0.495968       -13.4960
 208   2.0000      -0.495046       -13.4709
 209   2.0000      -0.493918       -13.4402
 210   2.0000      -0.490693       -13.3524
 211   2.0000      -0.485172       -13.2022
 212   2.0000      -0.484807       -13.1923
 213   2.0000      -0.483566       -13.1585
 214   2.0000      -0.483236       -13.1495
 215   2.0000      -0.481453       -13.1010
 216   2.0000      -0.476791       -12.9741
 217   2.0000      -0.475906       -12.9501
 218   2.0000      -0.474214       -12.9040
 219   2.0000      -0.470598       -12.8056
 220   2.0000      -0.470525       -12.8036
 221   2.0000      -0.467114       -12.7108
 222   2.0000      -0.466947       -12.7063
 223   2.0000      -0.464689       -12.6448
 224   2.0000      -0.461275       -12.5519
 225   2.0000      -0.461140       -12.5483
 226   2.0000      -0.460936       -12.5427
 227   2.0000      -0.460792       -12.5388
 228   2.0000      -0.459633       -12.5072
 229   2.0000      -0.457093       -12.4381
 230   2.0000      -0.455980       -12.4078
 231   2.0000      -0.454914       -12.3788
 232   2.0000      -0.454532       -12.3684
 233   2.0000      -0.452347       -12.3090
 234   2.0000      -0.451541       -12.2871
 235   2.0000      -0.447842       -12.1864
 236   2.0000      -0.445345       -12.1185
 237   2.0000      -0.445098       -12.1117
 238   2.0000      -0.444964       -12.1081
 239   2.0000      -0.443809       -12.0767
 240   2.0000      -0.440982       -11.9997
 241   2.0000      -0.439645       -11.9634
 242   2.0000      -0.439144       -11.9497
 243   2.0000      -0.437811       -11.9134
 244   2.0000      -0.435660       -11.8549
 245   2.0000      -0.430924       -11.7260
 246   2.0000      -0.428461       -11.6590
 247   2.0000      -0.428411       -11.6577
 248   2.0000      -0.423637       -11.5277
 249   2.0000      -0.421680       -11.4745
 250   2.0000      -0.421275       -11.4635
 251   2.0000      -0.407609       -11.0916
 252   2.0000      -0.398222       -10.8362
 253   2.0000      -0.398133       -10.8337
 254   2.0000      -0.395834       -10.7712
 255   2.0000      -0.380402       -10.3513
 256   2.0000      -0.380277       -10.3479
 257   2.0000      -0.375914       -10.2291
 258   2.0000      -0.370797       -10.0899
 259   2.0000      -0.367429        -9.9983
 260   2.0000      -0.367259        -9.9936
 261   2.0000      -0.360860        -9.8195
 262   2.0000      -0.360642        -9.8136
 263   2.0000      -0.350817        -9.5462
 264   2.0000      -0.350265        -9.5312
 265   2.0000      -0.348501        -9.4832
 266   2.0000      -0.345913        -9.4128
 267   2.0000      -0.345543        -9.4027
 268   2.0000      -0.335067        -9.1176
 269   2.0000      -0.329826        -8.9750
 270   2.0000      -0.317337        -8.6352
 271   2.0000      -0.303140        -8.2489
 272   2.0000      -0.271306        -7.3826
 273   0.0000      -0.131051        -3.5661
 274   0.0000      -0.116283        -3.1642
 275   0.0000      -0.110739        -3.0133
 276   0.0000      -0.099224        -2.7000
 277   0.0000      -0.099082        -2.6962

MULLIKEN ATOMIC CHARGES
-----------------------
   0 C :   -0.030305
   1 C :    0.048660
   2 C :    0.048167
   3 C :   -0.029665
   4 C :    0.006803
   5 C :    0.016873
   6 C :    0.291537
   7 C :   -0.330791
   8 C :   -0.190190
   9 N :    0.166692
  10 C :   -0.193653
  11 N :    0.185223
  12 C :   -0.049061
  13 C :    0.204415
  14 C :   -0.324395
  15 C :   -0.196004
  16 N :    0.190174
  17 C :   -0.180727
  18 N :    0.172036
  19 C :    0.029426
  20 C :   -0.211229
  21 C :    0.079044
  22 C :    0.194805
  23 O :   -0.133952
  24 N :   -0.311207
  25 C :    0.132932
  26 C :    0.202163
  27 O :   -0.153759
  28 C :   -0.001195
  29 C :   -0.088615
  30 S :    0.164786
  31 C :   -0.079699
  32 C :   -0.037257
  33 C :    0.016931
  34 C :   -0.093216
  35 S :    0.203450
  36 C :   -0.093831
  37 C :    0.014262
  38 C :    0.307832
  39 C :   -0.289762
  40 C :   -0.198916
  41 N :    0.202636
  42 C :   -0.195832
  43 N :    0.199190
  44 C :   -0.036807
  45 C :   -0.078116
  46 S :    0.203837
  47 C :   -0.090146
  48 C :    0.000347
  49 C :    0.204853
  50 O :   -0.155772
  51 N :   -0.312530
  52 C :    0.135249
  53 C :    0.195223
  54 O :   -0.133506
  55 C :    0.080068
  56 C :   -0.216154
  57 S :    0.165785
  58 C :    0.034170
  59 C :   -0.054200
  60 C :    0.289900
  61 C :   -0.332067
  62 C :   -0.192649
  63 N :    0.185028
  64 C :   -0.188822
  65 N :    0.167717
  66 C :    0.019191
  67 C :    0.008255
  68 C :   -0.033382
  69 C :    0.052091
  70 C :    0.049850
  71 C :   -0.037424
  72 C :    0.207706
  73 C :   -0.321351
  74 C :   -0.182096
  75 N :    0.171965
  76 C :   -0.191167
  77 N :    0.186288
  78 H :    0.008730
  79 H :    0.008331
  80 H :    0.008168
  81 H :    0.007726
  82 H :    0.045876
  83 H :    0.053531
  84 H :    0.055403
  85 H :    0.046672
  86 H :    0.033841
  87 H :    0.033973
  88 H :    0.047294
  89 H :    0.055472
  90 H :    0.049959
  91 H :    0.044975
  92 H :    0.007802
  93 H :    0.007230
  94 H :    0.008809
  95 H :    0.010102
Sum of atomic charges:   -0.0000000

LOEWDIN ATOMIC CHARGES
----------------------
   0 C :    0.006930
   1 C :    0.005708
   2 C :    0.006598
   3 C :    0.002220
   4 C :   -0.011716
   5 C :   -0.011516
   6 C :    0.072944
   7 C :   -0.118737
   8 C :   -0.018165
   9 N :   -0.037834
  10 C :   -0.028943
  11 N :   -0.019926
  12 C :   -0.045640
  13 C :    0.058347
  14 C :   -0.130675
  15 C :   -0.036099
  16 N :   -0.036465
  17 C :   -0.019836
  18 N :   -0.038010
  19 C :    0.044594
  20 C :   -0.154739
  21 C :   -0.042414
  22 C :    0.088830
  23 O :   -0.136955
  24 N :   -0.032633
  25 C :    0.039151
  26 C :    0.093831
  27 O :   -0.147490
  28 C :   -0.094807
  29 C :   -0.125116
  30 S :    0.462856
  31 C :   -0.191341
  32 C :    0.005769
  33 C :   -0.060587
  34 C :   -0.172256
  35 S :    0.479812
  36 C :   -0.172476
  37 C :   -0.060492
  38 C :    0.069216
  39 C :   -0.080296
  40 C :   -0.023178
  41 N :   -0.008347
  42 C :   -0.022942
  43 N :   -0.008641
  44 C :    0.005734
  45 C :   -0.191125
  46 S :    0.479734
  47 C :   -0.125556
  48 C :   -0.094463
  49 C :    0.094056
  50 O :   -0.147709
  51 N :   -0.032894
  52 C :    0.039485
  53 C :    0.089054
  54 O :   -0.137240
  55 C :   -0.042333
  56 C :   -0.154675
  57 S :    0.462714
  58 C :    0.044749
  59 C :   -0.045565
  60 C :    0.072922
  61 C :   -0.118822
  62 C :   -0.028719
  63 N :   -0.020249
  64 C :   -0.018009
  65 N :   -0.037866
  66 C :   -0.011470
  67 C :   -0.011716
  68 C :    0.002189
  69 C :    0.006965
  70 C :    0.005670
  71 C :    0.006656
  72 C :    0.058058
  73 C :   -0.130433
  74 C :   -0.019814
  75 N :   -0.037887
  76 C :   -0.035529
  77 N :   -0.036569
  78 H :    0.042655
  79 H :    0.039501
  80 H :    0.039148
  81 H :    0.041261
  82 H :    0.059393
  83 H :    0.039339
  84 H :    0.039781
  85 H :    0.034599
  86 H :    0.045575
  87 H :    0.045686
  88 H :    0.035041
  89 H :    0.039838
  90 H :    0.038339
  91 H :    0.059252
  92 H :    0.041280
  93 H :    0.038942
  94 H :    0.039656
  95 H :    0.042838

  Mayer bond orders larger than 0.100000
B(  0-C ,  1-C ) :   1.3743 B(  0-C ,  5-C ) :   1.3817 B(  0-C , 78-H ) :   0.9836
B(  1-C ,  2-C ) :   1.3734 B(  1-C , 79-H ) :   0.9863 B(  2-C ,  3-C ) :   1.3685
B(  2-C , 80-H ) :   0.9865 B(  3-C ,  4-C ) :   1.3779 B(  3-C , 81-H ) :   0.9876
B(  4-C ,  5-C ) :   1.3083 B(  4-C , 13-C ) :   1.0193 B(  5-C ,  6-C ) :   1.0017
B(  6-C ,  7-C ) :   1.6648 B(  6-C , 12-C ) :   1.0378 B(  7-C ,  8-C ) :   1.1468
B(  7-C , 10-C ) :   1.1286 B(  8-C ,  9-N ) :   2.9787 B( 10-C , 11-N ) :   2.9834
B( 12-C , 13-C ) :   1.0048 B( 12-C , 19-C ) :   1.6359 B( 13-C , 14-C ) :   1.6641
B( 14-C , 15-C ) :   1.1471 B( 14-C , 17-C ) :   1.1408 B( 15-C , 16-N ) :   3.0225
B( 17-C , 18-N ) :   3.0000 B( 19-C , 20-C ) :   1.1519 B( 19-C , 82-H ) :   0.9277
B( 20-C , 21-C ) :   1.5099 B( 20-C , 30-S ) :   1.0923 B( 21-C , 22-C ) :   0.8780
B( 21-C , 28-C ) :   1.2820 B( 22-C , 23-O ) :   2.2133 B( 22-C , 24-N ) :   1.0753
B( 24-N , 25-C ) :   0.9342 B( 24-N , 26-C ) :   1.0865 B( 25-C , 83-H ) :   0.9648
B( 25-C , 84-H ) :   0.9652 B( 25-C , 85-H ) :   0.9813 B( 26-C , 27-O ) :   2.1398
B( 26-C , 28-C ) :   0.8892 B( 28-C , 29-C ) :   1.5242 B( 29-C , 30-S ) :   1.1366
B( 29-C , 31-C ) :   1.1596 B( 31-C , 32-C ) :   1.4547 B( 31-C , 35-S ) :   1.0825
B( 32-C , 33-C ) :   1.2946 B( 32-C , 86-H ) :   0.9757 B( 33-C , 34-C ) :   1.4185
B( 33-C , 38-C ) :   0.9888 B( 34-C , 35-S ) :   1.1363 B( 34-C , 36-C ) :   1.2036
B( 36-C , 37-C ) :   1.4179 B( 36-C , 46-S ) :   1.1368 B( 37-C , 38-C ) :   0.9892
B( 37-C , 44-C ) :   1.2971 B( 38-C , 39-C ) :   1.7262 B( 39-C , 40-C ) :   1.1370
B( 39-C , 42-C ) :   1.1347 B( 40-C , 41-N ) :   2.9989 B( 42-C , 43-N ) :   2.9981
B( 44-C , 45-C ) :   1.4583 B( 44-C , 87-H ) :   0.9736 B( 45-C , 46-S ) :   1.0829
B( 45-C , 47-C ) :   1.1569 B( 47-C , 48-C ) :   1.5265 B( 47-C , 57-S ) :   1.1362
B( 48-C , 49-C ) :   0.8876 B( 48-C , 55-C ) :   1.2809 B( 49-C , 50-O ) :   2.1419
B( 49-C , 51-N ) :   1.0843 B( 51-N , 52-C ) :   0.9346 B( 51-N , 53-C ) :   1.0753
B( 52-C , 88-H ) :   0.9801 B( 52-C , 89-H ) :   0.9625 B( 52-C , 90-H ) :   0.9687
B( 53-C , 54-O ) :   2.2120 B( 53-C , 55-C ) :   0.8782 B( 55-C , 56-C ) :   1.5118
B( 56-C , 57-S ) :   1.0930 B( 56-C , 58-C ) :   1.1509 B( 58-C , 59-C ) :   1.6381
B( 58-C , 91-H ) :   0.9282 B( 59-C , 60-C ) :   1.0384 B( 59-C , 72-C ) :   1.0043
B( 60-C , 61-C ) :   1.6670 B( 60-C , 66-C ) :   1.0014 B( 61-C , 62-C ) :   1.1289
B( 61-C , 64-C ) :   1.1458 B( 62-C , 63-N ) :   2.9825 B( 64-C , 65-N ) :   2.9794
B( 66-C , 67-C ) :   1.3101 B( 66-C , 71-C ) :   1.3789 B( 67-C , 68-C ) :   1.3774
B( 67-C , 72-C ) :   1.0172 B( 68-C , 69-C ) :   1.3691 B( 68-C , 92-H ) :   0.9882
B( 69-C , 70-C ) :   1.3742 B( 69-C , 93-H ) :   0.9859 B( 70-C , 71-C ) :   1.3728
B( 70-C , 94-H ) :   0.9862 B( 71-C , 95-H ) :   0.9850 B( 72-C , 73-C ) :   1.6645
B( 73-C , 74-C ) :   1.1419 B( 73-C , 76-C ) :   1.1440 B( 74-C , 75-N ) :   2.9995
B( 76-C , 77-N ) :   3.0198

-----------------------------------------------------------------------------
         ABSORPTION SPECTRUM VIA TRANSITION ELECTRIC DIPOLE MOMENTS
-----------------------------------------------------------------------------
State   Energy  Wavelength   fosc         T2         TX        TY        TZ
        (cm-1)    (nm)                  (au**2)     (au)      (au)      (au)
-----------------------------------------------------------------------------
   0   14059.5    711.3   0.624838396  14.63097   1.33849   2.96714   2.00885
   1   18002.9    555.5   0.429106605   7.84688   1.05854   2.12158   1.49173
   2   19169.9    521.7   0.532540506   9.14553  -1.82077  -0.70106   2.31059
   3   23382.7    427.7   0.015824733   0.22280  -0.28629  -0.12472   0.35395
   4   23862.8    419.1   0.312394217   4.30980  -0.11757  -1.99449  -0.56389
   5   23932.4    417.8   0.035389998   0.48682   0.25767  -0.38323  -0.52303
   6   24888.0    401.8   0.084343249   1.11567  -0.17816   1.02757   0.16740
   7   26272.4    380.6   0.098983131   1.24033   0.67296   0.24954  -0.85157
   8   27303.0    366.3   0.543680419   6.55555   0.97855   1.91932   1.38354
   9   28902.6    346.0   0.062911725   0.71659  -0.52038  -0.19081   0.63983
  10   29193.5    342.5   0.024513355   0.27643  -0.31265  -0.24078  -0.34743
  11   29679.5    336.9   0.142832537   1.58433   0.76559   0.31327  -0.94871
  12   29712.1    336.6   0.002940135   0.03258  -0.11845   0.10109   0.09126
  13   29907.7    334.4   0.121436688   1.33673   0.30437   1.11537   0.00487
  14   29936.3    334.0   0.178003342   1.95752   0.17340  -1.18333  -0.72607
  15   30623.1    326.6   0.383562374   4.12347  -1.23359  -0.51500   1.52856
  16   30856.8    324.1   0.004626779   0.04936  -0.16555   0.14075  -0.04632
  17   30923.9    323.4   0.002352812   0.02505  -0.01427   0.10871  -0.11413
  18   31223.0    320.3   0.056413552   0.59482  -0.46822   0.57233  -0.21916
  19   31585.3    316.6   0.101040048   1.05314  -0.61242  -0.31083   0.76254
  20   32023.0    312.3   0.895833868   9.20960  -0.22240   2.92306   0.78477
  21   32356.8    309.1   0.044964823   0.45749  -0.41112  -0.23446   0.48322
  22   32872.7    304.2   0.036825428   0.36880  -0.36803  -0.14017   0.46229
  23   33449.7    299.0   0.033907786   0.33372   0.30397   0.33942   0.35513
  24   33474.9    298.7   0.010044587   0.09878   0.07727   0.28431  -0.10945
  25   33558.5    298.0   0.352345295   3.45654  -0.28137   1.79722   0.38388
  26   33750.6    296.3   0.022741221   0.22182  -0.28769  -0.14831   0.34215
  27   33806.8    295.8   0.065642979   0.63923  -0.43709   0.65416  -0.14237
  28   34464.0    290.2   0.062184028   0.59400   0.48647   0.23279  -0.55060
  29   34614.9    288.9   0.034187810   0.32515  -0.04982   0.22385   0.52207
  30   34654.7    288.6   0.059892328   0.56896  -0.52844  -0.34421   0.41381
  31   34704.4    288.1   0.023362913   0.22162  -0.12032  -0.36425  -0.27289
  32   35184.1    284.2   0.022669628   0.21212  -0.27690  -0.20110  -0.30822
  33   35241.9    283.8   0.043450466   0.40589  -0.08380   0.62895   0.05734
  34   35295.4    283.3   0.106348480   0.99195  -0.59792  -0.21459   0.76707
  35   35350.2    282.9   0.162249088   1.51101  -0.76805  -0.27774   0.91868
  36   35895.6    278.6   0.202122020   1.85374  -0.73705  -0.72469  -0.88618
  37   36371.2    274.9   0.025313954   0.22913  -0.27304   0.34988   0.17934
  38   36404.6    274.7   0.403293848   3.64704  -1.16465  -0.49934   1.42874
  39   36987.2    270.4   0.003737982   0.03327   0.10822  -0.00160  -0.14682
  40   37070.0    269.8   0.003557158   0.03159  -0.09475  -0.13819   0.05931
  41   37145.9    269.2   0.007988986   0.07080  -0.12133  -0.02471   0.23553
  42   37277.3    268.3   0.017843084   0.15758   0.21877  -0.08805   0.31932
  43   37408.8    267.3   0.303159434   2.66792  -1.01977  -0.37322   1.22012
  44   37705.9    265.2   0.000660834   0.00577  -0.04655  -0.02273   0.05555
  45   38230.4    261.6   0.032637430   0.28105  -0.11004   0.37952  -0.35342
  46   38252.7    261.4   0.039562374   0.34048   0.48418  -0.04546  -0.32247
  47   38628.8    258.9   0.000715416   0.00610   0.02802  -0.06810  -0.02597
  48   38657.0    258.7   0.003097827   0.02638   0.10432   0.01444  -0.12365
  49   38782.3    257.8   0.067420207   0.57231  -0.48289  -0.15544   0.56122
  50   38898.0    257.1   0.025792666   0.21830  -0.01560  -0.29227   0.36419
  51   38924.5    256.9   0.188587877   1.59502  -0.79678  -0.25997   0.94477
  52   39121.6    255.6   0.014524193   0.12222   0.24426   0.11020   0.22454
  53   39262.2    254.7   0.082830148   0.69453   0.51126   0.19103  -0.62980
  54   39539.9    252.9   0.010938664   0.09108   0.11880   0.22990   0.15527
  55   39735.2    251.7   0.095063536   0.78761  -0.29377  -0.68121  -0.48710
  56   39810.4    251.2   0.007228877   0.05978   0.11406   0.20337   0.07355
  57   39940.2    250.4   0.041739152   0.34404  -0.13326  -0.51046  -0.25635
  58   40218.8    248.6   0.135822282   1.11178  -0.64568  -0.25896   0.79235

FINAL SINGLE POINT ENERGY     -4767.020798234222

DIPOLE MOMENT
-------------
                                X             Y             Z
Electronic contribution:      2.61770       0.91352      -3.34463
Nuclear contribution   :     -4.51965      -1.62990       5.69519
                        -----------------------------------------
Total Dipole Moment    :     -1.90195      -0.71638       2.35056
                        -----------------------------------------
Magnitude (a.u.)       :      3.10737
Magnitude (Debye)      :      7.89830

Rotational constants in cm-1:     0.001212     0.000325     0.000267
Rotational constants in MHz :    36.337779     9.753984     8.014424

                             ****ORCA TERMINATED NORMALLY****
TOTAL RUN TIME: 0 days 0 hours 10 minutes 31 seconds 795 msec
