                         Program Version 4.2.0 -  RELEASE  -
|  1> # ORCA input file
|  2> # SCF done       -182.565044075995          0.000783278704
|  3> ! CAM-B3LYP def2-SVP def2/J RIJCOSX Grid4 TightSCF
|  4> %maxcore 5000
|  5> %tddft
|  6>     Mode sTDDFT
|  7>     Ethresh 5.0
|  8>     maxcore 5000
|  9> end
| 10>
| 11> %pal
| 12>   nprocs 6
| 13>   end
| 14> * xyz 0 1
| 15>    C       -7.45840         1.56081        -5.87472
| 16>    C       -7.81942         1.29591        -7.18686
| 17>    C       -8.29835         0.04739        -7.56013
| 18>    C       -8.43695        -0.97058        -6.62934
| 19>    C       -8.08327        -0.71759        -5.31346
| 20>    C       -7.58691         0.55078        -4.93307
| 21>    C       -7.28148         0.53176        -3.51037
| 22>    C       -6.92431         1.60518        -2.74699
| 23>    C       -6.78699         2.91918        -3.24944
| 24>    N       -6.66167         4.00687        -3.59136
| 25>    C       -6.68252         1.58583        -1.35417
| 26>    N       -6.47345         1.66511        -0.22893
| 27>    C       -7.43909        -0.85852        -3.06677
| 28>    C       -8.15015        -1.56256        -4.13351
| 29>    C       -8.91773        -2.68394        -4.00084
| 30>    C       -9.16675        -3.36452        -2.79011
| 31>    N       -9.43485        -3.96911        -1.85194
| 32>    C       -9.60611        -3.29825        -5.06978
| 33>    N      -10.16562        -3.86321        -5.89683
| 34>    C       -6.88759        -1.36095        -1.93593
| 35>    C       -6.70474        -2.73895        -1.56865
| 36>    N       -6.68571        -2.99897        -0.26968
| 37>    N       -6.55825        -4.18559         0.21534
| 38>    C       -6.40986        -5.26959        -0.53835
| 39>    C       -6.31678        -5.12202        -1.94968
| 40>    C       -6.46717        -3.80283        -2.48578
| 41>    N       -6.32930        -3.78519        -3.81010
| 42>    S       -6.05167        -5.28755        -4.32206
| 43>    N       -6.08852        -6.02507        -2.89808
| 44>    C       -6.35550        -6.52358         0.12843
| 45>    C       -6.12415        -7.77748        -0.41088
| 46>    C       -6.16798        -8.76350         0.56893
| 47>    C       -6.44615        -8.24416         1.85313
| 48>    S       -6.63229        -6.55096         1.85584
| 49>    C       -6.50207        -9.32568         2.77025
| 50>    C       -6.25076       -10.52289         2.06583
| 51>    C       -6.02621       -10.20707         0.66485
| 52>    C       -5.74154       -11.07921        -0.34447
| 53>    C       -5.53597       -10.65030        -1.67341
| 54>    N       -5.36340       -10.31022        -2.75453
| 55>    C       -5.62968       -12.46979        -0.12932
| 56>    N       -5.53953       -13.60092         0.03367
| 57>    C       -6.30351       -11.64858         2.88268
| 58>    C       -6.59886       -11.30657         4.19000
| 59>    S       -6.80408        -9.58572         4.42759
| 60>    C       -6.76141       -12.17231         5.30890
| 61>    N       -7.10306       -11.61722         6.46402
| 62>    N       -7.24607       -12.28636         7.56195
| 63>    C       -7.04900       -13.59394         7.63778
| 64>    C       -6.74086       -14.31882         6.45687
| 65>    C       -6.58467       -13.58174         5.24038
| 66>    N       -6.26753       -14.37028         4.21741
| 67>    S       -6.16543       -15.88323         4.74761
| 68>    N       -6.52536       -15.61990         6.28849
| 69>    C       -7.21240       -14.25799         8.90440
| 70>    C       -6.91866       -13.71778        10.10880
| 71>    C       -7.40306       -14.21759        11.39807
| 72>    C       -7.84641       -15.47924        11.67317
| 73>    C       -7.86667       -16.54998        10.75149
| 74>    N       -7.90153       -17.46642        10.06207
| 75>    C       -8.30656       -15.89459        12.94261
| 76>    N       -8.69210       -16.29161        13.94742
| 77>    C       -7.31824       -13.10255        12.32848
| 78>    C       -6.63565       -12.03170        11.70418
| 79>    C       -6.44025       -10.83394        12.37310
| 80>    C       -6.92376       -10.71242        13.66667
| 81>    C       -7.58534       -11.76560        14.28463
| 82>    C       -7.79041       -12.96790        13.62564
| 83>    C       -6.22331       -12.45467        10.37704
| 84>    C       -5.20532       -11.91787         9.64493
| 85>    C       -4.50595       -10.74774        10.01308
| 86>    N       -3.90570        -9.80286        10.26307
| 87>    C       -4.66537       -12.50383         8.47952
| 88>    N       -4.15374       -12.95977         7.55869
| 89>    H       -7.08158         2.53348        -5.60486
| 90>    H       -7.72189         2.07393        -7.92832
| 91>    H       -8.56632        -0.13622        -8.58927
| 92>    H       -8.80166        -1.93813        -6.93306
| 93>    H       -6.49031        -0.67403        -1.20072
| 94>    H       -5.94049        -7.92970        -1.45920
| 95>    H       -6.14629       -12.66682         2.57531
| 96>    H       -7.65618       -15.24197         8.84512
| 97>    H       -5.93741       -10.00717        11.89834
| 98>    H       -6.78507        -9.78387        14.19880
| 99>    H       -7.95170       -11.64740        15.29285
|100>    H       -8.31351       -13.77194        14.11691
|101> *
|102>
|103>                          ****END OF INPUT****

CARTESIAN COORDINATES (ANGSTROEM)
---------------------------------
  C     -7.458400    1.560810   -5.874720
  C     -7.819420    1.295910   -7.186860
  C     -8.298350    0.047390   -7.560130
  C     -8.436950   -0.970580   -6.629340
  C     -8.083270   -0.717590   -5.313460
  C     -7.586910    0.550780   -4.933070
  C     -7.281480    0.531760   -3.510370
  C     -6.924310    1.605180   -2.746990
  C     -6.786990    2.919180   -3.249440
  N     -6.661670    4.006870   -3.591360
  C     -6.682520    1.585830   -1.354170
  N     -6.473450    1.665110   -0.228930
  C     -7.439090   -0.858520   -3.066770
  C     -8.150150   -1.562560   -4.133510
  C     -8.917730   -2.683940   -4.000840
  C     -9.166750   -3.364520   -2.790110
  N     -9.434850   -3.969110   -1.851940
  C     -9.606110   -3.298250   -5.069780
  N    -10.165620   -3.863210   -5.896830
  C     -6.887590   -1.360950   -1.935930
  C     -6.704740   -2.738950   -1.568650
  N     -6.685710   -2.998970   -0.269680
  N     -6.558250   -4.185590    0.215340
  C     -6.409860   -5.269590   -0.538350
  C     -6.316780   -5.122020   -1.949680
  C     -6.467170   -3.802830   -2.485780
  N     -6.329300   -3.785190   -3.810100
  S     -6.051670   -5.287550   -4.322060
  N     -6.088520   -6.025070   -2.898080
  C     -6.355500   -6.523580    0.128430
  C     -6.124150   -7.777480   -0.410880
  C     -6.167980   -8.763500    0.568930
  C     -6.446150   -8.244160    1.853130
  S     -6.632290   -6.550960    1.855840
  C     -6.502070   -9.325680    2.770250
  C     -6.250760  -10.522890    2.065830
  C     -6.026210  -10.207070    0.664850
  C     -5.741540  -11.079210   -0.344470
  C     -5.535970  -10.650300   -1.673410
  N     -5.363400  -10.310220   -2.754530
  C     -5.629680  -12.469790   -0.129320
  N     -5.539530  -13.600920    0.033670
  C     -6.303510  -11.648580    2.882680
  C     -6.598860  -11.306570    4.190000
  S     -6.804080   -9.585720    4.427590
  C     -6.761410  -12.172310    5.308900
  N     -7.103060  -11.617220    6.464020
  N     -7.246070  -12.286360    7.561950
  C     -7.049000  -13.593940    7.637780
  C     -6.740860  -14.318820    6.456870
  C     -6.584670  -13.581740    5.240380
  N     -6.267530  -14.370280    4.217410
  S     -6.165430  -15.883230    4.747610
  N     -6.525360  -15.619900    6.288490
  C     -7.212400  -14.257990    8.904400
  C     -6.918660  -13.717780   10.108800
  C     -7.403060  -14.217590   11.398070
  C     -7.846410  -15.479240   11.673170
  C     -7.866670  -16.549980   10.751490
  N     -7.901530  -17.466420   10.062070
  C     -8.306560  -15.894590   12.942610
  N     -8.692100  -16.291610   13.947420
  C     -7.318240  -13.102550   12.328480
  C     -6.635650  -12.031700   11.704180
  C     -6.440250  -10.833940   12.373100
  C     -6.923760  -10.712420   13.666670
  C     -7.585340  -11.765600   14.284630
  C     -7.790410  -12.967900   13.625640
  C     -6.223310  -12.454670   10.377040
  C     -5.205320  -11.917870    9.644930
  C     -4.505950  -10.747740   10.013080
  N     -3.905700   -9.802860   10.263070
  C     -4.665370  -12.503830    8.479520
  N     -4.153740  -12.959770    7.558690
  H     -7.081580    2.533480   -5.604860
  H     -7.721890    2.073930   -7.928320
  H     -8.566320   -0.136220   -8.589270
  H     -8.801660   -1.938130   -6.933060
  H     -6.490310   -0.674030   -1.200720
  H     -5.940490   -7.929700   -1.459200
  H     -6.146290  -12.666820    2.575310
  H     -7.656180  -15.241970    8.845120
  H     -5.937410  -10.007170   11.898340
  H     -6.785070   -9.783870   14.198800
  H     -7.951700  -11.647400   15.292850
  H     -8.313510  -13.771940   14.116910

 Total Charge           Charge          ....    0
 Multiplicity           Mult            ....    1
 Number of Electrons    NEL             ....  514
 Basis Dimension        Dim             .... 1112

ORBITAL ENERGIES
----------------

  NO   OCC          E(Eh)            E(eV)
   0   2.0000     -89.061815     -2423.4952
   1   2.0000     -89.057503     -2423.3779
   2   2.0000     -88.998728     -2421.7785
   3   2.0000     -88.998500     -2421.7723
   4   2.0000     -14.476878      -393.9359
   5   2.0000     -14.473717      -393.8499
   6   2.0000     -14.471844      -393.7989
   7   2.0000     -14.469742      -393.7417
   8   2.0000     -14.467353      -393.6767
   9   2.0000     -14.466419      -393.6513
  10   2.0000     -14.461166      -393.5083
  11   2.0000     -14.460168      -393.4812
  12   2.0000     -14.435466      -392.8090
  13   2.0000     -14.435159      -392.8006
  14   2.0000     -14.435048      -392.7976
  15   2.0000     -14.432903      -392.7392
  16   2.0000     -14.431478      -392.7005
  17   2.0000     -14.431015      -392.6879
  18   2.0000     -14.430439      -392.6722
  19   2.0000     -14.430342      -392.6696
  20   2.0000     -14.430096      -392.6629
  21   2.0000     -14.427729      -392.5985
  22   2.0000     -10.371115      -282.2124
  23   2.0000     -10.363964      -282.0178
  24   2.0000     -10.363407      -282.0026
  25   2.0000     -10.363302      -281.9998
  26   2.0000     -10.363057      -281.9931
  27   2.0000     -10.361797      -281.9588
  28   2.0000     -10.360189      -281.9151
  29   2.0000     -10.359283      -281.8904
  30   2.0000     -10.359245      -281.8894
  31   2.0000     -10.359058      -281.8843
  32   2.0000     -10.358866      -281.8791
  33   2.0000     -10.358816      -281.8777
  34   2.0000     -10.358431      -281.8672
  35   2.0000     -10.355966      -281.8002
  36   2.0000     -10.355753      -281.7944
  37   2.0000     -10.354402      -281.7576
  38   2.0000     -10.351886      -281.6891
  39   2.0000     -10.351752      -281.6855
  40   2.0000     -10.344905      -281.4992
  41   2.0000     -10.344009      -281.4748
  42   2.0000     -10.336712      -281.2762
  43   2.0000     -10.336461      -281.2694
  44   2.0000     -10.336309      -281.2653
  45   2.0000     -10.335514      -281.2436
  46   2.0000     -10.335034      -281.2306
  47   2.0000     -10.334684      -281.2210
  48   2.0000     -10.333948      -281.2010
  49   2.0000     -10.333462      -281.1878
  50   2.0000     -10.332830      -281.1706
  51   2.0000     -10.332104      -281.1508
  52   2.0000     -10.332001      -281.1480
  53   2.0000     -10.331852      -281.1440
  54   2.0000     -10.331718      -281.1403
  55   2.0000     -10.331702      -281.1399
  56   2.0000     -10.331113      -281.1239
  57   2.0000     -10.329234      -281.0728
  58   2.0000     -10.323779      -280.9243
  59   2.0000     -10.323380      -280.9134
  60   2.0000     -10.322724      -280.8956
  61   2.0000     -10.322101      -280.8786
  62   2.0000     -10.314260      -280.6653
  63   2.0000     -10.313715      -280.6505
  64   2.0000     -10.313652      -280.6487
  65   2.0000     -10.312539      -280.6185
  66   2.0000     -10.310849      -280.5725
  67   2.0000     -10.310612      -280.5660
  68   2.0000     -10.309742      -280.5424
  69   2.0000     -10.309567      -280.5376
  70   2.0000     -10.308906      -280.5196
  71   2.0000     -10.308904      -280.5195
  72   2.0000     -10.308187      -280.5000
  73   2.0000     -10.307391      -280.4784
  74   2.0000      -8.153057      -221.8560
  75   2.0000      -8.148887      -221.7425
  76   2.0000      -8.092479      -220.2075
  77   2.0000      -8.092290      -220.2024
  78   2.0000      -6.124190      -166.6477
  79   2.0000      -6.119947      -166.5322
  80   2.0000      -6.116332      -166.4339
  81   2.0000      -6.115722      -166.4173
  82   2.0000      -6.112076      -166.3181
  83   2.0000      -6.111683      -166.3073
  84   2.0000      -6.061699      -164.9472
  85   2.0000      -6.061525      -164.9425
  86   2.0000      -6.057332      -164.8284
  87   2.0000      -6.057170      -164.8240
  88   2.0000      -6.055100      -164.7676
  89   2.0000      -6.054893      -164.7620
  90   2.0000      -1.165682       -31.7198
  91   2.0000      -1.162682       -31.6382
  92   2.0000      -1.141570       -31.0637
  93   2.0000      -1.140280       -31.0286
  94   2.0000      -1.054338       -28.6900
  95   2.0000      -1.048138       -28.5213
  96   2.0000      -1.046333       -28.4722
  97   2.0000      -1.030329       -28.0367
  98   2.0000      -1.027991       -27.9730
  99   2.0000      -1.027244       -27.9527
 100   2.0000      -1.021582       -27.7987
 101   2.0000      -1.018802       -27.7230
 102   2.0000      -1.016988       -27.6737
 103   2.0000      -1.016056       -27.6483
 104   2.0000      -1.012566       -27.5533
 105   2.0000      -1.011834       -27.5334
 106   2.0000      -1.008442       -27.4411
 107   2.0000      -1.008203       -27.4346
 108   2.0000      -1.007528       -27.4162
 109   2.0000      -1.004348       -27.3297
 110   2.0000      -0.978385       -26.6232
 111   2.0000      -0.972878       -26.4734
 112   2.0000      -0.969655       -26.3857
 113   2.0000      -0.956020       -26.0146
 114   2.0000      -0.953378       -25.9427
 115   2.0000      -0.951839       -25.9008
 116   2.0000      -0.949022       -25.8242
 117   2.0000      -0.941387       -25.6165
 118   2.0000      -0.938069       -25.5262
 119   2.0000      -0.911433       -24.8014
 120   2.0000      -0.906393       -24.6642
 121   2.0000      -0.904574       -24.6147
 122   2.0000      -0.889963       -24.2171
 123   2.0000      -0.885312       -24.0906
 124   2.0000      -0.877542       -23.8791
 125   2.0000      -0.876521       -23.8514
 126   2.0000      -0.874817       -23.8050
 127   2.0000      -0.864395       -23.5214
 128   2.0000      -0.841978       -22.9114
 129   2.0000      -0.828828       -22.5535
 130   2.0000      -0.804774       -21.8990
 131   2.0000      -0.803188       -21.8559
 132   2.0000      -0.800724       -21.7888
 133   2.0000      -0.793282       -21.5863
 134   2.0000      -0.786530       -21.4026
 135   2.0000      -0.785452       -21.3732
 136   2.0000      -0.767608       -20.8877
 137   2.0000      -0.759702       -20.6725
 138   2.0000      -0.748947       -20.3799
 139   2.0000      -0.733297       -19.9540
 140   2.0000      -0.727694       -19.8016
 141   2.0000      -0.725242       -19.7349
 142   2.0000      -0.724186       -19.7061
 143   2.0000      -0.722318       -19.6553
 144   2.0000      -0.710188       -19.3252
 145   2.0000      -0.709487       -19.3061
 146   2.0000      -0.696040       -18.9402
 147   2.0000      -0.692600       -18.8466
 148   2.0000      -0.684478       -18.6256
 149   2.0000      -0.678122       -18.4526
 150   2.0000      -0.676760       -18.4156
 151   2.0000      -0.675256       -18.3747
 152   2.0000      -0.673407       -18.3243
 153   2.0000      -0.668047       -18.1785
 154   2.0000      -0.658950       -17.9310
 155   2.0000      -0.655907       -17.8481
 156   2.0000      -0.640002       -17.4153
 157   2.0000      -0.637604       -17.3501
 158   2.0000      -0.628585       -17.1047
 159   2.0000      -0.624553       -16.9950
 160   2.0000      -0.621889       -16.9225
 161   2.0000      -0.619614       -16.8606
 162   2.0000      -0.600042       -16.3280
 163   2.0000      -0.597396       -16.2560
 164   2.0000      -0.597363       -16.2551
 165   2.0000      -0.595671       -16.2090
 166   2.0000      -0.594355       -16.1732
 167   2.0000      -0.592120       -16.1124
 168   2.0000      -0.580809       -15.8046
 169   2.0000      -0.579862       -15.7789
 170   2.0000      -0.577817       -15.7232
 171   2.0000      -0.569293       -15.4912
 172   2.0000      -0.557566       -15.1721
 173   2.0000      -0.555867       -15.1259
 174   2.0000      -0.554686       -15.0938
 175   2.0000      -0.551058       -14.9950
 176   2.0000      -0.548698       -14.9308
 177   2.0000      -0.547393       -14.8953
 178   2.0000      -0.546520       -14.8716
 179   2.0000      -0.535103       -14.5609
 180   2.0000      -0.532696       -14.4954
 181   2.0000      -0.531868       -14.4729
 182   2.0000      -0.524384       -14.2692
 183   2.0000      -0.522615       -14.2211
 184   2.0000      -0.518640       -14.1129
 185   2.0000      -0.518300       -14.1037
 186   2.0000      -0.516758       -14.0617
 187   2.0000      -0.514284       -13.9944
 188   2.0000      -0.512215       -13.9381
 189   2.0000      -0.509890       -13.8748
 190   2.0000      -0.506558       -13.7842
 191   2.0000      -0.504892       -13.7388
 192   2.0000      -0.503814       -13.7095
 193   2.0000      -0.499079       -13.5806
 194   2.0000      -0.493483       -13.4284
 195   2.0000      -0.488863       -13.3026
 196   2.0000      -0.488277       -13.2867
 197   2.0000      -0.479508       -13.0481
 198   2.0000      -0.474385       -12.9087
 199   2.0000      -0.469710       -12.7814
 200   2.0000      -0.469223       -12.7682
 201   2.0000      -0.468209       -12.7406
 202   2.0000      -0.466449       -12.6927
 203   2.0000      -0.465821       -12.6756
 204   2.0000      -0.464019       -12.6266
 205   2.0000      -0.462995       -12.5987
 206   2.0000      -0.462765       -12.5925
 207   2.0000      -0.461498       -12.5580
 208   2.0000      -0.461154       -12.5486
 209   2.0000      -0.459557       -12.5052
 210   2.0000      -0.458145       -12.4668
 211   2.0000      -0.456729       -12.4282
 212   2.0000      -0.455625       -12.3982
 213   2.0000      -0.455227       -12.3873
 214   2.0000      -0.454364       -12.3639
 215   2.0000      -0.452295       -12.3076
 216   2.0000      -0.449640       -12.2353
 217   2.0000      -0.447549       -12.1784
 218   2.0000      -0.445187       -12.1142
 219   2.0000      -0.444713       -12.1013
 220   2.0000      -0.444178       -12.0867
 221   2.0000      -0.442985       -12.0542
 222   2.0000      -0.441233       -12.0066
 223   2.0000      -0.439856       -11.9691
 224   2.0000      -0.439351       -11.9553
 225   2.0000      -0.439226       -11.9520
 226   2.0000      -0.437602       -11.9078
 227   2.0000      -0.433187       -11.7876
 228   2.0000      -0.431879       -11.7520
 229   2.0000      -0.429501       -11.6873
 230   2.0000      -0.426316       -11.6006
 231   2.0000      -0.424517       -11.5517
 232   2.0000      -0.421929       -11.4813
 233   2.0000      -0.421414       -11.4673
 234   2.0000      -0.417868       -11.3708
 235   2.0000      -0.412586       -11.2270
 236   2.0000      -0.411216       -11.1898
 237   2.0000      -0.408709       -11.1215
 238   2.0000      -0.400638       -10.9019
 239   2.0000      -0.397287       -10.8107
 240   2.0000      -0.393623       -10.7110
 241   2.0000      -0.391585       -10.6556
 242   2.0000      -0.385951       -10.5023
 243   2.0000      -0.385056       -10.4779
 244   2.0000      -0.384068       -10.4510
 245   2.0000      -0.370347       -10.0777
 246   2.0000      -0.356171        -9.6919
 247   2.0000      -0.352131        -9.5820
 248   2.0000      -0.343660        -9.3515
 249   2.0000      -0.343146        -9.3375
 250   2.0000      -0.334735        -9.1086
 251   2.0000      -0.327794        -8.9197
 252   2.0000      -0.324001        -8.8165
 253   2.0000      -0.321672        -8.7531
 254   2.0000      -0.315536        -8.5862
 255   2.0000      -0.307312        -8.3624
 256   2.0000      -0.273257        -7.4357
 257   0.0000      -0.132732        -3.6118
 258   0.0000      -0.117051        -3.1851
 259   0.0000      -0.107396        -2.9224
 260   0.0000      -0.096779        -2.6335
 261   0.0000      -0.094543        -2.5726

MULLIKEN ATOMIC CHARGES
-----------------------
   0 C :   -0.029184
   1 C :    0.046656
   2 C :    0.049012
   3 C :   -0.031202
   4 C :    0.005922
   5 C :    0.012869
   6 C :    0.279893
   7 C :   -0.331529
   8 C :   -0.190051
   9 N :    0.168882
  10 C :   -0.188414
  11 N :    0.183153
  12 C :   -0.038471
  13 C :    0.289246
  14 C :   -0.328162
  15 C :   -0.191409
  16 N :    0.175225
  17 C :   -0.204637
  18 N :    0.175848
  19 C :    0.030328
  20 C :   -0.101092
  21 N :   -0.009406
  22 N :   -0.065857
  23 C :    0.044900
  24 C :    0.039935
  25 C :    0.045155
  26 N :   -0.267670
  27 S :    0.566357
  28 N :   -0.245103
  29 C :   -0.137795
  30 C :   -0.039065
  31 C :    0.010604
  32 C :   -0.085617
  33 S :    0.269436
  34 C :   -0.089859
  35 C :    0.015903
  36 C :    0.305897
  37 C :   -0.298378
  38 C :   -0.186699
  39 N :    0.177155
  40 C :   -0.189526
  41 N :    0.176825
  42 C :   -0.045099
  43 C :   -0.130440
  44 S :    0.262943
  45 C :    0.035819
  46 N :   -0.071343
  47 N :   -0.032742
  48 C :   -0.146889
  49 C :    0.112345
  50 C :    0.032186
  51 N :   -0.254300
  52 S :    0.572317
  53 N :   -0.240212
  54 C :    0.026258
  55 C :   -0.041375
  56 C :    0.277469
  57 C :   -0.333173
  58 C :   -0.188463
  59 N :    0.177491
  60 C :   -0.191668
  61 N :    0.172947
  62 C :    0.013998
  63 C :    0.012123
  64 C :   -0.029359
  65 C :    0.050667
  66 C :    0.049280
  67 C :   -0.032884
  68 C :    0.262693
  69 C :   -0.306228
  70 C :   -0.198048
  71 N :    0.171036
  72 C :   -0.157591
  73 N :    0.158871
  74 H :    0.008228
  75 H :    0.009187
  76 H :    0.008188
  77 H :    0.006368
  78 H :    0.036392
  79 H :    0.022653
  80 H :    0.023271
  81 H :    0.038855
  82 H :    0.012530
  83 H :    0.009034
  84 H :    0.007629
  85 H :    0.008958
Sum of atomic charges:   -0.0000000

LOEWDIN ATOMIC CHARGES
----------------------
   0 C :    0.006788
   1 C :    0.005452
   2 C :    0.007349
   3 C :    0.003601
   4 C :   -0.007190
   5 C :   -0.012250
   6 C :    0.076457
   7 C :   -0.117739
   8 C :   -0.017901
   9 N :   -0.036720
  10 C :   -0.026197
  11 N :   -0.025267
  12 C :   -0.030731
  13 C :    0.079069
  14 C :   -0.125170
  15 C :   -0.020954
  16 N :   -0.039709
  17 C :   -0.021243
  18 N :   -0.040232
  19 C :    0.060357
  20 C :   -0.037866
  21 N :   -0.004840
  22 N :   -0.066745
  23 C :    0.002418
  24 C :   -0.051627
  25 C :   -0.056928
  26 N :   -0.275637
  27 S :    0.690961
  28 N :   -0.256836
  29 C :   -0.179569
  30 C :    0.001689
  31 C :   -0.068107
  32 C :   -0.167010
  33 S :    0.539637
  34 C :   -0.169788
  35 C :   -0.066504
  36 C :    0.077619
  37 C :   -0.098651
  38 C :   -0.017262
  39 N :   -0.029514
  40 C :   -0.017862
  41 N :   -0.028062
  42 C :   -0.000679
  43 C :   -0.178406
  44 S :    0.533217
  45 C :   -0.003006
  46 N :   -0.072292
  47 N :   -0.030613
  48 C :   -0.030695
  49 C :   -0.049692
  50 C :   -0.051254
  51 N :   -0.262348
  52 S :    0.702656
  53 N :   -0.261562
  54 C :    0.054207
  55 C :   -0.014017
  56 C :    0.076319
  57 C :   -0.120262
  58 C :   -0.024048
  59 N :   -0.030829
  60 C :   -0.018750
  61 N :   -0.036457
  62 C :   -0.012957
  63 C :   -0.005945
  64 C :    0.006313
  65 C :    0.009257
  66 C :    0.005593
  67 C :    0.006613
  68 C :    0.080379
  69 C :   -0.111444
  70 C :   -0.018254
  71 N :   -0.037687
  72 C :   -0.011907
  73 N :   -0.052005
  74 H :    0.042316
  75 H :    0.039507
  76 H :    0.039166
  77 H :    0.041288
  78 H :    0.056927
  79 H :    0.043366
  80 H :    0.043397
  81 H :    0.052954
  82 H :    0.043158
  83 H :    0.039580
  84 H :    0.039279
  85 H :    0.042332

  Mayer bond orders larger than 0.100000
B(  0-C ,  1-C ) :   1.3743 B(  0-C ,  5-C ) :   1.3781 B(  0-C , 74-H ) :   0.9836
B(  1-C ,  2-C ) :   1.3713 B(  1-C , 75-H ) :   0.9869 B(  2-C ,  3-C ) :   1.3706
B(  2-C , 76-H ) :   0.9865 B(  3-C ,  4-C ) :   1.3769 B(  3-C , 77-H ) :   0.9862
B(  4-C ,  5-C ) :   1.3044 B(  4-C , 13-C ) :   1.0233 B(  5-C ,  6-C ) :   1.0054
B(  6-C ,  7-C ) :   1.6710 B(  6-C , 12-C ) :   1.0256 B(  7-C ,  8-C ) :   1.1442
B(  7-C , 10-C ) :   1.1291 B(  8-C ,  9-N ) :   2.9812 B( 10-C , 11-N ) :   2.9890
B( 12-C , 13-C ) :   0.9947 B( 12-C , 19-C ) :   1.6885 B( 13-C , 14-C ) :   1.6575
B( 14-C , 15-C ) :   1.1555 B( 14-C , 17-C ) :   1.1474 B( 15-C , 16-N ) :   2.9781
B( 17-C , 18-N ) :   2.9975 B( 19-C , 20-C ) :   1.0951 B( 19-C , 78-H ) :   0.9257
B( 20-C , 21-N ) :   1.6557 B( 20-C , 23-C ) :   0.1182 B( 20-C , 25-C ) :   1.0989
B( 21-N , 22-N ) :   1.2632 B( 22-N , 23-C ) :   1.6635 B( 23-C , 24-C ) :   1.1360
B( 23-C , 29-C ) :   1.1876 B( 24-C , 25-C ) :   1.1955 B( 24-C , 28-N ) :   1.5530
B( 25-C , 26-N ) :   1.5235 B( 26-N , 27-S ) :   1.2690 B( 26-N , 28-N ) :   0.1394
B( 27-S , 28-N ) :   1.2845 B( 29-C , 30-C ) :   1.4570 B( 29-C , 33-S ) :   1.0847
B( 30-C , 31-C ) :   1.2900 B( 30-C , 79-H ) :   0.9825 B( 31-C , 32-C ) :   1.4107
B( 31-C , 36-C ) :   0.9941 B( 32-C , 33-S ) :   1.1421 B( 32-C , 34-C ) :   1.1987
B( 34-C , 35-C ) :   1.4179 B( 34-C , 44-S ) :   1.1363 B( 35-C , 36-C ) :   0.9947
B( 35-C , 42-C ) :   1.2794 B( 36-C , 37-C ) :   1.7152 B( 37-C , 38-C ) :   1.1357
B( 37-C , 40-C ) :   1.1363 B( 38-C , 39-N ) :   2.9897 B( 40-C , 41-N ) :   2.9899
B( 42-C , 43-C ) :   1.4668 B( 42-C , 80-H ) :   0.9824 B( 43-C , 44-S ) :   1.0871
B( 43-C , 45-C ) :   1.1803 B( 45-C , 46-N ) :   1.6805 B( 45-C , 48-C ) :   0.1202
B( 45-C , 50-C ) :   1.1272 B( 46-N , 47-N ) :   1.2408 B( 47-N , 48-C ) :   1.6336
B( 48-C , 49-C ) :   1.1007 B( 48-C , 54-C ) :   1.0791 B( 49-C , 50-C ) :   1.2029
B( 49-C , 53-N ) :   1.5567 B( 50-C , 51-N ) :   1.5502 B( 51-N , 52-S ) :   1.2827
B( 51-N , 53-N ) :   0.1430 B( 52-S , 53-N ) :   1.2904 B( 54-C , 55-C ) :   1.7280
B( 54-C , 81-H ) :   0.9323 B( 55-C , 56-C ) :   1.0162 B( 55-C , 68-C ) :   0.9829
B( 56-C , 57-C ) :   1.6727 B( 56-C , 62-C ) :   1.0109 B( 57-C , 58-C ) :   1.1319
B( 57-C , 60-C ) :   1.1449 B( 58-C , 59-N ) :   2.9922 B( 60-C , 61-N ) :   2.9857
B( 62-C , 63-C ) :   1.3015 B( 62-C , 67-C ) :   1.3786 B( 63-C , 64-C ) :   1.3768
B( 63-C , 68-C ) :   1.0164 B( 64-C , 65-C ) :   1.3725 B( 64-C , 82-H ) :   0.9869
B( 65-C , 66-C ) :   1.3703 B( 65-C , 83-H ) :   0.9863 B( 66-C , 67-C ) :   1.3768
B( 66-C , 84-H ) :   0.9858 B( 67-C , 85-H ) :   0.9843 B( 68-C , 69-C ) :   1.6979
B( 69-C , 70-C ) :   1.1438 B( 69-C , 72-C ) :   1.1528 B( 70-C , 71-N ) :   2.9978
B( 72-C , 73-N ) :   2.9690

-----------------------------------------------------------------------------
         ABSORPTION SPECTRUM VIA TRANSITION ELECTRIC DIPOLE MOMENTS
-----------------------------------------------------------------------------
State   Energy  Wavelength   fosc         T2         TX        TY        TZ
        (cm-1)    (nm)                  (au**2)     (au)      (au)      (au)
-----------------------------------------------------------------------------
   0   14517.2    688.8   0.990646142  22.46533  -0.16080   3.39254  -3.30608
   1   17440.0    573.4   0.023189913   0.43775  -0.01249  -0.48927   0.44521
   2   17616.3    567.7   0.475183091   8.88019  -0.27170   2.03467  -2.16021
   3   18173.7    550.2   0.124464046   2.25463  -0.14864   1.27562  -0.77802
   4   19637.3    509.2   0.084402885   1.41498   0.29598  -0.37191  -1.09044
   5   23521.4    425.1   0.040598830   0.56823   0.21563   0.46047  -0.55651
   6   24414.9    409.6   0.028457146   0.38372  -0.32377  -0.36951   0.37730
   7   25675.2    389.5   0.232460292   2.98064  -0.81833  -1.45354   0.44521
   8   25759.2    388.2   0.032703714   0.41797   0.13906   0.05130  -0.62928
   9   26907.0    371.7   0.026116490   0.31954   0.26910  -0.49675  -0.01906
  10   27248.8    367.0   0.008152734   0.09850  -0.10338   0.20863  -0.21044
  11   27569.3    362.7   0.094851117   1.13264   0.18262  -0.62487  -0.84192
  12   27616.6    362.1   0.056782264   0.67689   0.43622  -0.69681  -0.03261
  13   28047.2    356.5   0.014268202   0.16748  -0.24978   0.32417  -0.00197
  14   28192.8    354.7   0.018216523   0.21272   0.00074   0.36230   0.28541
  15   29325.8    341.0   0.045277286   0.50828  -0.53064  -0.21492  -0.42487
  16   29578.6    338.1   0.020510353   0.22828  -0.39492  -0.26208  -0.06032
  17   29920.2    334.2   0.062414432   0.68675  -0.13078  -0.32166   0.75245
  18   30212.3    331.0   0.027186691   0.29624  -0.33881   0.38495  -0.18238
  19   30549.7    327.3   0.048181384   0.51922  -0.13602  -0.53556  -0.46248
  20   30722.6    325.5   0.017925287   0.19208  -0.27893  -0.18879  -0.28042
  21   30846.8    324.2   0.014071408   0.15018   0.05005   0.32365  -0.20718
  22   31133.0    321.2   0.370308550   3.91578  -0.42862  -1.92595   0.15095
  23   31385.5    318.6   0.363821999   3.81624   0.47141  -0.54075  -1.81703
  24   31557.4    316.9   0.065884936   0.68732   0.00925  -0.70423  -0.43738
  25   31901.1    313.5   0.322410304   3.32720   0.64362   1.67310  -0.33720
  26   32813.4    304.8   0.266854904   2.67732  -0.92839  -1.34502  -0.07961
  27   32861.0    304.3   0.243708990   2.44156   0.68081   1.00329  -0.98562
  28   32988.4    303.1   0.177603926   1.77242   0.55950  -0.26601  -1.17840
  29   33234.2    300.9   0.182111154   1.80396  -0.33253  -1.29710  -0.10443
  30   33571.8    297.9   0.124683948   1.22267   0.07786  -0.69063  -0.86003
  31   33835.8    295.5   0.194652662   1.89391  -0.46856  -0.00992  -1.29393
  32   34755.8    287.7   0.009786445   0.09270  -0.13106   0.13440   0.23970
  33   35021.5    285.5   0.006284624   0.05908  -0.02316  -0.14906   0.19058
  34   35091.2    285.0   0.075831027   0.71142  -0.43382  -0.72330  -0.00711
  35   35206.0    284.0   0.071312996   0.66685   0.13661   0.62551  -0.50688
  36   35552.5    281.3   0.110775795   1.02577  -0.54339   0.57072   0.63622
  37   35645.2    280.5   0.115088943   1.06294   0.07061  -0.37268   0.95868
  38   35763.7    279.6   0.334166963   3.07608   0.03258  -1.73758  -0.23628
  39   36022.6    277.6   0.092278461   0.84334   0.05437  -0.75244   0.52365
  40   36074.9    277.2   0.158785667   1.44904   0.08200   0.86060  -0.83766
  41   36282.8    275.6   0.393869718   3.57378   0.63975  -0.51882  -1.70156
  42   36340.8    275.2   0.033039467   0.29930  -0.01024  -0.25015  -0.48644
  43   37023.8    270.1   0.139864070   1.24366  -0.10250  -0.16577   1.09803
  44   37235.6    268.6   0.031849616   0.28159   0.11876  -0.49667  -0.14423
  45   37367.7    267.6   0.042650692   0.37576   0.19639   0.33828  -0.47196
  46   37762.1    264.8   0.067814988   0.59121  -0.11423   0.75068   0.12104
  47   38138.1    262.2   0.014578283   0.12584  -0.05756  -0.23961  -0.25518
  48   38260.2    261.4   0.068580898   0.59011  -0.35054  -0.60482   0.31848
  49   38626.9    258.9   0.072501321   0.61792   0.02837   0.33871   0.70879
  50   38817.8    257.6   0.003068389   0.02602  -0.01355  -0.16050   0.00892
  51   38863.8    257.3   0.132007502   1.11822   0.09502   0.14578  -1.04305
  52   39068.3    256.0   0.001964198   0.01655  -0.05429   0.03688  -0.11065
  53   39386.5    253.9   0.037335087   0.31207  -0.20413  -0.50924   0.10523
  54   39395.6    253.8   0.003577281   0.02989   0.16521   0.02629  -0.04369
  55   39642.1    252.3   0.049530494   0.41133  -0.50563   0.36318  -0.15418
  56   39855.0    250.9   0.044327210   0.36615   0.00056  -0.25853  -0.54710
  57   40044.7    249.7   0.018301820   0.15046   0.17608   0.26533   0.22148
  58   40237.9    248.5   0.059737116   0.48875  -0.09711  -0.27624  -0.63483
  59   40304.2    248.1   0.055564190   0.45386  -0.02393  -0.34512  -0.57808

FINAL SINGLE POINT ENERGY     -4562.435623375092

DIPOLE MOMENT
-------------
                                X             Y             Z
Electronic contribution:      5.05532     -16.75124      -5.60825
Nuclear contribution   :     -5.16297      17.30703       4.24281
                        -----------------------------------------
Total Dipole Moment    :     -0.10765       0.55579      -1.36544
                        -----------------------------------------
Magnitude (a.u.)       :      1.47815
Magnitude (Debye)      :      3.75715

Rotational constants in cm-1:     0.002003     0.000256     0.000235
Rotational constants in MHz :    60.063313     7.683035     7.048228

                             ****ORCA TERMINATED NORMALLY****
TOTAL RUN TIME: 0 days 0 hours 9 minutes 0 seconds 689 msec
