                         Program Version 4.2.0 -  RELEASE  -
|  1> # ORCA input file
|  2> # SCF done       -174.959026615628          0.000394302249
|  3> ! CAM-B3LYP def2-SVP def2/J RIJCOSX Grid4 TightSCF
|  4> %maxcore 5000
|  5> %tddft
|  6>     Mode sTDDFT
|  7>     Ethresh 5.0
|  8>     maxcore 5000
|  9> end
| 10>
| 11> %pal
| 12>   nprocs 6
| 13>   end
| 14> * xyz 0 1
| 15>    C       -6.44589         1.20986         5.98885
| 16>    C       -6.84330         0.74704         7.23397
| 17>    C       -6.65227        -0.57832         7.60029
| 18>    C       -6.04889        -1.47795         6.73475
| 19>    C       -5.64372        -1.02732         5.48887
| 20>    C       -5.84845         0.31993         5.10916
| 21>    C       -5.35773         0.50961         3.75185
| 22>    C       -5.25802         1.69720         3.08188
| 23>    C       -5.63265         2.94516         3.62547
| 24>    N       -5.91857         3.98895         4.00709
| 25>    C       -4.73509         1.85582         1.77972
| 26>    N       -4.31979         2.06758         0.73083
| 27>    C       -5.00171        -0.81604         3.25009
| 28>    C       -4.96291        -1.71525         4.40424
| 29>    C       -4.21400        -2.85131         4.52158
| 30>    C       -3.34345        -3.33114         3.51955
| 31>    N       -2.58178        -3.73200         2.76003
| 32>    C       -4.15704        -3.63527         5.69306
| 33>    N       -4.08353        -4.30883         6.61908
| 34>    C       -4.88267        -1.14912         1.93990
| 35>    C       -4.90907        -2.48067         1.41425
| 36>    N       -5.64499        -3.41702         2.00625
| 37>    N       -5.64856        -4.64103         1.61838
| 38>    C       -5.05631        -5.09598         0.52793
| 39>    C       -4.36060        -4.15691        -0.28906
| 40>    C       -4.24413        -2.81617         0.20556
| 41>    N       -3.50660        -2.04422        -0.58315
| 42>    S       -3.02495        -2.91408        -1.84486
| 43>    N       -3.72354        -4.31000        -1.44705
| 44>    C       -5.16684        -6.50123         0.21200
| 45>    C       -4.33935        -7.11795        -0.71558
| 46>    C       -4.43530        -8.47473        -0.99083
| 47>    C       -5.36216        -9.28424        -0.35044
| 48>    C       -6.25029        -8.68430         0.58671
| 49>    C       -6.15361        -7.29147         0.86718
| 50>    N       -6.99500        -6.74436         1.74966
| 51>    C       -7.84009        -7.48274         2.41057
| 52>    C       -7.93577        -8.88223         2.13003
| 53>    N       -7.17894        -9.41353         1.21291
| 54>    C       -8.93520        -9.75588         2.80477
| 55>    C       -8.73536        -6.81200         3.39336
| 56>    C       -5.45318       -10.70338        -0.60471
| 57>    N       -6.09847       -11.46408         0.26241
| 58>    N       -6.27432       -12.73118         0.14435
| 59>    C       -5.69881       -13.44846        -0.81578
| 60>    C       -4.99782       -12.75966        -1.84009
| 61>    C       -4.90827       -11.33087        -1.76282
| 62>    N       -4.25727       -10.82230        -2.80588
| 63>    S       -3.78193       -12.02938        -3.76027
| 64>    N       -4.38951       -13.25118        -2.91270
| 65>    C       -5.87840       -14.86934        -0.84966
| 66>    C       -6.01745       -15.66713         0.23891
| 67>    C       -6.57909       -17.01653         0.22949
| 68>    C       -6.70335       -17.84837        -0.84825
| 69>    C       -6.25381       -17.55907        -2.15530
| 70>    N       -5.91249       -17.40055        -3.23959
| 71>    C       -7.27026       -19.14002        -0.78832
| 72>    N       -7.71927       -20.19590        -0.80682
| 73>    C       -6.99175       -17.30201         1.59595
| 74>    C       -6.54960       -16.25547         2.43882
| 75>    C       -6.83700       -16.27226         3.79400
| 76>    C       -7.56082       -17.33918         4.30415
| 77>    C       -7.98561       -18.37300         3.48069
| 78>    C       -7.70792       -18.36641         2.12227
| 79>    C       -5.79382       -15.30540         1.63946
| 80>    C       -4.86045       -14.42680         2.11075
| 81>    C       -4.63263       -14.18588         3.48219
| 82>    N       -4.41116       -13.95297         4.58360
| 83>    C       -3.95458       -13.71854         1.29248
| 84>    N       -3.16245       -13.16031         0.67702
| 85>    H       -6.60809         2.24032         5.71838
| 86>    H       -7.31228         1.42998         7.92569
| 87>    H       -6.97809        -0.91564         8.57236
| 88>    H       -5.91193        -2.50668         7.02587
| 89>    H       -4.82515        -0.37189         1.19073
| 90>    H       -3.58644        -6.52900        -1.21520
| 91>    H       -3.75595        -8.92004        -1.70041
| 92>    H       -8.76766        -9.75626         3.88055
| 93>    H       -8.83508       -10.76708         2.42163
| 94>    H       -9.94634        -9.39514         2.62186
| 95>    H       -8.59345        -7.24124         4.38385
| 96>    H       -9.77975        -6.94553         3.11526
| 97>    H       -8.49847        -5.75253         3.42010
| 98>    H       -5.97017       -15.28908        -1.84158
| 99>    H       -6.51856       -15.47050         4.44021
|100>    H       -7.79717       -17.36384         5.35693
|101>    H       -8.54517       -19.19471         3.90083
|102>    H       -8.05152       -19.17375         1.49662
|103> *
|104>
|105>                          ****END OF INPUT****

CARTESIAN COORDINATES (ANGSTROEM)
---------------------------------
  C     -6.445890    1.209860    5.988850
  C     -6.843300    0.747040    7.233970
  C     -6.652270   -0.578320    7.600290
  C     -6.048890   -1.477950    6.734750
  C     -5.643720   -1.027320    5.488870
  C     -5.848450    0.319930    5.109160
  C     -5.357730    0.509610    3.751850
  C     -5.258020    1.697200    3.081880
  C     -5.632650    2.945160    3.625470
  N     -5.918570    3.988950    4.007090
  C     -4.735090    1.855820    1.779720
  N     -4.319790    2.067580    0.730830
  C     -5.001710   -0.816040    3.250090
  C     -4.962910   -1.715250    4.404240
  C     -4.214000   -2.851310    4.521580
  C     -3.343450   -3.331140    3.519550
  N     -2.581780   -3.732000    2.760030
  C     -4.157040   -3.635270    5.693060
  N     -4.083530   -4.308830    6.619080
  C     -4.882670   -1.149120    1.939900
  C     -4.909070   -2.480670    1.414250
  N     -5.644990   -3.417020    2.006250
  N     -5.648560   -4.641030    1.618380
  C     -5.056310   -5.095980    0.527930
  C     -4.360600   -4.156910   -0.289060
  C     -4.244130   -2.816170    0.205560
  N     -3.506600   -2.044220   -0.583150
  S     -3.024950   -2.914080   -1.844860
  N     -3.723540   -4.310000   -1.447050
  C     -5.166840   -6.501230    0.212000
  C     -4.339350   -7.117950   -0.715580
  C     -4.435300   -8.474730   -0.990830
  C     -5.362160   -9.284240   -0.350440
  C     -6.250290   -8.684300    0.586710
  C     -6.153610   -7.291470    0.867180
  N     -6.995000   -6.744360    1.749660
  C     -7.840090   -7.482740    2.410570
  C     -7.935770   -8.882230    2.130030
  N     -7.178940   -9.413530    1.212910
  C     -8.935200   -9.755880    2.804770
  C     -8.735360   -6.812000    3.393360
  C     -5.453180  -10.703380   -0.604710
  N     -6.098470  -11.464080    0.262410
  N     -6.274320  -12.731180    0.144350
  C     -5.698810  -13.448460   -0.815780
  C     -4.997820  -12.759660   -1.840090
  C     -4.908270  -11.330870   -1.762820
  N     -4.257270  -10.822300   -2.805880
  S     -3.781930  -12.029380   -3.760270
  N     -4.389510  -13.251180   -2.912700
  C     -5.878400  -14.869340   -0.849660
  C     -6.017450  -15.667130    0.238910
  C     -6.579090  -17.016530    0.229490
  C     -6.703350  -17.848370   -0.848250
  C     -6.253810  -17.559070   -2.155300
  N     -5.912490  -17.400550   -3.239590
  C     -7.270260  -19.140020   -0.788320
  N     -7.719270  -20.195900   -0.806820
  C     -6.991750  -17.302010    1.595950
  C     -6.549600  -16.255470    2.438820
  C     -6.837000  -16.272260    3.794000
  C     -7.560820  -17.339180    4.304150
  C     -7.985610  -18.373000    3.480690
  C     -7.707920  -18.366410    2.122270
  C     -5.793820  -15.305400    1.639460
  C     -4.860450  -14.426800    2.110750
  C     -4.632630  -14.185880    3.482190
  N     -4.411160  -13.952970    4.583600
  C     -3.954580  -13.718540    1.292480
  N     -3.162450  -13.160310    0.677020
  H     -6.608090    2.240320    5.718380
  H     -7.312280    1.429980    7.925690
  H     -6.978090   -0.915640    8.572360
  H     -5.911930   -2.506680    7.025870
  H     -4.825150   -0.371890    1.190730
  H     -3.586440   -6.529000   -1.215200
  H     -3.755950   -8.920040   -1.700410
  H     -8.767660   -9.756260    3.880550
  H     -8.835080  -10.767080    2.421630
  H     -9.946340   -9.395140    2.621860
  H     -8.593450   -7.241240    4.383850
  H     -9.779750   -6.945530    3.115260
  H     -8.498470   -5.752530    3.420100
  H     -5.970170  -15.289080   -1.841580
  H     -6.518560  -15.470500    4.440210
  H     -7.797170  -17.363840    5.356930
  H     -8.545170  -19.194710    3.900830
  H     -8.051520  -19.173750    1.496620

 Total Charge           Charge          ....    0
 Multiplicity           Mult            ....    1
 Number of Electrons    NEL             ....  476
 Basis Dimension        Dim             .... 1078

ORBITAL ENERGIES
----------------

  NO   OCC          E(Eh)            E(eV)
   0   2.0000     -89.049505     -2423.1602
   1   2.0000     -89.049188     -2423.1516
   2   2.0000     -14.463582      -393.5741
   3   2.0000     -14.463285      -393.5660
   4   2.0000     -14.462967      -393.5574
   5   2.0000     -14.462743      -393.5513
   6   2.0000     -14.456732      -393.3877
   7   2.0000     -14.456482      -393.3809
   8   2.0000     -14.441275      -392.9671
   9   2.0000     -14.441198      -392.9650
  10   2.0000     -14.428426      -392.6174
  11   2.0000     -14.428104      -392.6087
  12   2.0000     -14.427601      -392.5950
  13   2.0000     -14.427262      -392.5858
  14   2.0000     -14.425919      -392.5492
  15   2.0000     -14.425515      -392.5382
  16   2.0000     -14.423561      -392.4850
  17   2.0000     -14.423559      -392.4850
  18   2.0000     -14.402099      -391.9010
  19   2.0000     -14.401573      -391.8867
  20   2.0000     -10.359985      -281.9095
  21   2.0000     -10.359745      -281.9030
  22   2.0000     -10.355954      -281.7998
  23   2.0000     -10.355748      -281.7942
  24   2.0000     -10.355523      -281.7881
  25   2.0000     -10.355384      -281.7843
  26   2.0000     -10.351407      -281.6761
  27   2.0000     -10.351133      -281.6686
  28   2.0000     -10.346692      -281.5478
  29   2.0000     -10.346425      -281.5405
  30   2.0000     -10.346210      -281.5347
  31   2.0000     -10.345992      -281.5288
  32   2.0000     -10.344367      -281.4845
  33   2.0000     -10.344229      -281.4808
  34   2.0000     -10.344028      -281.4753
  35   2.0000     -10.343673      -281.4657
  36   2.0000     -10.332627      -281.1651
  37   2.0000     -10.332427      -281.1596
  38   2.0000     -10.329465      -281.0790
  39   2.0000     -10.329385      -281.0768
  40   2.0000     -10.329251      -281.0732
  41   2.0000     -10.329055      -281.0679
  42   2.0000     -10.328748      -281.0595
  43   2.0000     -10.328681      -281.0577
  44   2.0000     -10.328062      -281.0408
  45   2.0000     -10.327672      -281.0302
  46   2.0000     -10.325194      -280.9628
  47   2.0000     -10.325132      -280.9611
  48   2.0000     -10.319516      -280.8083
  49   2.0000     -10.319363      -280.8041
  50   2.0000     -10.318868      -280.7907
  51   2.0000     -10.318760      -280.7877
  52   2.0000     -10.315151      -280.6895
  53   2.0000     -10.314937      -280.6837
  54   2.0000     -10.314290      -280.6661
  55   2.0000     -10.313971      -280.6574
  56   2.0000     -10.306696      -280.4595
  57   2.0000     -10.306482      -280.4536
  58   2.0000     -10.305896      -280.4377
  59   2.0000     -10.305739      -280.4334
  60   2.0000     -10.305464      -280.4259
  61   2.0000     -10.305315      -280.4219
  62   2.0000     -10.304704      -280.4052
  63   2.0000     -10.304483      -280.3992
  64   2.0000     -10.298620      -280.2397
  65   2.0000     -10.298529      -280.2372
  66   2.0000     -10.286990      -279.9232
  67   2.0000     -10.286591      -279.9124
  68   2.0000     -10.263870      -279.2941
  69   2.0000     -10.263702      -279.2895
  70   2.0000      -8.141052      -221.5293
  71   2.0000      -8.140796      -221.5223
  72   2.0000      -6.112154      -166.3202
  73   2.0000      -6.111890      -166.3130
  74   2.0000      -6.104303      -166.1065
  75   2.0000      -6.104037      -166.0993
  76   2.0000      -6.103740      -166.0912
  77   2.0000      -6.103479      -166.0841
  78   2.0000      -1.153856       -31.3980
  79   2.0000      -1.153650       -31.3924
  80   2.0000      -1.131064       -30.7778
  81   2.0000      -1.130792       -30.7704
  82   2.0000      -1.074646       -29.2426
  83   2.0000      -1.042673       -28.3726
  84   2.0000      -1.042487       -28.3675
  85   2.0000      -1.023469       -27.8500
  86   2.0000      -1.023191       -27.8425
  87   2.0000      -1.012950       -27.5638
  88   2.0000      -1.012674       -27.5562
  89   2.0000      -1.008411       -27.4403
  90   2.0000      -1.007700       -27.4209
  91   2.0000      -1.005642       -27.3649
  92   2.0000      -1.005361       -27.3573
  93   2.0000      -1.002388       -27.2764
  94   2.0000      -1.002247       -27.2725
  95   2.0000      -0.995426       -27.0869
  96   2.0000      -0.971846       -26.4453
  97   2.0000      -0.968454       -26.3530
  98   2.0000      -0.965704       -26.2781
  99   2.0000      -0.950527       -25.8651
 100   2.0000      -0.946830       -25.7646
 101   2.0000      -0.944719       -25.7071
 102   2.0000      -0.941331       -25.6149
 103   2.0000      -0.932404       -25.3720
 104   2.0000      -0.919877       -25.0311
 105   2.0000      -0.900885       -24.5143
 106   2.0000      -0.900659       -24.5082
 107   2.0000      -0.887145       -24.1404
 108   2.0000      -0.882940       -24.0260
 109   2.0000      -0.880186       -23.9511
 110   2.0000      -0.871782       -23.7224
 111   2.0000      -0.871626       -23.7182
 112   2.0000      -0.855163       -23.2702
 113   2.0000      -0.823216       -22.4009
 114   2.0000      -0.815291       -22.1852
 115   2.0000      -0.807681       -21.9781
 116   2.0000      -0.801075       -21.7984
 117   2.0000      -0.797278       -21.6950
 118   2.0000      -0.797051       -21.6888
 119   2.0000      -0.784999       -21.3609
 120   2.0000      -0.779618       -21.2145
 121   2.0000      -0.757223       -20.6051
 122   2.0000      -0.754481       -20.5305
 123   2.0000      -0.738882       -20.1060
 124   2.0000      -0.725051       -19.7297
 125   2.0000      -0.722163       -19.6510
 126   2.0000      -0.721393       -19.6301
 127   2.0000      -0.719777       -19.5861
 128   2.0000      -0.717395       -19.5213
 129   2.0000      -0.711974       -19.3738
 130   2.0000      -0.710273       -19.3275
 131   2.0000      -0.701737       -19.0952
 132   2.0000      -0.688545       -18.7363
 133   2.0000      -0.675794       -18.3893
 134   2.0000      -0.673503       -18.3270
 135   2.0000      -0.672815       -18.3082
 136   2.0000      -0.670250       -18.2384
 137   2.0000      -0.669299       -18.2126
 138   2.0000      -0.660491       -17.9729
 139   2.0000      -0.654683       -17.8148
 140   2.0000      -0.642032       -17.4706
 141   2.0000      -0.631851       -17.1935
 142   2.0000      -0.626841       -17.0572
 143   2.0000      -0.617560       -16.8047
 144   2.0000      -0.614222       -16.7138
 145   2.0000      -0.609671       -16.5900
 146   2.0000      -0.593384       -16.1468
 147   2.0000      -0.593177       -16.1412
 148   2.0000      -0.589977       -16.0541
 149   2.0000      -0.589081       -16.0297
 150   2.0000      -0.586357       -15.9556
 151   2.0000      -0.585308       -15.9270
 152   2.0000      -0.576128       -15.6772
 153   2.0000      -0.574080       -15.6215
 154   2.0000      -0.566014       -15.4020
 155   2.0000      -0.557690       -15.1755
 156   2.0000      -0.555331       -15.1113
 157   2.0000      -0.551294       -15.0015
 158   2.0000      -0.550738       -14.9863
 159   2.0000      -0.545469       -14.8430
 160   2.0000      -0.545029       -14.8310
 161   2.0000      -0.544593       -14.8191
 162   2.0000      -0.543280       -14.7834
 163   2.0000      -0.543178       -14.7806
 164   2.0000      -0.526716       -14.3327
 165   2.0000      -0.526241       -14.3197
 166   2.0000      -0.521288       -14.1850
 167   2.0000      -0.520101       -14.1527
 168   2.0000      -0.512916       -13.9572
 169   2.0000      -0.512341       -13.9415
 170   2.0000      -0.509358       -13.8603
 171   2.0000      -0.508825       -13.8458
 172   2.0000      -0.507680       -13.8147
 173   2.0000      -0.501211       -13.6386
 174   2.0000      -0.500421       -13.6172
 175   2.0000      -0.495286       -13.4774
 176   2.0000      -0.489058       -13.3079
 177   2.0000      -0.487872       -13.2757
 178   2.0000      -0.485290       -13.2054
 179   2.0000      -0.485061       -13.1992
 180   2.0000      -0.483904       -13.1677
 181   2.0000      -0.473331       -12.8800
 182   2.0000      -0.472332       -12.8528
 183   2.0000      -0.470602       -12.8057
 184   2.0000      -0.468004       -12.7350
 185   2.0000      -0.465103       -12.6561
 186   2.0000      -0.464754       -12.6466
 187   2.0000      -0.462500       -12.5853
 188   2.0000      -0.459352       -12.4996
 189   2.0000      -0.459018       -12.4905
 190   2.0000      -0.458815       -12.4850
 191   2.0000      -0.458024       -12.4635
 192   2.0000      -0.456090       -12.4108
 193   2.0000      -0.453864       -12.3503
 194   2.0000      -0.453202       -12.3323
 195   2.0000      -0.451246       -12.2790
 196   2.0000      -0.451159       -12.2767
 197   2.0000      -0.448757       -12.2113
 198   2.0000      -0.444922       -12.1069
 199   2.0000      -0.442553       -12.0425
 200   2.0000      -0.439325       -11.9546
 201   2.0000      -0.438269       -11.9259
 202   2.0000      -0.436547       -11.8791
 203   2.0000      -0.435652       -11.8547
 204   2.0000      -0.435526       -11.8513
 205   2.0000      -0.435306       -11.8453
 206   2.0000      -0.433344       -11.7919
 207   2.0000      -0.433096       -11.7851
 208   2.0000      -0.427129       -11.6228
 209   2.0000      -0.424521       -11.5518
 210   2.0000      -0.421030       -11.4568
 211   2.0000      -0.420388       -11.4393
 212   2.0000      -0.418314       -11.3829
 213   2.0000      -0.417385       -11.3576
 214   2.0000      -0.416430       -11.3316
 215   2.0000      -0.407443       -11.0871
 216   2.0000      -0.406192       -11.0531
 217   2.0000      -0.404335       -11.0025
 218   2.0000      -0.392258       -10.6739
 219   2.0000      -0.391431       -10.6514
 220   2.0000      -0.390379       -10.6227
 221   2.0000      -0.389807       -10.6072
 222   2.0000      -0.378464       -10.2985
 223   2.0000      -0.377264       -10.2659
 224   2.0000      -0.374503       -10.1908
 225   2.0000      -0.371303       -10.1037
 226   2.0000      -0.363255        -9.8847
 227   2.0000      -0.348362        -9.4794
 228   2.0000      -0.340549        -9.2668
 229   2.0000      -0.338873        -9.2212
 230   2.0000      -0.335237        -9.1223
 231   2.0000      -0.328572        -8.9409
 232   2.0000      -0.316983        -8.6255
 233   2.0000      -0.315755        -8.5921
 234   2.0000      -0.304552        -8.2873
 235   2.0000      -0.285532        -7.7697
 236   2.0000      -0.279904        -7.6166
 237   2.0000      -0.267730        -7.2853
 238   0.0000      -0.123753        -3.3675
 239   0.0000      -0.110048        -2.9946
 240   0.0000      -0.091494        -2.4897
 241   0.0000      -0.091282        -2.4839
 242   0.0000      -0.074784        -2.0350

MULLIKEN ATOMIC CHARGES
-----------------------
   0 C :   -0.034184
   1 C :    0.047970
   2 C :    0.049794
   3 C :   -0.027161
   4 C :    0.006750
   5 C :    0.013907
   6 C :    0.282871
   7 C :   -0.335180
   8 C :   -0.188734
   9 N :    0.167421
  10 C :   -0.188011
  11 N :    0.176241
  12 C :   -0.040504
  13 C :    0.261058
  14 C :   -0.298324
  15 C :   -0.159948
  16 N :    0.156225
  17 C :   -0.191888
  18 N :    0.167368
  19 C :    0.017629
  20 C :   -0.136993
  21 N :   -0.028378
  22 N :   -0.013102
  23 C :   -0.011998
  24 C :    0.034340
  25 C :    0.094942
  26 N :   -0.239833
  27 S :    0.550570
  28 N :   -0.265077
  29 C :    0.049830
  30 C :   -0.013579
  31 C :   -0.013031
  32 C :    0.048837
  33 C :   -0.071811
  34 C :   -0.074466
  35 N :    0.076087
  36 C :   -0.179162
  37 C :   -0.180641
  38 N :    0.075778
  39 C :    0.126978
  40 C :    0.127436
  41 C :   -0.013195
  42 N :   -0.014085
  43 N :   -0.027751
  44 C :   -0.137650
  45 C :    0.097589
  46 C :    0.037244
  47 N :   -0.265149
  48 S :    0.550221
  49 N :   -0.241647
  50 C :    0.018097
  51 C :   -0.041358
  52 C :    0.283325
  53 C :   -0.335880
  54 C :   -0.184602
  55 N :    0.173495
  56 C :   -0.188638
  57 N :    0.167150
  58 C :    0.013574
  59 C :    0.011089
  60 C :   -0.030464
  61 C :    0.049573
  62 C :    0.048072
  63 C :   -0.032050
  64 C :    0.259353
  65 C :   -0.299507
  66 C :   -0.191801
  67 N :    0.166818
  68 C :   -0.157824
  69 N :    0.155956
  70 H :    0.007356
  71 H :    0.007135
  72 H :    0.006551
  73 H :    0.010619
  74 H :    0.039067
  75 H :   -0.008073
  76 H :   -0.008388
  77 H :    0.025002
  78 H :    0.035367
  79 H :    0.021752
  80 H :    0.024159
  81 H :    0.022229
  82 H :    0.035531
  83 H :    0.039908
  84 H :    0.010854
  85 H :    0.007858
  86 H :    0.006245
  87 H :    0.006847
Sum of atomic charges:   -0.0000000

LOEWDIN ATOMIC CHARGES
----------------------
   0 C :    0.005970
   1 C :    0.003484
   2 C :    0.008068
   3 C :    0.005054
   4 C :   -0.005602
   5 C :   -0.013461
   6 C :    0.076755
   7 C :   -0.121985
   8 C :   -0.018139
   9 N :   -0.039315
  10 C :   -0.023847
  11 N :   -0.032369
  12 C :   -0.016003
  13 C :    0.078408
  14 C :   -0.109497
  15 C :   -0.012431
  16 N :   -0.049532
  17 C :   -0.016839
  18 N :   -0.039756
  19 C :    0.055506
  20 C :   -0.028022
  21 N :   -0.032733
  22 N :   -0.015558
  23 C :    0.018278
  24 C :   -0.047842
  25 C :   -0.052003
  26 N :   -0.262722
  27 S :    0.682673
  28 N :   -0.267985
  29 C :   -0.025516
  30 C :    0.004870
  31 C :    0.004799
  32 C :   -0.024576
  33 C :    0.000621
  34 C :    0.000641
  35 N :   -0.023360
  36 C :    0.003358
  37 C :    0.003035
  38 N :   -0.023529
  39 C :   -0.053977
  40 C :   -0.053878
  41 C :    0.018190
  42 N :   -0.016775
  43 N :   -0.033472
  44 C :   -0.027723
  45 C :   -0.052274
  46 C :   -0.047920
  47 N :   -0.268172
  48 S :    0.682871
  49 N :   -0.262832
  50 C :    0.055890
  51 C :   -0.015724
  52 C :    0.076780
  53 C :   -0.121806
  54 C :   -0.023538
  55 N :   -0.032547
  56 C :   -0.018234
  57 N :   -0.038904
  58 C :   -0.013452
  59 C :   -0.005414
  60 C :    0.005073
  61 C :    0.008057
  62 C :    0.003717
  63 C :    0.005998
  64 C :    0.078992
  65 C :   -0.109975
  66 C :   -0.016927
  67 N :   -0.039473
  68 C :   -0.011892
  69 N :   -0.049779
  70 H :    0.041964
  71 H :    0.038741
  72 H :    0.038673
  73 H :    0.042627
  74 H :    0.052719
  75 H :    0.032767
  76 H :    0.033015
  77 H :    0.038642
  78 H :    0.042571
  79 H :    0.036068
  80 H :    0.038595
  81 H :    0.036059
  82 H :    0.042614
  83 H :    0.052837
  84 H :    0.042783
  85 H :    0.039000
  86 H :    0.038614
  87 H :    0.041933

  Mayer bond orders larger than 0.100000
B(  0-C ,  1-C ) :   1.3777 B(  0-C ,  5-C ) :   1.3747 B(  0-C , 70-H ) :   0.9846
B(  1-C ,  2-C ) :   1.3720 B(  1-C , 71-H ) :   0.9853 B(  2-C ,  3-C ) :   1.3697
B(  2-C , 72-H ) :   0.9863 B(  3-C ,  4-C ) :   1.3797 B(  3-C , 73-H ) :   0.9864
B(  4-C ,  5-C ) :   1.3057 B(  4-C , 13-C ) :   1.0139 B(  5-C ,  6-C ) :   1.0090
B(  6-C ,  7-C ) :   1.6644 B(  6-C , 12-C ) :   1.0248 B(  7-C ,  8-C ) :   1.1457
B(  7-C , 10-C ) :   1.1335 B(  8-C ,  9-N ) :   2.9809 B( 10-C , 11-N ) :   2.9861
B( 12-C , 13-C ) :   0.9873 B( 12-C , 19-C ) :   1.7059 B( 13-C , 14-C ) :   1.6947
B( 14-C , 15-C ) :   1.1528 B( 14-C , 17-C ) :   1.1449 B( 15-C , 16-N ) :   2.9731
B( 17-C , 18-N ) :   2.9933 B( 19-C , 20-C ) :   1.0951 B( 19-C , 74-H ) :   0.9319
B( 20-C , 21-N ) :   1.6098 B( 20-C , 23-C ) :   0.1223 B( 20-C , 25-C ) :   1.0983
B( 21-N , 22-N ) :   1.2302 B( 22-N , 23-C ) :   1.6870 B( 23-C , 24-C ) :   1.1058
B( 23-C , 29-C ) :   1.0592 B( 24-C , 25-C ) :   1.1958 B( 24-C , 28-N ) :   1.5406
B( 25-C , 26-N ) :   1.5653 B( 26-N , 27-S ) :   1.2822 B( 26-N , 28-N ) :   0.1450
B( 27-S , 28-N ) :   1.2764 B( 29-C , 30-C ) :   1.4309 B( 29-C , 32-C ) :   0.1189
B( 29-C , 34-C ) :   1.1919 B( 30-C , 31-C ) :   1.2437 B( 30-C , 75-H ) :   0.9827
B( 31-C , 32-C ) :   1.4285 B( 31-C , 76-H ) :   0.9853 B( 32-C , 33-C ) :   1.1950
B( 32-C , 41-C ) :   1.0572 B( 33-C , 34-C ) :   1.2491 B( 33-C , 38-N ) :   1.4894
B( 34-C , 35-N ) :   1.4897 B( 35-N , 36-C ) :   1.7061 B( 36-C , 37-C ) :   1.1486
B( 36-C , 40-C ) :   1.0907 B( 37-C , 38-N ) :   1.7056 B( 37-C , 39-C ) :   1.0909
B( 39-C , 77-H ) :   0.9385 B( 39-C , 78-H ) :   0.9415 B( 39-C , 79-H ) :   0.9427
B( 40-C , 80-H ) :   0.9381 B( 40-C , 81-H ) :   0.9430 B( 40-C , 82-H ) :   0.9415
B( 41-C , 42-N ) :   1.6847 B( 41-C , 44-C ) :   0.1230 B( 41-C , 46-C ) :   1.1082
B( 42-N , 43-N ) :   1.2303 B( 43-N , 44-C ) :   1.6136 B( 44-C , 45-C ) :   1.0987
B( 44-C , 50-C ) :   1.0859 B( 45-C , 46-C ) :   1.1968 B( 45-C , 49-N ) :   1.5638
B( 46-C , 47-N ) :   1.5407 B( 47-N , 48-S ) :   1.2769 B( 47-N , 49-N ) :   0.1450
B( 48-S , 49-N ) :   1.2825 B( 50-C , 51-C ) :   1.7092 B( 50-C , 83-H ) :   0.9334
B( 51-C , 52-C ) :   1.0233 B( 51-C , 64-C ) :   0.9874 B( 52-C , 53-C ) :   1.6652
B( 52-C , 58-C ) :   1.0084 B( 53-C , 54-C ) :   1.1321 B( 53-C , 56-C ) :   1.1452
B( 54-C , 55-N ) :   2.9851 B( 56-C , 57-N ) :   2.9806 B( 58-C , 59-C ) :   1.3031
B( 58-C , 63-C ) :   1.3773 B( 59-C , 60-C ) :   1.3786 B( 59-C , 64-C ) :   1.0159
B( 60-C , 61-C ) :   1.3712 B( 60-C , 84-H ) :   0.9860 B( 61-C , 62-C ) :   1.3702
B( 61-C , 85-H ) :   0.9866 B( 62-C , 63-C ) :   1.3771 B( 62-C , 86-H ) :   0.9858
B( 63-C , 87-H ) :   0.9841 B( 64-C , 65-C ) :   1.6940 B( 65-C , 66-C ) :   1.1447
B( 65-C , 68-C ) :   1.1551 B( 66-C , 67-N ) :   2.9936 B( 68-C , 69-N ) :   2.9699

-----------------------------------------------------------------------------
         ABSORPTION SPECTRUM VIA TRANSITION ELECTRIC DIPOLE MOMENTS
-----------------------------------------------------------------------------
State   Energy  Wavelength   fosc         T2         TX        TY        TZ
        (cm-1)    (nm)                  (au**2)     (au)      (au)      (au)
-----------------------------------------------------------------------------
   0   10602.0    943.2   0.005414400   0.16813   0.37131   0.09891  -0.14308
   1   11551.9    865.7   0.004340248   0.12369  -0.01652   0.33747   0.09761
   2   18124.5    551.7   1.125001936  20.43442  -0.31317  -4.41309  -0.92789
   3   18726.5    534.0   0.004546749   0.07993   0.18852   0.03767  -0.20730
   4   20247.7    493.9   0.007292606   0.11857  -0.01475  -0.33767  -0.06582
   5   21231.2    471.0   0.064164896   0.99494   0.50130  -0.30149   0.80793
   6   22115.2    452.2   0.015288337   0.22759   0.16086  -0.26836   0.36013
   7   22352.9    447.4   0.014150078   0.20840  -0.10709  -0.38776  -0.21582
   8   23075.6    433.4   0.003067028   0.04376  -0.09145   0.18788  -0.00972
   9   23260.4    429.9   0.006187538   0.08757  -0.27716   0.01929  -0.10191
  10   25016.3    399.7   0.025260786   0.33243  -0.08126   0.43606   0.36834
  11   25073.8    398.8   0.082988100   1.08961   0.11290   1.03528   0.07114
  12   25322.9    394.9   0.030820142   0.40068  -0.48876  -0.04785   0.39938
  13   26245.4    381.0   0.000871910   0.01094   0.07688   0.00265   0.07085
  14   26693.1    374.6   0.288013070   3.55213   0.17793   1.84182   0.35803
  15   26796.6    373.2   0.057872171   0.71099   0.51632  -0.14145   0.65146
  16   27190.0    367.8   0.012567240   0.15216  -0.02676  -0.13507   0.36497
  17   27426.3    364.6   0.012248235   0.14702  -0.00597  -0.36425  -0.11962
  18   28819.6    347.0   0.009436933   0.10780  -0.00354  -0.32001  -0.07334
  19   29215.2    342.3   0.002025721   0.02283   0.02182   0.12825  -0.07683
  20   29277.5    341.6   0.240846102   2.70820  -0.41000  -0.26353   1.57183
  21   29458.3    339.5   0.019030626   0.21268   0.31244   0.03488   0.33741
  22   29537.4    338.6   0.007274118   0.08107   0.04217  -0.23158   0.16021
  23   30174.5    331.4   0.060309051   0.65799  -0.43098  -0.11673   0.67721
  24   30578.1    327.0   0.196720597   2.11795   0.08914   1.42837   0.26414
  25   30714.5    325.6   0.011596630   0.12430   0.21908  -0.22941   0.15385
  26   30858.4    324.1   0.004553791   0.04858   0.03660   0.21310   0.04279
  27   31348.7    319.0   0.026950236   0.28302  -0.02683   0.52280   0.09475
  28   31650.8    315.9   0.053364799   0.55507   0.04804   0.73700   0.09793
  29   32062.5    311.9   0.003212782   0.03299  -0.14630   0.10720   0.00961
  30   32625.7    306.5   0.024220359   0.24440  -0.16952   0.40864  -0.22062
  31   32717.6    305.6   0.085438049   0.85970  -0.36769  -0.55382  -0.64636
  32   32879.5    304.1   0.825654081   8.26701  -0.32725  -2.79630  -0.58363
  33   33069.1    302.4   0.302189831   3.00838   1.04105  -0.62695   1.23755
  34   33735.5    296.4   0.004201664   0.04100   0.07162   0.12337   0.14371
  35   34118.1    293.1   0.118252343   1.14104  -0.35785  -0.17839   0.99054
  36   34380.4    290.9   0.022829053   0.21860   0.06045  -0.06157   0.45952
  37   34483.4    290.0   0.001130083   0.01079  -0.03143  -0.09199   0.03659
  38   34930.7    286.3   0.053262865   0.50199   0.02472   0.69431   0.13898
  39   35495.5    281.7   0.000697235   0.00647   0.00104  -0.07740  -0.02178
  40   35819.5    279.2   0.046825743   0.43037   0.34131   0.53969  -0.15036
  41   35826.8    279.1   0.037598813   0.34550  -0.21776   0.34225   0.42538
  42   35865.5    278.8   0.005554093   0.05098  -0.10588   0.08442  -0.18068
  43   36049.1    277.4   0.007446153   0.06800   0.11233  -0.23532  -0.00227
  44   36268.0    275.7   0.002541652   0.02307   0.02430  -0.14769   0.02585
  45   36348.0    275.1   0.007128835   0.06457  -0.09427  -0.02007   0.23511
  46   36425.4    274.5   0.000884917   0.00800   0.02265   0.05820  -0.06402
  47   36921.4    270.8   0.413464216   3.68668  -1.10398  -0.27871   1.54604
  48   37037.8    270.0   0.003361866   0.02988   0.07024   0.14212  -0.06892
  49   37191.3    268.9   0.059169810   0.52376  -0.06239   0.69371   0.19657
  50   37393.9    267.4   0.404370943   3.56004  -0.87640  -0.28853   1.64582
  51   37481.7    266.8   0.330913328   2.90650   0.97817   0.16729  -1.38625
  52   37646.2    265.6   0.003625760   0.03171   0.01935  -0.17085  -0.04628
  53   37771.6    264.7   0.099233907   0.86491  -0.42936  -0.09957   0.81893
  54   37942.7    263.6   0.072375587   0.62797  -0.48709  -0.54015   0.31457
  55   38029.6    263.0   0.072366775   0.62646   0.47078  -0.37031  -0.51740
  56   38561.6    259.3   0.000140644   0.00120   0.01103   0.03193   0.00771
  57   38790.3    257.8   0.000227346   0.00193   0.01197   0.04224   0.00137
  58   39057.5    256.0   0.015374606   0.12959  -0.02904  -0.34504  -0.09846
  59   39143.5    255.5   0.022442593   0.18875   0.08982   0.08646  -0.41618
  60   39187.2    255.2   0.013242113   0.11125  -0.32590   0.05901  -0.03941
  61   39531.1    253.0   0.031061351   0.25868  -0.00385  -0.11231   0.49603
  62   39632.4    252.3   0.000144282   0.00120  -0.02615  -0.02138  -0.00759
  63   39665.9    252.1   0.007261414   0.06027   0.08178   0.04011  -0.22797
  64   40048.5    249.7   0.002790504   0.02294   0.00730  -0.14648  -0.03782
  65   40134.8    249.2   0.003192060   0.02618  -0.11653  -0.00620  -0.11210
  66   40176.2    248.9   0.001047169   0.00858  -0.06395  -0.06063  -0.02856
  67   40225.6    248.6   0.000630029   0.00516   0.02347  -0.06786   0.00098

FINAL SINGLE POINT ENERGY     -3693.831085629992

DIPOLE MOMENT
-------------
                                X             Y             Z
Electronic contribution:     27.46305       4.54001     -32.68926
Nuclear contribution   :    -29.54810      -4.50246      33.25278
                        -----------------------------------------
Total Dipole Moment    :     -2.08505       0.03755       0.56353
                        -----------------------------------------
Magnitude (a.u.)       :      2.16018
Magnitude (Debye)      :      5.49075

Rotational constants in cm-1:     0.002268     0.000391     0.000351
Rotational constants in MHz :    67.996790    11.733709    10.512002

                             ****ORCA TERMINATED NORMALLY****
TOTAL RUN TIME: 0 days 0 hours 9 minutes 8 seconds 598 msec
