                         Program Version 4.2.0 -  RELEASE  -
|  1> # ORCA input file
|  2> # SCF done       -169.229187653025          0.000528864339
|  3> ! CAM-B3LYP def2-SVP def2/J RIJCOSX Grid4 TightSCF
|  4> %maxcore 5000
|  5> %tddft
|  6>     Mode sTDDFT
|  7>     Ethresh 5.0
|  8>     maxcore 5000
|  9> end
| 10>
| 11> %pal
| 12>   nprocs 6
| 13>   end
| 14> * xyz 0 1
| 15>    C       -1.85451        -1.02700        -7.51281
| 16>    C       -0.74149        -1.46165        -8.21777
| 17>    C       -0.34011        -2.78839        -8.17235
| 18>    C       -1.04439        -3.72065        -7.42479
| 19>    C       -2.15519        -3.29785        -6.71384
| 20>    C       -2.56223        -1.94518        -6.75366
| 21>    C       -3.74074        -1.78409        -5.91021
| 22>    C       -4.45523        -0.62452        -5.75753
| 23>    C       -4.14717         0.58928        -6.40796
| 24>    N       -3.95894         1.61207        -6.89439
| 25>    C       -5.60874        -0.45517        -4.96359
| 26>    N       -6.55127        -0.22421        -4.34812
| 27>    C       -3.97645        -3.06892        -5.26072
| 28>    C       -3.09728        -4.03773        -5.88866
| 29>    C       -3.22819        -5.40510        -5.85648
| 30>    C       -4.36532        -6.08567        -5.37779
| 31>    N       -5.29396        -6.69673        -5.09039
| 32>    C       -2.29395        -6.30089        -6.41013
| 33>    N       -1.54516        -7.08332        -6.79343
| 34>    C       -4.83384        -3.24776        -4.20445
| 35>    C       -4.94379        -4.32161        -3.27480
| 36>    C       -6.22945        -4.62891        -2.81788
| 37>    C       -6.48761        -5.71278        -2.00360
| 38>    C       -5.46471        -6.51705        -1.49903
| 39>    C       -4.13970        -6.29430        -1.97572
| 40>    C       -3.07207        -7.19142        -1.84312
| 41>   Si       -1.63067        -6.12237        -2.04974
| 42>    C       -2.51204        -4.99167        -3.16894
| 43>    C       -3.85624        -5.13230        -2.81958
| 44>    C       -5.80834        -7.52786        -0.54831
| 45>    C       -5.12370        -7.89993         0.57437
| 46>    C       -5.52077        -8.91945         1.48277
| 47>    C       -4.72257        -9.04820         2.57494
| 48>    C       -3.65614        -8.11936         2.61842
| 49>    S       -3.68845        -7.08978         1.20046
| 50>    C       -2.69359        -7.97801         3.59522
| 51>    C       -2.51584        -8.75781         4.76210
| 52>    C       -1.46165        -8.37070         5.52742
| 53>    C       -0.75179        -7.24201         5.03343
| 54>    S       -1.47984        -6.71588         3.51709
| 55>    C        0.38292        -6.71853         5.58843
| 56>    C        1.14999        -5.59426         5.15515
| 57>    C        2.54136        -5.67741         5.24157
| 58>    C        3.36509        -4.70059         4.72210
| 59>    C        2.86942        -3.51798         4.16191
| 60>    C        1.45014        -3.35946         4.07488
| 61>    C        0.76794        -2.25538         3.56127
| 62>   Si       -0.97022        -2.78678         3.48720
| 63>    C       -0.75377        -3.99482         4.81301
| 64>    C        0.58215        -4.38480         4.65689
| 65>    C        3.83144        -2.54351         3.77164
| 66>    C        3.76922        -1.17218         3.78032
| 67>    C        4.68139        -0.31212         3.03459
| 68>    C        5.84195        -0.67184         2.40029
| 69>    C        6.41732        -1.95954         2.38059
| 70>    N        6.96105        -2.96941         2.30898
| 71>    C        6.66143         0.22109         1.67749
| 72>    N        7.37581         0.88287         1.06913
| 73>    C        4.11119         1.02982         3.05488
| 74>    C        2.95447         1.02075         3.86662
| 75>    C        2.20930         2.17451         4.04426
| 76>    C        2.62117         3.33574         3.40711
| 77>    C        3.76028         3.34868         2.61621
| 78>    C        4.51667         2.20009         2.43347
| 79>    C        2.79681        -0.31212         4.42745
| 80>    C        1.99229        -0.64088         5.49228
| 81>    C        0.99678         0.20313         6.01930
| 82>    N        0.13349         0.82205         6.45697
| 83>    C        2.13844        -1.80740         6.26873
| 84>    N        2.26460        -2.68925         6.99313
| 85>    H       -2.15051         0.00771        -7.56170
| 86>    H       -0.18161        -0.75323        -8.80898
| 87>    H        0.53119        -3.10333        -8.72617
| 88>    H       -0.72212        -4.74873        -7.39681
| 89>    H       -5.55270        -2.45528        -4.03892
| 90>    H       -7.05643        -4.03039        -3.17154
| 91>    H       -7.50573        -5.91682        -1.70635
| 92>    H       -3.18411        -8.08523        -1.25256
| 93>    H       -2.15475        -4.08810        -3.63785
| 94>    H       -6.78520        -7.98064        -0.67209
| 95>    H       -6.38281        -9.53132         1.28388
| 96>    H       -4.87455        -9.77374         3.35342
| 97>    H       -3.16295        -9.58355         4.99647
| 98>    H       -1.16944        -8.84834         6.44586
| 99>    H        0.81439        -7.29850         6.39615
|100>    H        2.98384        -6.55722         5.68518
|101>    H        4.43569        -4.81880         4.80626
|102>    H        1.27868        -1.52372         2.95491
|103>    H       -1.47004        -4.67170         5.24748
|104>    H        4.76039        -2.97091         3.41582
|105>    H        1.32202         2.17703         4.65610
|106>    H        2.04564         4.24037         3.53160
|107>    H        4.06584         4.26410         2.13301
|108>    H        5.39888         2.23105         1.81595
|109> *
|110>
|111>                          ****END OF INPUT****

CARTESIAN COORDINATES (ANGSTROEM)
---------------------------------
  C     -1.854510   -1.027000   -7.512810
  C     -0.741490   -1.461650   -8.217770
  C     -0.340110   -2.788390   -8.172350
  C     -1.044390   -3.720650   -7.424790
  C     -2.155190   -3.297850   -6.713840
  C     -2.562230   -1.945180   -6.753660
  C     -3.740740   -1.784090   -5.910210
  C     -4.455230   -0.624520   -5.757530
  C     -4.147170    0.589280   -6.407960
  N     -3.958940    1.612070   -6.894390
  C     -5.608740   -0.455170   -4.963590
  N     -6.551270   -0.224210   -4.348120
  C     -3.976450   -3.068920   -5.260720
  C     -3.097280   -4.037730   -5.888660
  C     -3.228190   -5.405100   -5.856480
  C     -4.365320   -6.085670   -5.377790
  N     -5.293960   -6.696730   -5.090390
  C     -2.293950   -6.300890   -6.410130
  N     -1.545160   -7.083320   -6.793430
  C     -4.833840   -3.247760   -4.204450
  C     -4.943790   -4.321610   -3.274800
  C     -6.229450   -4.628910   -2.817880
  C     -6.487610   -5.712780   -2.003600
  C     -5.464710   -6.517050   -1.499030
  C     -4.139700   -6.294300   -1.975720
  C     -3.072070   -7.191420   -1.843120
  Si    -1.630670   -6.122370   -2.049740
  C     -2.512040   -4.991670   -3.168940
  C     -3.856240   -5.132300   -2.819580
  C     -5.808340   -7.527860   -0.548310
  C     -5.123700   -7.899930    0.574370
  C     -5.520770   -8.919450    1.482770
  C     -4.722570   -9.048200    2.574940
  C     -3.656140   -8.119360    2.618420
  S     -3.688450   -7.089780    1.200460
  C     -2.693590   -7.978010    3.595220
  C     -2.515840   -8.757810    4.762100
  C     -1.461650   -8.370700    5.527420
  C     -0.751790   -7.242010    5.033430
  S     -1.479840   -6.715880    3.517090
  C      0.382920   -6.718530    5.588430
  C      1.149990   -5.594260    5.155150
  C      2.541360   -5.677410    5.241570
  C      3.365090   -4.700590    4.722100
  C      2.869420   -3.517980    4.161910
  C      1.450140   -3.359460    4.074880
  C      0.767940   -2.255380    3.561270
  Si    -0.970220   -2.786780    3.487200
  C     -0.753770   -3.994820    4.813010
  C      0.582150   -4.384800    4.656890
  C      3.831440   -2.543510    3.771640
  C      3.769220   -1.172180    3.780320
  C      4.681390   -0.312120    3.034590
  C      5.841950   -0.671840    2.400290
  C      6.417320   -1.959540    2.380590
  N      6.961050   -2.969410    2.308980
  C      6.661430    0.221090    1.677490
  N      7.375810    0.882870    1.069130
  C      4.111190    1.029820    3.054880
  C      2.954470    1.020750    3.866620
  C      2.209300    2.174510    4.044260
  C      2.621170    3.335740    3.407110
  C      3.760280    3.348680    2.616210
  C      4.516670    2.200090    2.433470
  C      2.796810   -0.312120    4.427450
  C      1.992290   -0.640880    5.492280
  C      0.996780    0.203130    6.019300
  N      0.133490    0.822050    6.456970
  C      2.138440   -1.807400    6.268730
  N      2.264600   -2.689250    6.993130
  H     -2.150510    0.007710   -7.561700
  H     -0.181610   -0.753230   -8.808980
  H      0.531190   -3.103330   -8.726170
  H     -0.722120   -4.748730   -7.396810
  H     -5.552700   -2.455280   -4.038920
  H     -7.056430   -4.030390   -3.171540
  H     -7.505730   -5.916820   -1.706350
  H     -3.184110   -8.085230   -1.252560
  H     -2.154750   -4.088100   -3.637850
  H     -6.785200   -7.980640   -0.672090
  H     -6.382810   -9.531320    1.283880
  H     -4.874550   -9.773740    3.353420
  H     -3.162950   -9.583550    4.996470
  H     -1.169440   -8.848340    6.445860
  H      0.814390   -7.298500    6.396150
  H      2.983840   -6.557220    5.685180
  H      4.435690   -4.818800    4.806260
  H      1.278680   -1.523720    2.954910
  H     -1.470040   -4.671700    5.247480
  H      4.760390   -2.970910    3.415820
  H      1.322020    2.177030    4.656100
  H      2.045640    4.240370    3.531600
  H      4.065840    4.264100    2.133010
  H      5.398880    2.231050    1.815950

 Total Charge           Charge          ....    0
 Multiplicity           Mult            ....    1
 Number of Electrons    NEL             ....  488
 Basis Dimension        Dim             .... 1116

ORBITAL ENERGIES
----------------

  NO   OCC          E(Eh)            E(eV)
   0   2.0000     -88.966940     -2420.9135
   1   2.0000     -88.966744     -2420.9082
   2   2.0000     -66.203830     -1801.4978
   3   2.0000     -66.203288     -1801.4831
   4   2.0000     -14.421161      -392.4198
   5   2.0000     -14.420540      -392.4028
   6   2.0000     -14.418077      -392.3358
   7   2.0000     -14.417321      -392.3153
   8   2.0000     -14.417286      -392.3143
   9   2.0000     -14.416608      -392.2958
  10   2.0000     -14.415129      -392.2556
  11   2.0000     -14.414146      -392.2289
  12   2.0000     -10.347366      -281.5661
  13   2.0000     -10.346574      -281.5446
  14   2.0000     -10.345518      -281.5158
  15   2.0000     -10.344772      -281.4956
  16   2.0000     -10.344543      -281.4893
  17   2.0000     -10.343993      -281.4744
  18   2.0000     -10.336499      -281.2704
  19   2.0000     -10.335454      -281.2420
  20   2.0000     -10.335389      -281.2402
  21   2.0000     -10.335269      -281.2370
  22   2.0000     -10.334815      -281.2246
  23   2.0000     -10.334311      -281.2109
  24   2.0000     -10.323675      -280.9215
  25   2.0000     -10.323111      -280.9061
  26   2.0000     -10.320943      -280.8471
  27   2.0000     -10.320206      -280.8271
  28   2.0000     -10.320193      -280.8267
  29   2.0000     -10.319523      -280.8085
  30   2.0000     -10.317735      -280.7598
  31   2.0000     -10.317711      -280.7592
  32   2.0000     -10.317166      -280.7444
  33   2.0000     -10.317083      -280.7421
  34   2.0000     -10.316860      -280.7360
  35   2.0000     -10.316796      -280.7343
  36   2.0000     -10.312242      -280.6104
  37   2.0000     -10.312118      -280.6070
  38   2.0000     -10.311878      -280.6005
  39   2.0000     -10.310838      -280.5722
  40   2.0000     -10.310582      -280.5652
  41   2.0000     -10.310404      -280.5603
  42   2.0000     -10.309117      -280.5253
  43   2.0000     -10.308952      -280.5208
  44   2.0000     -10.308101      -280.4977
  45   2.0000     -10.308029      -280.4957
  46   2.0000     -10.307792      -280.4893
  47   2.0000     -10.307496      -280.4812
  48   2.0000     -10.307175      -280.4725
  49   2.0000     -10.306648      -280.4582
  50   2.0000     -10.306631      -280.4577
  51   2.0000     -10.305980      -280.4400
  52   2.0000     -10.303681      -280.3774
  53   2.0000     -10.303335      -280.3680
  54   2.0000     -10.301680      -280.3230
  55   2.0000     -10.301074      -280.3065
  56   2.0000     -10.296737      -280.1885
  57   2.0000     -10.296116      -280.1716
  58   2.0000     -10.295973      -280.1677
  59   2.0000     -10.295615      -280.1579
  60   2.0000     -10.295306      -280.1495
  61   2.0000     -10.294812      -280.1361
  62   2.0000     -10.294572      -280.1296
  63   2.0000     -10.294461      -280.1265
  64   2.0000     -10.294100      -280.1167
  65   2.0000     -10.293616      -280.1035
  66   2.0000     -10.270789      -279.4824
  67   2.0000     -10.270580      -279.4767
  68   2.0000     -10.261362      -279.2259
  69   2.0000     -10.260758      -279.2094
  70   2.0000      -8.062732      -219.3981
  71   2.0000      -8.062616      -219.3949
  72   2.0000      -6.032539      -164.1537
  73   2.0000      -6.032417      -164.1504
  74   2.0000      -6.028422      -164.0417
  75   2.0000      -6.028327      -164.0391
  76   2.0000      -6.023548      -163.9091
  77   2.0000      -6.023399      -163.9050
  78   2.0000      -5.374540      -146.2487
  79   2.0000      -5.374034      -146.2349
  80   2.0000      -3.741656      -101.8156
  81   2.0000      -3.741150      -101.8019
  82   2.0000      -3.733495      -101.5936
  83   2.0000      -3.733011      -101.5804
  84   2.0000      -3.732137      -101.5566
  85   2.0000      -3.731587      -101.5417
  86   2.0000      -1.031716       -28.0744
  87   2.0000      -1.030887       -28.0519
  88   2.0000      -1.018391       -27.7118
  89   2.0000      -1.015858       -27.6429
  90   2.0000      -1.015120       -27.6228
  91   2.0000      -1.004343       -27.3296
  92   2.0000      -1.003556       -27.3082
  93   2.0000      -1.000647       -27.2290
  94   2.0000      -0.997499       -27.1433
  95   2.0000      -0.996936       -27.1280
  96   2.0000      -0.996360       -27.1123
  97   2.0000      -0.995141       -27.0792
  98   2.0000      -0.987730       -26.8775
  99   2.0000      -0.984564       -26.7913
 100   2.0000      -0.954885       -25.9838
 101   2.0000      -0.954026       -25.9604
 102   2.0000      -0.936123       -25.4732
 103   2.0000      -0.935295       -25.4507
 104   2.0000      -0.928605       -25.2686
 105   2.0000      -0.921330       -25.0707
 106   2.0000      -0.910960       -24.7885
 107   2.0000      -0.909409       -24.7463
 108   2.0000      -0.894865       -24.3505
 109   2.0000      -0.890619       -24.2350
 110   2.0000      -0.889753       -24.2114
 111   2.0000      -0.875500       -23.8236
 112   2.0000      -0.869465       -23.6594
 113   2.0000      -0.861945       -23.4547
 114   2.0000      -0.861161       -23.4334
 115   2.0000      -0.854144       -23.2424
 116   2.0000      -0.846360       -23.0306
 117   2.0000      -0.840957       -22.8836
 118   2.0000      -0.814283       -22.1578
 119   2.0000      -0.803162       -21.8551
 120   2.0000      -0.802617       -21.8403
 121   2.0000      -0.791398       -21.5350
 122   2.0000      -0.787596       -21.4316
 123   2.0000      -0.786799       -21.4099
 124   2.0000      -0.769701       -20.9446
 125   2.0000      -0.764152       -20.7936
 126   2.0000      -0.763631       -20.7795
 127   2.0000      -0.742220       -20.1968
 128   2.0000      -0.720056       -19.5937
 129   2.0000      -0.712469       -19.3873
 130   2.0000      -0.711594       -19.3634
 131   2.0000      -0.710212       -19.3259
 132   2.0000      -0.708566       -19.2811
 133   2.0000      -0.697482       -18.9795
 134   2.0000      -0.695720       -18.9315
 135   2.0000      -0.673229       -18.3195
 136   2.0000      -0.669280       -18.2120
 137   2.0000      -0.667522       -18.1642
 138   2.0000      -0.666475       -18.1357
 139   2.0000      -0.660516       -17.9736
 140   2.0000      -0.659892       -17.9566
 141   2.0000      -0.659318       -17.9410
 142   2.0000      -0.657542       -17.8926
 143   2.0000      -0.647677       -17.6242
 144   2.0000      -0.642648       -17.4873
 145   2.0000      -0.637175       -17.3384
 146   2.0000      -0.636268       -17.3137
 147   2.0000      -0.623800       -16.9744
 148   2.0000      -0.623053       -16.9541
 149   2.0000      -0.606986       -16.5169
 150   2.0000      -0.605647       -16.4805
 151   2.0000      -0.597161       -16.2496
 152   2.0000      -0.588819       -16.0226
 153   2.0000      -0.581377       -15.8201
 154   2.0000      -0.580531       -15.7971
 155   2.0000      -0.579735       -15.7754
 156   2.0000      -0.567680       -15.4473
 157   2.0000      -0.566791       -15.4232
 158   2.0000      -0.564860       -15.3706
 159   2.0000      -0.549499       -14.9526
 160   2.0000      -0.544941       -14.8286
 161   2.0000      -0.541784       -14.7427
 162   2.0000      -0.539571       -14.6825
 163   2.0000      -0.536493       -14.5987
 164   2.0000      -0.536136       -14.5890
 165   2.0000      -0.534226       -14.5370
 166   2.0000      -0.533455       -14.5160
 167   2.0000      -0.529651       -14.4125
 168   2.0000      -0.525622       -14.3029
 169   2.0000      -0.524990       -14.2857
 170   2.0000      -0.524050       -14.2601
 171   2.0000      -0.518718       -14.1150
 172   2.0000      -0.517836       -14.0910
 173   2.0000      -0.515344       -14.0232
 174   2.0000      -0.514191       -13.9918
 175   2.0000      -0.512792       -13.9538
 176   2.0000      -0.509953       -13.8765
 177   2.0000      -0.509430       -13.8623
 178   2.0000      -0.508245       -13.8300
 179   2.0000      -0.503209       -13.6930
 180   2.0000      -0.496958       -13.5229
 181   2.0000      -0.494990       -13.4694
 182   2.0000      -0.494094       -13.4450
 183   2.0000      -0.492199       -13.3934
 184   2.0000      -0.485932       -13.2229
 185   2.0000      -0.484091       -13.1728
 186   2.0000      -0.477800       -13.0016
 187   2.0000      -0.474590       -12.9143
 188   2.0000      -0.468193       -12.7402
 189   2.0000      -0.465876       -12.6771
 190   2.0000      -0.462673       -12.5900
 191   2.0000      -0.461916       -12.5694
 192   2.0000      -0.461398       -12.5553
 193   2.0000      -0.457709       -12.4549
 194   2.0000      -0.455002       -12.3812
 195   2.0000      -0.452843       -12.3225
 196   2.0000      -0.452295       -12.3076
 197   2.0000      -0.451737       -12.2924
 198   2.0000      -0.450995       -12.2722
 199   2.0000      -0.450152       -12.2493
 200   2.0000      -0.446280       -12.1439
 201   2.0000      -0.446073       -12.1383
 202   2.0000      -0.445574       -12.1247
 203   2.0000      -0.443758       -12.0753
 204   2.0000      -0.442903       -12.0520
 205   2.0000      -0.440167       -11.9776
 206   2.0000      -0.438790       -11.9401
 207   2.0000      -0.436412       -11.8754
 208   2.0000      -0.430789       -11.7224
 209   2.0000      -0.430118       -11.7041
 210   2.0000      -0.429523       -11.6879
 211   2.0000      -0.427516       -11.6333
 212   2.0000      -0.426542       -11.6068
 213   2.0000      -0.424117       -11.5408
 214   2.0000      -0.423337       -11.5196
 215   2.0000      -0.422688       -11.5019
 216   2.0000      -0.421562       -11.4713
 217   2.0000      -0.412101       -11.2138
 218   2.0000      -0.411439       -11.1958
 219   2.0000      -0.408944       -11.1279
 220   2.0000      -0.408313       -11.1108
 221   2.0000      -0.407652       -11.0928
 222   2.0000      -0.402841       -10.9619
 223   2.0000      -0.402184       -10.9440
 224   2.0000      -0.394870       -10.7450
 225   2.0000      -0.388183       -10.5630
 226   2.0000      -0.383355       -10.4316
 227   2.0000      -0.379145       -10.3170
 228   2.0000      -0.378310       -10.2943
 229   2.0000      -0.373331       -10.1589
 230   2.0000      -0.359196        -9.7742
 231   2.0000      -0.351070        -9.5531
 232   2.0000      -0.342088        -9.3087
 233   2.0000      -0.335901        -9.1403
 234   2.0000      -0.330489        -8.9930
 235   2.0000      -0.329365        -8.9625
 236   2.0000      -0.323168        -8.7938
 237   2.0000      -0.295830        -8.0499
 238   2.0000      -0.292414        -7.9570
 239   2.0000      -0.290832        -7.9139
 240   2.0000      -0.289863        -7.8876
 241   2.0000      -0.270722        -7.3667
 242   2.0000      -0.260687        -7.0937
 243   2.0000      -0.236223        -6.4280
 244   0.0000      -0.133090        -3.6216
 245   0.0000      -0.120635        -3.2827
 246   0.0000      -0.089964        -2.4480
 247   0.0000      -0.085654        -2.3308
 248   0.0000      -0.083249        -2.2653

MULLIKEN ATOMIC CHARGES
-----------------------
   0 C :   -0.036689
   1 C :    0.045558
   2 C :    0.048758
   3 C :   -0.042379
   4 C :    0.019301
   5 C :    0.007906
   6 C :    0.304531
   7 C :   -0.352113
   8 C :   -0.189347
   9 N :    0.158761
  10 C :   -0.176283
  11 N :    0.149030
  12 C :   -0.052199
  13 C :    0.218105
  14 C :   -0.320792
  15 C :   -0.184601
  16 N :    0.170263
  17 C :   -0.197943
  18 N :    0.150877
  19 C :   -0.015768
  20 C :    0.018763
  21 C :    0.046829
  22 C :   -0.011566
  23 C :    0.125404
  24 C :   -0.039465
  25 C :   -0.157587
  26 Si:    0.367578
  27 C :   -0.161047
  28 C :    0.005875
  29 C :   -0.067771
  30 C :   -0.024591
  31 C :    0.039409
  32 C :    0.037394
  33 C :   -0.055464
  34 S :    0.111887
  35 C :   -0.057638
  36 C :    0.039427
  37 C :    0.041407
  38 C :   -0.024620
  39 S :    0.111499
  40 C :   -0.070613
  41 C :    0.129568
  42 C :   -0.011822
  43 C :    0.042494
  44 C :    0.022369
  45 C :    0.006088
  46 C :   -0.161870
  47 Si:    0.367143
  48 C :   -0.157173
  49 C :   -0.040406
  50 C :   -0.018089
  51 C :   -0.045226
  52 C :    0.305344
  53 C :   -0.355094
  54 C :   -0.176316
  55 N :    0.148148
  56 C :   -0.189231
  57 N :    0.158584
  58 C :    0.009648
  59 C :    0.018228
  60 C :   -0.044134
  61 C :    0.048500
  62 C :    0.047573
  63 C :   -0.038399
  64 C :    0.213731
  65 C :   -0.321156
  66 C :   -0.196743
  67 N :    0.151062
  68 C :   -0.188069
  69 N :    0.169689
  70 H :    0.004075
  71 H :    0.002686
  72 H :    0.002544
  73 H :    0.000814
  74 H :    0.017673
  75 H :    0.006409
  76 H :   -0.012824
  77 H :    0.024516
  78 H :    0.012701
  79 H :    0.009541
  80 H :   -0.000347
  81 H :   -0.004197
  82 H :   -0.005238
  83 H :   -0.001293
  84 H :    0.008740
  85 H :   -0.012993
  86 H :    0.007989
  87 H :    0.012702
  88 H :    0.025287
  89 H :    0.017107
  90 H :    0.001126
  91 H :    0.002657
  92 H :    0.001227
  93 H :    0.004571
Sum of atomic charges:   -0.0000000

LOEWDIN ATOMIC CHARGES
----------------------
   0 C :    0.004586
   1 C :   -0.002293
   2 C :    0.004100
   3 C :   -0.003225
   4 C :   -0.008592
   5 C :   -0.017274
   6 C :    0.081573
   7 C :   -0.134487
   8 C :   -0.018258
   9 N :   -0.048671
  10 C :   -0.020881
  11 N :   -0.049150
  12 C :   -0.066505
  13 C :    0.056318
  14 C :   -0.121860
  15 C :   -0.010453
  16 N :   -0.052349
  17 C :   -0.017557
  18 N :   -0.054724
  19 C :    0.057297
  20 C :   -0.051653
  21 C :    0.055785
  22 C :   -0.019601
  23 C :    0.018540
  24 C :   -0.018681
  25 C :   -0.190878
  26 Si:    0.431220
  27 C :   -0.232183
  28 C :   -0.006297
  29 C :   -0.046826
  30 C :   -0.129499
  31 C :   -0.024972
  32 C :   -0.022611
  33 C :   -0.171866
  34 S :    0.399565
  35 C :   -0.173123
  36 C :   -0.021999
  37 C :   -0.025332
  38 C :   -0.128952
  39 S :    0.400598
  40 C :   -0.048297
  41 C :    0.019821
  42 C :   -0.020780
  43 C :    0.056077
  44 C :   -0.051789
  45 C :   -0.006405
  46 C :   -0.231854
  47 Si:    0.430258
  48 C :   -0.190259
  49 C :   -0.018502
  50 C :    0.056872
  51 C :   -0.067211
  52 C :    0.081638
  53 C :   -0.135096
  54 C :   -0.020894
  55 N :   -0.049687
  56 C :   -0.018081
  57 N :   -0.049372
  58 C :   -0.017385
  59 C :   -0.008474
  60 C :   -0.003433
  61 C :    0.003796
  62 C :   -0.002542
  63 C :    0.004494
  64 C :    0.055580
  65 C :   -0.122540
  66 C :   -0.017617
  67 N :   -0.055590
  68 C :   -0.010596
  69 N :   -0.053215
  70 H :    0.040877
  71 H :    0.036880
  72 H :    0.036967
  73 H :    0.039943
  74 H :    0.046901
  75 H :    0.041962
  76 H :    0.034437
  77 H :    0.019303
  78 H :    0.023376
  79 H :    0.042591
  80 H :    0.037856
  81 H :    0.035600
  82 H :    0.035437
  83 H :    0.037637
  84 H :    0.042472
  85 H :    0.034349
  86 H :    0.042214
  87 H :    0.023489
  88 H :    0.019029
  89 H :    0.046677
  90 H :    0.039891
  91 H :    0.036930
  92 H :    0.036554
  93 H :    0.040878

  Mayer bond orders larger than 0.100000
B(  0-C ,  1-C ) :   1.3661 B(  0-C ,  5-C ) :   1.3804 B(  0-C , 70-H ) :   0.9835
B(  1-C ,  2-C ) :   1.3794 B(  1-C , 71-H ) :   0.9865 B(  2-C ,  3-C ) :   1.3589
B(  2-C , 72-H ) :   0.9867 B(  3-C ,  4-C ) :   1.3845 B(  3-C , 73-H ) :   0.9870
B(  4-C ,  5-C ) :   1.3069 B(  4-C , 13-C ) :   1.0182 B(  5-C ,  6-C ) :   0.9940
B(  6-C ,  7-C ) :   1.6298 B(  6-C , 12-C ) :   1.0560 B(  7-C ,  8-C ) :   1.1490
B(  7-C , 10-C ) :   1.1370 B(  8-C ,  9-N ) :   2.9737 B( 10-C , 11-N ) :   2.9609
B( 12-C , 13-C ) :   1.0450 B( 12-C , 19-C ) :   1.5630 B( 13-C , 14-C ) :   1.6051
B( 14-C , 15-C ) :   1.1736 B( 14-C , 17-C ) :   1.1471 B( 15-C , 16-N ) :   2.9901
B( 17-C , 18-N ) :   2.9773 B( 19-C , 20-C ) :   1.1592 B( 19-C , 74-H ) :   0.9272
B( 20-C , 21-C ) :   1.4164 B( 20-C , 28-C ) :   1.1237 B( 21-C , 22-C ) :   1.2345
B( 21-C , 75-H ) :   0.9903 B( 22-C , 23-C ) :   1.4489 B( 22-C , 76-H ) :   0.9923
B( 23-C , 24-C ) :   1.1009 B( 23-C , 29-C ) :   1.1045 B( 24-C , 25-C ) :   1.6320
B( 24-C , 26-Si) :   0.1338 B( 24-C , 28-C ) :   1.0051 B( 25-C , 26-Si) :   1.0005
B( 25-C , 77-H ) :   0.9425 B( 26-Si, 27-C ) :   0.9825 B( 26-Si, 28-C ) :   0.1200
B( 27-C , 28-C ) :   1.6782 B( 27-C , 78-H ) :   0.9089 B( 29-C , 30-C ) :   1.6131
B( 29-C , 79-H ) :   0.9634 B( 30-C , 31-C ) :   1.1289 B( 30-C , 34-S ) :   1.0420
B( 31-C , 32-C ) :   1.6012 B( 31-C , 80-H ) :   0.9991 B( 32-C , 33-C ) :   1.1762
B( 32-C , 81-H ) :   0.9940 B( 33-C , 34-S ) :   1.0498 B( 33-C , 35-C ) :   1.5185
B( 35-C , 36-C ) :   1.1769 B( 35-C , 39-S ) :   1.0489 B( 36-C , 37-C ) :   1.5992
B( 36-C , 82-H ) :   0.9944 B( 37-C , 38-C ) :   1.1310 B( 37-C , 83-H ) :   0.9989
B( 38-C , 39-S ) :   1.0434 B( 38-C , 40-C ) :   1.6051 B( 40-C , 41-C ) :   1.1115
B( 40-C , 84-H ) :   0.9636 B( 41-C , 42-C ) :   1.4437 B( 41-C , 49-C ) :   1.0970
B( 42-C , 43-C ) :   1.2384 B( 42-C , 85-H ) :   0.9915 B( 43-C , 44-C ) :   1.4090
B( 43-C , 86-H ) :   0.9907 B( 44-C , 45-C ) :   1.1243 B( 44-C , 50-C ) :   1.1664
B( 45-C , 46-C ) :   1.6792 B( 45-C , 47-Si) :   0.1187 B( 45-C , 49-C ) :   1.0046
B( 46-C , 47-Si) :   0.9814 B( 46-C , 87-H ) :   0.9089 B( 47-Si, 48-C ) :   0.9991
B( 47-Si, 49-C ) :   0.1341 B( 48-C , 49-C ) :   1.6343 B( 48-C , 88-H ) :   0.9426
B( 50-C , 51-C ) :   1.5541 B( 50-C , 89-H ) :   0.9265 B( 51-C , 52-C ) :   1.0581
B( 51-C , 64-C ) :   1.0477 B( 52-C , 53-C ) :   1.6253 B( 52-C , 58-C ) :   0.9943
B( 53-C , 54-C ) :   1.1395 B( 53-C , 56-C ) :   1.1494 B( 54-C , 55-N ) :   2.9595
B( 56-C , 57-N ) :   2.9739 B( 58-C , 59-C ) :   1.3071 B( 58-C , 63-C ) :   1.3793
B( 59-C , 60-C ) :   1.3844 B( 59-C , 64-C ) :   1.0186 B( 60-C , 61-C ) :   1.3595
B( 60-C , 90-H ) :   0.9868 B( 61-C , 62-C ) :   1.3799 B( 61-C , 91-H ) :   0.9860
B( 62-C , 63-C ) :   1.3674 B( 62-C , 92-H ) :   0.9859 B( 63-C , 93-H ) :   0.9832
B( 64-C , 65-C ) :   1.5996 B( 65-C , 66-C ) :   1.1490 B( 65-C , 68-C ) :   1.1746
B( 66-C , 67-N ) :   2.9757 B( 68-C , 69-N ) :   2.9901

-----------------------------------------------------------------------------
         ABSORPTION SPECTRUM VIA TRANSITION ELECTRIC DIPOLE MOMENTS
-----------------------------------------------------------------------------
State   Energy  Wavelength   fosc         T2         TX        TY        TZ
        (cm-1)    (nm)                  (au**2)     (au)      (au)      (au)
-----------------------------------------------------------------------------
   0    6626.6   1509.1   0.241768614  12.01121   2.04697   0.77881   2.68600
   1    8611.7   1161.2   0.191670095   7.32723   1.06000   2.07910  -1.37150
   2   11006.3    908.6   0.002900680   0.08676  -0.16380  -0.23120   0.08049
   3   11276.9    886.8   0.067682605   1.97589  -0.83643  -0.29104  -1.09159
   4   14760.4    677.5   0.076329180   1.70242   0.81903  -0.85016  -0.55573
   5   15083.0    663.0   0.011620279   0.25363   0.25268   0.31682  -0.29901
   6   15845.3    631.1   0.356388705   7.40456  -2.13933   0.02532  -1.68143
   7   16931.7    590.6   0.173594268   3.37528  -0.77282  -1.42187   0.86966
   8   17388.0    575.1   0.201902380   3.82267  -1.22068  -0.31807  -1.49381
   9   18194.2    549.6   0.228086690   4.12707  -0.86732  -1.52983   1.01709
  10   18803.9    531.8   0.057266201   1.00260  -0.59123   0.68745   0.42480
  11   18850.7    530.5   0.005977063   0.10438   0.10324   0.25755  -0.16551
  12   19004.8    526.2   0.040200665   0.69638   0.00234  -0.50513   0.66425
  13   19134.9    522.6   0.210814314   3.62702   0.84083   1.48023  -0.85379
  14   21422.6    466.8   0.131714959   2.02413  -1.09562   0.01024  -0.90754
  15   21624.4    462.4   0.011656755   0.17746   0.23979   0.33231  -0.09765
  16   21843.1    457.8   0.019034654   0.28688  -0.47220   0.20674  -0.14551
  17   21886.8    456.9   0.011164716   0.16794   0.40171  -0.08099  -0.00260
  18   22819.9    438.2   0.071614248   1.03315  -0.85845   0.14539  -0.52447
  19   24174.3    413.7   0.019195258   0.26141   0.08724  -0.45229   0.22188
  20   24289.5    411.7   0.094004405   1.27410  -0.37124  -0.89675   0.57631
  21   24341.6    410.8   0.038350583   0.51868  -0.60217  -0.26589   0.29220
  22   24996.0    400.1   0.019750233   0.26012  -0.10560   0.18960   0.46155
  23   25046.1    399.3   0.009868830   0.12972  -0.10882  -0.34187  -0.03164
  24   25185.4    397.1   0.124389178   1.62596  -0.84476  -0.93760   0.18237
  25   25245.9    396.1   0.103039262   1.34365   0.05378  -0.70296   0.92011
  26   26059.5    383.7   0.099343805   1.25502  -0.69380  -0.10522  -0.87327
  27   26587.8    376.1   0.002094406   0.02593   0.06879   0.14088  -0.03681
  28   27328.9    365.9   0.104927421   1.26399   0.92713  -0.59456  -0.22566
  29   27806.4    359.6   0.066690563   0.78958  -0.35596  -0.70353   0.40979
  30   27912.9    358.3   0.005577847   0.06579  -0.15926   0.17904  -0.09148
  31   28076.8    356.2   0.000324628   0.00381   0.00030  -0.01420  -0.06004
  32   28172.1    355.0   0.005497353   0.06424  -0.13078   0.16881   0.13653
  33   28197.2    354.6   0.006263072   0.07312   0.11168  -0.18599  -0.16143
  34   28280.3    353.6   0.052385565   0.60982   0.29632  -0.49965  -0.52189
  35   28851.5    346.6   0.304897815   3.47906  -0.77313  -1.42997   0.91461
  36   29292.8    341.4   0.223397282   2.51069  -0.60037  -1.26062   0.74906
  37   29441.5    339.7   0.173580981   1.94097   1.07438  -0.75249  -0.46950
  38   29652.7    337.2   0.064060421   0.71121  -0.47243   0.40178   0.57148
  39   29739.2    336.3   0.006154878   0.06813   0.00233   0.13240   0.22494
  40   30327.5    329.7   0.026213447   0.28455  -0.43438   0.16507  -0.26195
  41   30462.6    328.3   0.025164771   0.27196  -0.05966  -0.44253   0.26938
  42   30557.8    327.2   0.036732696   0.39574  -0.50872  -0.17696  -0.32500
  43   30719.0    325.5   0.097445550   1.04431   0.01438   1.01964  -0.06671
  44   30839.9    324.3   0.184457467   1.96906  -0.80099   0.78265   0.84553
  45   30951.2    323.1   0.035307084   0.37554  -0.40542  -0.15768   0.43164
  46   31488.9    317.6   0.046607721   0.48728  -0.63596   0.27042  -0.09850
  47   31585.3    316.6   0.039420163   0.41087   0.25830   0.48403  -0.33146
  48   33152.3    301.6   0.269449946   2.67571   0.67441   1.24353  -0.82130
  49   33496.4    298.5   0.019190055   0.18861  -0.27033   0.33621  -0.04993
  50   33947.8    294.6   0.009899958   0.09601  -0.14195   0.23592   0.14211
  51   34209.3    292.3   0.089093392   0.85739  -0.60128   0.54699   0.44346
  52   34398.1    290.7   0.008607765   0.08238  -0.15634   0.18250   0.15695
  53   34435.2    290.4   0.000455140   0.00435   0.01876   0.05323  -0.03415
  54   34672.9    288.4   0.057659190   0.54746  -0.08042  -0.70762   0.20067
  55   34707.6    288.1   0.007832428   0.07429  -0.05649   0.26482  -0.03116
  56   34787.2    287.5   0.189171596   1.79024   0.88846  -0.63666  -0.77172
  57   34813.3    287.2   0.050198423   0.47470  -0.20913  -0.61683   0.22470
  58   34857.8    286.9   0.027277755   0.25762   0.37419  -0.29201   0.17982
  59   35072.5    285.1   0.004448391   0.04176   0.12847  -0.15652  -0.02746
  60   35156.6    284.4   0.037916097   0.35505  -0.21167  -0.49463   0.25610
  61   35194.3    284.1   0.015138150   0.14160  -0.36321  -0.07400   0.06485
  62   35356.8    282.8   0.002260214   0.02105   0.10559  -0.09605  -0.02590
  63   35418.2    282.3   0.030545885   0.28392  -0.40383  -0.17413   0.30087
  64   35514.7    281.6   0.112945141   1.04697  -0.27133  -0.84952   0.50167
  65   35569.9    281.1   0.062180954   0.57551  -0.39914  -0.50490   0.40158
  66   35837.2    279.0   0.025593903   0.23511   0.07450   0.30093   0.37284
  67   36095.5    277.0   0.041010496   0.37404  -0.25292  -0.44117   0.33976
  68   36284.1    275.6   0.034942967   0.31704  -0.28201   0.40747   0.26737
  69   36388.3    274.8   0.314078096   2.84153  -1.11401   1.04925   0.70681
  70   36516.9    273.8   0.041495114   0.37409   0.27081   0.51038  -0.20067
  71   36615.3    273.1   0.047026117   0.42282  -0.09093  -0.49676   0.40960
  72   36742.2    272.2   0.047398599   0.42469  -0.61700   0.18088  -0.10625
  73   36846.1    271.4   0.004642584   0.04148  -0.12687  -0.12396   0.10009
  74   36943.2    270.7   0.006217139   0.05540   0.10905   0.11042  -0.17697
  75   37170.3    269.0   0.040726247   0.36071  -0.54202   0.22830  -0.12166
  76   37278.3    268.3   0.001390336   0.01228  -0.09772   0.03963   0.03403
  77   37369.4    267.6   0.009548911   0.08412   0.21690  -0.18776  -0.04271
  78   37911.6    263.8   0.001692772   0.01470   0.02754  -0.11372  -0.03175
  79   37974.4    263.3   0.041601810   0.36066  -0.25075  -0.39851   0.37279
  80   38025.7    263.0   0.010416747   0.09018   0.25725  -0.14168  -0.06272
  81   38137.7    262.2   0.034992126   0.30206   0.32980  -0.23200  -0.37345
  82   38456.6    260.0   0.320703813   2.74542   0.65022   1.30141  -0.79307
  83   38924.8    256.9   0.018795355   0.15896   0.23081   0.23598  -0.22362
  84   39499.1    253.2   0.090206644   0.75184  -0.64144   0.18918   0.55191
  85   39702.8    251.9   0.114745904   0.95146   0.13607   0.92230  -0.28691

FINAL SINGLE POINT ENERGY     -4033.652060760455

DIPOLE MOMENT
-------------
                                X             Y             Z
Electronic contribution:      2.07764       4.18573      -2.76153
Nuclear contribution   :     -3.59226      -7.07425       4.53109
                        -----------------------------------------
Total Dipole Moment    :     -1.51462      -2.88852       1.76957
                        -----------------------------------------
Magnitude (a.u.)       :      3.71066
Magnitude (Debye)      :      9.43175

Rotational constants in cm-1:     0.001027     0.000571     0.000430
Rotational constants in MHz :    30.794341    17.116683    12.894440

                             ****ORCA TERMINATED NORMALLY****
TOTAL RUN TIME: 0 days 0 hours 13 minutes 0 seconds 160 msec
