                         Program Version 4.2.0 -  RELEASE  -
|  1> # ORCA input file
|  2> # SCF done       -208.778297349728          0.000940592944
|  3> ! CAM-B3LYP def2-SVP def2/J RIJCOSX Grid4 TightSCF
|  4> %maxcore 5000
|  5> %tddft
|  6>     Mode sTDDFT
|  7>     Ethresh 5.0
|  8>     maxcore 5000
|  9> end
| 10>
| 11> %pal
| 12>   nprocs 6
| 13>   end
| 14> * xyz 0 1
| 15>    C        1.13454         0.72966         3.56164
| 16>    C        0.65106         1.32085         4.71933
| 17>    C       -0.18785         0.62910         5.58197
| 18>    C       -0.55906        -0.68082         5.31821
| 19>    C       -0.07759        -1.28291         4.16778
| 20>    C        0.76435        -0.57607         3.27950
| 21>    C        1.08401        -1.43676         2.14885
| 22>    C        1.99512        -1.16553         1.16500
| 23>    C        2.76534         0.01650         1.10729
| 24>    N        3.42463         0.94950         1.00072
| 25>    C        2.33663        -2.03002         0.10292
| 26>    N        2.66748        -2.68378        -0.78086
| 27>    C        0.25469        -2.63320         2.28447
| 28>    C       -0.26904        -2.62781         3.64803
| 29>    C       -0.60926        -3.71937         4.39942
| 30>    C       -0.54361        -5.05200         3.94433
| 31>    N       -0.47633        -6.15581         3.63656
| 32>    C       -0.97509        -3.65238         5.76163
| 33>    N       -1.27491        -3.66251         6.86854
| 34>    C       -0.02532        -3.48333         1.25236
| 35>    C       -1.07700        -4.42121         1.15471
| 36>    C       -2.27461        -4.48749         1.85525
| 37>    C       -3.06036        -5.55476         1.44682
| 38>    C       -2.47219        -6.30880         0.40818
| 39>    S       -0.96207        -5.68762        -0.06397
| 40>    C       -3.33605        -7.38498         0.08666
| 41>    C       -4.46270        -7.31447         0.93461
| 42>    C       -4.32480        -6.16591         1.81417
| 43>    C       -5.17809        -5.75731         2.79761
| 44>    C       -6.38109        -6.44145         3.06814
| 45>    N       -7.35814        -7.00695         3.26868
| 46>    C       -4.89559        -4.62497         3.58997
| 47>    N       -4.64754        -3.69882         4.21891
| 48>    C       -5.37059        -8.34045         0.71228
| 49>    C       -4.95513        -9.18856        -0.30824
| 50>    S       -3.40809        -8.69356        -1.00031
| 51>    C       -5.57860       -10.33418        -0.85954
| 52>    C       -5.13222       -11.03277        -1.98079
| 53>    C       -6.02143       -12.10052        -2.24499
| 54>    C       -7.05486       -12.06658        -1.23826
| 55>    O       -8.02637       -12.76460        -1.04103
| 56>    N       -6.72121       -10.95933        -0.42412
| 57>    C       -7.53368       -10.64527         0.71985
| 58>    C       -5.59380       -12.74756        -3.40591
| 59>    N       -4.46584       -12.09239        -3.84613
| 60>    C       -4.11854       -11.02418        -2.99861
| 61>    O       -3.15073       -10.30732        -3.17237
| 62>    C       -3.65397       -12.40890        -4.98861
| 63>    C       -6.21783       -13.86253        -4.01042
| 64>    C       -7.26918       -14.57577        -3.43930
| 65>    C       -7.70303       -15.60743        -4.25880
| 66>    C       -6.99786       -15.67780        -5.47993
| 67>    S       -5.77869       -14.49370        -5.59345
| 68>    C       -7.53158       -16.72940        -6.25700
| 69>    C       -8.57340       -17.33691        -5.52245
| 70>    C       -8.69586       -16.67182        -4.23619
| 71>    C       -9.52292       -17.03508        -3.21591
| 72>    C      -10.40172       -18.13195        -3.35454
| 73>    N      -11.10691       -19.02621        -3.48800
| 74>    C       -9.55098       -16.39301        -1.95806
| 75>    N       -9.59167       -15.91170        -0.91938
| 76>    C       -9.15666       -18.40010        -6.19490
| 77>    C       -8.57470       -18.62009        -7.43686
| 78>    S       -7.30088       -17.45637        -7.77892
| 79>    C       -8.92006       -19.57218        -8.42168
| 80>    C       -9.58843       -20.74916        -8.23107
| 81>    C      -10.30091       -21.47119        -9.28210
| 82>    C      -10.17631       -21.30536       -10.63508
| 83>    C       -9.28613       -20.41738       -11.27535
| 84>    N       -8.59072       -19.71748       -11.86271
| 85>    C      -10.90885       -22.04043       -11.59249
| 86>    N      -11.46686       -22.59880       -12.42529
| 87>    C      -11.19713       -22.40600        -8.61508
| 88>    C      -10.93662       -22.37879        -7.22613
| 89>    C      -11.67742       -23.15466        -6.35016
| 90>    C      -12.67387       -23.96728        -6.86945
| 91>    C      -12.92148       -24.00867        -8.23451
| 92>    C      -12.19061       -23.23064        -9.11998
| 93>    C       -9.82891       -21.46915        -6.98321
| 94>    C       -9.00810       -21.50514        -5.88869
| 95>    C       -9.22624       -22.33619        -4.76829
| 96>    N       -9.34308       -22.98984        -3.83307
| 97>    C       -7.79210       -20.80093        -5.77548
| 98>    N       -6.77506       -20.28540        -5.64093
| 99>    H        1.77690         1.28593         2.89919
|100>    H        0.92906         2.33851         4.94684
|101>    H       -0.55996         1.11586         6.47020
|102>    H       -1.22062        -1.20554         5.98808
|103>    H        0.58767        -3.40437         0.36436
|104>    H       -2.56664        -3.76397         2.59447
|105>    H       -6.28827        -8.45514         1.25528
|106>    H       -8.28415       -11.43431         0.79002
|107>    H       -8.04332        -9.68811         0.59531
|108>    H       -6.93839       -10.63498         1.63359
|109>    H       -3.28207       -13.43362        -4.93917
|110>    H       -2.80919       -11.71880        -4.96686
|111>    H       -4.20532       -12.26619        -5.92012
|112>    H       -7.68464       -14.32374        -2.47843
|113>    H       -9.99332       -18.96892        -5.83194
|114>    H       -8.67389       -19.28956        -9.43628
|115>    H      -11.50074       -23.11991        -5.28753
|116>    H      -13.26478       -24.57335        -6.20023
|117>    H      -13.69955       -24.65153        -8.61664
|118>    H      -12.40429       -23.27011       -10.17524
|119> *
|120>
|121>                          ****END OF INPUT****

CARTESIAN COORDINATES (ANGSTROEM)
---------------------------------
  C      1.134540    0.729660    3.561640
  C      0.651060    1.320850    4.719330
  C     -0.187850    0.629100    5.581970
  C     -0.559060   -0.680820    5.318210
  C     -0.077590   -1.282910    4.167780
  C      0.764350   -0.576070    3.279500
  C      1.084010   -1.436760    2.148850
  C      1.995120   -1.165530    1.165000
  C      2.765340    0.016500    1.107290
  N      3.424630    0.949500    1.000720
  C      2.336630   -2.030020    0.102920
  N      2.667480   -2.683780   -0.780860
  C      0.254690   -2.633200    2.284470
  C     -0.269040   -2.627810    3.648030
  C     -0.609260   -3.719370    4.399420
  C     -0.543610   -5.052000    3.944330
  N     -0.476330   -6.155810    3.636560
  C     -0.975090   -3.652380    5.761630
  N     -1.274910   -3.662510    6.868540
  C     -0.025320   -3.483330    1.252360
  C     -1.077000   -4.421210    1.154710
  C     -2.274610   -4.487490    1.855250
  C     -3.060360   -5.554760    1.446820
  C     -2.472190   -6.308800    0.408180
  S     -0.962070   -5.687620   -0.063970
  C     -3.336050   -7.384980    0.086660
  C     -4.462700   -7.314470    0.934610
  C     -4.324800   -6.165910    1.814170
  C     -5.178090   -5.757310    2.797610
  C     -6.381090   -6.441450    3.068140
  N     -7.358140   -7.006950    3.268680
  C     -4.895590   -4.624970    3.589970
  N     -4.647540   -3.698820    4.218910
  C     -5.370590   -8.340450    0.712280
  C     -4.955130   -9.188560   -0.308240
  S     -3.408090   -8.693560   -1.000310
  C     -5.578600  -10.334180   -0.859540
  C     -5.132220  -11.032770   -1.980790
  C     -6.021430  -12.100520   -2.244990
  C     -7.054860  -12.066580   -1.238260
  O     -8.026370  -12.764600   -1.041030
  N     -6.721210  -10.959330   -0.424120
  C     -7.533680  -10.645270    0.719850
  C     -5.593800  -12.747560   -3.405910
  N     -4.465840  -12.092390   -3.846130
  C     -4.118540  -11.024180   -2.998610
  O     -3.150730  -10.307320   -3.172370
  C     -3.653970  -12.408900   -4.988610
  C     -6.217830  -13.862530   -4.010420
  C     -7.269180  -14.575770   -3.439300
  C     -7.703030  -15.607430   -4.258800
  C     -6.997860  -15.677800   -5.479930
  S     -5.778690  -14.493700   -5.593450
  C     -7.531580  -16.729400   -6.257000
  C     -8.573400  -17.336910   -5.522450
  C     -8.695860  -16.671820   -4.236190
  C     -9.522920  -17.035080   -3.215910
  C    -10.401720  -18.131950   -3.354540
  N    -11.106910  -19.026210   -3.488000
  C     -9.550980  -16.393010   -1.958060
  N     -9.591670  -15.911700   -0.919380
  C     -9.156660  -18.400100   -6.194900
  C     -8.574700  -18.620090   -7.436860
  S     -7.300880  -17.456370   -7.778920
  C     -8.920060  -19.572180   -8.421680
  C     -9.588430  -20.749160   -8.231070
  C    -10.300910  -21.471190   -9.282100
  C    -10.176310  -21.305360  -10.635080
  C     -9.286130  -20.417380  -11.275350
  N     -8.590720  -19.717480  -11.862710
  C    -10.908850  -22.040430  -11.592490
  N    -11.466860  -22.598800  -12.425290
  C    -11.197130  -22.406000   -8.615080
  C    -10.936620  -22.378790   -7.226130
  C    -11.677420  -23.154660   -6.350160
  C    -12.673870  -23.967280   -6.869450
  C    -12.921480  -24.008670   -8.234510
  C    -12.190610  -23.230640   -9.119980
  C     -9.828910  -21.469150   -6.983210
  C     -9.008100  -21.505140   -5.888690
  C     -9.226240  -22.336190   -4.768290
  N     -9.343080  -22.989840   -3.833070
  C     -7.792100  -20.800930   -5.775480
  N     -6.775060  -20.285400   -5.640930
  H      1.776900    1.285930    2.899190
  H      0.929060    2.338510    4.946840
  H     -0.559960    1.115860    6.470200
  H     -1.220620   -1.205540    5.988080
  H      0.587670   -3.404370    0.364360
  H     -2.566640   -3.763970    2.594470
  H     -6.288270   -8.455140    1.255280
  H     -8.284150  -11.434310    0.790020
  H     -8.043320   -9.688110    0.595310
  H     -6.938390  -10.634980    1.633590
  H     -3.282070  -13.433620   -4.939170
  H     -2.809190  -11.718800   -4.966860
  H     -4.205320  -12.266190   -5.920120
  H     -7.684640  -14.323740   -2.478430
  H     -9.993320  -18.968920   -5.831940
  H     -8.673890  -19.289560   -9.436280
  H    -11.500740  -23.119910   -5.287530
  H    -13.264780  -24.573350   -6.200230
  H    -13.699550  -24.651530   -8.616640
  H    -12.404290  -23.270110  -10.175240

 Total Charge           Charge          ....    0
 Multiplicity           Mult            ....    1
 Number of Electrons    NEL             ....  582
 Basis Dimension        Dim             .... 1292

ORBITAL ENERGIES
----------------

  NO   OCC          E(Eh)            E(eV)
   0   2.0000     -89.011332     -2422.1215
   1   2.0000     -89.008682     -2422.0494
   2   2.0000     -89.008342     -2422.0401
   3   2.0000     -89.002284     -2421.8753
   4   2.0000     -19.209356      -522.7132
   5   2.0000     -19.209150      -522.7075
   6   2.0000     -14.479536      -394.0082
   7   2.0000     -14.476739      -393.9321
   8   2.0000     -14.443694      -393.0329
   9   2.0000     -14.443336      -393.0232
  10   2.0000     -14.443025      -393.0147
  11   2.0000     -14.435453      -392.8086
  12   2.0000     -14.431294      -392.6955
  13   2.0000     -14.430768      -392.6812
  14   2.0000     -14.430649      -392.6779
  15   2.0000     -14.430439      -392.6722
  16   2.0000     -14.426231      -392.5577
  17   2.0000     -14.425969      -392.5506
  18   2.0000     -14.425690      -392.5430
  19   2.0000     -14.425402      -392.5351
  20   2.0000     -10.393360      -282.8177
  21   2.0000     -10.392758      -282.8013
  22   2.0000     -10.378400      -282.4106
  23   2.0000     -10.378153      -282.4039
  24   2.0000     -10.367150      -282.1045
  25   2.0000     -10.367081      -282.1026
  26   2.0000     -10.366319      -282.0819
  27   2.0000     -10.364150      -282.0228
  28   2.0000     -10.360076      -281.9120
  29   2.0000     -10.359533      -281.8972
  30   2.0000     -10.358183      -281.8605
  31   2.0000     -10.358063      -281.8572
  32   2.0000     -10.356788      -281.8225
  33   2.0000     -10.356587      -281.8171
  34   2.0000     -10.356148      -281.8051
  35   2.0000     -10.355697      -281.7928
  36   2.0000     -10.355686      -281.7925
  37   2.0000     -10.355147      -281.7779
  38   2.0000     -10.350777      -281.6590
  39   2.0000     -10.347005      -281.5563
  40   2.0000     -10.346207      -281.5346
  41   2.0000     -10.345916      -281.5267
  42   2.0000     -10.343917      -281.4723
  43   2.0000     -10.343580      -281.4631
  44   2.0000     -10.342928      -281.4454
  45   2.0000     -10.342650      -281.4378
  46   2.0000     -10.342138      -281.4239
  47   2.0000     -10.341608      -281.4095
  48   2.0000     -10.341139      -281.3967
  49   2.0000     -10.333581      -281.1910
  50   2.0000     -10.333319      -281.1839
  51   2.0000     -10.332570      -281.1635
  52   2.0000     -10.331923      -281.1459
  53   2.0000     -10.331722      -281.1404
  54   2.0000     -10.330899      -281.1181
  55   2.0000     -10.330736      -281.1136
  56   2.0000     -10.328638      -281.0565
  57   2.0000     -10.328406      -281.0502
  58   2.0000     -10.327370      -281.0220
  59   2.0000     -10.327188      -281.0171
  60   2.0000     -10.325258      -280.9646
  61   2.0000     -10.325067      -280.9594
  62   2.0000     -10.324583      -280.9462
  63   2.0000     -10.322485      -280.8891
  64   2.0000     -10.321872      -280.8724
  65   2.0000     -10.321694      -280.8676
  66   2.0000     -10.321198      -280.8541
  67   2.0000     -10.320584      -280.8374
  68   2.0000     -10.319510      -280.8082
  69   2.0000     -10.319486      -280.8075
  70   2.0000     -10.319130      -280.7978
  71   2.0000     -10.318876      -280.7909
  72   2.0000     -10.317069      -280.7417
  73   2.0000     -10.315456      -280.6978
  74   2.0000     -10.306832      -280.4631
  75   2.0000     -10.306637      -280.4579
  76   2.0000     -10.306450      -280.4528
  77   2.0000     -10.306163      -280.4449
  78   2.0000     -10.305247      -280.4200
  79   2.0000     -10.305179      -280.4182
  80   2.0000     -10.304636      -280.4034
  81   2.0000     -10.304517      -280.4002
  82   2.0000     -10.282984      -279.8142
  83   2.0000     -10.281138      -279.7640
  84   2.0000      -8.105058      -220.5498
  85   2.0000      -8.103206      -220.4994
  86   2.0000      -8.102787      -220.4881
  87   2.0000      -8.095562      -220.2915
  88   2.0000      -6.074397      -165.2928
  89   2.0000      -6.072378      -165.2378
  90   2.0000      -6.071906      -165.2250
  91   2.0000      -6.070041      -165.1742
  92   2.0000      -6.068210      -165.1244
  93   2.0000      -6.067728      -165.1113
  94   2.0000      -6.067551      -165.1064
  95   2.0000      -6.065687      -165.0557
  96   2.0000      -6.065406      -165.0481
  97   2.0000      -6.064838      -165.0326
  98   2.0000      -6.060378      -164.9113
  99   2.0000      -6.058029      -164.8473
 100   2.0000      -1.154114       -31.4050
 101   2.0000      -1.146829       -31.2068
 102   2.0000      -1.085504       -29.5381
 103   2.0000      -1.077760       -29.3274
 104   2.0000      -1.061928       -28.8965
 105   2.0000      -1.060972       -28.8705
 106   2.0000      -1.044488       -28.4220
 107   2.0000      -1.044460       -28.4212
 108   2.0000      -1.035250       -28.1706
 109   2.0000      -1.032689       -28.1009
 110   2.0000      -1.026301       -27.9271
 111   2.0000      -1.025984       -27.9185
 112   2.0000      -1.021354       -27.7925
 113   2.0000      -1.016834       -27.6694
 114   2.0000      -1.015495       -27.6330
 115   2.0000      -1.015371       -27.6296
 116   2.0000      -1.014111       -27.5954
 117   2.0000      -1.013655       -27.5830
 118   2.0000      -1.006760       -27.3953
 119   2.0000      -1.006395       -27.3854
 120   2.0000      -1.005038       -27.3485
 121   2.0000      -1.004827       -27.3427
 122   2.0000      -0.975968       -26.5574
 123   2.0000      -0.975702       -26.5502
 124   2.0000      -0.964864       -26.2553
 125   2.0000      -0.964547       -26.2467
 126   2.0000      -0.948287       -25.8042
 127   2.0000      -0.948254       -25.8033
 128   2.0000      -0.943911       -25.6851
 129   2.0000      -0.934271       -25.4228
 130   2.0000      -0.932806       -25.3829
 131   2.0000      -0.906339       -24.6628
 132   2.0000      -0.905216       -24.6322
 133   2.0000      -0.898758       -24.4565
 134   2.0000      -0.897838       -24.4314
 135   2.0000      -0.891316       -24.2540
 136   2.0000      -0.885972       -24.1085
 137   2.0000      -0.876232       -23.8435
 138   2.0000      -0.872936       -23.7538
 139   2.0000      -0.872411       -23.7395
 140   2.0000      -0.872154       -23.7325
 141   2.0000      -0.868533       -23.6340
 142   2.0000      -0.851826       -23.1794
 143   2.0000      -0.849518       -23.1165
 144   2.0000      -0.823071       -22.3969
 145   2.0000      -0.818768       -22.2798
 146   2.0000      -0.799399       -21.7528
 147   2.0000      -0.799156       -21.7462
 148   2.0000      -0.792521       -21.5656
 149   2.0000      -0.791601       -21.5406
 150   2.0000      -0.784795       -21.3554
 151   2.0000      -0.778282       -21.1781
 152   2.0000      -0.767055       -20.8726
 153   2.0000      -0.737340       -20.0640
 154   2.0000      -0.731729       -19.9113
 155   2.0000      -0.724390       -19.7117
 156   2.0000      -0.723090       -19.6763
 157   2.0000      -0.721369       -19.6295
 158   2.0000      -0.721148       -19.6234
 159   2.0000      -0.719088       -19.5674
 160   2.0000      -0.716042       -19.4845
 161   2.0000      -0.707306       -19.2468
 162   2.0000      -0.699056       -19.0223
 163   2.0000      -0.696745       -18.9594
 164   2.0000      -0.691748       -18.8234
 165   2.0000      -0.689381       -18.7590
 166   2.0000      -0.684196       -18.6179
 167   2.0000      -0.675112       -18.3707
 168   2.0000      -0.673857       -18.3366
 169   2.0000      -0.672952       -18.3120
 170   2.0000      -0.671859       -18.2822
 171   2.0000      -0.662073       -18.0159
 172   2.0000      -0.658488       -17.9184
 173   2.0000      -0.648699       -17.6520
 174   2.0000      -0.646136       -17.5823
 175   2.0000      -0.634839       -17.2748
 176   2.0000      -0.633599       -17.2411
 177   2.0000      -0.628036       -17.0897
 178   2.0000      -0.621713       -16.9177
 179   2.0000      -0.615371       -16.7451
 180   2.0000      -0.608405       -16.5555
 181   2.0000      -0.604724       -16.4554
 182   2.0000      -0.595054       -16.1922
 183   2.0000      -0.593773       -16.1574
 184   2.0000      -0.593638       -16.1537
 185   2.0000      -0.591905       -16.1065
 186   2.0000      -0.589622       -16.0444
 187   2.0000      -0.580997       -15.8097
 188   2.0000      -0.577778       -15.7221
 189   2.0000      -0.574534       -15.6339
 190   2.0000      -0.574264       -15.6265
 191   2.0000      -0.563070       -15.3219
 192   2.0000      -0.562655       -15.3106
 193   2.0000      -0.557482       -15.1698
 194   2.0000      -0.556183       -15.1345
 195   2.0000      -0.552669       -15.0389
 196   2.0000      -0.549014       -14.9394
 197   2.0000      -0.546471       -14.8702
 198   2.0000      -0.545239       -14.8367
 199   2.0000      -0.542470       -14.7613
 200   2.0000      -0.541689       -14.7401
 201   2.0000      -0.538435       -14.6516
 202   2.0000      -0.536444       -14.5974
 203   2.0000      -0.530128       -14.4255
 204   2.0000      -0.527529       -14.3548
 205   2.0000      -0.523358       -14.2413
 206   2.0000      -0.521565       -14.1925
 207   2.0000      -0.520787       -14.1713
 208   2.0000      -0.518739       -14.1156
 209   2.0000      -0.518302       -14.1037
 210   2.0000      -0.517718       -14.0878
 211   2.0000      -0.515075       -14.0159
 212   2.0000      -0.514805       -14.0085
 213   2.0000      -0.512343       -13.9415
 214   2.0000      -0.510246       -13.8845
 215   2.0000      -0.508574       -13.8390
 216   2.0000      -0.506332       -13.7780
 217   2.0000      -0.504929       -13.7398
 218   2.0000      -0.502643       -13.6776
 219   2.0000      -0.497337       -13.5332
 220   2.0000      -0.494953       -13.4683
 221   2.0000      -0.489953       -13.3323
 222   2.0000      -0.488576       -13.2948
 223   2.0000      -0.488020       -13.2797
 224   2.0000      -0.485552       -13.2125
 225   2.0000      -0.482526       -13.1302
 226   2.0000      -0.474308       -12.9066
 227   2.0000      -0.473766       -12.8918
 228   2.0000      -0.472464       -12.8564
 229   2.0000      -0.471992       -12.8436
 230   2.0000      -0.471495       -12.8300
 231   2.0000      -0.471271       -12.8239
 232   2.0000      -0.466865       -12.7040
 233   2.0000      -0.465412       -12.6645
 234   2.0000      -0.465176       -12.6581
 235   2.0000      -0.464028       -12.6268
 236   2.0000      -0.462508       -12.5855
 237   2.0000      -0.462073       -12.5737
 238   2.0000      -0.461446       -12.5566
 239   2.0000      -0.460805       -12.5391
 240   2.0000      -0.460129       -12.5207
 241   2.0000      -0.458903       -12.4874
 242   2.0000      -0.455799       -12.4029
 243   2.0000      -0.454495       -12.3674
 244   2.0000      -0.453663       -12.3448
 245   2.0000      -0.453568       -12.3422
 246   2.0000      -0.452879       -12.3235
 247   2.0000      -0.452801       -12.3213
 248   2.0000      -0.452029       -12.3003
 249   2.0000      -0.451225       -12.2785
 250   2.0000      -0.450925       -12.2703
 251   2.0000      -0.448069       -12.1926
 252   2.0000      -0.447612       -12.1801
 253   2.0000      -0.443864       -12.0782
 254   2.0000      -0.442774       -12.0485
 255   2.0000      -0.439931       -11.9711
 256   2.0000      -0.439804       -11.9677
 257   2.0000      -0.439346       -11.9552
 258   2.0000      -0.438328       -11.9275
 259   2.0000      -0.437978       -11.9180
 260   2.0000      -0.436187       -11.8693
 261   2.0000      -0.435854       -11.8602
 262   2.0000      -0.433803       -11.8044
 263   2.0000      -0.430181       -11.7058
 264   2.0000      -0.429948       -11.6995
 265   2.0000      -0.422298       -11.4913
 266   2.0000      -0.422151       -11.4873
 267   2.0000      -0.420036       -11.4298
 268   2.0000      -0.418538       -11.3890
 269   2.0000      -0.418168       -11.3789
 270   2.0000      -0.417434       -11.3590
 271   2.0000      -0.394597       -10.7375
 272   2.0000      -0.393082       -10.6963
 273   2.0000      -0.391834       -10.6623
 274   2.0000      -0.391231       -10.6459
 275   2.0000      -0.366546        -9.9742
 276   2.0000      -0.365069        -9.9340
 277   2.0000      -0.362322        -9.8593
 278   2.0000      -0.357488        -9.7277
 279   2.0000      -0.355158        -9.6643
 280   2.0000      -0.351232        -9.5575
 281   2.0000      -0.340782        -9.2732
 282   2.0000      -0.340635        -9.2692
 283   2.0000      -0.337884        -9.1943
 284   2.0000      -0.335725        -9.1355
 285   2.0000      -0.334340        -9.0979
 286   2.0000      -0.322990        -8.7890
 287   2.0000      -0.321568        -8.7503
 288   2.0000      -0.296565        -8.0700
 289   2.0000      -0.286621        -7.7993
 290   2.0000      -0.248191        -6.7536
 291   0.0000      -0.131882        -3.5887
 292   0.0000      -0.121640        -3.3100
 293   0.0000      -0.103178        -2.8076
 294   0.0000      -0.101845        -2.7713
 295   0.0000      -0.094612        -2.5745

MULLIKEN ATOMIC CHARGES
-----------------------
   0 C :   -0.037048
   1 C :    0.049039
   2 C :    0.049479
   3 C :   -0.028566
   4 C :    0.001275
   5 C :    0.017378
   6 C :    0.287806
   7 C :   -0.340863
   8 C :   -0.187339
   9 N :    0.164911
  10 C :   -0.179833
  11 N :    0.155788
  12 C :   -0.069788
  13 C :    0.223829
  14 C :   -0.332406
  15 C :   -0.195931
  16 N :    0.179921
  17 C :   -0.176749
  18 N :    0.176371
  19 C :    0.088917
  20 C :   -0.137764
  21 C :   -0.005458
  22 C :   -0.005478
  23 C :   -0.067043
  24 S :    0.241773
  25 C :   -0.079798
  26 C :    0.031289
  27 C :    0.310364
  28 C :   -0.286239
  29 C :   -0.182419
  30 N :    0.170612
  31 C :   -0.182222
  32 N :    0.168657
  33 C :   -0.079714
  34 C :   -0.131551
  35 S :    0.259321
  36 C :    0.206750
  37 C :   -0.109430
  38 C :   -0.069903
  39 C :    0.156108
  40 O :   -0.184799
  41 N :   -0.275473
  42 C :    0.113891
  43 C :    0.150268
  44 N :   -0.274595
  45 C :    0.147408
  46 O :   -0.206470
  47 C :    0.107377
  48 C :   -0.110671
  49 C :   -0.063931
  50 C :    0.047577
  51 C :   -0.092384
  52 S :    0.178811
  53 C :   -0.062960
  54 C :   -0.004780
  55 C :    0.310444
  56 C :   -0.283732
  57 C :   -0.186837
  58 N :    0.166645
  59 C :   -0.195144
  60 N :    0.209472
  61 C :    0.001005
  62 C :   -0.145763
  63 S :    0.236572
  64 C :    0.079155
  65 C :   -0.066583
  66 C :    0.296165
  67 C :   -0.346209
  68 C :   -0.177235
  69 N :    0.154091
  70 C :   -0.188631
  71 N :    0.165597
  72 C :    0.016698
  73 C :   -0.003433
  74 C :   -0.024200
  75 C :    0.047962
  76 C :    0.047357
  77 C :   -0.034367
  78 C :    0.228609
  79 C :   -0.336266
  80 C :   -0.177544
  81 N :    0.174185
  82 C :   -0.193805
  83 N :    0.179758
  84 H :    0.009015
  85 H :    0.006612
  86 H :    0.008086
  87 H :    0.015494
  88 H :    0.014742
  89 H :    0.031573
  90 H :   -0.005827
  91 H :    0.071766
  92 H :    0.050450
  93 H :    0.045450
  94 H :    0.043004
  95 H :    0.070018
  96 H :    0.043462
  97 H :    0.032452
  98 H :    0.030614
  99 H :    0.016063
 100 H :    0.016098
 101 H :    0.008863
 102 H :    0.006819
 103 H :    0.007961
Sum of atomic charges:   -0.0000000

LOEWDIN ATOMIC CHARGES
----------------------
   0 C :    0.005639
   1 C :    0.004032
   2 C :    0.007651
   3 C :    0.005755
   4 C :   -0.009967
   5 C :   -0.013804
   6 C :    0.078671
   7 C :   -0.131962
   8 C :   -0.019567
   9 N :   -0.042462
  10 C :   -0.022092
  11 N :   -0.043249
  12 C :   -0.052026
  13 C :    0.065689
  14 C :   -0.125974
  15 C :   -0.017772
  16 N :   -0.038836
  17 C :   -0.020487
  18 N :   -0.034844
  19 C :    0.033362
  20 C :   -0.179225
  21 C :    0.005849
  22 C :   -0.061970
  23 C :   -0.156804
  24 S :    0.521027
  25 C :   -0.180028
  26 C :   -0.061806
  27 C :    0.081769
  28 C :   -0.099106
  29 C :   -0.015158
  30 N :   -0.030508
  31 C :   -0.013343
  32 N :   -0.031185
  33 C :   -0.018838
  34 C :   -0.169883
  35 S :    0.561979
  36 C :    0.059087
  37 C :   -0.134340
  38 C :   -0.118453
  39 C :    0.084297
  40 O :   -0.178262
  41 N :   -0.003490
  42 C :    0.029137
  43 C :    0.057058
  44 N :   -0.007828
  45 C :    0.069910
  46 O :   -0.208251
  47 C :    0.015873
  48 C :   -0.175289
  49 C :    0.008830
  50 C :   -0.054727
  51 C :   -0.180328
  52 S :    0.497864
  53 C :   -0.158975
  54 C :   -0.059627
  55 C :    0.074745
  56 C :   -0.085884
  57 C :   -0.010257
  58 N :   -0.031567
  59 C :   -0.026764
  60 N :   -0.002247
  61 C :    0.004394
  62 C :   -0.179214
  63 S :    0.513460
  64 C :    0.034666
  65 C :   -0.051599
  66 C :    0.078193
  67 C :   -0.132194
  68 C :   -0.020855
  69 N :   -0.044700
  70 C :   -0.019527
  71 N :   -0.042656
  72 C :   -0.013815
  73 C :   -0.010016
  74 C :    0.006517
  75 C :    0.007956
  76 C :    0.004066
  77 C :    0.005640
  78 C :    0.065427
  79 C :   -0.125287
  80 C :   -0.020269
  81 N :   -0.035549
  82 C :   -0.017285
  83 N :   -0.042772
  84 H :    0.042125
  85 H :    0.038727
  86 H :    0.039188
  87 H :    0.043917
  88 H :    0.046181
  89 H :    0.042835
  90 H :    0.040243
  91 H :    0.047216
  92 H :    0.030164
  93 H :    0.031217
  94 H :    0.024561
  95 H :    0.046537
  96 H :    0.021698
  97 H :    0.046431
  98 H :    0.042892
  99 H :    0.046008
 100 H :    0.044231
 101 H :    0.039387
 102 H :    0.038781
 103 H :    0.042042

  Mayer bond orders larger than 0.100000
B(  0-C ,  1-C ) :   1.3721 B(  0-C ,  5-C ) :   1.3807 B(  0-C , 84-H ) :   0.9842
B(  1-C ,  2-C ) :   1.3750 B(  1-C , 85-H ) :   0.9861 B(  2-C ,  3-C ) :   1.3658
B(  2-C , 86-H ) :   0.9871 B(  3-C ,  4-C ) :   1.3824 B(  3-C , 87-H ) :   0.9877
B(  4-C ,  5-C ) :   1.3086 B(  4-C , 13-C ) :   1.0087 B(  5-C ,  6-C ) :   1.0007
B(  6-C ,  7-C ) :   1.6431 B(  6-C , 12-C ) :   1.0547 B(  7-C ,  8-C ) :   1.1462
B(  7-C , 10-C ) :   1.1336 B(  8-C ,  9-N ) :   2.9798 B( 10-C , 11-N ) :   2.9718
B( 12-C , 13-C ) :   1.0099 B( 12-C , 19-C ) :   1.6413 B( 13-C , 14-C ) :   1.6657
B( 14-C , 15-C ) :   1.1628 B( 14-C , 17-C ) :   1.1339 B( 15-C , 16-N ) :   3.0028
B( 17-C , 18-N ) :   3.0015 B( 19-C , 20-C ) :   1.1744 B( 19-C , 88-H ) :   0.9101
B( 20-C , 21-C ) :   1.3813 B( 20-C , 24-S ) :   1.1022 B( 21-C , 22-C ) :   1.3664
B( 21-C , 89-H ) :   0.9806 B( 22-C , 23-C ) :   1.4019 B( 22-C , 27-C ) :   0.9965
B( 23-C , 24-S ) :   1.1599 B( 23-C , 25-C ) :   1.1926 B( 25-C , 26-C ) :   1.3972
B( 25-C , 35-S ) :   1.1258 B( 26-C , 27-C ) :   0.9923 B( 26-C , 33-C ) :   1.3053
B( 27-C , 28-C ) :   1.7161 B( 28-C , 29-C ) :   1.1356 B( 28-C , 31-C ) :   1.1329
B( 29-C , 30-N ) :   2.9801 B( 31-C , 32-N ) :   2.9765 B( 33-C , 34-C ) :   1.3789
B( 33-C , 90-H ) :   1.0003 B( 34-C , 35-S ) :   1.1245 B( 34-C , 36-C ) :   1.1649
B( 36-C , 37-C ) :   1.3360 B( 36-C , 41-N ) :   1.2101 B( 37-C , 38-C ) :   1.2425
B( 37-C , 45-C ) :   0.9994 B( 38-C , 39-C ) :   0.9871 B( 38-C , 43-C ) :   1.3784
B( 39-C , 40-O ) :   2.0608 B( 39-C , 41-N ) :   1.0373 B( 41-N , 42-C ) :   0.9535
B( 42-C , 91-H ) :   0.9430 B( 42-C , 92-H ) :   0.9679 B( 42-C , 93-H ) :   0.9694
B( 43-C , 44-N ) :   1.1846 B( 43-C , 48-C ) :   1.1749 B( 44-N , 45-C ) :   1.0434
B( 44-N , 47-C ) :   0.9602 B( 45-C , 46-O ) :   2.0824 B( 47-C , 94-H ) :   0.9691
B( 47-C , 95-H ) :   0.9442 B( 47-C , 96-H ) :   0.9670 B( 48-C , 49-C ) :   1.4252
B( 48-C , 52-S ) :   1.0701 B( 49-C , 50-C ) :   1.3029 B( 49-C , 97-H ) :   0.9678
B( 50-C , 51-C ) :   1.3990 B( 50-C , 55-C ) :   0.9828 B( 51-C , 52-S ) :   1.1226
B( 51-C , 53-C ) :   1.2087 B( 53-C , 54-C ) :   1.4015 B( 53-C , 63-S ) :   1.1500
B( 54-C , 55-C ) :   0.9963 B( 54-C , 61-C ) :   1.3599 B( 55-C , 56-C ) :   1.7236
B( 56-C , 57-C ) :   1.1368 B( 56-C , 59-C ) :   1.1333 B( 57-C , 58-N ) :   2.9759
B( 59-C , 60-N ) :   3.0047 B( 61-C , 62-C ) :   1.3853 B( 61-C , 98-H ) :   0.9849
B( 62-C , 63-S ) :   1.1018 B( 62-C , 64-C ) :   1.1640 B( 64-C , 65-C ) :   1.6365
B( 64-C , 99-H ) :   0.9139 B( 65-C , 66-C ) :   1.0604 B( 65-C , 78-C ) :   1.0113
B( 66-C , 67-C ) :   1.6392 B( 66-C , 72-C ) :   1.0009 B( 67-C , 68-C ) :   1.1362
B( 67-C , 70-C ) :   1.1477 B( 68-C , 69-N ) :   2.9640 B( 70-C , 71-N ) :   2.9788
B( 72-C , 73-C ) :   1.3105 B( 72-C , 77-C ) :   1.3803 B( 73-C , 74-C ) :   1.3830
B( 73-C , 78-C ) :   1.0081 B( 74-C , 75-C ) :   1.3672 B( 74-C ,100-H ) :   0.9862
B( 75-C , 76-C ) :   1.3752 B( 75-C ,101-H ) :   0.9868 B( 76-C , 77-C ) :   1.3726
B( 76-C ,102-H ) :   0.9863 B( 77-C ,103-H ) :   0.9835 B( 78-C , 79-C ) :   1.6623
B( 79-C , 80-C ) :   1.1381 B( 79-C , 82-C ) :   1.1598 B( 80-C , 81-N ) :   2.9990
B( 82-C , 83-N ) :   3.0052

-----------------------------------------------------------------------------
         ABSORPTION SPECTRUM VIA TRANSITION ELECTRIC DIPOLE MOMENTS
-----------------------------------------------------------------------------
State   Energy  Wavelength   fosc         T2         TX        TY        TZ
        (cm-1)    (nm)                  (au**2)     (au)      (au)      (au)
-----------------------------------------------------------------------------
   0   10468.9    955.2   0.933162143  29.34472  -1.95288  -4.25683  -2.72220
   1   12182.4    820.9   0.005238621   0.14157  -0.32300   0.03994   0.18879
   2   16501.2    606.0   0.959202364  19.13680  -1.38950  -3.43956  -2.31852
   3   18452.9    541.9   0.019570651   0.34915   0.53158  -0.24761   0.07260
   4   19017.8    525.8   0.017113524   0.29625   0.28850  -0.45926  -0.04574
   5   19519.4    512.3   0.262658707   4.42996   1.30772   1.49251   0.70161
   6   21217.8    471.3   0.090024283   1.39680   0.02081  -0.70509  -0.94827
   7   22083.2    452.8   0.106527528   1.58809  -0.13719  -0.29522   1.21742
   8   22581.5    442.8   0.150503342   2.19416  -1.28299  -0.71137   0.20503
   9   24360.4    410.5   0.040612383   0.54884   0.72260   0.14094   0.08260
  10   24723.5    404.5   0.082613581   1.10006  -0.33100  -0.87350  -0.47697
  11   26119.4    382.9   0.043970523   0.55421   0.55550   0.41325   0.27360
  12   26435.7    378.3   0.254337995   3.16734   0.89853   1.49224   0.36499
  13   26730.3    374.1   0.016111304   0.19843  -0.08968  -0.35145  -0.25859
  14   27217.9    367.4   0.012238399   0.14803   0.13935  -0.02536  -0.35772
  15   27486.0    363.8   0.022283178   0.26690  -0.45345   0.02921  -0.24581
  16   28416.4    351.9   0.121028945   1.40215   0.79030   0.57361   0.66974
  17   28498.4    350.9   0.134899541   1.55835   0.48889   0.66089  -0.93945
  18   28839.0    346.8   0.008354220   0.09537   0.10663  -0.23340  -0.17182
  19   29170.9    342.8   0.303154090   3.42128   0.73255  -0.09221  -1.69592
  20   29630.5    337.5   0.048575255   0.53970   0.60462  -0.06042  -0.41289
  21   29931.3    334.1   0.249756368   2.74705   1.31939   0.94709  -0.33055
  22   29950.4    333.9   0.260810203   2.86680  -0.33841   1.17056   1.17562
  23   30788.0    324.8   0.030803664   0.32938   0.47577   0.32096   0.00315
  24   30993.6    322.6   0.012463629   0.13239   0.11222   0.25147   0.23782
  25   31200.3    320.5   0.025249542   0.26642  -0.39921   0.09008   0.31454
  26   31311.1    319.4   0.014608367   0.15360  -0.25087   0.16352   0.25282
  27   31482.2    317.6   0.003235983   0.03384  -0.14690  -0.11032  -0.00934
  28   31867.3    313.8   0.018462229   0.19073   0.14702   0.39339  -0.11982
  29   32319.2    309.4   0.033325781   0.33947   0.29526   0.49532   0.08336
  30   32504.5    307.6   0.343886143   3.48295  -1.05589  -1.42625  -0.57781
  31   32804.3    304.8   0.459620049   4.61258  -0.59503  -0.00356  -2.06362
  32   32959.4    303.4   0.066533647   0.66457   0.68413   0.42669   0.12027
  33   33088.6    302.2   0.543758682   5.41007  -0.69354  -1.43988   1.68991
  34   33328.5    300.0   0.312555987   3.08736  -0.28110   1.06289   1.37063
  35   33845.0    295.5   0.448885862   4.36634  -1.47305  -0.10325   1.47845
  36   34213.6    292.3   0.049844778   0.47962   0.37344  -0.16091  -0.56060
  37   34467.3    290.1   0.440544870   4.20784   1.57941   1.30577   0.09095
  38   34519.8    289.7   0.025512784   0.24331   0.05644   0.37430   0.31627
  39   34620.6    288.8   0.048832940   0.46436   0.25200   0.52961  -0.34693
  40   34683.6    288.3   0.076043527   0.72179   0.00377  -0.84854  -0.04204
  41   34844.3    287.0   0.033753076   0.31890   0.11720  -0.37570  -0.40499
  42   35225.3    283.9   0.015823902   0.14789   0.07414  -0.34902   0.14345
  43   35305.2    283.2   0.009320887   0.08691   0.20405   0.19005   0.09571
  44   35568.2    281.2   0.265725225   2.45950  -0.95915   0.18631   1.22671
  45   35667.1    280.4   0.026876804   0.24808   0.22707   0.25800   0.36048
  46   35792.5    279.4   0.152944785   1.40676  -0.26181  -1.07317  -0.43187
  47   36230.0    276.0   0.181660116   1.65069   0.93904   0.30751  -0.82118
  48   36287.2    275.6   0.054090997   0.49074   0.36374   0.58214  -0.13980
  49   36370.5    274.9   0.028998810   0.26249  -0.04103   0.04140  -0.50901
  50   36448.9    274.4   0.050643532   0.45742  -0.38267   0.03784   0.55638
  51   37028.5    270.1   0.003278989   0.02915  -0.08023  -0.12862   0.07857
  52   37275.3    268.3   0.001100477   0.00972   0.06847   0.04639   0.05366
  53   37555.8    266.3   0.005234547   0.04589   0.04386  -0.03390  -0.20691
  54   37663.4    265.5   0.001281199   0.01120  -0.04751   0.03273   0.08871
  55   38320.8    261.0   0.016914569   0.14531  -0.17667  -0.33020  -0.07118
  56   38538.7    259.5   0.042997696   0.36730  -0.29608  -0.42844  -0.30996
  57   38719.9    258.3   0.471693838   4.01053  -1.16488  -1.57291  -0.42373
  58   39308.9    254.4   0.044237196   0.37049  -0.35680  -0.48927   0.06157
  59   39564.4    252.8   0.042783976   0.35600  -0.17482   0.14095   0.55279
  60   39679.0    252.0   0.008046214   0.06676   0.22670  -0.09130  -0.08385
  61   39798.3    251.3   0.024581420   0.20334  -0.24590  -0.18001   0.33237
  62   39987.7    250.1   0.036903455   0.30382   0.35349   0.42233  -0.02232
  63   40070.8    249.6   0.001414211   0.01162  -0.05850  -0.08991   0.01060
  64   40279.2    248.3   0.015727673   0.12855   0.22752   0.24545  -0.12858
  65   40321.1    248.0   0.008618481   0.07037   0.12144   0.23392   0.03000

FINAL SINGLE POINT ENERGY     -4955.533128572481

DIPOLE MOMENT
-------------
                                X             Y             Z
Electronic contribution:      9.22468      -2.10306      -7.88571
Nuclear contribution   :    -10.33671       3.32473       6.88356
                        -----------------------------------------
Total Dipole Moment    :     -1.11203       1.22167      -1.00215
                        -----------------------------------------
Magnitude (a.u.)       :      1.93220
Magnitude (Debye)      :      4.91125

Rotational constants in cm-1:     0.002438     0.000160     0.000154
Rotational constants in MHz :    73.091010     4.810775     4.606545

                             ****ORCA TERMINATED NORMALLY****
TOTAL RUN TIME: 0 days 0 hours 12 minutes 54 seconds 326 msec
