                         Program Version 4.2.0 -  RELEASE  -
|  1> # ORCA input file
|  2> # SCF done       -212.154875407778          0.000457924465
|  3> ! CAM-B3LYP def2-SVP def2/J RIJCOSX Grid4 TightSCF
|  4> %maxcore 5000
|  5> %tddft
|  6>     Mode sTDDFT
|  7>     Ethresh 5.0
|  8>     maxcore 5000
|  9> end
| 10>
| 11> %pal
| 12>   nprocs 6
| 13>   end
| 14> * xyz 0 1
| 15>    C       -3.16560         2.97316         3.02591
| 16>    C       -2.95501         3.93156         2.04569
| 17>    C       -3.40337         3.73970         0.74625
| 18>    C       -4.08762         2.58701         0.39119
| 19>    C       -4.30896         1.62601         1.36360
| 20>    C       -3.84001         1.81133         2.68398
| 21>    C       -4.18058         0.63619         3.47478
| 22>    C       -4.00980         0.50122         4.82608
| 23>    C       -3.47347         1.50740         5.65882
| 24>    N       -3.04783         2.27880         6.39406
| 25>    C       -4.37573        -0.62638         5.59159
| 26>    N       -4.64952        -1.50681         6.27599
| 27>    C       -4.72879        -0.35004         2.54712
| 28>    C       -5.00919         0.35326         1.29849
| 29>    C       -5.96271         0.02870         0.37169
| 30>    C       -6.82221        -1.08509         0.46127
| 31>    N       -7.57663        -1.94988         0.49743
| 32>    C       -6.27570         0.82811        -0.74908
| 33>    N       -6.57909         1.43161        -1.67625
| 34>    C       -4.83988        -1.68428         2.82287
| 35>    C       -4.97828        -2.74374         1.89979
| 36>    C       -4.63188        -2.79320         0.55544
| 37>    C       -4.90688        -4.02860        -0.01151
| 38>    C       -5.46467        -4.94354         0.90859
| 39>    S       -5.61640        -4.28370         2.46799
| 40>    C       -5.74743        -6.14676         0.22183
| 41>    C       -5.37080        -5.99864        -1.12716
| 42>    C       -4.83563        -4.65930        -1.31720
| 43>    C       -4.39890        -4.09202        -2.47842
| 44>    C       -4.38533        -4.79767        -3.69959
| 45>    N       -4.37027        -5.37934        -4.68734
| 46>    C       -3.93983        -2.75830        -2.51464
| 47>    N       -3.57017        -1.67289        -2.52244
| 48>    C       -5.63299        -7.13151        -1.89200
| 49>    C       -6.21062        -8.14082        -1.13799
| 50>    S       -6.42503        -7.68069         0.54457
| 51>    C       -6.63423        -9.41634        -1.57986
| 52>    C       -7.26563       -10.39406        -0.82953
| 53>    C       -7.57151       -11.51891        -1.58887
| 54>    C       -7.16271       -11.40248        -2.93580
| 55>    S       -6.40454        -9.90280        -3.25541
| 56>    C       -7.52825       -12.57721        -3.62314
| 57>    C       -8.18081       -13.44205        -2.71388
| 58>    C       -8.21591       -12.80483        -1.40455
| 59>    C       -8.73940       -13.31866        -0.25460
| 60>    C       -9.33773       -14.59656        -0.21525
| 61>    N       -9.81533       -15.63843        -0.19417
| 62>    C       -8.70441       -12.60566         0.96270
| 63>    N       -8.66656       -12.02023         1.94751
| 64>    C       -8.60639       -14.62524        -3.28730
| 65>    C       -8.28644       -14.70269        -4.64511
| 66>    S       -7.42813       -13.25436        -5.18787
| 67>    C       -8.54179       -15.72024        -5.57056
| 68>    C       -9.29535       -16.85848        -5.38150
| 69>    C       -9.49765       -17.87502        -6.34626
| 70>    C      -10.30946       -18.89056        -5.93304
| 71>    C      -10.80164       -18.72324        -4.62178
| 72>    S      -10.18591       -17.25088        -3.92372
| 73>    C      -11.66525       -19.54209        -3.90784
| 74>    C      -12.21882       -20.77863        -4.29503
| 75>    C      -13.04626       -21.32361        -3.35466
| 76>    C      -13.18754       -20.53863        -2.18933
| 77>    S      -12.22898       -19.08757        -2.31759
| 78>    C      -13.98913       -20.82283        -1.09618
| 79>    C      -14.09602       -19.98583         0.00568
| 80>    C      -14.90189       -20.12803         1.11781
| 81>    C      -14.58495       -19.34696         2.33441
| 82>    O      -13.79485       -18.43652         2.43469
| 83>    C      -15.41635       -19.94297         3.41063
| 84>    C      -16.22723       -20.94937         2.85686
| 85>    C      -17.04366       -21.70639         3.67916
| 86>    C      -17.07260       -21.43235         5.04599
| 87>    C      -16.27654       -20.40847         5.58371
| 88>    C      -15.43468       -19.65609         4.75694
| 89>    C      -16.31360       -20.08379         6.96356
| 90>    N      -16.29723       -19.71863         8.04890
| 91>    C      -17.90174       -22.25699         5.98633
| 92>    O      -17.57473       -22.45157         7.12225
| 93>    O      -19.03098       -22.77553         5.48780
| 94>    C      -16.02213       -20.97674         1.40356
| 95>    C      -16.91462       -21.53400         0.51508
| 96>    C      -16.88991       -21.35123        -0.88095
| 97>    N      -16.95141       -21.21253        -2.01933
| 98>    C      -18.05569       -22.24859         0.92646
| 99>    N      -18.99571       -22.83183         1.23689
|100>    H       -2.80201         3.13657         4.02690
|101>    H       -2.42790         4.83826         2.30012
|102>    H       -3.21667         4.49559        -0.00090
|103>    H       -4.42158         2.44196        -0.62330
|104>    H       -4.76166        -1.99123         3.85723
|105>    H       -4.16746        -1.97321         0.03806
|106>    H       -5.42848        -7.23319        -2.94288
|107>    H       -7.48963       -10.27140         0.21501
|108>    H       -9.10938       -15.40784        -2.75265
|109>    H       -8.10946       -15.59332        -6.55495
|110>    H       -9.03612       -17.82485        -7.31656
|111>    H      -10.57192       -19.73947        -6.53768
|112>    H      -11.99500       -21.23516        -5.24224
|113>    H      -13.56848       -22.25651        -3.46877
|114>    H      -14.53615       -21.75322        -1.12869
|115>    H      -13.41443       -19.14097         0.05614
|116>    H      -17.61517       -22.53012         3.27848
|117>    H      -14.81347       -18.87324         5.16467
|118>    H      -19.20776       -22.53566         4.56721
|119> *
|120>
|121>                          ****END OF INPUT****

CARTESIAN COORDINATES (ANGSTROEM)
---------------------------------
  C     -3.165600    2.973160    3.025910
  C     -2.955010    3.931560    2.045690
  C     -3.403370    3.739700    0.746250
  C     -4.087620    2.587010    0.391190
  C     -4.308960    1.626010    1.363600
  C     -3.840010    1.811330    2.683980
  C     -4.180580    0.636190    3.474780
  C     -4.009800    0.501220    4.826080
  C     -3.473470    1.507400    5.658820
  N     -3.047830    2.278800    6.394060
  C     -4.375730   -0.626380    5.591590
  N     -4.649520   -1.506810    6.275990
  C     -4.728790   -0.350040    2.547120
  C     -5.009190    0.353260    1.298490
  C     -5.962710    0.028700    0.371690
  C     -6.822210   -1.085090    0.461270
  N     -7.576630   -1.949880    0.497430
  C     -6.275700    0.828110   -0.749080
  N     -6.579090    1.431610   -1.676250
  C     -4.839880   -1.684280    2.822870
  C     -4.978280   -2.743740    1.899790
  C     -4.631880   -2.793200    0.555440
  C     -4.906880   -4.028600   -0.011510
  C     -5.464670   -4.943540    0.908590
  S     -5.616400   -4.283700    2.467990
  C     -5.747430   -6.146760    0.221830
  C     -5.370800   -5.998640   -1.127160
  C     -4.835630   -4.659300   -1.317200
  C     -4.398900   -4.092020   -2.478420
  C     -4.385330   -4.797670   -3.699590
  N     -4.370270   -5.379340   -4.687340
  C     -3.939830   -2.758300   -2.514640
  N     -3.570170   -1.672890   -2.522440
  C     -5.632990   -7.131510   -1.892000
  C     -6.210620   -8.140820   -1.137990
  S     -6.425030   -7.680690    0.544570
  C     -6.634230   -9.416340   -1.579860
  C     -7.265630  -10.394060   -0.829530
  C     -7.571510  -11.518910   -1.588870
  C     -7.162710  -11.402480   -2.935800
  S     -6.404540   -9.902800   -3.255410
  C     -7.528250  -12.577210   -3.623140
  C     -8.180810  -13.442050   -2.713880
  C     -8.215910  -12.804830   -1.404550
  C     -8.739400  -13.318660   -0.254600
  C     -9.337730  -14.596560   -0.215250
  N     -9.815330  -15.638430   -0.194170
  C     -8.704410  -12.605660    0.962700
  N     -8.666560  -12.020230    1.947510
  C     -8.606390  -14.625240   -3.287300
  C     -8.286440  -14.702690   -4.645110
  S     -7.428130  -13.254360   -5.187870
  C     -8.541790  -15.720240   -5.570560
  C     -9.295350  -16.858480   -5.381500
  C     -9.497650  -17.875020   -6.346260
  C    -10.309460  -18.890560   -5.933040
  C    -10.801640  -18.723240   -4.621780
  S    -10.185910  -17.250880   -3.923720
  C    -11.665250  -19.542090   -3.907840
  C    -12.218820  -20.778630   -4.295030
  C    -13.046260  -21.323610   -3.354660
  C    -13.187540  -20.538630   -2.189330
  S    -12.228980  -19.087570   -2.317590
  C    -13.989130  -20.822830   -1.096180
  C    -14.096020  -19.985830    0.005680
  C    -14.901890  -20.128030    1.117810
  C    -14.584950  -19.346960    2.334410
  O    -13.794850  -18.436520    2.434690
  C    -15.416350  -19.942970    3.410630
  C    -16.227230  -20.949370    2.856860
  C    -17.043660  -21.706390    3.679160
  C    -17.072600  -21.432350    5.045990
  C    -16.276540  -20.408470    5.583710
  C    -15.434680  -19.656090    4.756940
  C    -16.313600  -20.083790    6.963560
  N    -16.297230  -19.718630    8.048900
  C    -17.901740  -22.256990    5.986330
  O    -17.574730  -22.451570    7.122250
  O    -19.030980  -22.775530    5.487800
  C    -16.022130  -20.976740    1.403560
  C    -16.914620  -21.534000    0.515080
  C    -16.889910  -21.351230   -0.880950
  N    -16.951410  -21.212530   -2.019330
  C    -18.055690  -22.248590    0.926460
  N    -18.995710  -22.831830    1.236890
  H     -2.802010    3.136570    4.026900
  H     -2.427900    4.838260    2.300120
  H     -3.216670    4.495590   -0.000900
  H     -4.421580    2.441960   -0.623300
  H     -4.761660   -1.991230    3.857230
  H     -4.167460   -1.973210    0.038060
  H     -5.428480   -7.233190   -2.942880
  H     -7.489630  -10.271400    0.215010
  H     -9.109380  -15.407840   -2.752650
  H     -8.109460  -15.593320   -6.554950
  H     -9.036120  -17.824850   -7.316560
  H    -10.571920  -19.739470   -6.537680
  H    -11.995000  -21.235160   -5.242240
  H    -13.568480  -22.256510   -3.468770
  H    -14.536150  -21.753220   -1.128690
  H    -13.414430  -19.140970    0.056140
  H    -17.615170  -22.530120    3.278480
  H    -14.813470  -18.873240    5.164670
  H    -19.207760  -22.535660    4.567210

 Total Charge           Charge          ....    0
 Multiplicity           Mult            ....    1
 Number of Electrons    NEL             ....  606
 Basis Dimension        Dim             .... 1309

ORBITAL ENERGIES
----------------

  NO   OCC          E(Eh)            E(eV)
   0   2.0000     -89.010628     -2422.1023
   1   2.0000     -89.010271     -2422.0926
   2   2.0000     -89.009652     -2422.0758
   3   2.0000     -89.008223     -2422.0369
   4   2.0000     -88.981512     -2421.3101
   5   2.0000     -88.973710     -2421.0977
   6   2.0000     -19.264307      -524.2085
   7   2.0000     -19.215352      -522.8763
   8   2.0000     -19.203611      -522.5568
   9   2.0000     -14.446975      -393.1222
  10   2.0000     -14.446440      -393.1076
  11   2.0000     -14.445753      -393.0889
  12   2.0000     -14.445045      -393.0697
  13   2.0000     -14.430988      -392.6871
  14   2.0000     -14.430918      -392.6853
  15   2.0000     -14.426406      -392.5625
  16   2.0000     -14.426035      -392.5524
  17   2.0000     -14.419721      -392.3806
  18   2.0000     -14.415070      -392.2540
  19   2.0000     -14.400064      -391.8457
  20   2.0000     -10.409068      -283.2451
  21   2.0000     -10.382925      -282.5338
  22   2.0000     -10.382374      -282.5188
  23   2.0000     -10.369424      -282.1664
  24   2.0000     -10.368315      -282.1362
  25   2.0000     -10.366110      -282.0762
  26   2.0000     -10.359878      -281.9066
  27   2.0000     -10.358055      -281.8570
  28   2.0000     -10.357691      -281.8471
  29   2.0000     -10.356593      -281.8172
  30   2.0000     -10.356447      -281.8133
  31   2.0000     -10.353333      -281.7285
  32   2.0000     -10.352823      -281.7146
  33   2.0000     -10.352415      -281.7035
  34   2.0000     -10.350634      -281.6551
  35   2.0000     -10.350563      -281.6531
  36   2.0000     -10.350220      -281.6438
  37   2.0000     -10.346923      -281.5541
  38   2.0000     -10.346418      -281.5403
  39   2.0000     -10.345364      -281.5117
  40   2.0000     -10.344954      -281.5005
  41   2.0000     -10.344516      -281.4886
  42   2.0000     -10.344180      -281.4794
  43   2.0000     -10.343625      -281.4644
  44   2.0000     -10.342217      -281.4260
  45   2.0000     -10.342033      -281.4210
  46   2.0000     -10.341627      -281.4100
  47   2.0000     -10.341609      -281.4095
  48   2.0000     -10.337216      -281.2900
  49   2.0000     -10.335747      -281.2500
  50   2.0000     -10.332871      -281.1717
  51   2.0000     -10.332504      -281.1617
  52   2.0000     -10.330372      -281.1037
  53   2.0000     -10.329437      -281.0783
  54   2.0000     -10.328496      -281.0527
  55   2.0000     -10.328304      -281.0474
  56   2.0000     -10.326674      -281.0031
  57   2.0000     -10.326529      -280.9991
  58   2.0000     -10.324373      -280.9405
  59   2.0000     -10.323699      -280.9221
  60   2.0000     -10.323511      -280.9170
  61   2.0000     -10.322937      -280.9014
  62   2.0000     -10.322437      -280.8878
  63   2.0000     -10.322365      -280.8858
  64   2.0000     -10.321898      -280.8731
  65   2.0000     -10.321446      -280.8608
  66   2.0000     -10.321247      -280.8554
  67   2.0000     -10.321242      -280.8553
  68   2.0000     -10.319787      -280.8157
  69   2.0000     -10.319359      -280.8040
  70   2.0000     -10.318634      -280.7843
  71   2.0000     -10.318057      -280.7686
  72   2.0000     -10.316851      -280.7358
  73   2.0000     -10.315860      -280.7088
  74   2.0000     -10.313532      -280.6455
  75   2.0000     -10.313497      -280.6445
  76   2.0000     -10.306977      -280.4671
  77   2.0000     -10.306821      -280.4629
  78   2.0000     -10.305675      -280.4317
  79   2.0000     -10.305634      -280.4306
  80   2.0000     -10.304991      -280.4130
  81   2.0000     -10.304908      -280.4108
  82   2.0000     -10.300131      -280.2808
  83   2.0000     -10.294200      -280.1194
  84   2.0000     -10.291257      -280.0394
  85   2.0000      -8.105019      -220.5488
  86   2.0000      -8.104690      -220.5398
  87   2.0000      -8.104200      -220.5265
  88   2.0000      -8.102892      -220.4909
  89   2.0000      -8.077348      -219.7958
  90   2.0000      -8.070039      -219.5969
  91   2.0000      -6.074330      -165.2909
  92   2.0000      -6.073976      -165.2813
  93   2.0000      -6.073355      -165.2644
  94   2.0000      -6.072114      -165.2306
  95   2.0000      -6.070185      -165.1781
  96   2.0000      -6.069821      -165.1682
  97   2.0000      -6.069163      -165.1503
  98   2.0000      -6.068043      -165.1198
  99   2.0000      -6.067218      -165.0974
 100   2.0000      -6.066926      -165.0894
 101   2.0000      -6.066724      -165.0840
 102   2.0000      -6.065172      -165.0417
 103   2.0000      -6.047055      -164.5487
 104   2.0000      -6.042864      -164.4347
 105   2.0000      -6.039610      -164.3462
 106   2.0000      -6.038459      -164.3148
 107   2.0000      -6.035556      -164.2358
 108   2.0000      -6.031216      -164.1177
 109   2.0000      -1.188040       -32.3282
 110   2.0000      -1.130497       -30.7624
 111   2.0000      -1.103172       -30.0188
 112   2.0000      -1.066042       -29.0085
 113   2.0000      -1.062643       -28.9160
 114   2.0000      -1.044862       -28.4321
 115   2.0000      -1.038874       -28.2692
 116   2.0000      -1.037308       -28.2266
 117   2.0000      -1.029521       -28.0147
 118   2.0000      -1.026878       -27.9428
 119   2.0000      -1.024640       -27.8819
 120   2.0000      -1.023694       -27.8561
 121   2.0000      -1.023373       -27.8474
 122   2.0000      -1.022168       -27.8146
 123   2.0000      -1.015739       -27.6397
 124   2.0000      -1.011954       -27.5367
 125   2.0000      -1.007077       -27.4040
 126   2.0000      -1.006488       -27.3879
 127   2.0000      -1.005827       -27.3699
 128   2.0000      -1.003768       -27.3139
 129   2.0000      -0.996182       -27.1075
 130   2.0000      -0.985883       -26.8273
 131   2.0000      -0.982232       -26.7279
 132   2.0000      -0.973076       -26.4787
 133   2.0000      -0.965541       -26.2737
 134   2.0000      -0.959734       -26.1157
 135   2.0000      -0.948434       -25.8082
 136   2.0000      -0.941891       -25.6302
 137   2.0000      -0.933523       -25.4024
 138   2.0000      -0.923223       -25.1222
 139   2.0000      -0.908600       -24.7243
 140   2.0000      -0.906405       -24.6645
 141   2.0000      -0.904119       -24.6023
 142   2.0000      -0.899039       -24.4641
 143   2.0000      -0.889911       -24.2157
 144   2.0000      -0.887213       -24.1423
 145   2.0000      -0.883672       -24.0459
 146   2.0000      -0.881123       -23.9766
 147   2.0000      -0.875872       -23.8337
 148   2.0000      -0.872738       -23.7484
 149   2.0000      -0.872104       -23.7311
 150   2.0000      -0.867316       -23.6009
 151   2.0000      -0.853035       -23.2123
 152   2.0000      -0.846268       -23.0281
 153   2.0000      -0.833980       -22.6938
 154   2.0000      -0.819077       -22.2882
 155   2.0000      -0.805484       -21.9183
 156   2.0000      -0.799623       -21.7589
 157   2.0000      -0.797036       -21.6884
 158   2.0000      -0.790437       -21.5089
 159   2.0000      -0.787435       -21.4272
 160   2.0000      -0.777136       -21.1469
 161   2.0000      -0.760257       -20.6876
 162   2.0000      -0.742127       -20.1943
 163   2.0000      -0.735884       -20.0244
 164   2.0000      -0.729268       -19.8444
 165   2.0000      -0.724302       -19.7093
 166   2.0000      -0.722437       -19.6585
 167   2.0000      -0.721582       -19.6353
 168   2.0000      -0.714696       -19.4479
 169   2.0000      -0.708929       -19.2910
 170   2.0000      -0.707806       -19.2604
 171   2.0000      -0.702431       -19.1141
 172   2.0000      -0.698811       -19.0156
 173   2.0000      -0.695540       -18.9266
 174   2.0000      -0.688417       -18.7328
 175   2.0000      -0.685760       -18.6605
 176   2.0000      -0.676353       -18.4045
 177   2.0000      -0.673837       -18.3360
 178   2.0000      -0.668096       -18.1798
 179   2.0000      -0.664068       -18.0702
 180   2.0000      -0.656693       -17.8695
 181   2.0000      -0.656556       -17.8658
 182   2.0000      -0.650621       -17.7043
 183   2.0000      -0.647514       -17.6197
 184   2.0000      -0.645764       -17.5721
 185   2.0000      -0.639237       -17.3945
 186   2.0000      -0.637146       -17.3376
 187   2.0000      -0.633615       -17.2415
 188   2.0000      -0.630794       -17.1648
 189   2.0000      -0.628546       -17.1036
 190   2.0000      -0.617912       -16.8142
 191   2.0000      -0.606461       -16.5026
 192   2.0000      -0.602605       -16.3977
 193   2.0000      -0.595706       -16.2100
 194   2.0000      -0.593765       -16.1572
 195   2.0000      -0.591687       -16.1006
 196   2.0000      -0.585333       -15.9277
 197   2.0000      -0.580160       -15.7870
 198   2.0000      -0.572201       -15.5704
 199   2.0000      -0.568704       -15.4752
 200   2.0000      -0.564712       -15.3666
 201   2.0000      -0.563388       -15.3306
 202   2.0000      -0.556598       -15.1458
 203   2.0000      -0.554407       -15.0862
 204   2.0000      -0.553895       -15.0722
 205   2.0000      -0.550703       -14.9854
 206   2.0000      -0.548179       -14.9167
 207   2.0000      -0.544918       -14.8280
 208   2.0000      -0.542819       -14.7708
 209   2.0000      -0.539456       -14.6793
 210   2.0000      -0.536481       -14.5984
 211   2.0000      -0.531919       -14.4743
 212   2.0000      -0.530644       -14.4396
 213   2.0000      -0.529181       -14.3998
 214   2.0000      -0.528791       -14.3891
 215   2.0000      -0.525944       -14.3117
 216   2.0000      -0.524119       -14.2620
 217   2.0000      -0.523619       -14.2484
 218   2.0000      -0.522780       -14.2256
 219   2.0000      -0.521238       -14.1836
 220   2.0000      -0.518921       -14.1206
 221   2.0000      -0.517662       -14.0863
 222   2.0000      -0.515176       -14.0186
 223   2.0000      -0.513258       -13.9665
 224   2.0000      -0.509338       -13.8598
 225   2.0000      -0.508690       -13.8422
 226   2.0000      -0.504013       -13.7149
 227   2.0000      -0.502128       -13.6636
 228   2.0000      -0.500894       -13.6300
 229   2.0000      -0.499836       -13.6012
 230   2.0000      -0.498609       -13.5678
 231   2.0000      -0.493861       -13.4386
 232   2.0000      -0.491837       -13.3836
 233   2.0000      -0.488624       -13.2961
 234   2.0000      -0.487160       -13.2563
 235   2.0000      -0.483650       -13.1608
 236   2.0000      -0.480371       -13.0716
 237   2.0000      -0.477074       -12.9819
 238   2.0000      -0.475262       -12.9325
 239   2.0000      -0.474501       -12.9118
 240   2.0000      -0.473301       -12.8792
 241   2.0000      -0.472264       -12.8510
 242   2.0000      -0.471754       -12.8371
 243   2.0000      -0.468295       -12.7430
 244   2.0000      -0.465656       -12.6711
 245   2.0000      -0.464933       -12.6515
 246   2.0000      -0.464110       -12.6291
 247   2.0000      -0.462821       -12.5940
 248   2.0000      -0.461033       -12.5454
 249   2.0000      -0.459746       -12.5103
 250   2.0000      -0.457898       -12.4600
 251   2.0000      -0.457682       -12.4542
 252   2.0000      -0.457092       -12.4381
 253   2.0000      -0.456447       -12.4206
 254   2.0000      -0.454960       -12.3801
 255   2.0000      -0.454360       -12.3638
 256   2.0000      -0.454141       -12.3578
 257   2.0000      -0.453853       -12.3500
 258   2.0000      -0.453580       -12.3425
 259   2.0000      -0.452411       -12.3107
 260   2.0000      -0.450068       -12.2470
 261   2.0000      -0.445793       -12.1306
 262   2.0000      -0.445226       -12.1152
 263   2.0000      -0.442816       -12.0496
 264   2.0000      -0.440720       -11.9926
 265   2.0000      -0.440489       -11.9863
 266   2.0000      -0.439583       -11.9617
 267   2.0000      -0.438379       -11.9289
 268   2.0000      -0.436863       -11.8877
 269   2.0000      -0.435593       -11.8531
 270   2.0000      -0.432016       -11.7558
 271   2.0000      -0.429921       -11.6987
 272   2.0000      -0.428736       -11.6665
 273   2.0000      -0.426051       -11.5934
 274   2.0000      -0.424112       -11.5407
 275   2.0000      -0.423754       -11.5309
 276   2.0000      -0.422171       -11.4878
 277   2.0000      -0.418523       -11.3886
 278   2.0000      -0.414432       -11.2773
 279   2.0000      -0.412278       -11.2187
 280   2.0000      -0.407695       -11.0939
 281   2.0000      -0.402244       -10.9456
 282   2.0000      -0.393830       -10.7167
 283   2.0000      -0.392660       -10.6848
 284   2.0000      -0.389178       -10.5901
 285   2.0000      -0.375273       -10.2117
 286   2.0000      -0.371389       -10.1060
 287   2.0000      -0.367914       -10.0114
 288   2.0000      -0.365122        -9.9355
 289   2.0000      -0.360637        -9.8134
 290   2.0000      -0.355307        -9.6684
 291   2.0000      -0.351314        -9.5597
 292   2.0000      -0.349745        -9.5170
 293   2.0000      -0.342413        -9.3175
 294   2.0000      -0.341086        -9.2814
 295   2.0000      -0.339305        -9.2330
 296   2.0000      -0.339172        -9.2293
 297   2.0000      -0.332749        -9.0545
 298   2.0000      -0.322099        -8.7647
 299   2.0000      -0.313928        -8.5424
 300   2.0000      -0.296518        -8.0687
 301   2.0000      -0.269352        -7.3294
 302   2.0000      -0.237586        -6.4650
 303   0.0000      -0.136291        -3.7087
 304   0.0000      -0.124021        -3.3748
 305   0.0000      -0.115565        -3.1447
 306   0.0000      -0.103749        -2.8231
 307   0.0000      -0.094683        -2.5765

MULLIKEN ATOMIC CHARGES
-----------------------
   0 C :   -0.033790
   1 C :    0.049682
   2 C :    0.047538
   3 C :   -0.026701
   4 C :   -0.001126
   5 C :    0.016270
   6 C :    0.293322
   7 C :   -0.343831
   8 C :   -0.186521
   9 N :    0.162780
  10 C :   -0.176562
  11 N :    0.154278
  12 C :   -0.069904
  13 C :    0.228307
  14 C :   -0.337474
  15 C :   -0.192937
  16 N :    0.178320
  17 C :   -0.180095
  18 N :    0.172746
  19 C :    0.087872
  20 C :   -0.148654
  21 C :    0.000621
  22 C :   -0.007048
  23 C :   -0.061051
  24 S :    0.240238
  25 C :   -0.104091
  26 C :    0.026772
  27 C :    0.304212
  28 C :   -0.286155
  29 C :   -0.185224
  30 N :    0.175515
  31 C :   -0.184224
  32 N :    0.175413
  33 C :   -0.068314
  34 C :   -0.045878
  35 S :    0.211633
  36 C :   -0.049860
  37 C :   -0.062809
  38 C :    0.016865
  39 C :   -0.100311
  40 S :    0.204735
  41 C :   -0.090737
  42 C :   -0.003209
  43 C :    0.305139
  44 C :   -0.286108
  45 C :   -0.181400
  46 N :    0.180647
  47 C :   -0.183734
  48 N :    0.177252
  49 C :   -0.036444
  50 C :   -0.099682
  51 S :    0.197862
  52 C :    0.051035
  53 C :   -0.044086
  54 C :    0.048787
  55 C :    0.028201
  56 C :   -0.015732
  57 S :    0.086995
  58 C :   -0.056879
  59 C :    0.044862
  60 C :    0.037967
  61 C :   -0.017915
  62 S :    0.127140
  63 C :   -0.000264
  64 C :    0.022558
  65 C :   -0.137092
  66 C :    0.144521
  67 O :   -0.135971
  68 C :    0.005582
  69 C :    0.030336
  70 C :   -0.090864
  71 C :    0.006797
  72 C :   -0.078808
  73 C :   -0.037244
  74 C :   -0.157901
  75 N :    0.138009
  76 C :    0.178090
  77 O :   -0.150502
  78 O :   -0.145445
  79 C :    0.286732
  80 C :   -0.336377
  81 C :   -0.208823
  82 N :    0.163068
  83 C :   -0.180256
  84 N :    0.131100
  85 H :    0.006478
  86 H :    0.006052
  87 H :    0.008600
  88 H :    0.013423
  89 H :    0.016504
  90 H :    0.030651
  91 H :    0.014476
  92 H :    0.017142
  93 H :    0.032095
  94 H :   -0.004103
  95 H :    0.000307
  96 H :   -0.001761
  97 H :   -0.001111
  98 H :    0.006050
  99 H :    0.008415
 100 H :    0.025782
 101 H :    0.003291
 102 H :    0.014335
 103 H :    0.191607
Sum of atomic charges:   -0.0000000

LOEWDIN ATOMIC CHARGES
----------------------
   0 C :    0.005944
   1 C :    0.004203
   2 C :    0.007127
   3 C :    0.005805
   4 C :   -0.010307
   5 C :   -0.013498
   6 C :    0.078092
   7 C :   -0.132190
   8 C :   -0.019457
   9 N :   -0.042673
  10 C :   -0.021464
  11 N :   -0.043564
  12 C :   -0.054398
  13 C :    0.066594
  14 C :   -0.127921
  15 C :   -0.017394
  16 N :   -0.042829
  17 C :   -0.020570
  18 N :   -0.037335
  19 C :    0.034891
  20 C :   -0.182435
  21 C :    0.006703
  22 C :   -0.066610
  23 C :   -0.153948
  24 S :    0.518686
  25 C :   -0.184289
  26 C :   -0.052608
  27 C :    0.081407
  28 C :   -0.095089
  29 C :   -0.016197
  30 N :   -0.027687
  31 C :   -0.013485
  32 N :   -0.028267
  33 C :   -0.037673
  34 C :   -0.169290
  35 S :    0.497306
  36 C :   -0.178298
  37 C :   -0.032896
  38 C :   -0.061717
  39 C :   -0.177853
  40 S :    0.487785
  41 C :   -0.177310
  42 C :   -0.061936
  43 C :    0.077280
  44 C :   -0.091095
  45 C :   -0.017214
  46 N :   -0.020288
  47 C :   -0.016171
  48 N :   -0.023924
  49 C :   -0.027614
  50 C :   -0.168760
  51 S :    0.478993
  52 C :   -0.048688
  53 C :   -0.153829
  54 C :   -0.008715
  55 C :   -0.038746
  56 C :   -0.146553
  57 S :    0.419804
  58 C :   -0.188929
  59 C :   -0.003663
  60 C :   -0.033487
  61 C :   -0.097484
  62 S :    0.419788
  63 C :   -0.069271
  64 C :    0.055722
  65 C :   -0.113134
  66 C :    0.077853
  67 O :   -0.138271
  68 C :   -0.030843
  69 C :    0.004957
  70 C :   -0.007671
  71 C :   -0.039975
  72 C :   -0.028664
  73 C :    0.045761
  74 C :   -0.033498
  75 N :   -0.030888
  76 C :    0.079827
  77 O :   -0.123307
  78 O :   -0.017138
  79 C :    0.065320
  80 C :   -0.148972
  81 C :   -0.023955
  82 N :   -0.053843
  83 C :   -0.016584
  84 N :   -0.068508
  85 H :    0.041915
  86 H :    0.038660
  87 H :    0.039239
  88 H :    0.043554
  89 H :    0.046261
  90 H :    0.043096
  91 H :    0.037336
  92 H :    0.037513
  93 H :    0.026667
  94 H :    0.039594
  95 H :    0.039070
  96 H :    0.036859
  97 H :    0.037437
  98 H :    0.041879
  99 H :    0.037991
 100 H :    0.037914
 101 H :    0.034860
 102 H :    0.052076
 103 H :    0.099099

  Mayer bond orders larger than 0.100000
B(  0-C ,  1-C ) :   1.3734 B(  0-C ,  5-C ) :   1.3810 B(  0-C , 85-H ) :   0.9837
B(  1-C ,  2-C ) :   1.3746 B(  1-C , 86-H ) :   0.9856 B(  2-C ,  3-C ) :   1.3685
B(  2-C , 87-H ) :   0.9864 B(  3-C ,  4-C ) :   1.3805 B(  3-C , 88-H ) :   0.9868
B(  4-C ,  5-C ) :   1.3106 B(  4-C , 13-C ) :   1.0109 B(  5-C ,  6-C ) :   0.9967
B(  6-C ,  7-C ) :   1.6413 B(  6-C , 12-C ) :   1.0599 B(  7-C ,  8-C ) :   1.1473
B(  7-C , 10-C ) :   1.1324 B(  8-C ,  9-N ) :   2.9771 B( 10-C , 11-N ) :   2.9655
B( 12-C , 13-C ) :   1.0113 B( 12-C , 19-C ) :   1.6339 B( 13-C , 14-C ) :   1.6581
B( 14-C , 15-C ) :   1.1614 B( 14-C , 17-C ) :   1.1376 B( 15-C , 16-N ) :   3.0038
B( 17-C , 18-N ) :   2.9986 B( 19-C , 20-C ) :   1.1694 B( 19-C , 89-H ) :   0.9123
B( 20-C , 21-C ) :   1.3847 B( 20-C , 24-S ) :   1.0982 B( 21-C , 22-C ) :   1.3640
B( 21-C , 90-H ) :   0.9839 B( 22-C , 23-C ) :   1.3976 B( 22-C , 27-C ) :   0.9997
B( 23-C , 24-S ) :   1.1617 B( 23-C , 25-C ) :   1.2035 B( 25-C , 26-C ) :   1.4344
B( 25-C , 35-S ) :   1.1150 B( 26-C , 27-C ) :   0.9906 B( 26-C , 33-C ) :   1.3147
B( 27-C , 28-C ) :   1.7194 B( 28-C , 29-C ) :   1.1321 B( 28-C , 31-C ) :   1.1361
B( 29-C , 30-N ) :   2.9905 B( 31-C , 32-N ) :   2.9793 B( 33-C , 34-C ) :   1.4409
B( 33-C , 91-H ) :   0.9872 B( 34-C , 35-S ) :   1.1208 B( 34-C , 36-C ) :   1.1804
B( 36-C , 37-C ) :   1.4439 B( 36-C , 40-S ) :   1.1074 B( 37-C , 38-C ) :   1.3147
B( 37-C , 92-H ) :   0.9850 B( 38-C , 39-C ) :   1.4232 B( 38-C , 43-C ) :   0.9975
B( 39-C , 40-S ) :   1.1176 B( 39-C , 41-C ) :   1.2183 B( 41-C , 42-C ) :   1.4013
B( 41-C , 51-S ) :   1.1285 B( 42-C , 43-C ) :   0.9959 B( 42-C , 49-C ) :   1.3697
B( 43-C , 44-C ) :   1.7176 B( 44-C , 45-C ) :   1.1335 B( 44-C , 47-C ) :   1.1323
B( 45-C , 46-N ) :   2.9788 B( 47-C , 48-N ) :   2.9886 B( 49-C , 50-C ) :   1.3824
B( 49-C , 93-H ) :   0.9649 B( 50-C , 51-S ) :   1.0872 B( 50-C , 52-C ) :   1.1965
B( 52-C , 53-C ) :   1.5707 B( 52-C , 94-H ) :   0.9528 B( 53-C , 54-C ) :   1.1619
B( 53-C , 57-S ) :   1.0383 B( 54-C , 55-C ) :   1.5698 B( 54-C , 95-H ) :   0.9991
B( 55-C , 56-C ) :   1.2051 B( 55-C , 96-H ) :   0.9937 B( 56-C , 57-S ) :   1.0824
B( 56-C , 58-C ) :   1.4507 B( 58-C , 59-C ) :   1.2237 B( 58-C , 62-S ) :   1.0517
B( 59-C , 60-C ) :   1.5364 B( 59-C , 97-H ) :   0.9952 B( 60-C , 61-C ) :   1.1888
B( 60-C , 98-H ) :   1.0009 B( 61-C , 62-S ) :   1.0965 B( 61-C , 63-C ) :   1.4733
B( 63-C , 64-C ) :   1.2431 B( 63-C , 99-H ) :   0.9631 B( 64-C , 65-C ) :   1.4999
B( 64-C ,100-H ) :   0.9395 B( 65-C , 66-C ) :   0.9708 B( 65-C , 79-C ) :   1.1043
B( 66-C , 67-O ) :   2.2575 B( 66-C , 68-C ) :   0.8972 B( 68-C , 69-C ) :   1.3466
B( 68-C , 73-C ) :   1.3660 B( 69-C , 70-C ) :   1.3934 B( 69-C , 79-C ) :   0.9792
B( 70-C , 71-C ) :   1.3153 B( 70-C ,101-H ) :   0.9665 B( 71-C , 72-C ) :   1.4039
B( 71-C , 76-C ) :   0.8708 B( 72-C , 73-C ) :   1.3553 B( 72-C , 74-C ) :   1.0677
B( 73-C ,102-H ) :   1.0161 B( 74-C , 75-N ) :   3.0397 B( 76-C , 77-O ) :   2.1681
B( 76-C , 78-O ) :   1.2561 B( 78-O ,103-H ) :   0.9446 B( 79-C , 80-C ) :   1.5985
B( 80-C , 81-C ) :   1.1657 B( 80-C , 83-C ) :   1.1384 B( 81-C , 82-N ) :   3.0064
B( 83-C , 84-N ) :   2.9778

-----------------------------------------------------------------------------
         ABSORPTION SPECTRUM VIA TRANSITION ELECTRIC DIPOLE MOMENTS
-----------------------------------------------------------------------------
State   Energy  Wavelength   fosc         T2         TX        TY        TZ
        (cm-1)    (nm)                  (au**2)     (au)      (au)      (au)
-----------------------------------------------------------------------------
   0    8479.6   1179.3   0.793915811  30.82299   3.04679   4.62692  -0.36289
   1   11503.5    869.3   0.589774407  16.87845   2.34560   3.30169  -0.68955
   2   12414.4    805.5   0.416729786  11.05104  -2.19762  -0.62692   2.41423
   3   15892.2    629.2   0.134900641   2.79451   0.25709  -1.08596  -1.24463
   4   17465.6    572.6   0.426468791   8.03858   0.11400  -2.31540  -1.63233
   5   18682.8    535.3   0.356509751   6.28211  -0.05174  -2.35964  -0.84353
   6   19792.8    505.2   0.010892546   0.18118  -0.11004   0.38867   0.13418
   7   21219.0    471.3   0.202569987   3.14287   0.32548  -0.82680  -1.53406
   8   22015.1    454.2   0.325346129   4.86520  -0.60872  -1.27636  -1.69280
   9   22519.4    444.1   0.020480991   0.29941  -0.13727   0.46030   0.26209
  10   23400.3    427.3   0.010293998   0.14482  -0.04373  -0.07050  -0.37140
  11   23818.1    419.8   0.197598523   2.73120   0.26718   1.21060   1.09282
  12   24746.5    404.1   0.140704236   1.87184  -0.35159   0.85587   1.00783
  13   26121.8    382.8   0.027069275   0.34115  -0.02441  -0.46905   0.34721
  14   26619.1    375.7   0.053342274   0.65971   0.28264   0.09132   0.75597
  15   27196.9    367.7   0.019135485   0.23163   0.24962   0.39487   0.11576
  16   27574.3    362.7   0.205665556   2.45546  -0.26317  -1.24108  -0.91974
  17   28013.6    357.0   0.143637740   1.68801   0.67392   1.08600  -0.23335
  18   28621.3    349.4   0.104515854   1.20218   0.60039   0.86824   0.29643
  19   28853.2    346.6   0.008486436   0.09683  -0.07860  -0.07302  -0.29210
  20   29526.5    338.7   0.119825128   1.33602  -0.51876  -1.00500   0.23849
  21   29907.3    334.4   0.110856784   1.22028   0.36605  -0.20819  -1.02125
  22   30087.6    332.4   0.041067039   0.44935   0.28098   0.04953  -0.60658
  23   30424.7    328.7   0.112804628   1.22061  -0.10306  -0.18352  -1.08458
  24   30526.9    327.6   0.260030678   2.80425  -0.90177  -0.97655   1.01854
  25   30791.2    324.8   0.237026449   2.53423   0.37556   0.71155  -1.37364
  26   30941.1    323.2   0.017644424   0.18774   0.16885   0.01786   0.39863
  27   31430.5    318.2   0.103834790   1.08759  -0.15170   0.64136   0.80823
  28   31905.4    313.4   0.144058849   1.48645   0.41584  -0.09650  -1.14203
  29   32197.3    310.6   0.026585722   0.27183   0.07807  -0.34930   0.37911
  30   32371.4    308.9   0.094669644   0.96278   0.75418   0.62654   0.03804
  31   32657.6    306.2   0.235199735   2.37098  -0.94129  -1.09606  -0.53254
  32   32757.7    305.3   0.585193841   5.88114   0.22780  -0.32590   2.39229
  33   32899.5    304.0   0.193123111   1.93251   0.26950   0.10610   1.35964
  34   33278.2    300.5   0.217507196   2.15174   0.36164   1.34356  -0.46453
  35   33507.1    298.4   0.019438986   0.19099  -0.02427   0.43624  -0.00965
  36   33835.1    295.6   0.041467528   0.40347   0.21106   0.59824   0.03216
  37   33885.3    295.1   0.046199401   0.44885   0.26087   0.49149   0.37314
  38   34438.1    290.4   0.212820185   2.03446   0.00003   0.11771   1.42148
  39   34496.0    289.9   0.049636400   0.47370   0.41569  -0.00581  -0.54852
  40   34653.9    288.6   0.216445807   2.05623  -0.73578  -0.99228  -0.72819
  41   34731.2    287.9   0.326241094   3.09239  -0.26438   0.35648   1.70159
  42   34844.3    287.0   0.054457243   0.51452  -0.54070  -0.44044   0.16783
  43   34998.5    285.7   0.030881069   0.29048   0.29218   0.18319   0.41419
  44   35063.6    285.2   0.172737716   1.62183  -0.56240  -1.11787   0.23646
  45   35521.0    281.5   0.331520568   3.07256   0.22026   0.58137  -1.63892
  46   35575.8    281.1   0.125354882   1.16001  -0.52564  -0.72964  -0.59274
  47   35751.5    279.7   0.029962120   0.27590   0.11369   0.50749  -0.07367
  48   36107.2    277.0   0.003814194   0.03478   0.03768   0.04265   0.17759
  49   36468.3    274.2   0.008569109   0.07736  -0.14473  -0.17275  -0.16300
  50   36570.6    273.4   0.018036182   0.16236  -0.03709  -0.18153  -0.35782
  51   36666.8    272.7   0.070946352   0.63699   0.29298   0.41512   0.61549
  52   36846.1    271.4   0.000920952   0.00823   0.07819  -0.02460   0.03885
  53   37377.3    267.5   0.007651905   0.06740  -0.11479  -0.17514  -0.15345
  54   37512.8    266.6   0.043202809   0.37915  -0.16430  -0.33110   0.49247
  55   37648.9    265.6   0.014028650   0.12267   0.13721   0.13488   0.29266
  56   38029.3    263.0   0.025310945   0.21911   0.04944   0.04818   0.46298
  57   38268.0    261.3   0.008286501   0.07129   0.02934   0.26015  -0.05244
  58   38462.0    260.0   0.038570799   0.33014   0.20982   0.45767   0.27687
  59   38517.5    259.6   0.114289383   0.97684   0.45342   0.37091   0.79604
  60   38735.3    258.2   0.020830650   0.17704  -0.04377   0.18606   0.37484
  61   38981.1    256.5   0.046089701   0.38925  -0.30854  -0.50487  -0.19788
  62   39026.0    256.2   0.209435767   1.76674   0.32585   0.43843   1.21175
  63   39149.8    255.4   0.020690100   0.17398   0.16712  -0.09919   0.36907
  64   39405.1    253.8   0.017589576   0.14695  -0.02595   0.34605   0.16289
  65   39414.2    253.7   0.020543491   0.17159  -0.16219   0.34409  -0.16398
  66   39584.1    252.6   0.015033105   0.12503   0.01246  -0.04042   0.35105
  67   39736.8    251.7   0.032105744   0.26599  -0.19260  -0.45713  -0.14116
  68   39778.3    251.4   0.028068998   0.23230   0.08029   0.10161   0.46426
  69   39917.5    250.5   0.007212139   0.05948   0.01799   0.23594   0.05906
  70   40115.6    249.3   0.062575384   0.51353  -0.35714  -0.60332   0.14829
  71   40308.8    248.1   0.004564922   0.03728  -0.05703  -0.17365  -0.06227

FINAL SINGLE POINT ENERGY     -5700.209087032712

DIPOLE MOMENT
-------------
                                X             Y             Z
Electronic contribution:      7.89885      12.58228       6.17920
Nuclear contribution   :     -2.81473     -11.75809     -13.08086
                        -----------------------------------------
Total Dipole Moment    :      5.08412       0.82419      -6.90167
                        -----------------------------------------
Magnitude (a.u.)       :      8.61165
Magnitude (Debye)      :     21.88908

Rotational constants in cm-1:     0.000938     0.000151     0.000133
Rotational constants in MHz :    28.114770     4.539368     4.000025

                             ****ORCA TERMINATED NORMALLY****
TOTAL RUN TIME: 0 days 0 hours 12 minutes 59 seconds 660 msec
