                         Program Version 4.2.0 -  RELEASE  -
|  1> # ORCA input file
|  2> # SCF done       -179.303890372119          0.000576426037
|  3> ! CAM-B3LYP def2-SVP def2/J RIJCOSX Grid4 TightSCF
|  4> %maxcore 5000
|  5> %tddft
|  6>     Mode sTDDFT
|  7>     Ethresh 5.0
|  8>     maxcore 5000
|  9> end
| 10>
| 11> %pal
| 12>   nprocs 6
| 13>   end
| 14> * xyz 0 1
| 15>    C       -6.72959         3.76452         0.54428
| 16>    C       -7.63814         4.25016        -0.38339
| 17>    C       -8.46254         3.39177        -1.09949
| 18>    C       -8.41060         2.02115        -0.90018
| 19>    C       -7.51089         1.52414         0.02891
| 20>    C       -6.65979         2.39455         0.74945
| 21>    C       -5.79483         1.60680         1.61303
| 22>    C       -4.94343         2.08433         2.56524
| 23>    C       -4.79459         3.45680         2.87042
| 24>    N       -4.63123         4.55211         3.16810
| 25>    C       -4.11728         1.29375         3.39663
| 26>    N       -3.41384         0.71761         4.09588
| 27>    C       -6.01007         0.20096         1.24228
| 28>    C       -7.24548         0.16177         0.45048
| 29>    C       -8.09990        -0.89498         0.32789
| 30>    C       -7.89927        -2.16143         0.91599
| 31>    N       -7.79626        -3.20443         1.38417
| 32>    C       -9.33321        -0.82880        -0.35911
| 33>    N      -10.34362        -0.83951        -0.90063
| 34>    C       -5.13632        -0.80020         1.48435
| 35>    C       -5.10380        -2.09092         0.84083
| 36>    C       -5.33674        -2.30788        -0.50906
| 37>    C       -5.65317        -1.34046        -1.46104
| 38>    N       -5.91706        -0.52851        -2.23000
| 39>    S       -5.12200        -3.96857        -0.95536
| 40>    C       -4.71573        -4.40135         0.67553
| 41>    C       -4.72793        -3.28874         1.50738
| 42>    C       -4.44314        -3.29345         2.88399
| 43>    N       -4.20676        -3.24201         4.00439
| 44>    C       -4.40479        -5.75002         0.99775
| 45>    C       -4.11157        -6.30028         2.23384
| 46>    C       -3.83361        -7.66405         2.13844
| 47>    C       -3.91650        -8.14907         0.82193
| 48>    S       -4.34460        -6.94083        -0.29573
| 49>    C       -3.58890        -9.52998         0.82302
| 50>    C       -3.29892        -9.91821         2.14012
| 51>    C       -3.44372        -8.76241         3.01311
| 52>    C       -3.23998        -8.71899         4.35898
| 53>    C       -3.41851        -7.54227         5.12070
| 54>    N       -3.56072        -6.59920         5.75526
| 55>    C       -2.81773        -9.85075         5.09161
| 56>    N       -2.45735       -10.75848         5.69123
| 57>    C       -2.95197       -11.26752         2.23887
| 58>    C       -2.96404       -11.89340         1.00806
| 59>    S       -3.42303       -10.80615        -0.29225
| 60>    C       -2.64773       -13.26389         0.71874
| 61>    C       -2.24764       -13.73569        -0.52563
| 62>    C       -2.04755       -13.00466        -1.69872
| 63>    N       -1.85120       -12.42981        -2.67295
| 64>    S       -1.91980       -15.43447        -0.53306
| 65>    C       -2.36595       -15.56458         1.13072
| 66>    C       -2.70574       -14.32758         1.66653
| 67>    C       -3.04522       -14.18228         3.02103
| 68>    N       -3.32530       -14.11304         4.13191
| 69>    C       -2.27441       -16.84246         1.76810
| 70>    C       -3.04589       -17.35079         2.75810
| 71>    C       -2.66972       -18.51676         3.57054
| 72>    C       -1.80435       -19.51280         3.22378
| 73>    C       -1.14272       -19.61543         1.97940
| 74>    N       -0.58543       -19.75487         0.98613
| 75>    C       -1.49989       -20.61550         4.05463
| 76>    N       -1.21567       -21.53498         4.67774
| 77>    C       -3.42694       -18.41473         4.80708
| 78>    C       -4.38257       -17.37948         4.67630
| 79>    C       -5.22176       -17.05319         5.72881
| 80>    C       -5.10747       -17.77219         6.90887
| 81>    C       -4.18014       -18.79859         7.03516
| 82>    C       -3.33049       -19.13051         5.99081
| 83>    C       -4.28392       -16.82408         3.33891
| 84>    C       -5.26464       -16.14254         2.67880
| 85>    C       -6.48922       -15.75980         3.27124
| 86>    N       -7.50132       -15.42488         3.69243
| 87>    C       -5.20704       -15.79709         1.31315
| 88>    N       -5.21132       -15.51667         0.20023
| 89>    H       -6.08873         4.44450         1.08109
| 90>    H       -7.69747         5.31387        -0.55566
| 91>    H       -9.15109         3.79544        -1.82564
| 92>    H       -9.04171         1.36108        -1.47218
| 93>    H       -4.32675        -0.63122         2.18321
| 94>    H       -4.10442        -5.73208         3.14596
| 95>    H       -2.68358       -11.76050         3.15492
| 96>    H       -1.44956       -17.44764         1.41332
| 97>    H       -5.93225       -16.24737         5.64498
| 98>    H       -5.74699       -17.52603         7.74232
| 99>    H       -4.11155       -19.34424         7.96364
|100>    H       -2.60759       -19.92092         6.11009
|101> *
|102>
|103>                          ****END OF INPUT****

CARTESIAN COORDINATES (ANGSTROEM)
---------------------------------
  C     -6.729590    3.764520    0.544280
  C     -7.638140    4.250160   -0.383390
  C     -8.462540    3.391770   -1.099490
  C     -8.410600    2.021150   -0.900180
  C     -7.510890    1.524140    0.028910
  C     -6.659790    2.394550    0.749450
  C     -5.794830    1.606800    1.613030
  C     -4.943430    2.084330    2.565240
  C     -4.794590    3.456800    2.870420
  N     -4.631230    4.552110    3.168100
  C     -4.117280    1.293750    3.396630
  N     -3.413840    0.717610    4.095880
  C     -6.010070    0.200960    1.242280
  C     -7.245480    0.161770    0.450480
  C     -8.099900   -0.894980    0.327890
  C     -7.899270   -2.161430    0.915990
  N     -7.796260   -3.204430    1.384170
  C     -9.333210   -0.828800   -0.359110
  N    -10.343620   -0.839510   -0.900630
  C     -5.136320   -0.800200    1.484350
  C     -5.103800   -2.090920    0.840830
  C     -5.336740   -2.307880   -0.509060
  C     -5.653170   -1.340460   -1.461040
  N     -5.917060   -0.528510   -2.230000
  S     -5.122000   -3.968570   -0.955360
  C     -4.715730   -4.401350    0.675530
  C     -4.727930   -3.288740    1.507380
  C     -4.443140   -3.293450    2.883990
  N     -4.206760   -3.242010    4.004390
  C     -4.404790   -5.750020    0.997750
  C     -4.111570   -6.300280    2.233840
  C     -3.833610   -7.664050    2.138440
  C     -3.916500   -8.149070    0.821930
  S     -4.344600   -6.940830   -0.295730
  C     -3.588900   -9.529980    0.823020
  C     -3.298920   -9.918210    2.140120
  C     -3.443720   -8.762410    3.013110
  C     -3.239980   -8.718990    4.358980
  C     -3.418510   -7.542270    5.120700
  N     -3.560720   -6.599200    5.755260
  C     -2.817730   -9.850750    5.091610
  N     -2.457350  -10.758480    5.691230
  C     -2.951970  -11.267520    2.238870
  C     -2.964040  -11.893400    1.008060
  S     -3.423030  -10.806150   -0.292250
  C     -2.647730  -13.263890    0.718740
  C     -2.247640  -13.735690   -0.525630
  C     -2.047550  -13.004660   -1.698720
  N     -1.851200  -12.429810   -2.672950
  S     -1.919800  -15.434470   -0.533060
  C     -2.365950  -15.564580    1.130720
  C     -2.705740  -14.327580    1.666530
  C     -3.045220  -14.182280    3.021030
  N     -3.325300  -14.113040    4.131910
  C     -2.274410  -16.842460    1.768100
  C     -3.045890  -17.350790    2.758100
  C     -2.669720  -18.516760    3.570540
  C     -1.804350  -19.512800    3.223780
  C     -1.142720  -19.615430    1.979400
  N     -0.585430  -19.754870    0.986130
  C     -1.499890  -20.615500    4.054630
  N     -1.215670  -21.534980    4.677740
  C     -3.426940  -18.414730    4.807080
  C     -4.382570  -17.379480    4.676300
  C     -5.221760  -17.053190    5.728810
  C     -5.107470  -17.772190    6.908870
  C     -4.180140  -18.798590    7.035160
  C     -3.330490  -19.130510    5.990810
  C     -4.283920  -16.824080    3.338910
  C     -5.264640  -16.142540    2.678800
  C     -6.489220  -15.759800    3.271240
  N     -7.501320  -15.424880    3.692430
  C     -5.207040  -15.797090    1.313150
  N     -5.211320  -15.516670    0.200230
  H     -6.088730    4.444500    1.081090
  H     -7.697470    5.313870   -0.555660
  H     -9.151090    3.795440   -1.825640
  H     -9.041710    1.361080   -1.472180
  H     -4.326750   -0.631220    2.183210
  H     -4.104420   -5.732080    3.145960
  H     -2.683580  -11.760500    3.154920
  H     -1.449560  -17.447640    1.413320
  H     -5.932250  -16.247370    5.644980
  H     -5.746990  -17.526030    7.742320
  H     -4.111550  -19.344240    7.963640
  H     -2.607590  -19.920920    6.110090

 Total Charge           Charge          ....    0
 Multiplicity           Mult            ....    1
 Number of Electrons    NEL             ....  510
 Basis Dimension        Dim             .... 1112

ORBITAL ENERGIES
----------------

  NO   OCC          E(Eh)            E(eV)
   0   2.0000     -89.019874     -2422.3539
   1   2.0000     -89.015265     -2422.2285
   2   2.0000     -89.011835     -2422.1352
   3   2.0000     -89.008768     -2422.0517
   4   2.0000     -14.447271      -393.1302
   5   2.0000     -14.444496      -393.0547
   6   2.0000     -14.443893      -393.0383
   7   2.0000     -14.441021      -392.9601
   8   2.0000     -14.441005      -392.9597
   9   2.0000     -14.439932      -392.9305
  10   2.0000     -14.439719      -392.9247
  11   2.0000     -14.437860      -392.8741
  12   2.0000     -14.437038      -392.8518
  13   2.0000     -14.436497      -392.8371
  14   2.0000     -14.433318      -392.7506
  15   2.0000     -14.432765      -392.7355
  16   2.0000     -14.432602      -392.7311
  17   2.0000     -14.427941      -392.6042
  18   2.0000     -10.378784      -282.4211
  19   2.0000     -10.376113      -282.3484
  20   2.0000     -10.375573      -282.3337
  21   2.0000     -10.374404      -282.3019
  22   2.0000     -10.371901      -282.2338
  23   2.0000     -10.371565      -282.2246
  24   2.0000     -10.371512      -282.2232
  25   2.0000     -10.369039      -282.1559
  26   2.0000     -10.367651      -282.1181
  27   2.0000     -10.367629      -282.1175
  28   2.0000     -10.367595      -282.1166
  29   2.0000     -10.364236      -282.0252
  30   2.0000     -10.362918      -281.9893
  31   2.0000     -10.362851      -281.9875
  32   2.0000     -10.361285      -281.9449
  33   2.0000     -10.359581      -281.8985
  34   2.0000     -10.357029      -281.8291
  35   2.0000     -10.356245      -281.8077
  36   2.0000     -10.355085      -281.7762
  37   2.0000     -10.351026      -281.6657
  38   2.0000     -10.350757      -281.6584
  39   2.0000     -10.350611      -281.6544
  40   2.0000     -10.349025      -281.6113
  41   2.0000     -10.346486      -281.5422
  42   2.0000     -10.346452      -281.5413
  43   2.0000     -10.346332      -281.5380
  44   2.0000     -10.345587      -281.5177
  45   2.0000     -10.344745      -281.4948
  46   2.0000     -10.344183      -281.4795
  47   2.0000     -10.342709      -281.4394
  48   2.0000     -10.341717      -281.4124
  49   2.0000     -10.341095      -281.3955
  50   2.0000     -10.338745      -281.3316
  51   2.0000     -10.338650      -281.3290
  52   2.0000     -10.337934      -281.3095
  53   2.0000     -10.335300      -281.2378
  54   2.0000     -10.333971      -281.2016
  55   2.0000     -10.333936      -281.2007
  56   2.0000     -10.333561      -281.1905
  57   2.0000     -10.331227      -281.1270
  58   2.0000     -10.330237      -281.1000
  59   2.0000     -10.326104      -280.9876
  60   2.0000     -10.325170      -280.9622
  61   2.0000     -10.324308      -280.9387
  62   2.0000     -10.324183      -280.9353
  63   2.0000     -10.323011      -280.9034
  64   2.0000     -10.322078      -280.8780
  65   2.0000     -10.321298      -280.8568
  66   2.0000     -10.317125      -280.7432
  67   2.0000     -10.315617      -280.7022
  68   2.0000     -10.314415      -280.6695
  69   2.0000     -10.314029      -280.6590
  70   2.0000     -10.311091      -280.5790
  71   2.0000     -10.310425      -280.5609
  72   2.0000     -10.309331      -280.5312
  73   2.0000     -10.308957      -280.5210
  74   2.0000      -8.114948      -220.8190
  75   2.0000      -8.110438      -220.6962
  76   2.0000      -8.106744      -220.5957
  77   2.0000      -8.102969      -220.4930
  78   2.0000      -6.084303      -165.5623
  79   2.0000      -6.079962      -165.4442
  80   2.0000      -6.079896      -165.4424
  81   2.0000      -6.077067      -165.3654
  82   2.0000      -6.076040      -165.3375
  83   2.0000      -6.075524      -165.3234
  84   2.0000      -6.072294      -165.2355
  85   2.0000      -6.072238      -165.2340
  86   2.0000      -6.071780      -165.2215
  87   2.0000      -6.069011      -165.1462
  88   2.0000      -6.067889      -165.1157
  89   2.0000      -6.065395      -165.0478
  90   2.0000      -1.068589       -29.0778
  91   2.0000      -1.063990       -28.9526
  92   2.0000      -1.058264       -28.7968
  93   2.0000      -1.053987       -28.6805
  94   2.0000      -1.046720       -28.4827
  95   2.0000      -1.038850       -28.2686
  96   2.0000      -1.031682       -28.0735
  97   2.0000      -1.030784       -28.0491
  98   2.0000      -1.030187       -28.0328
  99   2.0000      -1.028385       -27.9838
 100   2.0000      -1.023636       -27.8546
 101   2.0000      -1.020376       -27.7658
 102   2.0000      -1.019898       -27.7528
 103   2.0000      -1.019600       -27.7447
 104   2.0000      -1.016968       -27.6731
 105   2.0000      -1.015968       -27.6459
 106   2.0000      -1.014365       -27.6023
 107   2.0000      -1.012052       -27.5393
 108   2.0000      -1.010778       -27.5047
 109   2.0000      -1.006464       -27.3873
 110   2.0000      -0.980231       -26.6734
 111   2.0000      -0.975993       -26.5581
 112   2.0000      -0.971432       -26.4340
 113   2.0000      -0.962338       -26.1866
 114   2.0000      -0.955037       -25.9879
 115   2.0000      -0.944263       -25.6947
 116   2.0000      -0.937811       -25.5191
 117   2.0000      -0.927972       -25.2514
 118   2.0000      -0.917132       -24.9564
 119   2.0000      -0.915001       -24.8984
 120   2.0000      -0.907957       -24.7068
 121   2.0000      -0.906199       -24.6589
 122   2.0000      -0.887347       -24.1459
 123   2.0000      -0.883585       -24.0436
 124   2.0000      -0.882827       -24.0229
 125   2.0000      -0.877081       -23.8666
 126   2.0000      -0.874704       -23.8019
 127   2.0000      -0.870704       -23.6930
 128   2.0000      -0.829858       -22.5816
 129   2.0000      -0.818204       -22.2645
 130   2.0000      -0.812001       -22.0957
 131   2.0000      -0.809505       -22.0278
 132   2.0000      -0.805078       -21.9073
 133   2.0000      -0.793671       -21.5969
 134   2.0000      -0.787316       -21.4240
 135   2.0000      -0.762514       -20.7491
 136   2.0000      -0.755716       -20.5641
 137   2.0000      -0.752258       -20.4700
 138   2.0000      -0.736052       -20.0290
 139   2.0000      -0.733145       -19.9499
 140   2.0000      -0.731665       -19.9096
 141   2.0000      -0.727365       -19.7926
 142   2.0000      -0.725740       -19.7484
 143   2.0000      -0.720004       -19.5923
 144   2.0000      -0.708148       -19.2697
 145   2.0000      -0.701421       -19.0866
 146   2.0000      -0.694901       -18.9092
 147   2.0000      -0.686642       -18.6845
 148   2.0000      -0.684958       -18.6387
 149   2.0000      -0.680535       -18.5183
 150   2.0000      -0.679121       -18.4798
 151   2.0000      -0.670747       -18.2520
 152   2.0000      -0.659421       -17.9437
 153   2.0000      -0.649288       -17.6680
 154   2.0000      -0.644439       -17.5361
 155   2.0000      -0.636501       -17.3201
 156   2.0000      -0.627082       -17.0638
 157   2.0000      -0.625303       -17.0153
 158   2.0000      -0.614862       -16.7313
 159   2.0000      -0.610371       -16.6090
 160   2.0000      -0.607112       -16.5204
 161   2.0000      -0.605465       -16.4756
 162   2.0000      -0.600622       -16.3438
 163   2.0000      -0.590931       -16.0801
 164   2.0000      -0.587027       -15.9738
 165   2.0000      -0.576746       -15.6941
 166   2.0000      -0.576258       -15.6808
 167   2.0000      -0.567781       -15.4501
 168   2.0000      -0.567239       -15.4354
 169   2.0000      -0.564609       -15.3638
 170   2.0000      -0.562710       -15.3121
 171   2.0000      -0.558246       -15.1906
 172   2.0000      -0.557339       -15.1660
 173   2.0000      -0.554868       -15.0987
 174   2.0000      -0.550647       -14.9839
 175   2.0000      -0.548593       -14.9280
 176   2.0000      -0.544421       -14.8144
 177   2.0000      -0.539902       -14.6915
 178   2.0000      -0.532267       -14.4837
 179   2.0000      -0.528630       -14.3848
 180   2.0000      -0.527511       -14.3543
 181   2.0000      -0.525869       -14.3096
 182   2.0000      -0.522722       -14.2240
 183   2.0000      -0.519900       -14.1472
 184   2.0000      -0.517852       -14.0915
 185   2.0000      -0.513528       -13.9738
 186   2.0000      -0.512876       -13.9561
 187   2.0000      -0.505713       -13.7612
 188   2.0000      -0.501604       -13.6493
 189   2.0000      -0.500211       -13.6114
 190   2.0000      -0.493927       -13.4404
 191   2.0000      -0.493384       -13.4257
 192   2.0000      -0.490992       -13.3606
 193   2.0000      -0.487897       -13.2764
 194   2.0000      -0.481730       -13.1085
 195   2.0000      -0.480429       -13.0731
 196   2.0000      -0.476665       -12.9707
 197   2.0000      -0.476510       -12.9665
 198   2.0000      -0.475428       -12.9371
 199   2.0000      -0.473572       -12.8866
 200   2.0000      -0.473163       -12.8754
 201   2.0000      -0.472763       -12.8645
 202   2.0000      -0.470006       -12.7895
 203   2.0000      -0.468890       -12.7591
 204   2.0000      -0.468684       -12.7535
 205   2.0000      -0.467785       -12.7291
 206   2.0000      -0.466995       -12.7076
 207   2.0000      -0.466678       -12.6990
 208   2.0000      -0.465796       -12.6749
 209   2.0000      -0.465414       -12.6646
 210   2.0000      -0.463509       -12.6127
 211   2.0000      -0.462921       -12.5967
 212   2.0000      -0.459693       -12.5089
 213   2.0000      -0.459059       -12.4916
 214   2.0000      -0.457481       -12.4487
 215   2.0000      -0.456464       -12.4210
 216   2.0000      -0.455099       -12.3839
 217   2.0000      -0.452607       -12.3161
 218   2.0000      -0.452046       -12.3008
 219   2.0000      -0.451554       -12.2874
 220   2.0000      -0.450843       -12.2681
 221   2.0000      -0.449017       -12.2184
 222   2.0000      -0.448287       -12.1985
 223   2.0000      -0.447765       -12.1843
 224   2.0000      -0.446792       -12.1578
 225   2.0000      -0.445817       -12.1313
 226   2.0000      -0.444516       -12.0959
 227   2.0000      -0.443440       -12.0666
 228   2.0000      -0.440364       -11.9829
 229   2.0000      -0.438047       -11.9199
 230   2.0000      -0.436894       -11.8885
 231   2.0000      -0.435300       -11.8451
 232   2.0000      -0.434787       -11.8312
 233   2.0000      -0.431061       -11.7298
 234   2.0000      -0.429588       -11.6897
 235   2.0000      -0.428046       -11.6477
 236   2.0000      -0.426506       -11.6058
 237   2.0000      -0.424978       -11.5642
 238   2.0000      -0.423751       -11.5309
 239   2.0000      -0.408421       -11.1137
 240   2.0000      -0.400690       -10.9033
 241   2.0000      -0.396545       -10.7905
 242   2.0000      -0.390260       -10.6195
 243   2.0000      -0.385503       -10.4901
 244   2.0000      -0.375798       -10.2260
 245   2.0000      -0.366394        -9.9701
 246   2.0000      -0.352238        -9.5849
 247   2.0000      -0.349023        -9.4974
 248   2.0000      -0.346043        -9.4163
 249   2.0000      -0.344492        -9.3741
 250   2.0000      -0.339066        -9.2264
 251   2.0000      -0.332998        -9.0613
 252   2.0000      -0.321949        -8.7607
 253   2.0000      -0.316515        -8.6128
 254   2.0000      -0.281829        -7.6690
 255   0.0000      -0.125646        -3.4190
 256   0.0000      -0.121552        -3.3076
 257   0.0000      -0.111462        -3.0330
 258   0.0000      -0.104411        -2.8412
 259   0.0000      -0.097859        -2.6629

MULLIKEN ATOMIC CHARGES
-----------------------
   0 C :   -0.034363
   1 C :    0.049125
   2 C :    0.048441
   3 C :   -0.013571
   4 C :    0.016940
   5 C :    0.021961
   6 C :    0.276036
   7 C :   -0.328243
   8 C :   -0.188925
   9 N :    0.172301
  10 C :   -0.187166
  11 N :    0.187315
  12 C :   -0.022458
  13 C :    0.209860
  14 C :   -0.310629
  15 C :   -0.175769
  16 N :    0.179386
  17 C :   -0.189642
  18 N :    0.182128
  19 C :   -0.019992
  20 C :    0.175623
  21 C :   -0.324283
  22 C :   -0.188770
  23 N :    0.176532
  24 S :    0.239916
  25 C :    0.003591
  26 C :   -0.062146
  27 C :   -0.260375
  28 N :    0.201687
  29 C :   -0.084803
  30 C :   -0.043352
  31 C :    0.018325
  32 C :   -0.085814
  33 S :    0.200055
  34 C :   -0.083162
  35 C :    0.026598
  36 C :    0.306133
  37 C :   -0.289244
  38 C :   -0.197420
  39 N :    0.204238
  40 C :   -0.188938
  41 N :    0.188081
  42 C :   -0.040197
  43 C :   -0.163868
  44 S :    0.222816
  45 C :    0.321658
  46 C :   -0.296098
  47 C :   -0.239609
  48 N :    0.173047
  49 S :    0.291229
  50 C :   -0.128497
  51 C :   -0.052329
  52 C :   -0.273658
  53 N :    0.202303
  54 C :    0.040555
  55 C :   -0.024802
  56 C :    0.268853
  57 C :   -0.328252
  58 C :   -0.180223
  59 N :    0.172296
  60 C :   -0.184941
  61 N :    0.174441
  62 C :    0.022907
  63 C :    0.019847
  64 C :   -0.018869
  65 C :    0.051272
  66 C :    0.052156
  67 C :   -0.034619
  68 C :    0.209664
  69 C :   -0.301713
  70 C :   -0.188334
  71 N :    0.190187
  72 C :   -0.188760
  73 N :    0.179601
  74 H :    0.009504
  75 H :    0.009993
  76 H :    0.010252
  77 H :    0.013718
  78 H :    0.053509
  79 H :    0.031836
  80 H :    0.026681
  81 H :    0.036175
  82 H :    0.018811
  83 H :    0.013556
  84 H :    0.011250
  85 H :    0.011446
Sum of atomic charges:   -0.0000000

LOEWDIN ATOMIC CHARGES
----------------------
   0 C :    0.006897
   1 C :    0.008495
   2 C :    0.011002
   3 C :    0.013754
   4 C :   -0.004551
   5 C :   -0.010711
   6 C :    0.075387
   7 C :   -0.114493
   8 C :   -0.017962
   9 N :   -0.032425
  10 C :   -0.026987
  11 N :   -0.020003
  12 C :   -0.014337
  13 C :    0.072192
  14 C :   -0.115775
  15 C :   -0.018493
  16 N :   -0.038655
  17 C :   -0.018604
  18 N :   -0.030825
  19 C :    0.048188
  20 C :   -0.008324
  21 C :   -0.219805
  22 C :   -0.055059
  23 N :   -0.038547
  24 S :    0.506874
  25 C :   -0.124606
  26 C :   -0.092759
  27 C :   -0.038430
  28 N :   -0.015945
  29 C :   -0.191317
  30 C :    0.001109
  31 C :   -0.061945
  32 C :   -0.167550
  33 S :    0.482650
  34 C :   -0.177547
  35 C :   -0.061921
  36 C :    0.072255
  37 C :   -0.084359
  38 C :   -0.025285
  39 N :   -0.004647
  40 C :   -0.019168
  41 N :   -0.016301
  42 C :   -0.013308
  43 C :   -0.172894
  44 S :    0.523665
  45 C :   -0.009923
  46 C :   -0.217167
  47 C :   -0.077500
  48 N :   -0.024268
  49 S :    0.554022
  50 C :   -0.134812
  51 C :   -0.090031
  52 C :   -0.030442
  53 N :   -0.029824
  54 C :    0.014736
  55 C :   -0.010589
  56 C :    0.077576
  57 C :   -0.116733
  58 C :   -0.023059
  59 N :   -0.031592
  60 C :   -0.019342
  61 N :   -0.028610
  62 C :   -0.012737
  63 C :   -0.003724
  64 C :    0.014719
  65 C :    0.014099
  66 C :    0.009603
  67 C :    0.008033
  68 C :    0.070499
  69 C :   -0.112360
  70 C :   -0.018686
  71 N :   -0.025824
  72 C :   -0.018987
  73 N :   -0.038598
  74 H :    0.042540
  75 H :    0.040015
  76 H :    0.040239
  77 H :    0.044189
  78 H :    0.056615
  79 H :    0.050520
  80 H :    0.045457
  81 H :    0.051823
  82 H :    0.045679
  83 H :    0.041679
  84 H :    0.040836
  85 H :    0.042994

  Mayer bond orders larger than 0.100000
B(  0-C ,  1-C ) :   1.3803 B(  0-C ,  5-C ) :   1.3738 B(  0-C , 74-H ) :   0.9843
B(  1-C ,  2-C ) :   1.3668 B(  1-C , 75-H ) :   0.9858 B(  2-C ,  3-C ) :   1.3746
B(  2-C , 76-H ) :   0.9863 B(  3-C ,  4-C ) :   1.3788 B(  3-C , 77-H ) :   0.9858
B(  4-C ,  5-C ) :   1.3042 B(  4-C , 13-C ) :   1.0204 B(  5-C ,  6-C ) :   1.0120
B(  6-C ,  7-C ) :   1.6833 B(  6-C , 12-C ) :   1.0132 B(  7-C ,  8-C ) :   1.1436
B(  7-C , 10-C ) :   1.1287 B(  8-C ,  9-N ) :   2.9845 B( 10-C , 11-N ) :   2.9857
B( 12-C , 13-C ) :   0.9735 B( 12-C , 19-C ) :   1.7524 B( 13-C , 14-C ) :   1.6835
B( 14-C , 15-C ) :   1.1634 B( 14-C , 17-C ) :   1.1380 B( 15-C , 16-N ) :   2.9879
B( 17-C , 18-N ) :   3.0049 B( 19-C , 20-C ) :   1.0257 B( 19-C , 78-H ) :   0.9168
B( 20-C , 21-C ) :   1.4801 B( 20-C , 26-C ) :   1.2773 B( 21-C , 22-C ) :   1.2403
B( 21-C , 24-S ) :   1.1292 B( 21-C , 25-C ) :   0.1108 B( 22-C , 23-N ) :   2.9871
B( 24-S , 25-C ) :   1.1377 B( 25-C , 26-C ) :   1.5167 B( 25-C , 29-C ) :   1.1462
B( 26-C , 27-C ) :   1.1381 B( 27-C , 28-N ) :   2.9602 B( 29-C , 30-C ) :   1.4722
B( 29-C , 33-S ) :   1.0834 B( 30-C , 31-C ) :   1.2901 B( 30-C , 79-H ) :   0.9850
B( 31-C , 32-C ) :   1.4369 B( 31-C , 36-C ) :   0.9867 B( 32-C , 33-S ) :   1.1419
B( 32-C , 34-C ) :   1.1771 B( 34-C , 35-C ) :   1.4352 B( 34-C , 44-S ) :   1.1401
B( 35-C , 36-C ) :   0.9889 B( 35-C , 42-C ) :   1.2885 B( 36-C , 37-C ) :   1.7251
B( 37-C , 38-C ) :   1.1348 B( 37-C , 40-C ) :   1.1382 B( 38-C , 39-N ) :   2.9924
B( 40-C , 41-N ) :   2.9839 B( 42-C , 43-C ) :   1.4699 B( 42-C , 80-H ) :   0.9823
B( 43-C , 44-S ) :   1.1072 B( 43-C , 45-C ) :   1.0743 B( 45-C , 46-C ) :   1.4683
B( 45-C , 51-C ) :   1.2794 B( 46-C , 47-C ) :   1.2067 B( 46-C , 49-S ) :   1.1391
B( 46-C , 50-C ) :   0.1161 B( 47-C , 48-N ) :   2.9935 B( 49-S , 50-C ) :   1.1773
B( 50-C , 51-C ) :   1.4803 B( 50-C , 54-C ) :   1.0740 B( 51-C , 52-C ) :   1.1440
B( 52-C , 53-N ) :   2.9557 B( 54-C , 55-C ) :   1.7502 B( 54-C , 81-H ) :   0.9094
B( 55-C , 56-C ) :   1.0179 B( 55-C , 68-C ) :   0.9830 B( 56-C , 57-C ) :   1.6781
B( 56-C , 62-C ) :   1.0134 B( 57-C , 58-C ) :   1.1305 B( 57-C , 60-C ) :   1.1392
B( 58-C , 59-N ) :   2.9854 B( 60-C , 61-N ) :   2.9874 B( 62-C , 63-C ) :   1.3000
B( 62-C , 67-C ) :   1.3717 B( 63-C , 64-C ) :   1.3813 B( 63-C , 68-C ) :   1.0209
B( 64-C , 65-C ) :   1.3703 B( 64-C , 82-H ) :   0.9872 B( 65-C , 66-C ) :   1.3682
B( 65-C , 83-H ) :   0.9863 B( 66-C , 67-C ) :   1.3779 B( 66-C , 84-H ) :   0.9860
B( 67-C , 85-H ) :   0.9861 B( 68-C , 69-C ) :   1.6804 B( 69-C , 70-C ) :   1.1398
B( 69-C , 72-C ) :   1.1664 B( 70-C , 71-N ) :   3.0079 B( 72-C , 73-N ) :   2.9943

-----------------------------------------------------------------------------
         ABSORPTION SPECTRUM VIA TRANSITION ELECTRIC DIPOLE MOMENTS
-----------------------------------------------------------------------------
State   Energy  Wavelength   fosc         T2         TX        TY        TZ
        (cm-1)    (nm)                  (au**2)     (au)      (au)      (au)
-----------------------------------------------------------------------------
   0   15955.3    626.8   0.206336555   4.25742   0.44202  -2.01317   0.09572
   1   20372.9    490.8   0.066299366   1.07135   0.34943   0.64828  -0.72731
   2   22095.0    452.6   0.035604251   0.53050  -0.07367  -0.40525   0.60070
   3   24828.6    402.8   0.501376381   6.64794  -0.09588   2.57469   0.09865
   4   25634.6    390.1   0.552386473   7.09401  -0.88847   2.51090  -0.00001
   5   26353.5    379.5   0.458206163   5.72399  -0.09435   2.34267  -0.47641
   6   26660.1    375.1   0.464874688   5.74050  -0.64644   2.27581  -0.37855
   7   26781.7    373.4   0.054841459   0.67413  -0.55258   0.22548  -0.56387
   8   28243.4    354.1   0.104450813   1.21750  -0.80233  -0.35799   0.66754
   9   28482.3    351.1   0.026200622   0.30284   0.29527  -0.43384   0.16564
  10   29724.6    336.4   0.063079611   0.69863  -0.21710  -0.76163   0.26726
  11   30067.0    332.6   0.109544492   1.19943   0.88234   0.26258   0.59327
  12   30664.8    326.1   0.140671244   1.51022  -0.37556   0.77139  -0.87985
  13   31264.7    319.8   0.282097249   2.97044   0.53530  -0.49540  -1.56156
  14   31560.1    316.9   0.022180438   0.23137  -0.03917   0.46674   0.10949
  15   31683.3    315.6   0.287495347   2.98728  -0.97032   1.39677  -0.30786
  16   31730.7    315.2   0.131978034   1.36930  -0.36188   0.65487  -0.89972
  17   31974.5    312.7   0.204973668   2.11042   0.43421  -0.67033  -1.21348
  18   32538.8    307.3   0.633929265   6.41378  -0.38548  -2.39116  -0.73995
  19   32689.9    305.9   0.596345149   6.00565  -2.03132   0.13509  -1.36424
  20   32864.4    304.3   0.040660762   0.40731  -0.05867   0.38249   0.50752
  21   33429.6    299.1   0.016771524   0.16516  -0.00085   0.26862   0.30497
  22   33873.9    295.2   0.179084841   1.74048   0.09799  -1.28119   0.29905
  23   34128.6    293.0   0.090303409   0.87109  -0.65181   0.63843  -0.19657
  24   34250.6    292.0   0.014639385   0.14071  -0.16589  -0.12009  -0.31428
  25   34520.1    289.7   0.258031303   2.46080  -0.22578   0.09857   1.54923
  26   34752.6    287.7   0.010050128   0.09520  -0.20956   0.20396   0.09843
  27   35114.9    284.8   0.101947461   0.95579  -0.60802   0.50513  -0.57528
  28   35777.6    279.5   0.049146784   0.45223  -0.12140   0.14279   0.64584
  29   36130.3    276.8   0.185749053   1.69251  -0.42524   1.10187  -0.54550
  30   36431.5    274.5   0.134147439   1.21222   0.26031   0.21057   1.04886
  31   36963.4    270.5   0.074114080   0.66009   0.19298  -0.78917   0.00805
  32   37274.3    268.3   0.070084979   0.61900  -0.04875   0.62948  -0.46944
  33   37812.6    264.5   0.004778157   0.04160  -0.03061   0.00821   0.20148
  34   38000.2    263.2   0.008166942   0.07075   0.01502  -0.03758  -0.26290
  35   38297.8    261.1   0.311624971   2.67876  -0.15608  -0.61066   1.51046
  36   38544.9    259.4   0.045938160   0.39236  -0.03868  -0.19999   0.59234
  37   38617.9    258.9   0.377924735   3.22176   1.09536   0.05474  -1.42090
  38   38986.2    256.5   0.002244533   0.01895   0.08050  -0.09519  -0.05841
  39   39091.8    255.8   0.000469962   0.00396  -0.02761   0.05653   0.00008
  40   39180.9    255.2   0.001841004   0.01547   0.04285  -0.11490  -0.02074
  41   39241.6    254.8   0.001190108   0.00998   0.07644  -0.06434   0.00089
  42   39352.1    254.1   0.064842057   0.54246  -0.22395   0.12512   0.69040
  43   39949.2    250.3   0.057029244   0.46996  -0.52505   0.43820   0.04753
  44   40137.6    249.1   0.006689479   0.05487   0.15488  -0.17565  -0.00501

FINAL SINGLE POINT ENERGY     -4495.925754038063

DIPOLE MOMENT
-------------
                                X             Y             Z
Electronic contribution:      9.12993      -8.76348     -13.98176
Nuclear contribution   :     -9.24567       8.09051      12.72582
                        -----------------------------------------
Total Dipole Moment    :     -0.11574      -0.67297      -1.25594
                        -----------------------------------------
Magnitude (a.u.)       :      1.42957
Magnitude (Debye)      :      3.63368

Rotational constants in cm-1:     0.002523     0.000270     0.000261
Rotational constants in MHz :    75.629181     8.080430     7.829185

                             ****ORCA TERMINATED NORMALLY****
TOTAL RUN TIME: 0 days 0 hours 9 minutes 51 seconds 127 msec
