                         Program Version 4.2.0 -  RELEASE  -
|  1> # ORCA input file
|  2> # SCF done       -205.844533132099          0.000994939813
|  3> ! CAM-B3LYP def2-SVP def2/J RIJCOSX Grid4 TightSCF
|  4> %maxcore 5000
|  5> %tddft
|  6>     Mode sTDDFT
|  7>     Ethresh 5.0
|  8>     maxcore 5000
|  9> end
| 10>
| 11> %pal
| 12>   nprocs 6
| 13>   end
| 14> * xyz 0 1
| 15>    C       -6.71262         0.75296         7.06088
| 16>    C       -7.12409         0.20869         8.26856
| 17>    C       -6.91497        -1.13187         8.55996
| 18>    C       -6.27820        -1.96655         7.65394
| 19>    C       -5.86206        -1.43329         6.44573
| 20>    C       -6.08364        -0.07112         6.14084
| 21>    C       -5.57112         0.20432         4.80391
| 22>    C       -5.51166         1.43428         4.20555
| 23>    C       -5.93264         2.63353         4.81943
| 24>    N       -6.25313         3.64481         5.25736
| 25>    C       -4.99697         1.69508         2.91797
| 26>    N       -4.59809         1.98180         1.88004
| 27>    C       -5.16642        -1.07784         4.23833
| 28>    C       -5.14801        -2.03931         5.33399
| 29>    C       -4.35294        -3.15201         5.41443
| 30>    C       -3.43451        -3.53381         4.41439
| 31>    N       -2.64703        -3.84817         3.64042
| 32>    C       -4.29139        -3.99433         6.54338
| 33>    N       -4.21637        -4.72519         7.42514
| 34>    C       -4.94882        -1.31024         2.90756
| 35>    C       -5.00045        -2.53776         2.21382
| 36>    C       -4.46589        -2.77207         0.95358
| 37>    C       -4.72978        -4.05642         0.49618
| 38>    C       -5.52029        -4.80511         1.39540
| 39>    S       -5.90724        -3.93592         2.80516
| 40>    C       -5.75057        -6.08307         0.84258
| 41>    C       -5.09640        -6.15863        -0.40102
| 42>    C       -4.43662        -4.88561        -0.65962
| 43>    C       -3.70366        -4.55038        -1.75910
| 44>    C       -3.49425        -5.45626        -2.82073
| 45>    N       -3.32742        -6.19478        -3.68169
| 46>    C       -3.11569        -3.27660        -1.91628
| 47>    N       -2.64186        -2.24256        -2.05639
| 48>    C       -5.25980        -7.39163        -1.02541
| 49>    C       -6.03992        -8.25427        -0.27119
| 50>    S       -6.57290        -7.53046         1.23659
| 51>    C       -6.42267        -9.57777        -0.59752
| 52>    C       -7.26560       -10.41089         0.11677
| 53>    C       -7.43317       -11.64393        -0.50946
| 54>    C       -6.70404       -11.75420        -1.70801
| 55>    S       -5.82105       -10.33848        -2.06635
| 56>    C       -6.94322       -13.03448        -2.26711
| 57>    C       -7.83019       -13.73005        -1.42656
| 58>    C       -8.16519       -12.88154        -0.29403
| 59>    C       -8.99441       -13.17994         0.74719
| 60>    C       -9.65792       -14.42098         0.84513
| 61>    N      -10.19942       -15.42863         0.92331
| 62>    C       -9.24444       -12.26472         1.79137
| 63>    N       -9.44789       -11.51708         2.63644
| 64>    C       -8.13798       -15.00556        -1.89793
| 65>    C       -7.48873       -15.28825        -3.08663
| 66>    S       -6.48362       -13.95772        -3.62883
| 67>    C       -7.57281       -16.48790        -3.84751
| 68>    C       -8.40785       -17.55175        -3.62309
| 69>    C       -8.24577       -18.59205        -4.56243
| 70>    C       -7.25417       -18.29991        -5.51576
| 71>    S       -6.54334       -16.73705        -5.24447
| 72>    C       -6.88823       -19.15795        -6.54598
| 73>    O       -5.90998       -18.67136        -7.34102
| 74>    C       -5.42805       -19.34597        -8.48037
| 75>    C       -7.57623       -20.39065        -6.60439
| 76>    C       -8.60268       -20.68147        -5.63876
| 77>    C       -8.95606       -19.81353        -4.62012
| 78>    O       -9.89218       -19.95368        -3.65156
| 79>    C      -10.71174       -21.09721        -3.58159
| 80>    S       -9.29431       -22.26155        -5.94373
| 81>    C       -8.22665       -22.52979        -7.30942
| 82>    C       -7.40042       -21.45427        -7.51433
| 83>    C       -8.35392       -23.76309        -7.98736
| 84>    C       -7.66285       -24.29303        -9.03551
| 85>    C       -6.54299       -23.78591        -9.81772
| 86>    O       -5.97195       -22.71880        -9.70296
| 87>    N       -6.16077       -24.71226       -10.77767
| 88>    C       -6.86737       -25.87357       -10.82560
| 89>    C       -6.68491       -26.93231       -11.67754
| 90>    C       -5.71139       -27.02676       -12.68750
| 91>    N       -4.94074       -27.16477       -13.52741
| 92>    C       -7.52771       -28.05922       -11.57194
| 93>    N       -8.20995       -28.97724       -11.49033
| 94>    S       -8.12088       -25.89472        -9.61327
| 95>    C       -5.05744       -24.41189       -11.65871
| 96>    H       -6.88838         1.79524         6.85211
| 97>    H       -7.61834         0.84094         8.99017
| 98>    H       -7.25213        -1.53310         9.50336
| 99>    H       -6.12619        -3.00832         7.88579
|100>    H       -4.78665        -0.45299         2.26658
|101>    H       -3.88713        -2.03258         0.42984
|102>    H       -4.84528        -7.66663        -1.97866
|103>    H       -7.72875       -10.11575         1.04131
|104>    H       -8.79226       -15.70066        -1.40616
|105>    H       -9.12314       -17.60205        -2.82425
|106>    H       -4.70014       -18.66405        -8.91930
|107>    H       -6.22327       -19.53591        -9.20511
|108>    H       -4.92741       -20.28096        -8.21819
|109>    H      -11.37075       -20.92092        -2.73243
|110>    H      -10.12936       -22.00423        -3.40141
|111>    H      -11.31471       -21.21986        -4.48484
|112>    H       -6.68875       -21.47227        -8.31350
|113>    H       -9.14024       -24.39827        -7.59340
|114>    H       -4.69435       -23.42156       -11.38283
|115>    H       -5.38361       -24.40577       -12.69890
|116>    H       -4.25706       -25.14220       -11.53811
|117> *
|118>
|119>                          ****END OF INPUT****

CARTESIAN COORDINATES (ANGSTROEM)
---------------------------------
  C     -6.712620    0.752960    7.060880
  C     -7.124090    0.208690    8.268560
  C     -6.914970   -1.131870    8.559960
  C     -6.278200   -1.966550    7.653940
  C     -5.862060   -1.433290    6.445730
  C     -6.083640   -0.071120    6.140840
  C     -5.571120    0.204320    4.803910
  C     -5.511660    1.434280    4.205550
  C     -5.932640    2.633530    4.819430
  N     -6.253130    3.644810    5.257360
  C     -4.996970    1.695080    2.917970
  N     -4.598090    1.981800    1.880040
  C     -5.166420   -1.077840    4.238330
  C     -5.148010   -2.039310    5.333990
  C     -4.352940   -3.152010    5.414430
  C     -3.434510   -3.533810    4.414390
  N     -2.647030   -3.848170    3.640420
  C     -4.291390   -3.994330    6.543380
  N     -4.216370   -4.725190    7.425140
  C     -4.948820   -1.310240    2.907560
  C     -5.000450   -2.537760    2.213820
  C     -4.465890   -2.772070    0.953580
  C     -4.729780   -4.056420    0.496180
  C     -5.520290   -4.805110    1.395400
  S     -5.907240   -3.935920    2.805160
  C     -5.750570   -6.083070    0.842580
  C     -5.096400   -6.158630   -0.401020
  C     -4.436620   -4.885610   -0.659620
  C     -3.703660   -4.550380   -1.759100
  C     -3.494250   -5.456260   -2.820730
  N     -3.327420   -6.194780   -3.681690
  C     -3.115690   -3.276600   -1.916280
  N     -2.641860   -2.242560   -2.056390
  C     -5.259800   -7.391630   -1.025410
  C     -6.039920   -8.254270   -0.271190
  S     -6.572900   -7.530460    1.236590
  C     -6.422670   -9.577770   -0.597520
  C     -7.265600  -10.410890    0.116770
  C     -7.433170  -11.643930   -0.509460
  C     -6.704040  -11.754200   -1.708010
  S     -5.821050  -10.338480   -2.066350
  C     -6.943220  -13.034480   -2.267110
  C     -7.830190  -13.730050   -1.426560
  C     -8.165190  -12.881540   -0.294030
  C     -8.994410  -13.179940    0.747190
  C     -9.657920  -14.420980    0.845130
  N    -10.199420  -15.428630    0.923310
  C     -9.244440  -12.264720    1.791370
  N     -9.447890  -11.517080    2.636440
  C     -8.137980  -15.005560   -1.897930
  C     -7.488730  -15.288250   -3.086630
  S     -6.483620  -13.957720   -3.628830
  C     -7.572810  -16.487900   -3.847510
  C     -8.407850  -17.551750   -3.623090
  C     -8.245770  -18.592050   -4.562430
  C     -7.254170  -18.299910   -5.515760
  S     -6.543340  -16.737050   -5.244470
  C     -6.888230  -19.157950   -6.545980
  O     -5.909980  -18.671360   -7.341020
  C     -5.428050  -19.345970   -8.480370
  C     -7.576230  -20.390650   -6.604390
  C     -8.602680  -20.681470   -5.638760
  C     -8.956060  -19.813530   -4.620120
  O     -9.892180  -19.953680   -3.651560
  C    -10.711740  -21.097210   -3.581590
  S     -9.294310  -22.261550   -5.943730
  C     -8.226650  -22.529790   -7.309420
  C     -7.400420  -21.454270   -7.514330
  C     -8.353920  -23.763090   -7.987360
  C     -7.662850  -24.293030   -9.035510
  C     -6.542990  -23.785910   -9.817720
  O     -5.971950  -22.718800   -9.702960
  N     -6.160770  -24.712260  -10.777670
  C     -6.867370  -25.873570  -10.825600
  C     -6.684910  -26.932310  -11.677540
  C     -5.711390  -27.026760  -12.687500
  N     -4.940740  -27.164770  -13.527410
  C     -7.527710  -28.059220  -11.571940
  N     -8.209950  -28.977240  -11.490330
  S     -8.120880  -25.894720   -9.613270
  C     -5.057440  -24.411890  -11.658710
  H     -6.888380    1.795240    6.852110
  H     -7.618340    0.840940    8.990170
  H     -7.252130   -1.533100    9.503360
  H     -6.126190   -3.008320    7.885790
  H     -4.786650   -0.452990    2.266580
  H     -3.887130   -2.032580    0.429840
  H     -4.845280   -7.666630   -1.978660
  H     -7.728750  -10.115750    1.041310
  H     -8.792260  -15.700660   -1.406160
  H     -9.123140  -17.602050   -2.824250
  H     -4.700140  -18.664050   -8.919300
  H     -6.223270  -19.535910   -9.205110
  H     -4.927410  -20.280960   -8.218190
  H    -11.370750  -20.920920   -2.732430
  H    -10.129360  -22.004230   -3.401410
  H    -11.314710  -21.219860   -4.484840
  H     -6.688750  -21.472270   -8.313500
  H     -9.140240  -24.398270   -7.593400
  H     -4.694350  -23.421560  -11.382830
  H     -5.383610  -24.405770  -12.698900
  H     -4.257060  -25.142200  -11.538110

 Total Charge           Charge          ....    0
 Multiplicity           Mult            ....    1
 Number of Electrons    NEL             ....  594
 Basis Dimension        Dim             .... 1267

ORBITAL ENERGIES
----------------

  NO   OCC          E(Eh)            E(eV)
   0   2.0000     -89.005619     -2421.9660
   1   2.0000     -89.005216     -2421.9551
   2   2.0000     -89.003680     -2421.9133
   3   2.0000     -88.999193     -2421.7912
   4   2.0000     -88.989327     -2421.5227
   5   2.0000     -88.965486     -2420.8739
   6   2.0000     -88.965223     -2420.8668
   7   2.0000     -19.266245      -524.2612
   8   2.0000     -19.261386      -524.1290
   9   2.0000     -19.236872      -523.4619
  10   2.0000     -14.507475      -394.7685
  11   2.0000     -14.441736      -392.9796
  12   2.0000     -14.440390      -392.9430
  13   2.0000     -14.439555      -392.9203
  14   2.0000     -14.439403      -392.9161
  15   2.0000     -14.426800      -392.5732
  16   2.0000     -14.426626      -392.5684
  17   2.0000     -14.426571      -392.5670
  18   2.0000     -14.422933      -392.4680
  19   2.0000     -14.411112      -392.1463
  20   2.0000     -14.410559      -392.1312
  21   2.0000     -10.424920      -283.6765
  22   2.0000     -10.404840      -283.1301
  23   2.0000     -10.377875      -282.3963
  24   2.0000     -10.374923      -282.3160
  25   2.0000     -10.364319      -282.0275
  26   2.0000     -10.361951      -281.9630
  27   2.0000     -10.358334      -281.8646
  28   2.0000     -10.357735      -281.8483
  29   2.0000     -10.356729      -281.8209
  30   2.0000     -10.354348      -281.7561
  31   2.0000     -10.353722      -281.7391
  32   2.0000     -10.353261      -281.7265
  33   2.0000     -10.352573      -281.7078
  34   2.0000     -10.349444      -281.6227
  35   2.0000     -10.346477      -281.5419
  36   2.0000     -10.344059      -281.4761
  37   2.0000     -10.342063      -281.4219
  38   2.0000     -10.342002      -281.4202
  39   2.0000     -10.341609      -281.4095
  40   2.0000     -10.341249      -281.3997
  41   2.0000     -10.340587      -281.3817
  42   2.0000     -10.339728      -281.3583
  43   2.0000     -10.339703      -281.3576
  44   2.0000     -10.339311      -281.3470
  45   2.0000     -10.338678      -281.3297
  46   2.0000     -10.338004      -281.3114
  47   2.0000     -10.337558      -281.2992
  48   2.0000     -10.336111      -281.2599
  49   2.0000     -10.335560      -281.2449
  50   2.0000     -10.335293      -281.2376
  51   2.0000     -10.328824      -281.0616
  52   2.0000     -10.328413      -281.0504
  53   2.0000     -10.328236      -281.0456
  54   2.0000     -10.327479      -281.0250
  55   2.0000     -10.325941      -280.9831
  56   2.0000     -10.325505      -280.9713
  57   2.0000     -10.324491      -280.9437
  58   2.0000     -10.324375      -280.9405
  59   2.0000     -10.323778      -280.9243
  60   2.0000     -10.323775      -280.9242
  61   2.0000     -10.322764      -280.8967
  62   2.0000     -10.317805      -280.7618
  63   2.0000     -10.317648      -280.7575
  64   2.0000     -10.317488      -280.7531
  65   2.0000     -10.316998      -280.7398
  66   2.0000     -10.316782      -280.7339
  67   2.0000     -10.316530      -280.7270
  68   2.0000     -10.314599      -280.6745
  69   2.0000     -10.314249      -280.6650
  70   2.0000     -10.313205      -280.6366
  71   2.0000     -10.309730      -280.5420
  72   2.0000     -10.308799      -280.5167
  73   2.0000     -10.306722      -280.4602
  74   2.0000     -10.305801      -280.4351
  75   2.0000     -10.305032      -280.4142
  76   2.0000     -10.304379      -280.3964
  77   2.0000     -10.303379      -280.3692
  78   2.0000     -10.297847      -280.2187
  79   2.0000     -10.296173      -280.1731
  80   2.0000     -10.289317      -279.9866
  81   2.0000      -8.100039      -220.4133
  82   2.0000      -8.099384      -220.3954
  83   2.0000      -8.098137      -220.3615
  84   2.0000      -8.093820      -220.2440
  85   2.0000      -8.085586      -220.0200
  86   2.0000      -8.060803      -219.3456
  87   2.0000      -8.060390      -219.3344
  88   2.0000      -6.069360      -165.1557
  89   2.0000      -6.068669      -165.1369
  90   2.0000      -6.067429      -165.1031
  91   2.0000      -6.065190      -165.0422
  92   2.0000      -6.064463      -165.0224
  93   2.0000      -6.063264      -164.9898
  94   2.0000      -6.063073      -164.9846
  95   2.0000      -6.062229      -164.9616
  96   2.0000      -6.061697      -164.9472
  97   2.0000      -6.060385      -164.9115
  98   2.0000      -6.058840      -164.8694
  99   2.0000      -6.056212      -164.7979
 100   2.0000      -6.055472      -164.7778
 101   2.0000      -6.051553      -164.6711
 102   2.0000      -6.045853      -164.5160
 103   2.0000      -6.030662      -164.1027
 104   2.0000      -6.030114      -164.0877
 105   2.0000      -6.026471      -163.9886
 106   2.0000      -6.025933      -163.9740
 107   2.0000      -6.021787      -163.8612
 108   2.0000      -6.021676      -163.8581
 109   2.0000      -1.181326       -32.1455
 110   2.0000      -1.169916       -31.8350
 111   2.0000      -1.166334       -31.7375
 112   2.0000      -1.107783       -30.1443
 113   2.0000      -1.061140       -28.8751
 114   2.0000      -1.055092       -28.7105
 115   2.0000      -1.042411       -28.3655
 116   2.0000      -1.033210       -28.1151
 117   2.0000      -1.031848       -28.0780
 118   2.0000      -1.023514       -27.8512
 119   2.0000      -1.020269       -27.7629
 120   2.0000      -1.017682       -27.6925
 121   2.0000      -1.017047       -27.6753
 122   2.0000      -1.012686       -27.5566
 123   2.0000      -1.012486       -27.5511
 124   2.0000      -1.007622       -27.4188
 125   2.0000      -1.006468       -27.3874
 126   2.0000      -1.003474       -27.3059
 127   2.0000      -1.002826       -27.2883
 128   2.0000      -0.993139       -27.0247
 129   2.0000      -0.990758       -26.9599
 130   2.0000      -0.976114       -26.5614
 131   2.0000      -0.972163       -26.4539
 132   2.0000      -0.965991       -26.2860
 133   2.0000      -0.962489       -26.1906
 134   2.0000      -0.945692       -25.7336
 135   2.0000      -0.937411       -25.5082
 136   2.0000      -0.933857       -25.4115
 137   2.0000      -0.926739       -25.2178
 138   2.0000      -0.914791       -24.8927
 139   2.0000      -0.902173       -24.5494
 140   2.0000      -0.894840       -24.3498
 141   2.0000      -0.891130       -24.2489
 142   2.0000      -0.885137       -24.0858
 143   2.0000      -0.883365       -24.0376
 144   2.0000      -0.878612       -23.9083
 145   2.0000      -0.872605       -23.7448
 146   2.0000      -0.870897       -23.6983
 147   2.0000      -0.864339       -23.5199
 148   2.0000      -0.856162       -23.2974
 149   2.0000      -0.847507       -23.0618
 150   2.0000      -0.834092       -22.6968
 151   2.0000      -0.830084       -22.5877
 152   2.0000      -0.823671       -22.4132
 153   2.0000      -0.819382       -22.2965
 154   2.0000      -0.809535       -22.0286
 155   2.0000      -0.798509       -21.7285
 156   2.0000      -0.796865       -21.6838
 157   2.0000      -0.792176       -21.5562
 158   2.0000      -0.784552       -21.3488
 159   2.0000      -0.774703       -21.0807
 160   2.0000      -0.759270       -20.6608
 161   2.0000      -0.752690       -20.4817
 162   2.0000      -0.738127       -20.0854
 163   2.0000      -0.724776       -19.7222
 164   2.0000      -0.722221       -19.6526
 165   2.0000      -0.719067       -19.5668
 166   2.0000      -0.714891       -19.4532
 167   2.0000      -0.708266       -19.2729
 168   2.0000      -0.703532       -19.1441
 169   2.0000      -0.700756       -19.0685
 170   2.0000      -0.696215       -18.9450
 171   2.0000      -0.691031       -18.8039
 172   2.0000      -0.682945       -18.5839
 173   2.0000      -0.682712       -18.5775
 174   2.0000      -0.676824       -18.4173
 175   2.0000      -0.672352       -18.2956
 176   2.0000      -0.670951       -18.2575
 177   2.0000      -0.660750       -17.9799
 178   2.0000      -0.649071       -17.6621
 179   2.0000      -0.645774       -17.5724
 180   2.0000      -0.644748       -17.5445
 181   2.0000      -0.640974       -17.4418
 182   2.0000      -0.636920       -17.3315
 183   2.0000      -0.633051       -17.2262
 184   2.0000      -0.630738       -17.1633
 185   2.0000      -0.624568       -16.9953
 186   2.0000      -0.622015       -16.9259
 187   2.0000      -0.618412       -16.8278
 188   2.0000      -0.609709       -16.5910
 189   2.0000      -0.606012       -16.4904
 190   2.0000      -0.600507       -16.3406
 191   2.0000      -0.594672       -16.1818
 192   2.0000      -0.591527       -16.0963
 193   2.0000      -0.587304       -15.9813
 194   2.0000      -0.582721       -15.8566
 195   2.0000      -0.575765       -15.6674
 196   2.0000      -0.575228       -15.6527
 197   2.0000      -0.568378       -15.4664
 198   2.0000      -0.567318       -15.4375
 199   2.0000      -0.563288       -15.3278
 200   2.0000      -0.562750       -15.3132
 201   2.0000      -0.559515       -15.2252
 202   2.0000      -0.557216       -15.1626
 203   2.0000      -0.551404       -15.0045
 204   2.0000      -0.549524       -14.9533
 205   2.0000      -0.545603       -14.8466
 206   2.0000      -0.543327       -14.7847
 207   2.0000      -0.539499       -14.6805
 208   2.0000      -0.538076       -14.6418
 209   2.0000      -0.528942       -14.3932
 210   2.0000      -0.526720       -14.3328
 211   2.0000      -0.523999       -14.2587
 212   2.0000      -0.523133       -14.2352
 213   2.0000      -0.520855       -14.1732
 214   2.0000      -0.520179       -14.1548
 215   2.0000      -0.517949       -14.0941
 216   2.0000      -0.516810       -14.0631
 217   2.0000      -0.512665       -13.9503
 218   2.0000      -0.511682       -13.9236
 219   2.0000      -0.510857       -13.9011
 220   2.0000      -0.508774       -13.8444
 221   2.0000      -0.507536       -13.8108
 222   2.0000      -0.506381       -13.7793
 223   2.0000      -0.503774       -13.7084
 224   2.0000      -0.501597       -13.6491
 225   2.0000      -0.498286       -13.5590
 226   2.0000      -0.497454       -13.5364
 227   2.0000      -0.494356       -13.4521
 228   2.0000      -0.486956       -13.2508
 229   2.0000      -0.485728       -13.2173
 230   2.0000      -0.483674       -13.1614
 231   2.0000      -0.480265       -13.0687
 232   2.0000      -0.479656       -13.0521
 233   2.0000      -0.474013       -12.8986
 234   2.0000      -0.472465       -12.8564
 235   2.0000      -0.471234       -12.8229
 236   2.0000      -0.470911       -12.8141
 237   2.0000      -0.469819       -12.7844
 238   2.0000      -0.468147       -12.7389
 239   2.0000      -0.466889       -12.7047
 240   2.0000      -0.466001       -12.6805
 241   2.0000      -0.463585       -12.6148
 242   2.0000      -0.459728       -12.5098
 243   2.0000      -0.459598       -12.5063
 244   2.0000      -0.456994       -12.4354
 245   2.0000      -0.456137       -12.4121
 246   2.0000      -0.455240       -12.3877
 247   2.0000      -0.452883       -12.3236
 248   2.0000      -0.452518       -12.3137
 249   2.0000      -0.452002       -12.2996
 250   2.0000      -0.451107       -12.2752
 251   2.0000      -0.450748       -12.2655
 252   2.0000      -0.450031       -12.2460
 253   2.0000      -0.449870       -12.2416
 254   2.0000      -0.448733       -12.2106
 255   2.0000      -0.447418       -12.1749
 256   2.0000      -0.445071       -12.1110
 257   2.0000      -0.444843       -12.1048
 258   2.0000      -0.441136       -12.0039
 259   2.0000      -0.440167       -11.9776
 260   2.0000      -0.439848       -11.9689
 261   2.0000      -0.437474       -11.9043
 262   2.0000      -0.436999       -11.8914
 263   2.0000      -0.435829       -11.8595
 264   2.0000      -0.434893       -11.8340
 265   2.0000      -0.432494       -11.7688
 266   2.0000      -0.431211       -11.7338
 267   2.0000      -0.427249       -11.6260
 268   2.0000      -0.425146       -11.5688
 269   2.0000      -0.423226       -11.5166
 270   2.0000      -0.420655       -11.4466
 271   2.0000      -0.417659       -11.3651
 272   2.0000      -0.416053       -11.3214
 273   2.0000      -0.415424       -11.3043
 274   2.0000      -0.415134       -11.2964
 275   2.0000      -0.411873       -11.2076
 276   2.0000      -0.409867       -11.1530
 277   2.0000      -0.402583       -10.9548
 278   2.0000      -0.390472       -10.6253
 279   2.0000      -0.387160       -10.5352
 280   2.0000      -0.382101       -10.3975
 281   2.0000      -0.373991       -10.1768
 282   2.0000      -0.364863        -9.9284
 283   2.0000      -0.362491        -9.8639
 284   2.0000      -0.358885        -9.7658
 285   2.0000      -0.355328        -9.6690
 286   2.0000      -0.345082        -9.3902
 287   2.0000      -0.339765        -9.2455
 288   2.0000      -0.336566        -9.1584
 289   2.0000      -0.333380        -9.0717
 290   2.0000      -0.332332        -9.0432
 291   2.0000      -0.326302        -8.8791
 292   2.0000      -0.312534        -8.5045
 293   2.0000      -0.293300        -7.9811
 294   2.0000      -0.284033        -7.7289
 295   2.0000      -0.259617        -7.0645
 296   2.0000      -0.241768        -6.5788
 297   0.0000      -0.126638        -3.4460
 298   0.0000      -0.114156        -3.1063
 299   0.0000      -0.098373        -2.6769
 300   0.0000      -0.092600        -2.5198
 301   0.0000      -0.089016        -2.4222

MULLIKEN ATOMIC CHARGES
-----------------------
   0 C :   -0.035145
   1 C :    0.047349
   2 C :    0.048445
   3 C :   -0.030212
   4 C :    0.002629
   5 C :    0.014248
   6 C :    0.299257
   7 C :   -0.347499
   8 C :   -0.188317
   9 N :    0.163291
  10 C :   -0.183536
  11 N :    0.162388
  12 C :   -0.071326
  13 C :    0.212345
  14 C :   -0.328769
  15 C :   -0.197915
  16 N :    0.178350
  17 C :   -0.180774
  18 N :    0.168621
  19 C :    0.046672
  20 C :   -0.125393
  21 C :    0.008671
  22 C :    0.034562
  23 C :   -0.074131
  24 S :    0.205743
  25 C :   -0.106227
  26 C :    0.027771
  27 C :    0.298216
  28 C :   -0.288756
  29 C :   -0.183479
  30 N :    0.173897
  31 C :   -0.192802
  32 N :    0.192325
  33 C :   -0.070439
  34 C :   -0.039218
  35 S :    0.207410
  36 C :   -0.057534
  37 C :   -0.059268
  38 C :    0.010593
  39 C :   -0.095692
  40 S :    0.202543
  41 C :   -0.102810
  42 C :    0.019198
  43 C :    0.302408
  44 C :   -0.294580
  45 C :   -0.186570
  46 N :    0.175657
  47 C :   -0.184992
  48 N :    0.171496
  49 C :   -0.055307
  50 C :   -0.038602
  51 S :    0.203961
  52 C :   -0.018746
  53 C :   -0.078403
  54 C :    0.071705
  55 C :   -0.112288
  56 S :    0.141918
  57 C :    0.138631
  58 O :   -0.307153
  59 C :    0.187619
  60 C :    0.044191
  61 C :   -0.115340
  62 C :    0.111260
  63 O :   -0.307436
  64 C :    0.166397
  65 S :    0.071980
  66 C :   -0.073494
  67 C :   -0.060277
  68 C :    0.111275
  69 C :   -0.179599
  70 C :    0.253446
  71 O :   -0.199863
  72 N :   -0.239392
  73 C :    0.127380
  74 C :   -0.303395
  75 C :   -0.194444
  76 N :    0.170140
  77 C :   -0.220793
  78 N :    0.147430
  79 S :    0.150208
  80 C :    0.116059
  81 H :    0.007664
  82 H :    0.006567
  83 H :    0.005476
  84 H :    0.007945
  85 H :    0.028708
  86 H :    0.028319
  87 H :    0.014486
  88 H :    0.013727
  89 H :    0.009727
  90 H :   -0.008086
  91 H :    0.037809
  92 H :    0.038032
  93 H :    0.044187
  94 H :    0.045047
  95 H :    0.038000
  96 H :    0.037376
  97 H :   -0.016949
  98 H :    0.007198
  99 H :    0.062489
 100 H :    0.067072
 101 H :    0.067433
Sum of atomic charges:   -0.0000000

LOEWDIN ATOMIC CHARGES
----------------------
   0 C :    0.005719
   1 C :    0.002844
   2 C :    0.005323
   3 C :    0.001585
   4 C :   -0.011425
   5 C :   -0.012789
   6 C :    0.077756
   7 C :   -0.132783
   8 C :   -0.019174
   9 N :   -0.044844
  10 C :   -0.022442
  11 N :   -0.040950
  12 C :   -0.069054
  13 C :    0.058190
  14 C :   -0.138861
  15 C :   -0.035308
  16 N :   -0.042380
  17 C :   -0.021260
  18 N :   -0.042375
  19 C :    0.044229
  20 C :   -0.181931
  21 C :    0.026407
  22 C :   -0.074728
  23 C :   -0.141976
  24 S :    0.504735
  25 C :   -0.194842
  26 C :   -0.044871
  27 C :    0.078134
  28 C :   -0.091168
  29 C :   -0.015003
  30 N :   -0.028350
  31 C :   -0.019376
  32 N :   -0.017735
  33 C :   -0.043149
  34 C :   -0.161403
  35 S :    0.491431
  36 C :   -0.188473
  37 C :   -0.029181
  38 C :   -0.071413
  39 C :   -0.169327
  40 S :    0.489281
  41 C :   -0.189098
  42 C :   -0.063857
  43 C :    0.082127
  44 C :   -0.099365
  45 C :   -0.016295
  46 N :   -0.029738
  47 C :   -0.015951
  48 N :   -0.031575
  49 C :   -0.023808
  50 C :   -0.173049
  51 S :    0.482462
  52 C :   -0.171472
  53 C :   -0.037654
  54 C :   -0.049821
  55 C :   -0.175119
  56 S :    0.410359
  57 C :    0.038334
  58 O :   -0.098675
  59 C :    0.083082
  60 C :   -0.079145
  61 C :   -0.179059
  62 C :    0.022881
  63 O :   -0.100236
  64 C :    0.066019
  65 S :    0.393282
  66 C :   -0.181661
  67 C :   -0.011330
  68 C :    0.003848
  69 C :   -0.214826
  70 C :    0.078906
  71 O :   -0.176027
  72 N :   -0.003469
  73 C :   -0.034155
  74 C :   -0.210772
  75 C :   -0.034706
  76 N :   -0.060857
  77 C :   -0.041085
  78 N :   -0.048757
  79 S :    0.427883
  80 C :    0.038053
  81 H :    0.042118
  82 H :    0.038509
  83 H :    0.038176
  84 H :    0.041239
  85 H :    0.054755
  86 H :    0.051051
  87 H :    0.036808
  88 H :    0.036691
  89 H :    0.041466
  90 H :    0.035464
  91 H :    0.032292
  92 H :    0.021469
  93 H :    0.022461
  94 H :    0.033747
  95 H :    0.013213
  96 H :    0.013524
  97 H :    0.027486
  98 H :    0.039797
  99 H :    0.041505
 100 H :    0.041669
 101 H :    0.041821

  Mayer bond orders larger than 0.100000
B(  0-C ,  1-C ) :   1.3706 B(  0-C ,  5-C ) :   1.3819 B(  0-C , 81-H ) :   0.9840
B(  1-C ,  2-C ) :   1.3785 B(  1-C , 82-H ) :   0.9855 B(  2-C ,  3-C ) :   1.3648
B(  2-C , 83-H ) :   0.9863 B(  3-C ,  4-C ) :   1.3820 B(  3-C , 84-H ) :   0.9872
B(  4-C ,  5-C ) :   1.3143 B(  4-C , 13-C ) :   1.0127 B(  5-C ,  6-C ) :   0.9981
B(  6-C ,  7-C ) :   1.6400 B(  6-C , 12-C ) :   1.0635 B(  7-C ,  8-C ) :   1.1487
B(  7-C , 10-C ) :   1.1375 B(  8-C ,  9-N ) :   2.9767 B( 10-C , 11-N ) :   2.9655
B( 12-C , 13-C ) :   1.0246 B( 12-C , 19-C ) :   1.5668 B( 13-C , 14-C ) :   1.6457
B( 14-C , 15-C ) :   1.1487 B( 14-C , 17-C ) :   1.1440 B( 15-C , 16-N ) :   3.0158
B( 17-C , 18-N ) :   2.9973 B( 19-C , 20-C ) :   1.1966 B( 19-C , 85-H ) :   0.9332
B( 20-C , 21-C ) :   1.3770 B( 20-C , 24-S ) :   1.0734 B( 21-C , 22-C ) :   1.3144
B( 21-C , 86-H ) :   1.0006 B( 22-C , 23-C ) :   1.3792 B( 22-C , 27-C ) :   0.9926
B( 23-C , 24-S ) :   1.1572 B( 23-C , 25-C ) :   1.2243 B( 25-C , 26-C ) :   1.4318
B( 25-C , 35-S ) :   1.0987 B( 26-C , 27-C ) :   0.9909 B( 26-C , 33-C ) :   1.3179
B( 27-C , 28-C ) :   1.7245 B( 28-C , 29-C ) :   1.1320 B( 28-C , 31-C ) :   1.1345
B( 29-C , 30-N ) :   2.9879 B( 31-C , 32-N ) :   2.9966 B( 33-C , 34-C ) :   1.4345
B( 33-C , 87-H ) :   0.9868 B( 34-C , 35-S ) :   1.1281 B( 34-C , 36-C ) :   1.1786
B( 36-C , 37-C ) :   1.4496 B( 36-C , 40-S ) :   1.1007 B( 37-C , 38-C ) :   1.3080
B( 37-C , 88-H ) :   0.9861 B( 38-C , 39-C ) :   1.4386 B( 38-C , 43-C ) :   0.9943
B( 39-C , 40-S ) :   1.1304 B( 39-C , 41-C ) :   1.1921 B( 41-C , 42-C ) :   1.4351
B( 41-C , 51-S ) :   1.1210 B( 42-C , 43-C ) :   0.9952 B( 42-C , 49-C ) :   1.2903
B( 43-C , 44-C ) :   1.7157 B( 44-C , 45-C ) :   1.1354 B( 44-C , 47-C ) :   1.1298
B( 45-C , 46-N ) :   2.9895 B( 47-C , 48-N ) :   2.9903 B( 49-C , 50-C ) :   1.4862
B( 49-C , 89-H ) :   0.9954 B( 50-C , 51-S ) :   1.1092 B( 50-C , 52-C ) :   1.1078
B( 52-C , 53-C ) :   1.5553 B( 52-C , 56-S ) :   1.0651 B( 53-C , 54-C ) :   1.1828
B( 53-C , 90-H ) :   1.0085 B( 54-C , 55-C ) :   1.3727 B( 54-C , 62-C ) :   1.2608
B( 55-C , 56-S ) :   1.0386 B( 55-C , 57-C ) :   1.3954 B( 57-C , 58-O ) :   1.2819
B( 57-C , 60-C ) :   1.2132 B( 58-O , 59-C ) :   0.9345 B( 59-C , 91-H ) :   0.9713
B( 59-C , 92-H ) :   0.9682 B( 59-C , 93-H ) :   0.9679 B( 60-C , 61-C ) :   1.2414
B( 60-C , 67-C ) :   1.1816 B( 61-C , 62-C ) :   1.4025 B( 61-C , 65-S ) :   1.0168
B( 62-C , 63-O ) :   1.2311 B( 63-O , 64-C ) :   0.9407 B( 64-C , 94-H ) :   0.9757
B( 64-C , 95-H ) :   0.9673 B( 64-C , 96-H ) :   0.9674 B( 65-S , 66-C ) :   1.0299
B( 66-C , 67-C ) :   1.5324 B( 66-C , 68-C ) :   1.1989 B( 67-C , 97-H ) :   0.9684
B( 68-C , 69-C ) :   1.6832 B( 68-C , 98-H ) :   0.9286 B( 69-C , 70-C ) :   0.9757
B( 69-C , 79-S ) :   1.0103 B( 70-C , 71-O ) :   2.0309 B( 70-C , 72-N ) :   1.0748
B( 71-O , 97-H ) :   0.1046 B( 72-N , 73-C ) :   1.1926 B( 72-N , 80-C ) :   0.9345
B( 73-C , 74-C ) :   1.5541 B( 73-C , 79-S ) :   1.0969 B( 74-C , 75-C ) :   1.1664
B( 74-C , 77-C ) :   1.1505 B( 75-C , 76-N ) :   3.0121 B( 77-C , 78-N ) :   3.0334
B( 80-C , 99-H ) :   0.9436 B( 80-C ,100-H ) :   0.9689 B( 80-C ,101-H ) :   0.9689

-----------------------------------------------------------------------------
         ABSORPTION SPECTRUM VIA TRANSITION ELECTRIC DIPOLE MOMENTS
-----------------------------------------------------------------------------
State   Energy  Wavelength   fosc         T2         TX        TY        TZ
        (cm-1)    (nm)                  (au**2)     (au)      (au)      (au)
-----------------------------------------------------------------------------
   0   11001.8    908.9   0.714514928  21.38083  -0.71248  -4.06217  -2.09093
   1   12123.2    824.9   0.031650206   0.85948   0.22951   0.76799   0.46583
   2   16292.4    613.8   0.284069396   5.74005  -0.26024  -2.12170  -1.08200
   3   17863.2    559.8   0.779844135  14.37224   0.28848   3.19471   2.02061
   4   18540.1    539.4   0.292651724   5.19654   0.30730   1.73023   1.45204
   5   19116.1    523.1   0.138449937   2.38435   0.20321   0.84086   1.27907
   6   21673.7    461.4   0.314061279   4.77042   0.15963  -2.10916  -0.54440
   7   21895.3    456.7   0.060616076   0.91141   0.06379  -0.94758   0.09709
   8   23631.4    423.2   0.010974751   0.15289  -0.14975  -0.34924   0.09221
   9   24300.3    411.5   1.055770774  14.30323  -0.26895   3.06582   2.19810
  10   25009.4    399.9   0.013551824   0.17839  -0.01422  -0.04943   0.41922
  11   26211.8    381.5   0.161892071   2.03331  -0.66663   0.44834   1.17809
  12   27295.7    366.4   0.207430302   2.50181  -1.22072  -0.88274   0.48210
  13   27559.9    362.8   0.075104319   0.89715  -0.36967  -0.11796   0.86404
  14   27654.3    361.6   0.204644215   2.43620  -0.10190  -1.54449  -0.20088
  15   28014.5    357.0   0.043945003   0.51642  -0.10589   0.53767   0.46488
  16   28713.5    348.3   0.107163847   1.22868   0.48554  -0.51482  -0.85316
  17   29649.8    337.3   0.140577234   1.56088   0.81261   0.70238  -0.63813
  18   29827.1    335.3   0.101700604   1.12250   0.24611   0.90304  -0.49644
  19   30126.8    331.9   0.061571878   0.67283   0.04203   0.07831  -0.81543
  20   30414.1    328.8   0.440624408   4.76945   1.02425  -0.59892  -1.83349
  21   30533.4    327.5   0.282512650   3.04606   0.15028   1.72310   0.23325
  22   30990.4    322.7   0.039974973   0.42465   0.23467  -0.60763   0.01912
  23   31562.5    316.8   0.243202432   2.53672  -0.72327   0.59365   1.28887
  24   31822.1    314.2   0.203325816   2.10349  -0.07580  -1.14846   0.88249
  25   32598.3    306.8   0.413756934   4.17856  -1.32269  -0.32810   1.52361
  26   32674.3    306.1   0.061210821   0.61673   0.23155   0.73987  -0.12533
  27   32916.8    303.8   0.320226181   3.20269  -0.67985  -1.65478  -0.04680
  28   33400.7    299.4   0.154063961   1.51852   0.12878  -1.16776   0.37186
  29   33466.3    298.8   0.103141627   1.01461   0.16860   0.54397  -0.83083
  30   33565.2    297.9   0.165898802   1.62716  -0.59850   1.01914  -0.47990
  31   33985.1    294.2   0.109491153   1.06064  -0.28266  -0.93194  -0.33501
  32   34369.6    291.0   0.005775768   0.05532  -0.17593  -0.15479   0.02025
  33   34769.0    287.6   0.025480011   0.24126   0.28808  -0.11662  -0.38035
  34   35130.8    284.7   0.587907018   5.50930   1.18707  -0.02547  -2.02472
  35   35414.3    282.4   0.003560641   0.03310  -0.01835  -0.05886  -0.17117
  36   35638.6    280.6   0.122202598   1.12885   0.64781   0.18587  -0.82137
  37   35871.1    278.8   0.062380348   0.57250  -0.26279   0.28588   0.64940
  38   36327.9    275.3   0.048353030   0.43819   0.10095   0.55737   0.34254
  39   36509.1    273.9   0.001275203   0.01150  -0.06563   0.08479   0.00153
  40   36594.3    273.3   0.019763631   0.17780  -0.21743   0.16957   0.31901
  41   36897.5    271.0   0.012192272   0.10878  -0.21047  -0.24415   0.06983
  42   37009.7    270.2   0.037205021   0.33095   0.26065  -0.51274   0.01043
  43   37394.3    267.4   0.005461912   0.04809   0.10123  -0.14606  -0.12847
  44   37490.7    266.7   0.024900441   0.21865  -0.03040   0.16212   0.43755
  45   37741.7    265.0   0.035302717   0.30794  -0.08345   0.41966   0.35335
  46   38373.9    260.6   0.029610691   0.25403  -0.04359   0.50031  -0.04272
  47   38552.6    259.4   0.009782581   0.08354   0.12006   0.06389   0.25503
  48   38650.9    258.7   0.072236689   0.61528  -0.34196   0.27677   0.64942
  49   38834.8    257.5   0.002527681   0.02143  -0.07860   0.07362   0.09915
  50   38989.7    256.5   0.072895283   0.61550  -0.26826   0.13550   0.72469
  51   39249.2    254.8   0.003072010   0.02577   0.04923   0.05925  -0.14083
  52   39471.1    253.3   0.025608344   0.21359   0.03316  -0.35513  -0.29389
  53   39738.7    251.6   0.012124202   0.10044  -0.00023   0.31688   0.00551
  54   39883.3    250.7   0.060173329   0.49669   0.30700   0.04090  -0.63307
  55   40119.3    249.3   0.059913568   0.49164  -0.27758   0.08613   0.63810
  56   40183.6    248.9   0.084906207   0.69561   0.39719   0.62173  -0.38898

FINAL SINGLE POINT ENERGY     -5909.252880272389

DIPOLE MOMENT
-------------
                                X             Y             Z
Electronic contribution:      6.45108      38.68060      16.62495
Nuclear contribution   :     -8.47660     -39.40723     -15.62714
                        -----------------------------------------
Total Dipole Moment    :     -2.02552      -0.72664       0.99781
                        -----------------------------------------
Magnitude (a.u.)       :      2.37200
Magnitude (Debye)      :      6.02914

Rotational constants in cm-1:     0.002240     0.000129     0.000124
Rotational constants in MHz :    67.155998     3.869863     3.706061

                             ****ORCA TERMINATED NORMALLY****
TOTAL RUN TIME: 0 days 0 hours 11 minutes 17 seconds 910 msec
