                         Program Version 4.2.0 -  RELEASE  -
|  1> # ORCA input file
|  2> # SCF done       -196.049999248351          0.004377801080
|  3> ! CAM-B3LYP def2-SVP def2/J RIJCOSX Grid4 TightSCF
|  4> %maxcore 5000
|  5> %tddft
|  6>     Mode sTDDFT
|  7>     Ethresh 5.0
|  8>     maxcore 5000
|  9> end
| 10>
| 11> %pal
| 12>   nprocs 6
| 13>   end
| 14> * xyz 0 1
| 15>    C        4.44705        -3.34297         0.95295
| 16>    C        5.36662        -4.26278         1.43724
| 17>    C        5.27278        -5.60752         1.11347
| 18>    C        4.26176        -6.07202         0.28449
| 19>    C        3.33984        -5.16298        -0.20427
| 20>    C        3.42465        -3.79414         0.13505
| 21>    C        2.31734        -3.08218        -0.49595
| 22>    C        2.12788        -1.72340        -0.47987
| 23>    C        2.99364        -0.80940         0.15453
| 24>    N        3.65440        -0.01302         0.65247
| 25>    C        1.07773        -1.03347        -1.11990
| 26>    N        0.26501        -0.39345        -1.61820
| 27>    C        1.47287        -4.08903        -1.11724
| 28>    C        2.21869        -5.33208        -1.11687
| 29>    C        2.08304        -6.34911        -2.02995
| 30>    C        1.23587        -6.26661        -3.15456
| 31>    N        0.61194        -6.19997        -4.11619
| 32>    C        2.85362        -7.52499        -2.02106
| 33>    N        3.43646        -8.51623        -2.04388
| 34>    C        0.16347        -3.87264        -1.48544
| 35>    C       -0.89397        -4.77716        -1.63788
| 36>    C       -2.17645        -4.40842        -2.05158
| 37>    C       -3.07452        -5.45846        -2.02108
| 38>    C       -2.48879        -6.67001        -1.56265
| 39>    S       -0.84420        -6.48338        -1.15834
| 40>    C       -3.46122        -7.67663        -1.57641
| 41>    C       -4.68111        -7.11724        -2.02305
| 42>    C       -4.47677        -5.70260        -2.29415
| 43>    C       -5.42313        -4.79826        -2.68446
| 44>    C       -6.78242        -5.14576        -2.83001
| 45>    N       -7.89706        -5.40425        -2.90749
| 46>    C       -5.11612        -3.44212        -2.92010
| 47>    N       -4.88902        -2.33380        -3.10875
| 48>    C       -5.71196        -8.03844        -2.08967
| 49>    C       -5.29893        -9.31638        -1.72193
| 50>    S       -3.60850        -9.35152        -1.23795
| 51>    C       -6.09349       -10.47528        -1.62252
| 52>    S       -5.73289       -11.62149        -0.36794
| 53>    C       -7.25118       -12.45009        -0.55758
| 54>    C       -7.98861       -11.87640        -1.62334
| 55>    C       -7.28978       -10.81892        -2.28558
| 56>    C       -7.80179       -10.33616        -3.51648
| 57>    C       -7.00506        -9.55787        -4.52530
| 58>    F       -5.67710        -9.70067        -4.40367
| 59>    F       -7.29137        -9.97492        -5.77502
| 60>    F       -7.25259        -8.23396        -4.53616
| 61>    C       -9.05671       -10.73736        -3.91716
| 62>    C       -9.81264       -11.64527        -3.17973
| 63>    C       -9.27821       -12.26728        -2.06732
| 64>    O       -9.90448       -13.24236        -1.37375
| 65>    C      -11.17247       -13.68266        -1.80807
| 66>    C       -7.57661       -13.52127         0.27082
| 67>    C       -6.68627       -14.07895         1.16640
| 68>    C       -6.97457       -15.12964         2.02158
| 69>    C       -6.03000       -15.72207         2.84769
| 70>    C       -6.22653       -16.75984         3.77612
| 71>    C       -5.08758       -17.15195         4.42948
| 72>    C       -3.93879       -16.44718         4.03377
| 73>    S       -4.34471       -15.25053         2.82687
| 74>    C       -2.62492       -16.62415         4.45146
| 75>    C       -2.13098       -17.52996         5.41097
| 76>    C       -0.77490       -17.48421         5.56716
| 77>    C       -0.13347       -16.54380         4.73122
| 78>    S       -1.32031       -15.69690         3.75238
| 79>    C        1.21546       -16.29480         4.62394
| 80>    C        1.73593       -15.38118         3.74295
| 81>    C        2.11809       -14.56648         2.91645
| 82>    C        2.58013       -13.66639         1.98698
| 83>    S        4.29250       -13.44202         1.69972
| 84>    C        3.95372       -12.24820         0.47830
| 85>    C        2.59306       -12.05090         0.32321
| 86>    C        1.82325       -12.84556         1.16384
| 87>    C        4.97363       -11.61863        -0.21819
| 88>    C        5.86651       -11.07253        -0.83039
| 89>    C        6.87518       -10.42996        -1.55979
| 90>    C        6.62838        -9.39497        -2.36253
| 91>    H        4.53491        -2.30225         1.21726
| 92>    H        6.16498        -3.92188         2.07860
| 93>    H        5.99522        -6.30520         1.50959
| 94>    H        4.19596        -7.12062         0.04325
| 95>    H       -0.14878        -2.83989        -1.57697
| 96>    H       -2.40369        -3.40668        -2.37045
| 97>    H       -6.72958        -7.80450        -2.33945
| 98>    H       -9.45980       -10.36236        -4.84516
| 99>    H      -10.79607       -11.89748        -3.53743
|100>    H      -11.12999       -14.08023        -2.82605
|101>    H      -11.91440       -12.88104        -1.75655
|102>    H      -11.45498       -14.47912        -1.12191
|103>    H       -8.56655       -13.93883         0.18211
|104>    H       -5.67849       -13.67905         1.19576
|105>    H       -7.98224       -15.52162         2.05726
|106>    H       -7.19763       -17.19222         3.94128
|107>    H       -5.05553       -17.93131         5.16950
|108>    H       -2.77987       -18.18923         5.95893
|109>    H       -0.21936       -18.10312         6.24975
|110>    H        1.90111       -16.85171         5.24907
|111>    H        2.19606       -11.34859        -0.38793
|112>    H        0.74801       -12.84186         1.19344
|113>    H        7.87780       -10.82119        -1.42972
|114>    H        5.62875        -9.00996        -2.47949
|115>    H        7.41588        -8.91282        -2.91536
|116> *
|117>
|118>                          ****END OF INPUT****

CARTESIAN COORDINATES (ANGSTROEM)
---------------------------------
  C      4.447050   -3.342970    0.952950
  C      5.366620   -4.262780    1.437240
  C      5.272780   -5.607520    1.113470
  C      4.261760   -6.072020    0.284490
  C      3.339840   -5.162980   -0.204270
  C      3.424650   -3.794140    0.135050
  C      2.317340   -3.082180   -0.495950
  C      2.127880   -1.723400   -0.479870
  C      2.993640   -0.809400    0.154530
  N      3.654400   -0.013020    0.652470
  C      1.077730   -1.033470   -1.119900
  N      0.265010   -0.393450   -1.618200
  C      1.472870   -4.089030   -1.117240
  C      2.218690   -5.332080   -1.116870
  C      2.083040   -6.349110   -2.029950
  C      1.235870   -6.266610   -3.154560
  N      0.611940   -6.199970   -4.116190
  C      2.853620   -7.524990   -2.021060
  N      3.436460   -8.516230   -2.043880
  C      0.163470   -3.872640   -1.485440
  C     -0.893970   -4.777160   -1.637880
  C     -2.176450   -4.408420   -2.051580
  C     -3.074520   -5.458460   -2.021080
  C     -2.488790   -6.670010   -1.562650
  S     -0.844200   -6.483380   -1.158340
  C     -3.461220   -7.676630   -1.576410
  C     -4.681110   -7.117240   -2.023050
  C     -4.476770   -5.702600   -2.294150
  C     -5.423130   -4.798260   -2.684460
  C     -6.782420   -5.145760   -2.830010
  N     -7.897060   -5.404250   -2.907490
  C     -5.116120   -3.442120   -2.920100
  N     -4.889020   -2.333800   -3.108750
  C     -5.711960   -8.038440   -2.089670
  C     -5.298930   -9.316380   -1.721930
  S     -3.608500   -9.351520   -1.237950
  C     -6.093490  -10.475280   -1.622520
  S     -5.732890  -11.621490   -0.367940
  C     -7.251180  -12.450090   -0.557580
  C     -7.988610  -11.876400   -1.623340
  C     -7.289780  -10.818920   -2.285580
  C     -7.801790  -10.336160   -3.516480
  C     -7.005060   -9.557870   -4.525300
  F     -5.677100   -9.700670   -4.403670
  F     -7.291370   -9.974920   -5.775020
  F     -7.252590   -8.233960   -4.536160
  C     -9.056710  -10.737360   -3.917160
  C     -9.812640  -11.645270   -3.179730
  C     -9.278210  -12.267280   -2.067320
  O     -9.904480  -13.242360   -1.373750
  C    -11.172470  -13.682660   -1.808070
  C     -7.576610  -13.521270    0.270820
  C     -6.686270  -14.078950    1.166400
  C     -6.974570  -15.129640    2.021580
  C     -6.030000  -15.722070    2.847690
  C     -6.226530  -16.759840    3.776120
  C     -5.087580  -17.151950    4.429480
  C     -3.938790  -16.447180    4.033770
  S     -4.344710  -15.250530    2.826870
  C     -2.624920  -16.624150    4.451460
  C     -2.130980  -17.529960    5.410970
  C     -0.774900  -17.484210    5.567160
  C     -0.133470  -16.543800    4.731220
  S     -1.320310  -15.696900    3.752380
  C      1.215460  -16.294800    4.623940
  C      1.735930  -15.381180    3.742950
  C      2.118090  -14.566480    2.916450
  C      2.580130  -13.666390    1.986980
  S      4.292500  -13.442020    1.699720
  C      3.953720  -12.248200    0.478300
  C      2.593060  -12.050900    0.323210
  C      1.823250  -12.845560    1.163840
  C      4.973630  -11.618630   -0.218190
  C      5.866510  -11.072530   -0.830390
  C      6.875180  -10.429960   -1.559790
  C      6.628380   -9.394970   -2.362530
  H      4.534910   -2.302250    1.217260
  H      6.164980   -3.921880    2.078600
  H      5.995220   -6.305200    1.509590
  H      4.195960   -7.120620    0.043250
  H     -0.148780   -2.839890   -1.576970
  H     -2.403690   -3.406680   -2.370450
  H     -6.729580   -7.804500   -2.339450
  H     -9.459800  -10.362360   -4.845160
  H    -10.796070  -11.897480   -3.537430
  H    -11.129990  -14.080230   -2.826050
  H    -11.914400  -12.881040   -1.756550
  H    -11.454980  -14.479120   -1.121910
  H     -8.566550  -13.938830    0.182110
  H     -5.678490  -13.679050    1.195760
  H     -7.982240  -15.521620    2.057260
  H     -7.197630  -17.192220    3.941280
  H     -5.055530  -17.931310    5.169500
  H     -2.779870  -18.189230    5.958930
  H     -0.219360  -18.103120    6.249750
  H      1.901110  -16.851710    5.249070
  H      2.196060  -11.348590   -0.387930
  H      0.748010  -12.841860    1.193440
  H      7.877800  -10.821190   -1.429720
  H      5.628750   -9.009960   -2.479490
  H      7.415880   -8.912820   -2.915360

 Total Charge           Charge          ....    0
 Multiplicity           Mult            ....    1
 Number of Electrons    NEL             ....  558
 Basis Dimension        Dim             .... 1213

ORBITAL ENERGIES
----------------

  NO   OCC          E(Eh)            E(eV)
   0   2.0000     -88.989764     -2421.5346
   1   2.0000     -88.987893     -2421.4837
   2   2.0000     -88.976242     -2421.1666
   3   2.0000     -88.961083     -2420.7541
   4   2.0000     -88.958137     -2420.6740
   5   2.0000     -88.957636     -2420.6603
   6   2.0000     -24.797505      -674.7744
   7   2.0000     -24.793444      -674.6639
   8   2.0000     -24.790591      -674.5863
   9   2.0000     -19.277481      -524.5669
  10   2.0000     -14.426117      -392.5546
  11   2.0000     -14.425867      -392.5478
  12   2.0000     -14.420988      -392.4150
  13   2.0000     -14.412388      -392.1810
  14   2.0000     -14.411797      -392.1649
  15   2.0000     -14.409534      -392.1034
  16   2.0000     -10.515069      -286.1296
  17   2.0000     -10.365501      -282.0596
  18   2.0000     -10.362252      -281.9712
  19   2.0000     -10.349741      -281.6308
  20   2.0000     -10.345640      -281.5192
  21   2.0000     -10.345399      -281.5126
  22   2.0000     -10.342911      -281.4449
  23   2.0000     -10.340811      -281.3878
  24   2.0000     -10.338973      -281.3378
  25   2.0000     -10.338179      -281.3161
  26   2.0000     -10.336389      -281.2674
  27   2.0000     -10.329017      -281.0669
  28   2.0000     -10.326801      -281.0065
  29   2.0000     -10.325802      -280.9794
  30   2.0000     -10.325574      -280.9732
  31   2.0000     -10.325060      -280.9592
  32   2.0000     -10.324614      -280.9470
  33   2.0000     -10.323415      -280.9144
  34   2.0000     -10.322975      -280.9024
  35   2.0000     -10.321845      -280.8717
  36   2.0000     -10.321605      -280.8651
  37   2.0000     -10.321497      -280.8622
  38   2.0000     -10.319936      -280.8197
  39   2.0000     -10.316716      -280.7321
  40   2.0000     -10.315946      -280.7112
  41   2.0000     -10.314704      -280.6774
  42   2.0000     -10.314231      -280.6645
  43   2.0000     -10.314136      -280.6619
  44   2.0000     -10.313801      -280.6528
  45   2.0000     -10.312909      -280.6285
  46   2.0000     -10.310501      -280.5630
  47   2.0000     -10.306663      -280.4586
  48   2.0000     -10.305106      -280.4162
  49   2.0000     -10.304965      -280.4124
  50   2.0000     -10.304658      -280.4040
  51   2.0000     -10.302771      -280.3527
  52   2.0000     -10.302492      -280.3451
  53   2.0000     -10.301607      -280.3210
  54   2.0000     -10.301032      -280.3053
  55   2.0000     -10.299903      -280.2746
  56   2.0000     -10.299302      -280.2582
  57   2.0000     -10.298569      -280.2383
  58   2.0000     -10.297835      -280.2183
  59   2.0000     -10.294620      -280.1308
  60   2.0000     -10.294370      -280.1241
  61   2.0000     -10.293559      -280.1020
  62   2.0000     -10.293103      -280.0896
  63   2.0000     -10.292690      -280.0783
  64   2.0000     -10.291808      -280.0543
  65   2.0000     -10.288917      -279.9757
  66   2.0000     -10.287684      -279.9421
  67   2.0000     -10.286531      -279.9107
  68   2.0000     -10.285892      -279.8934
  69   2.0000     -10.282718      -279.8070
  70   2.0000     -10.282291      -279.7954
  71   2.0000     -10.281391      -279.7709
  72   2.0000     -10.277100      -279.6541
  73   2.0000     -10.269317      -279.4423
  74   2.0000     -10.265609      -279.3414
  75   2.0000     -10.263368      -279.2804
  76   2.0000      -8.083836      -219.9724
  77   2.0000      -8.082615      -219.9391
  78   2.0000      -8.071745      -219.6434
  79   2.0000      -8.056518      -219.2290
  80   2.0000      -8.054512      -219.1744
  81   2.0000      -8.053862      -219.1567
  82   2.0000      -6.053217      -164.7164
  83   2.0000      -6.051990      -164.6830
  84   2.0000      -6.048987      -164.6013
  85   2.0000      -6.047805      -164.5691
  86   2.0000      -6.045971      -164.5192
  87   2.0000      -6.044691      -164.4844
  88   2.0000      -6.040872      -164.3805
  89   2.0000      -6.036861      -164.2713
  90   2.0000      -6.034013      -164.1938
  91   2.0000      -6.025908      -163.9733
  92   2.0000      -6.024127      -163.9248
  93   2.0000      -6.023555      -163.9093
  94   2.0000      -6.021688      -163.8585
  95   2.0000      -6.020154      -163.8167
  96   2.0000      -6.019516      -163.7994
  97   2.0000      -6.018473      -163.7710
  98   2.0000      -6.015580      -163.6923
  99   2.0000      -6.014827      -163.6718
 100   2.0000      -1.384856       -37.6839
 101   2.0000      -1.288358       -35.0580
 102   2.0000      -1.282288       -34.8928
 103   2.0000      -1.181812       -32.1587
 104   2.0000      -1.045961       -28.4621
 105   2.0000      -1.029018       -28.0010
 106   2.0000      -1.019106       -27.7313
 107   2.0000      -1.015489       -27.6329
 108   2.0000      -1.011523       -27.5249
 109   2.0000      -1.008839       -27.4519
 110   2.0000      -1.003027       -27.2938
 111   2.0000      -1.000950       -27.2372
 112   2.0000      -0.996451       -27.1148
 113   2.0000      -0.991865       -26.9900
 114   2.0000      -0.989404       -26.9231
 115   2.0000      -0.987395       -26.8684
 116   2.0000      -0.986193       -26.8357
 117   2.0000      -0.961285       -26.1579
 118   2.0000      -0.953723       -25.9521
 119   2.0000      -0.949431       -25.8353
 120   2.0000      -0.932183       -25.3660
 121   2.0000      -0.925911       -25.1953
 122   2.0000      -0.916808       -24.9476
 123   2.0000      -0.907979       -24.7074
 124   2.0000      -0.897758       -24.4292
 125   2.0000      -0.889550       -24.2059
 126   2.0000      -0.888252       -24.1706
 127   2.0000      -0.880664       -23.9641
 128   2.0000      -0.876890       -23.8614
 129   2.0000      -0.869556       -23.6618
 130   2.0000      -0.864653       -23.5284
 131   2.0000      -0.859963       -23.4008
 132   2.0000      -0.858852       -23.3705
 133   2.0000      -0.857851       -23.3433
 134   2.0000      -0.850874       -23.1535
 135   2.0000      -0.840077       -22.8597
 136   2.0000      -0.835079       -22.7237
 137   2.0000      -0.832879       -22.6638
 138   2.0000      -0.826000       -22.4766
 139   2.0000      -0.819973       -22.3126
 140   2.0000      -0.811092       -22.0709
 141   2.0000      -0.798006       -21.7149
 142   2.0000      -0.783861       -21.3299
 143   2.0000      -0.783495       -21.3200
 144   2.0000      -0.777938       -21.1688
 145   2.0000      -0.769882       -20.9496
 146   2.0000      -0.765687       -20.8354
 147   2.0000      -0.748102       -20.3569
 148   2.0000      -0.732385       -19.9292
 149   2.0000      -0.718697       -19.5568
 150   2.0000      -0.716505       -19.4971
 151   2.0000      -0.709978       -19.3195
 152   2.0000      -0.708625       -19.2827
 153   2.0000      -0.704965       -19.1831
 154   2.0000      -0.701474       -19.0881
 155   2.0000      -0.693009       -18.8577
 156   2.0000      -0.689021       -18.7492
 157   2.0000      -0.681744       -18.5512
 158   2.0000      -0.677883       -18.4461
 159   2.0000      -0.675311       -18.3762
 160   2.0000      -0.667523       -18.1642
 161   2.0000      -0.666077       -18.1249
 162   2.0000      -0.663228       -18.0474
 163   2.0000      -0.657699       -17.8969
 164   2.0000      -0.657238       -17.8844
 165   2.0000      -0.653984       -17.7958
 166   2.0000      -0.651501       -17.7282
 167   2.0000      -0.643383       -17.5073
 168   2.0000      -0.639560       -17.4033
 169   2.0000      -0.631799       -17.1921
 170   2.0000      -0.627954       -17.0875
 171   2.0000      -0.625251       -17.0140
 172   2.0000      -0.623007       -16.9529
 173   2.0000      -0.620067       -16.8729
 174   2.0000      -0.613322       -16.6893
 175   2.0000      -0.612621       -16.6703
 176   2.0000      -0.598290       -16.2803
 177   2.0000      -0.595877       -16.2146
 178   2.0000      -0.587639       -15.9905
 179   2.0000      -0.580710       -15.8019
 180   2.0000      -0.579824       -15.7778
 181   2.0000      -0.577868       -15.7246
 182   2.0000      -0.574679       -15.6378
 183   2.0000      -0.571793       -15.5593
 184   2.0000      -0.568275       -15.4636
 185   2.0000      -0.557543       -15.1715
 186   2.0000      -0.551563       -15.0088
 187   2.0000      -0.547333       -14.8937
 188   2.0000      -0.544624       -14.8200
 189   2.0000      -0.542136       -14.7523
 190   2.0000      -0.540292       -14.7021
 191   2.0000      -0.537295       -14.6205
 192   2.0000      -0.536615       -14.6020
 193   2.0000      -0.534917       -14.5558
 194   2.0000      -0.533432       -14.5154
 195   2.0000      -0.529121       -14.3981
 196   2.0000      -0.525433       -14.2978
 197   2.0000      -0.523430       -14.2432
 198   2.0000      -0.519673       -14.1410
 199   2.0000      -0.515999       -14.0410
 200   2.0000      -0.514795       -14.0083
 201   2.0000      -0.511989       -13.9319
 202   2.0000      -0.511579       -13.9208
 203   2.0000      -0.510158       -13.8821
 204   2.0000      -0.507478       -13.8092
 205   2.0000      -0.505716       -13.7612
 206   2.0000      -0.504673       -13.7328
 207   2.0000      -0.501867       -13.6565
 208   2.0000      -0.500470       -13.6185
 209   2.0000      -0.498235       -13.5577
 210   2.0000      -0.496963       -13.5231
 211   2.0000      -0.494518       -13.4565
 212   2.0000      -0.489517       -13.3204
 213   2.0000      -0.489355       -13.3160
 214   2.0000      -0.486279       -13.2323
 215   2.0000      -0.485787       -13.2189
 216   2.0000      -0.481323       -13.0975
 217   2.0000      -0.480608       -13.0780
 218   2.0000      -0.479661       -13.0523
 219   2.0000      -0.478010       -13.0073
 220   2.0000      -0.475391       -12.9360
 221   2.0000      -0.471354       -12.8262
 222   2.0000      -0.471104       -12.8194
 223   2.0000      -0.468712       -12.7543
 224   2.0000      -0.465621       -12.6702
 225   2.0000      -0.460697       -12.5362
 226   2.0000      -0.458876       -12.4866
 227   2.0000      -0.456516       -12.4224
 228   2.0000      -0.455546       -12.3960
 229   2.0000      -0.452643       -12.3170
 230   2.0000      -0.450835       -12.2678
 231   2.0000      -0.447983       -12.1902
 232   2.0000      -0.447040       -12.1646
 233   2.0000      -0.444987       -12.1087
 234   2.0000      -0.443583       -12.0705
 235   2.0000      -0.442064       -12.0292
 236   2.0000      -0.440405       -11.9840
 237   2.0000      -0.439017       -11.9463
 238   2.0000      -0.438422       -11.9301
 239   2.0000      -0.436167       -11.8687
 240   2.0000      -0.435531       -11.8514
 241   2.0000      -0.434938       -11.8353
 242   2.0000      -0.434114       -11.8128
 243   2.0000      -0.431667       -11.7462
 244   2.0000      -0.429533       -11.6882
 245   2.0000      -0.429173       -11.6784
 246   2.0000      -0.426232       -11.5984
 247   2.0000      -0.423831       -11.5330
 248   2.0000      -0.421923       -11.4811
 249   2.0000      -0.421667       -11.4741
 250   2.0000      -0.418010       -11.3746
 251   2.0000      -0.416638       -11.3373
 252   2.0000      -0.415769       -11.3136
 253   2.0000      -0.410170       -11.1613
 254   2.0000      -0.409023       -11.1301
 255   2.0000      -0.404935       -11.0188
 256   2.0000      -0.402587       -10.9549
 257   2.0000      -0.400199       -10.8900
 258   2.0000      -0.390055       -10.6139
 259   2.0000      -0.377758       -10.2793
 260   2.0000      -0.376565       -10.2469
 261   2.0000      -0.360598        -9.8124
 262   2.0000      -0.351290        -9.5591
 263   2.0000      -0.349425        -9.5083
 264   2.0000      -0.347921        -9.4674
 265   2.0000      -0.339016        -9.2251
 266   2.0000      -0.336410        -9.1542
 267   2.0000      -0.335146        -9.1198
 268   2.0000      -0.332756        -9.0547
 269   2.0000      -0.329507        -8.9663
 270   2.0000      -0.327453        -8.9104
 271   2.0000      -0.326779        -8.8921
 272   2.0000      -0.319244        -8.6871
 273   2.0000      -0.309036        -8.4093
 274   2.0000      -0.304502        -8.2859
 275   2.0000      -0.280125        -7.6226
 276   2.0000      -0.264254        -7.1907
 277   2.0000      -0.243017        -6.6128
 278   2.0000      -0.206701        -5.6246
 279   0.0000      -0.120905        -3.2900
 280   0.0000      -0.099298        -2.7020
 281   0.0000      -0.085641        -2.3304
 282   0.0000      -0.080715        -2.1964
 283   0.0000      -0.059640        -1.6229

MULLIKEN ATOMIC CHARGES
-----------------------
   0 C :   -0.034238
   1 C :    0.045923
   2 C :    0.045705
   3 C :   -0.040351
   4 C :    0.009355
   5 C :    0.009303
   6 C :    0.303968
   7 C :   -0.351763
   8 C :   -0.188676
   9 N :    0.153495
  10 C :   -0.186044
  11 N :    0.153742
  12 C :   -0.079873
  13 C :    0.221003
  14 C :   -0.344207
  15 C :   -0.216394
  16 N :    0.179882
  17 C :   -0.143344
  18 N :    0.146710
  19 C :    0.032006
  20 C :   -0.085559
  21 C :   -0.019083
  22 C :    0.028389
  23 C :   -0.062066
  24 S :    0.183757
  25 C :   -0.104168
  26 C :    0.003308
  27 C :    0.302194
  28 C :   -0.291967
  29 C :   -0.186434
  30 N :    0.175159
  31 C :   -0.193399
  32 N :    0.184212
  33 C :   -0.009397
  34 C :   -0.080839
  35 S :    0.186541
  36 C :   -0.159373
  37 S :    0.138475
  38 C :   -0.096460
  39 C :    0.080584
  40 C :    0.154849
  41 C :   -0.155047
  42 C :    0.519014
  43 F :   -0.155718
  44 F :   -0.169291
  45 F :   -0.164804
  46 C :    0.021920
  47 C :   -0.109451
  48 C :    0.200580
  49 O :   -0.307211
  50 C :    0.173851
  51 C :   -0.015868
  52 C :    0.009384
  53 C :   -0.008457
  54 C :   -0.016898
  55 C :    0.028192
  56 C :    0.027178
  57 C :   -0.050638
  58 S :    0.081077
  59 C :   -0.045673
  60 C :    0.023871
  61 C :    0.044831
  62 C :   -0.036607
  63 S :    0.116860
  64 C :   -0.074557
  65 C :   -0.063619
  66 C :    0.101102
  67 C :   -0.165020
  68 S :    0.186381
  69 C :   -0.145351
  70 C :    0.049719
  71 C :    0.052257
  72 C :    0.090629
  73 C :   -0.052630
  74 C :   -0.113259
  75 C :    0.008873
  76 H :    0.003964
  77 H :    0.001368
  78 H :    0.003924
  79 H :    0.006678
  80 H :    0.018859
  81 H :    0.031525
  82 H :    0.018425
  83 H :    0.008711
  84 H :   -0.022553
  85 H :    0.035598
  86 H :    0.037534
  87 H :    0.043054
  88 H :   -0.000497
  89 H :    0.010789
  90 H :   -0.016212
  91 H :   -0.011411
  92 H :   -0.007870
  93 H :   -0.009864
  94 H :   -0.004193
  95 H :    0.021860
  96 H :   -0.001125
  97 H :   -0.004906
  98 H :    0.024584
  99 H :    0.035284
 100 H :    0.025935
Sum of atomic charges:   -0.0000000

LOEWDIN ATOMIC CHARGES
----------------------
   0 C :    0.003928
   1 C :   -0.000993
   2 C :    0.001339
   3 C :   -0.001897
   4 C :   -0.011522
   5 C :   -0.012111
   6 C :    0.079682
   7 C :   -0.141978
   8 C :   -0.018818
   9 N :   -0.054370
  10 C :   -0.024110
  11 N :   -0.047004
  12 C :   -0.087207
  13 C :    0.064287
  14 C :   -0.157700
  15 C :   -0.045134
  16 N :   -0.045545
  17 C :   -0.005190
  18 N :   -0.053346
  19 C :    0.045144
  20 C :   -0.185331
  21 C :    0.031671
  22 C :   -0.085025
  23 C :   -0.130116
  24 S :    0.497495
  25 C :   -0.212220
  26 C :   -0.033632
  27 C :    0.076575
  28 C :   -0.095213
  29 C :   -0.016505
  30 N :   -0.028999
  31 C :   -0.019320
  32 N :   -0.024100
  33 C :   -0.034473
  34 C :   -0.155085
  35 S :    0.462040
  36 C :   -0.220805
  37 S :    0.463994
  38 C :   -0.131597
  39 C :   -0.065295
  40 C :   -0.015108
  41 C :   -0.112934
  42 C :    0.173032
  43 F :   -0.050072
  44 F :   -0.065032
  45 F :   -0.060859
  46 C :    0.029257
  47 C :   -0.094647
  48 C :    0.086759
  49 O :   -0.080371
  50 C :    0.081547
  51 C :   -0.057656
  52 C :   -0.018776
  53 C :   -0.064165
  54 C :   -0.133674
  55 C :   -0.042826
  56 C :   -0.023090
  57 C :   -0.185600
  58 S :    0.386762
  59 C :   -0.165009
  60 C :   -0.035416
  61 C :   -0.024607
  62 C :   -0.138787
  63 S :    0.396590
  64 C :   -0.058551
  65 C :   -0.047469
  66 C :   -0.036482
  67 C :   -0.192877
  68 S :    0.461266
  69 C :   -0.172191
  70 C :   -0.038818
  71 C :   -0.028778
  72 C :   -0.069303
  73 C :   -0.005248
  74 C :   -0.053322
  75 C :   -0.001917
  76 H :    0.041079
  77 H :    0.036517
  78 H :    0.037242
  79 H :    0.040422
  80 H :    0.054330
  81 H :    0.051151
  82 H :    0.037894
  83 H :    0.040181
  84 H :    0.031721
  85 H :    0.021554
  86 H :    0.021749
  87 H :    0.031338
  88 H :    0.033524
  89 H :    0.013007
  90 H :    0.033415
  91 H :    0.034071
  92 H :    0.033757
  93 H :    0.032971
  94 H :    0.036491
  95 H :    0.048642
  96 H :    0.038716
  97 H :    0.035890
  98 H :    0.040749
  99 H :    0.025682
 100 H :    0.024766

  Mayer bond orders larger than 0.100000
B(  0-C ,  1-C ) :   1.3635 B(  0-C ,  5-C ) :   1.3929 B(  0-C , 76-H ) :   0.9833
B(  1-C ,  2-C ) :   1.3827 B(  1-C , 77-H ) :   0.9861 B(  2-C ,  3-C ) :   1.3602
B(  2-C , 78-H ) :   0.9867 B(  3-C ,  4-C ) :   1.3836 B(  3-C , 79-H ) :   0.9894
B(  4-C ,  5-C ) :   1.3152 B(  4-C , 13-C ) :   1.0164 B(  5-C ,  6-C ) :   0.9929
B(  6-C ,  7-C ) :   1.6183 B(  6-C , 12-C ) :   1.0882 B(  7-C ,  8-C ) :   1.1513
B(  7-C , 10-C ) :   1.1379 B(  8-C ,  9-N ) :   2.9733 B( 10-C , 11-N ) :   2.9661
B( 12-C , 13-C ) :   1.0518 B( 12-C , 19-C ) :   1.4660 B( 13-C , 14-C ) :   1.6032
B( 14-C , 15-C ) :   1.1416 B( 14-C , 17-C ) :   1.1599 B( 15-C , 16-N ) :   3.0331
B( 17-C , 18-N ) :   2.9082 B( 19-C , 20-C ) :   1.3005 B( 19-C , 80-H ) :   0.9310
B( 20-C , 21-C ) :   1.3247 B( 20-C , 24-S ) :   1.0384 B( 21-C , 22-C ) :   1.3462
B( 21-C , 81-H ) :   1.0023 B( 22-C , 23-C ) :   1.3149 B( 22-C , 27-C ) :   1.0010
B( 23-C , 24-S ) :   1.1558 B( 23-C , 25-C ) :   1.2965 B( 25-C , 26-C ) :   1.3730
B( 25-C , 35-S ) :   1.0662 B( 26-C , 27-C ) :   0.9891 B( 26-C , 33-C ) :   1.3878
B( 27-C , 28-C ) :   1.7129 B( 28-C , 29-C ) :   1.1394 B( 28-C , 31-C ) :   1.1365
B( 29-C , 30-N ) :   2.9828 B( 31-C , 32-N ) :   2.9941 B( 33-C , 34-C ) :   1.4044
B( 33-C , 82-H ) :   0.9687 B( 34-C , 35-S ) :   1.1227 B( 34-C , 36-C ) :   1.1676
B( 36-C , 37-S ) :   1.1091 B( 36-C , 40-C ) :   1.3476 B( 37-S , 38-C ) :   1.1384
B( 38-C , 39-C ) :   1.2665 B( 38-C , 51-C ) :   1.2681 B( 39-C , 40-C ) :   1.2548
B( 39-C , 48-C ) :   1.2061 B( 40-C , 41-C ) :   1.2347 B( 41-C , 42-C ) :   0.9649
B( 41-C , 46-C ) :   1.5026 B( 42-C , 43-F ) :   1.1417 B( 42-C , 44-F ) :   1.1488
B( 42-C , 45-F ) :   1.1402 B( 46-C , 47-C ) :   1.2418 B( 46-C , 83-H ) :   0.9871
B( 47-C , 48-C ) :   1.3962 B( 47-C , 84-H ) :   0.9948 B( 48-C , 49-O ) :   1.1866
B( 49-O , 50-C ) :   0.9445 B( 50-C , 85-H ) :   0.9701 B( 50-C , 86-H ) :   0.9706
B( 50-C , 87-H ) :   0.9780 B( 51-C , 52-C ) :   1.4678 B( 51-C , 88-H ) :   0.9761
B( 52-C , 53-C ) :   1.2593 B( 52-C , 89-H ) :   0.9624 B( 53-C , 54-C ) :   1.4522
B( 53-C , 90-H ) :   0.9878 B( 54-C , 55-C ) :   1.1942 B( 54-C , 58-S ) :   1.0610
B( 55-C , 56-C ) :   1.5296 B( 55-C , 91-H ) :   1.0005 B( 56-C , 57-C ) :   1.2351
B( 56-C , 92-H ) :   0.9954 B( 57-C , 58-S ) :   1.0509 B( 57-C , 59-C ) :   1.4494
B( 59-C , 60-C ) :   1.2124 B( 59-C , 63-S ) :   1.0688 B( 60-C , 61-C ) :   1.5709
B( 60-C , 93-H ) :   0.9942 B( 61-C , 62-C ) :   1.1648 B( 61-C , 94-H ) :   0.9963
B( 62-C , 63-S ) :   1.0406 B( 62-C , 64-C ) :   1.5826 B( 64-C , 65-C ) :   1.0725
B( 64-C , 95-H ) :   0.9603 B( 65-C , 66-C ) :   2.2004 B( 66-C , 67-C ) :   1.0131
B( 67-C , 68-S ) :   1.0960 B( 67-C , 69-C ) :   0.1039 B( 67-C , 71-C ) :   1.4618
B( 68-S , 69-C ) :   1.1225 B( 69-C , 70-C ) :   1.4888 B( 69-C , 72-C ) :   0.9648
B( 70-C , 71-C ) :   1.2843 B( 70-C , 96-H ) :   0.9996 B( 71-C , 97-H ) :   0.9999
B( 72-C , 73-C ) :   2.3436 B( 73-C , 74-C ) :   1.0149 B( 74-C , 75-C ) :   1.9322
B( 74-C , 98-H ) :   0.9621 B( 75-C , 99-H ) :   0.9407 B( 75-C ,100-H ) :   0.9553

-----------------------------------------------------------------------------
         ABSORPTION SPECTRUM VIA TRANSITION ELECTRIC DIPOLE MOMENTS
-----------------------------------------------------------------------------
State   Energy  Wavelength   fosc         T2         TX        TY        TZ
        (cm-1)    (nm)                  (au**2)     (au)      (au)      (au)
-----------------------------------------------------------------------------
   0    5672.2   1763.0   0.314234318  18.23809   0.41406  -3.89684   1.69742
   1   10916.8    916.0   0.522713387  15.76311   3.78718  -0.18578   1.17723
   2   13042.2    766.7   0.050956783   1.28625  -0.81058  -0.75657   0.23835
   3   15118.4    661.4   0.958945678  20.88163   4.31143   1.49021   0.26913
   4   17109.6    584.5   0.143355196   2.75835  -1.30779  -0.98370  -0.28352
   5   17241.8    580.0   0.330667114   6.31369   1.44040   1.97903  -0.56779
   6   18453.6    541.9   0.196626204   3.50782  -1.00342  -1.10575   1.13061
   7   19738.8    506.6   0.821480540  13.70101   2.50462   2.26411  -1.51714
   8   20503.4    487.7   0.248872041   3.99600  -0.95647   1.23540  -1.24697
   9   21438.9    466.4   0.141087355   2.16652   0.91384  -0.10630   1.14896
  10   22722.3    440.1   0.099505417   1.44168  -0.52060  -0.74723  -0.78250
  11   23810.8    420.0   0.006786078   0.09383   0.23843  -0.09266  -0.16850
  12   25079.2    398.7   0.037875210   0.49718   0.09368   0.69826  -0.02902
  13   25548.3    391.4   0.366966520   4.72868  -0.18923   0.87860  -1.98013
  14   25996.5    384.7   0.026177355   0.33150   0.47126   0.32948   0.02932
  15   26885.3    372.0   0.110079794   1.34793   0.14185   1.00442  -0.56476
  16   27438.5    364.5   0.054557878   0.65459   0.09081  -0.15276   0.78931
  17   27622.0    362.0   0.064218856   0.76539   0.52658   0.54731  -0.43424
  18   27776.9    360.0   0.032918066   0.39014   0.20873   0.37310  -0.45538
  19   28163.8    355.1   0.266780977   3.11846   1.16360  -1.21751   0.53119
  20   29081.9    343.9   0.177473360   2.00903   0.85000   1.02623   0.48309
  21   29692.4    336.8   0.009206651   0.10208  -0.23826   0.19157  -0.09280
  22   30182.3    331.3   0.023025601   0.25115  -0.38296  -0.19347   0.25896
  23   30287.4    330.2   0.150199607   1.63261   0.91102  -0.81899   0.36318
  24   30581.7    327.0   0.039448994   0.42467  -0.03484  -0.58927  -0.27606
  25   31005.2    322.5   0.092529555   0.98247   0.95980   0.19258   0.15544
  26   31562.5    316.8   0.163457086   1.70494   0.56908   0.85941   0.80156
  27   31711.9    315.3   0.127318766   1.32174   0.48455   0.97741   0.36280
  28   32071.8    311.8   0.035240794   0.36174   0.23246   0.53449  -0.14842
  29   32257.3    310.0   0.098028024   1.00045  -0.24669   0.96286  -0.11180
  30   32379.4    308.8   0.097910062   0.99548   0.46823   0.83393  -0.28426
  31   32685.3    305.9   0.113310862   1.14129   0.18616   1.02279   0.24605
  32   32897.6    304.0   0.008563671   0.08570   0.01476   0.27252   0.10588
  33   32915.7    303.8   0.037876466   0.37883   0.24254  -0.56162  -0.06773
  34   33087.1    302.2   0.113877638   1.13306  -0.16045   0.96761   0.41357
  35   33270.4    300.6   0.030272063   0.29954   0.30643  -0.08985   0.44449
  36   33325.2    300.1   0.002641333   0.02609  -0.13255  -0.09061  -0.01770
  37   33494.1    298.6   0.076662572   0.75351  -0.40499   0.29699   0.70802
  38   33915.7    294.8   0.092831684   0.90110   0.31290   0.85738  -0.26095
  39   34138.1    292.9   0.048060165   0.46347  -0.56962  -0.03896  -0.37079
  40   34372.4    290.9   0.373552702   3.57781   1.55181  -0.91657   0.57410
  41   34739.8    287.9   0.234363983   2.22095  -1.14855   0.68926  -0.65322
  42   34891.6    286.6   0.012278591   0.11585   0.29751   0.15680   0.05249
  43   35246.8    283.7   0.145729880   1.36114  -1.01290   0.07085  -0.57460
  44   35311.2    283.2   0.031837412   0.29683  -0.38157  -0.01442  -0.38862
  45   35718.5    280.0   0.066369494   0.61172  -0.47551   0.39090  -0.48250
  46   35917.0    278.4   0.048938811   0.44857   0.42122  -0.13705   0.50235
  47   36398.5    274.7   0.009183449   0.08306  -0.01299   0.18554  -0.22015
  48   37005.0    270.2   0.045694713   0.40652  -0.19487  -0.53126  -0.29379
  49   37135.5    269.3   0.046695868   0.41397   0.39014  -0.51134  -0.01708
  50   37400.9    267.4   0.001859987   0.01637  -0.11734   0.03835  -0.03366
  51   37574.7    266.1   0.016319823   0.14299   0.26301  -0.01397   0.27133
  52   37765.4    264.8   0.081208673   0.70792   0.78516   0.20140   0.22558
  53   37923.7    263.7   0.061783616   0.53634   0.33252   0.15296   0.63433
  54   38045.2    262.8   0.002055091   0.01778   0.00425   0.10929  -0.07630
  55   38272.9    261.3   0.017124709   0.14730  -0.32156  -0.20916   0.01234
  56   38388.4    260.5   0.066674598   0.57179   0.38036   0.63701  -0.14603
  57   38502.3    259.7   0.011268494   0.09635   0.21311  -0.18556  -0.12845
  58   38624.3    258.9   0.022333533   0.19036  -0.33883  -0.16180   0.22220
  59   38786.5    257.8   0.016256111   0.13798  -0.30173  -0.16087   0.14513
  60   38834.8    257.5   0.002011488   0.01705   0.04398  -0.11815   0.03405
  61   39306.4    254.4   0.001869413   0.01566  -0.08327  -0.00208   0.09337
  62   39487.2    253.2   0.046228857   0.38542  -0.05966   0.49229  -0.37351
  63   39898.5    250.6   0.006227601   0.05139   0.06164  -0.00691   0.21803
  64   40129.9    249.2   0.069893682   0.57338   0.18804  -0.69667   0.22953
  65   40229.0    248.6   0.017616793   0.14417  -0.10812   0.31899  -0.17528
  66   40303.9    248.1   0.015655445   0.12788   0.23941   0.20625  -0.16739

FINAL SINGLE POINT ENERGY     -5389.000223938630

DIPOLE MOMENT
-------------
                                X             Y             Z
Electronic contribution:    -10.81065      32.76131     -26.00806
Nuclear contribution   :      8.38749     -39.49447      29.36107
                        -----------------------------------------
Total Dipole Moment    :     -2.42317      -6.73316       3.35300
                        -----------------------------------------
Magnitude (a.u.)       :      7.90252
Magnitude (Debye)      :     20.08661

Rotational constants in cm-1:     0.000675     0.000499     0.000316
Rotational constants in MHz :    20.245572    14.973367     9.470506

                             ****ORCA TERMINATED NORMALLY****
TOTAL RUN TIME: 0 days 0 hours 12 minutes 49 seconds 440 msec
