                         Program Version 4.2.0 -  RELEASE  -
|  1> # ORCA input file
|  2> # SCF done       -181.456097425143          0.000823939078
|  3> ! CAM-B3LYP def2-SVP def2/J RIJCOSX Grid4 TightSCF
|  4> %maxcore 5000
|  5> %tddft
|  6>     Mode sTDDFT
|  7>     Ethresh 5.0
|  8>     maxcore 5000
|  9> end
| 10>
| 11> %pal
| 12>   nprocs 6
| 13>   end
| 14> * xyz 0 1
| 15>    C        0.81703        -0.38719         4.73058
| 16>    C        1.88252        -1.14449         5.19918
| 17>    C        2.19964        -2.36848         4.62991
| 18>    C        1.46170        -2.86313         3.56424
| 19>    C        0.39649        -2.11792         3.08942
| 20>    C        0.06434        -0.87734         3.67626
| 21>    C       -1.11317        -0.33894         2.99928
| 22>    C       -1.69546         0.87654         3.25885
| 23>    C       -1.20236         1.80461         4.19828
| 24>    N       -0.85681         2.60802         4.94235
| 25>    C       -2.84366         1.38738         2.62111
| 26>    N       -3.77731         1.86622         2.15316
| 27>    C       -1.55628        -1.34717         2.05511
| 28>    C       -0.52415        -2.35906         1.98859
| 29>    C       -0.27045        -3.19139         0.92111
| 30>    C       -1.00535        -3.18081        -0.28078
| 31>    N       -1.55236        -3.17970        -1.29091
| 32>    C        0.81570        -4.07620         0.86368
| 33>    N        1.67907        -4.82953         0.76171
| 34>    C       -2.77446        -1.34883         1.39849
| 35>    C       -3.48433        -2.46642         0.95295
| 36>    C       -4.59144        -2.47096         0.10129
| 37>    C       -5.11526        -3.73650        -0.09500
| 38>    C       -4.42528        -4.73192         0.65330
| 39>    S       -3.13571        -4.09723         1.56694
| 40>    C       -5.01073        -5.96821         0.41484
| 41>    C       -6.08609        -5.80675        -0.49723
| 42>    C       -6.17382        -4.38863        -0.84020
| 43>    C       -7.07091        -3.80945        -1.69291
| 44>    C       -8.05509        -4.56524        -2.36077
| 45>    N       -8.85750        -5.18229        -2.90080
| 46>    C       -7.07605        -2.42430        -1.95607
| 47>    N       -7.09330        -1.29835        -2.17256
| 48>    C       -6.71981        -6.99735        -0.78858
| 49>    C       -6.15479        -8.09300        -0.10782
| 50>    S       -4.80289        -7.59437         0.90259
| 51>    C       -6.56606        -9.42424        -0.16340
| 52>    C       -6.00038       -10.47220         0.54244
| 53>    C       -6.40039       -11.82772         0.55969
| 54>    C       -5.66438       -12.62558         1.39488
| 55>    C       -4.64229       -11.94189         2.07711
| 56>    S       -4.63610       -10.25831         1.60784
| 57>    C       -3.70958       -12.34584         3.02113
| 58>    C       -3.49357       -13.60930         3.60732
| 59>    C       -2.49502       -13.59484         4.53249
| 60>    C       -1.86892       -12.32821         4.72505
| 61>    S       -2.61733       -11.14387         3.68352
| 62>    C       -0.82461       -12.14194         5.59267
| 63>    C       -0.02263       -11.01132         5.91289
| 64>    C        1.05699       -11.20712         6.78209
| 65>    C        1.94878       -10.19996         7.11812
| 66>    C        1.81174        -8.92400         6.60560
| 67>    C        0.69334        -8.65437         5.77631
| 68>    C       -0.21793        -9.68378         5.42051
| 69>    N       -1.26857        -9.38214         4.64281
| 70>    C       -1.44009        -8.15465         4.21196
| 71>    C       -0.52407        -7.12975         4.58116
| 72>    N        0.49193        -7.39227         5.35572
| 73>    C       -0.68311        -5.72030         4.11663
| 74>    C       -2.61194        -7.85767         3.34505
| 75>    C        2.75902        -7.84038         6.85593
| 76>    C        3.15452        -7.47637         8.12322
| 77>    C        3.97603        -6.36201         8.33541
| 78>    C        4.39675        -5.58711         7.28722
| 79>    C        4.04502        -5.94755         5.97409
| 80>    C        3.25467        -7.10231         5.74819
| 81>    N        3.02241        -7.52542         4.49038
| 82>    C        3.47040        -6.81930         3.48927
| 83>    C        4.16399        -5.58686         3.71554
| 84>    N        4.44890        -5.19278         4.92723
| 85>    C        4.61710        -4.73835         2.57664
| 86>    C        3.24578        -7.34312         2.11422
| 87>    H        0.58914         0.56085         5.18912
| 88>    H        2.47063        -0.77085         6.02347
| 89>    H        3.02650        -2.94759         5.01368
| 90>    H        1.71324        -3.81751         3.13193
| 91>    H       -3.29228        -0.40594         1.28210
| 92>    H       -4.95348        -1.56941        -0.35991
| 93>    H       -7.55572        -7.11154        -1.45510
| 94>    H       -7.40788        -9.65013        -0.80380
| 95>    H       -7.22508       -12.17624        -0.03675
| 96>    H       -5.84040       -13.67761         1.53351
| 97>    H       -4.06599       -14.48079         3.34161
| 98>    H       -2.17670       -14.45928         5.08959
| 99>    H       -0.53238       -13.04298         6.12346
|100>    H        1.21670       -12.19588         7.18858
|101>    H        2.78450       -10.42437         7.76484
|102>    H       -0.65967        -5.67925         3.02860
|103>    H        0.12825        -5.12220         4.52204
|104>    H       -1.63236        -5.30341         4.44997
|105>    H       -3.02090        -6.87478         3.56288
|106>    H       -3.37914        -8.61171         3.47974
|107>    H       -2.30189        -7.86913         2.30049
|108>    H        2.79087        -8.03605         8.97305
|109>    H        4.25527        -6.10228         9.34585
|110>    H        4.99624        -4.70267         7.43679
|111>    H        3.80100        -4.56148         1.87862
|112>    H        5.41205        -5.24709         2.03203
|113>    H        4.99723        -3.79223         2.95173
|114>    H        4.19446        -7.46222         1.59348
|115>    H        2.63730        -6.64564         1.54039
|116>    H        2.73995        -8.30299         2.17217
|117> *
|118>
|119>                          ****END OF INPUT****

CARTESIAN COORDINATES (ANGSTROEM)
---------------------------------
  C      0.817030   -0.387190    4.730580
  C      1.882520   -1.144490    5.199180
  C      2.199640   -2.368480    4.629910
  C      1.461700   -2.863130    3.564240
  C      0.396490   -2.117920    3.089420
  C      0.064340   -0.877340    3.676260
  C     -1.113170   -0.338940    2.999280
  C     -1.695460    0.876540    3.258850
  C     -1.202360    1.804610    4.198280
  N     -0.856810    2.608020    4.942350
  C     -2.843660    1.387380    2.621110
  N     -3.777310    1.866220    2.153160
  C     -1.556280   -1.347170    2.055110
  C     -0.524150   -2.359060    1.988590
  C     -0.270450   -3.191390    0.921110
  C     -1.005350   -3.180810   -0.280780
  N     -1.552360   -3.179700   -1.290910
  C      0.815700   -4.076200    0.863680
  N      1.679070   -4.829530    0.761710
  C     -2.774460   -1.348830    1.398490
  C     -3.484330   -2.466420    0.952950
  C     -4.591440   -2.470960    0.101290
  C     -5.115260   -3.736500   -0.095000
  C     -4.425280   -4.731920    0.653300
  S     -3.135710   -4.097230    1.566940
  C     -5.010730   -5.968210    0.414840
  C     -6.086090   -5.806750   -0.497230
  C     -6.173820   -4.388630   -0.840200
  C     -7.070910   -3.809450   -1.692910
  C     -8.055090   -4.565240   -2.360770
  N     -8.857500   -5.182290   -2.900800
  C     -7.076050   -2.424300   -1.956070
  N     -7.093300   -1.298350   -2.172560
  C     -6.719810   -6.997350   -0.788580
  C     -6.154790   -8.093000   -0.107820
  S     -4.802890   -7.594370    0.902590
  C     -6.566060   -9.424240   -0.163400
  C     -6.000380  -10.472200    0.542440
  C     -6.400390  -11.827720    0.559690
  C     -5.664380  -12.625580    1.394880
  C     -4.642290  -11.941890    2.077110
  S     -4.636100  -10.258310    1.607840
  C     -3.709580  -12.345840    3.021130
  C     -3.493570  -13.609300    3.607320
  C     -2.495020  -13.594840    4.532490
  C     -1.868920  -12.328210    4.725050
  S     -2.617330  -11.143870    3.683520
  C     -0.824610  -12.141940    5.592670
  C     -0.022630  -11.011320    5.912890
  C      1.056990  -11.207120    6.782090
  C      1.948780  -10.199960    7.118120
  C      1.811740   -8.924000    6.605600
  C      0.693340   -8.654370    5.776310
  C     -0.217930   -9.683780    5.420510
  N     -1.268570   -9.382140    4.642810
  C     -1.440090   -8.154650    4.211960
  C     -0.524070   -7.129750    4.581160
  N      0.491930   -7.392270    5.355720
  C     -0.683110   -5.720300    4.116630
  C     -2.611940   -7.857670    3.345050
  C      2.759020   -7.840380    6.855930
  C      3.154520   -7.476370    8.123220
  C      3.976030   -6.362010    8.335410
  C      4.396750   -5.587110    7.287220
  C      4.045020   -5.947550    5.974090
  C      3.254670   -7.102310    5.748190
  N      3.022410   -7.525420    4.490380
  C      3.470400   -6.819300    3.489270
  C      4.163990   -5.586860    3.715540
  N      4.448900   -5.192780    4.927230
  C      4.617100   -4.738350    2.576640
  C      3.245780   -7.343120    2.114220
  H      0.589140    0.560850    5.189120
  H      2.470630   -0.770850    6.023470
  H      3.026500   -2.947590    5.013680
  H      1.713240   -3.817510    3.131930
  H     -3.292280   -0.405940    1.282100
  H     -4.953480   -1.569410   -0.359910
  H     -7.555720   -7.111540   -1.455100
  H     -7.407880   -9.650130   -0.803800
  H     -7.225080  -12.176240   -0.036750
  H     -5.840400  -13.677610    1.533510
  H     -4.065990  -14.480790    3.341610
  H     -2.176700  -14.459280    5.089590
  H     -0.532380  -13.042980    6.123460
  H      1.216700  -12.195880    7.188580
  H      2.784500  -10.424370    7.764840
  H     -0.659670   -5.679250    3.028600
  H      0.128250   -5.122200    4.522040
  H     -1.632360   -5.303410    4.449970
  H     -3.020900   -6.874780    3.562880
  H     -3.379140   -8.611710    3.479740
  H     -2.301890   -7.869130    2.300490
  H      2.790870   -8.036050    8.973050
  H      4.255270   -6.102280    9.345850
  H      4.996240   -4.702670    7.436790
  H      3.801000   -4.561480    1.878620
  H      5.412050   -5.247090    2.032030
  H      4.997230   -3.792230    2.951730
  H      4.194460   -7.462220    1.593480
  H      2.637300   -6.645640    1.540390
  H      2.739950   -8.302990    2.172170

 Total Charge           Charge          ....    0
 Multiplicity           Mult            ....    1
 Number of Electrons    NEL             ....  512
 Basis Dimension        Dim             .... 1174

ORBITAL ENERGIES
----------------

  NO   OCC          E(Eh)            E(eV)
   0   2.0000     -88.988056     -2421.4881
   1   2.0000     -88.987845     -2421.4824
   2   2.0000     -88.967801     -2420.9369
   3   2.0000     -88.960944     -2420.7504
   4   2.0000     -14.433401      -392.7528
   5   2.0000     -14.427204      -392.5842
   6   2.0000     -14.425524      -392.5385
   7   2.0000     -14.422434      -392.4544
   8   2.0000     -14.421225      -392.4215
   9   2.0000     -14.411358      -392.1530
  10   2.0000     -14.410981      -392.1427
  11   2.0000     -14.409548      -392.1037
  12   2.0000     -14.408138      -392.0654
  13   2.0000     -14.405856      -392.0033
  14   2.0000     -10.360677      -281.9284
  15   2.0000     -10.351206      -281.6706
  16   2.0000     -10.345024      -281.5024
  17   2.0000     -10.339315      -281.3471
  18   2.0000     -10.338681      -281.3298
  19   2.0000     -10.336965      -281.2831
  20   2.0000     -10.336292      -281.2648
  21   2.0000     -10.336215      -281.2627
  22   2.0000     -10.334962      -281.2286
  23   2.0000     -10.331305      -281.1291
  24   2.0000     -10.328762      -281.0599
  25   2.0000     -10.327873      -281.0357
  26   2.0000     -10.327698      -281.0310
  27   2.0000     -10.327278      -281.0195
  28   2.0000     -10.325383      -280.9680
  29   2.0000     -10.325329      -280.9665
  30   2.0000     -10.325247      -280.9643
  31   2.0000     -10.322064      -280.8776
  32   2.0000     -10.321457      -280.8611
  33   2.0000     -10.320224      -280.8276
  34   2.0000     -10.319004      -280.7944
  35   2.0000     -10.318554      -280.7821
  36   2.0000     -10.315891      -280.7097
  37   2.0000     -10.314135      -280.6619
  38   2.0000     -10.314066      -280.6600
  39   2.0000     -10.313927      -280.6562
  40   2.0000     -10.313039      -280.6321
  41   2.0000     -10.311631      -280.5937
  42   2.0000     -10.311626      -280.5936
  43   2.0000     -10.311237      -280.5830
  44   2.0000     -10.308976      -280.5215
  45   2.0000     -10.306334      -280.4496
  46   2.0000     -10.304059      -280.3877
  47   2.0000     -10.303663      -280.3769
  48   2.0000     -10.303601      -280.3753
  49   2.0000     -10.302976      -280.3582
  50   2.0000     -10.302688      -280.3504
  51   2.0000     -10.302308      -280.3401
  52   2.0000     -10.302245      -280.3383
  53   2.0000     -10.302201      -280.3372
  54   2.0000     -10.302108      -280.3346
  55   2.0000     -10.299702      -280.2691
  56   2.0000     -10.297811      -280.2177
  57   2.0000     -10.297247      -280.2023
  58   2.0000     -10.297131      -280.1992
  59   2.0000     -10.292392      -280.0702
  60   2.0000     -10.290961      -280.0313
  61   2.0000     -10.290028      -280.0059
  62   2.0000     -10.288711      -279.9700
  63   2.0000     -10.287285      -279.9313
  64   2.0000     -10.284632      -279.8591
  65   2.0000     -10.280113      -279.7361
  66   2.0000     -10.279515      -279.7198
  67   2.0000     -10.276752      -279.6446
  68   2.0000     -10.275197      -279.6023
  69   2.0000     -10.273131      -279.5461
  70   2.0000     -10.256384      -279.0904
  71   2.0000     -10.249407      -278.9006
  72   2.0000      -8.082130      -219.9259
  73   2.0000      -8.081718      -219.9147
  74   2.0000      -8.063679      -219.4239
  75   2.0000      -8.054240      -219.1670
  76   2.0000      -6.051558      -164.6713
  77   2.0000      -6.051119      -164.6593
  78   2.0000      -6.047406      -164.5583
  79   2.0000      -6.046813      -164.5422
  80   2.0000      -6.044125      -164.4690
  81   2.0000      -6.043886      -164.4625
  82   2.0000      -6.033244      -164.1729
  83   2.0000      -6.028948      -164.0560
  84   2.0000      -6.025166      -163.9531
  85   2.0000      -6.024361      -163.9312
  86   2.0000      -6.019599      -163.8016
  87   2.0000      -6.015248      -163.6832
  88   2.0000      -1.090122       -29.6637
  89   2.0000      -1.068406       -29.0728
  90   2.0000      -1.045873       -28.4596
  91   2.0000      -1.028032       -27.9742
  92   2.0000      -1.018932       -27.7266
  93   2.0000      -1.016978       -27.6734
  94   2.0000      -1.012286       -27.5457
  95   2.0000      -1.012166       -27.5424
  96   2.0000      -1.003881       -27.3170
  97   2.0000      -1.001679       -27.2571
  98   2.0000      -0.998798       -27.1787
  99   2.0000      -0.993479       -27.0339
 100   2.0000      -0.991404       -26.9775
 101   2.0000      -0.988387       -26.8954
 102   2.0000      -0.987780       -26.8789
 103   2.0000      -0.971696       -26.4412
 104   2.0000      -0.960316       -26.1315
 105   2.0000      -0.947673       -25.7875
 106   2.0000      -0.947206       -25.7748
 107   2.0000      -0.930777       -25.3277
 108   2.0000      -0.922289       -25.0968
 109   2.0000      -0.910676       -24.7808
 110   2.0000      -0.896746       -24.4017
 111   2.0000      -0.895020       -24.3547
 112   2.0000      -0.886322       -24.1181
 113   2.0000      -0.879485       -23.9320
 114   2.0000      -0.874410       -23.7939
 115   2.0000      -0.872674       -23.7467
 116   2.0000      -0.864731       -23.5305
 117   2.0000      -0.861417       -23.4403
 118   2.0000      -0.857438       -23.3321
 119   2.0000      -0.856417       -23.3043
 120   2.0000      -0.839210       -22.8361
 121   2.0000      -0.836353       -22.7583
 122   2.0000      -0.827312       -22.5123
 123   2.0000      -0.814762       -22.1708
 124   2.0000      -0.813009       -22.1231
 125   2.0000      -0.802318       -21.8322
 126   2.0000      -0.795926       -21.6582
 127   2.0000      -0.792455       -21.5638
 128   2.0000      -0.782347       -21.2888
 129   2.0000      -0.778052       -21.1719
 130   2.0000      -0.767930       -20.8964
 131   2.0000      -0.747004       -20.3270
 132   2.0000      -0.730156       -19.8685
 133   2.0000      -0.729599       -19.8534
 134   2.0000      -0.724504       -19.7148
 135   2.0000      -0.709485       -19.3061
 136   2.0000      -0.708409       -19.2768
 137   2.0000      -0.705456       -19.1964
 138   2.0000      -0.704464       -19.1694
 139   2.0000      -0.701470       -19.0880
 140   2.0000      -0.699093       -19.0233
 141   2.0000      -0.691664       -18.8211
 142   2.0000      -0.683986       -18.6122
 143   2.0000      -0.675430       -18.3794
 144   2.0000      -0.671984       -18.2856
 145   2.0000      -0.659048       -17.9336
 146   2.0000      -0.655630       -17.8406
 147   2.0000      -0.651853       -17.7378
 148   2.0000      -0.647468       -17.6185
 149   2.0000      -0.642412       -17.4809
 150   2.0000      -0.639660       -17.4060
 151   2.0000      -0.629463       -17.1286
 152   2.0000      -0.628846       -17.1118
 153   2.0000      -0.622308       -16.9339
 154   2.0000      -0.619706       -16.8631
 155   2.0000      -0.618432       -16.8284
 156   2.0000      -0.613218       -16.6865
 157   2.0000      -0.610457       -16.6114
 158   2.0000      -0.594190       -16.1687
 159   2.0000      -0.587471       -15.9859
 160   2.0000      -0.580714       -15.8020
 161   2.0000      -0.575697       -15.6655
 162   2.0000      -0.573671       -15.6104
 163   2.0000      -0.568093       -15.4586
 164   2.0000      -0.563216       -15.3259
 165   2.0000      -0.558983       -15.2107
 166   2.0000      -0.554572       -15.0907
 167   2.0000      -0.549928       -14.9643
 168   2.0000      -0.548118       -14.9150
 169   2.0000      -0.542808       -14.7706
 170   2.0000      -0.542238       -14.7550
 171   2.0000      -0.537707       -14.6318
 172   2.0000      -0.536347       -14.5947
 173   2.0000      -0.534334       -14.5400
 174   2.0000      -0.530392       -14.4327
 175   2.0000      -0.528113       -14.3707
 176   2.0000      -0.524033       -14.2597
 177   2.0000      -0.517736       -14.0883
 178   2.0000      -0.516843       -14.0640
 179   2.0000      -0.512437       -13.9441
 180   2.0000      -0.509615       -13.8673
 181   2.0000      -0.509404       -13.8616
 182   2.0000      -0.507198       -13.8016
 183   2.0000      -0.506132       -13.7726
 184   2.0000      -0.503099       -13.6900
 185   2.0000      -0.501180       -13.6378
 186   2.0000      -0.499754       -13.5990
 187   2.0000      -0.498240       -13.5578
 188   2.0000      -0.497248       -13.5308
 189   2.0000      -0.495766       -13.4905
 190   2.0000      -0.493954       -13.4412
 191   2.0000      -0.491954       -13.3867
 192   2.0000      -0.489940       -13.3319
 193   2.0000      -0.488194       -13.2844
 194   2.0000      -0.486946       -13.2505
 195   2.0000      -0.482737       -13.1359
 196   2.0000      -0.481528       -13.1030
 197   2.0000      -0.480076       -13.0635
 198   2.0000      -0.477993       -13.0068
 199   2.0000      -0.475602       -12.9418
 200   2.0000      -0.473395       -12.8817
 201   2.0000      -0.470578       -12.8051
 202   2.0000      -0.469207       -12.7678
 203   2.0000      -0.464758       -12.6467
 204   2.0000      -0.462584       -12.5875
 205   2.0000      -0.458329       -12.4718
 206   2.0000      -0.457761       -12.4563
 207   2.0000      -0.453324       -12.3356
 208   2.0000      -0.450819       -12.2674
 209   2.0000      -0.449286       -12.2257
 210   2.0000      -0.445479       -12.1221
 211   2.0000      -0.445293       -12.1170
 212   2.0000      -0.444754       -12.1024
 213   2.0000      -0.443145       -12.0586
 214   2.0000      -0.442478       -12.0404
 215   2.0000      -0.440700       -11.9921
 216   2.0000      -0.440145       -11.9770
 217   2.0000      -0.438432       -11.9303
 218   2.0000      -0.437257       -11.8984
 219   2.0000      -0.436576       -11.8798
 220   2.0000      -0.435483       -11.8501
 221   2.0000      -0.435231       -11.8432
 222   2.0000      -0.434011       -11.8100
 223   2.0000      -0.431096       -11.7307
 224   2.0000      -0.426343       -11.6014
 225   2.0000      -0.424031       -11.5385
 226   2.0000      -0.423822       -11.5328
 227   2.0000      -0.421220       -11.4620
 228   2.0000      -0.418747       -11.3947
 229   2.0000      -0.409951       -11.1553
 230   2.0000      -0.408785       -11.1236
 231   2.0000      -0.407582       -11.0909
 232   2.0000      -0.406383       -11.0582
 233   2.0000      -0.402595       -10.9552
 234   2.0000      -0.401629       -10.9289
 235   2.0000      -0.399972       -10.8838
 236   2.0000      -0.384992       -10.4762
 237   2.0000      -0.376462       -10.2440
 238   2.0000      -0.369482       -10.0541
 239   2.0000      -0.363492        -9.8911
 240   2.0000      -0.359450        -9.7811
 241   2.0000      -0.358174        -9.7464
 242   2.0000      -0.348854        -9.4928
 243   2.0000      -0.338306        -9.2058
 244   2.0000      -0.337904        -9.1948
 245   2.0000      -0.327942        -8.9238
 246   2.0000      -0.325537        -8.8583
 247   2.0000      -0.320210        -8.7134
 248   2.0000      -0.318117        -8.6564
 249   2.0000      -0.315558        -8.5868
 250   2.0000      -0.308792        -8.4027
 251   2.0000      -0.304627        -8.2893
 252   2.0000      -0.301971        -8.2171
 253   2.0000      -0.288530        -7.8513
 254   2.0000      -0.263729        -7.1764
 255   2.0000      -0.222570        -6.0564
 256   0.0000      -0.122036        -3.3208
 257   0.0000      -0.090891        -2.4733
 258   0.0000      -0.086205        -2.3457
 259   0.0000      -0.080298        -2.1850
 260   0.0000      -0.044294        -1.2053

MULLIKEN ATOMIC CHARGES
-----------------------
   0 C :   -0.037938
   1 C :    0.046167
   2 C :    0.039256
   3 C :   -0.043653
   4 C :    0.010099
   5 C :    0.013042
   6 C :    0.314326
   7 C :   -0.356309
   8 C :   -0.191325
   9 N :    0.149782
  10 C :   -0.186770
  11 N :    0.151914
  12 C :   -0.100705
  13 C :    0.221946
  14 C :   -0.363062
  15 C :   -0.203389
  16 N :    0.174818
  17 C :   -0.146377
  18 N :    0.149936
  19 C :    0.040630
  20 C :   -0.110079
  21 C :    0.013445
  22 C :    0.021588
  23 C :   -0.046170
  24 S :    0.159380
  25 C :   -0.095623
  26 C :    0.057479
  27 C :    0.292032
  28 C :   -0.290096
  29 C :   -0.189741
  30 N :    0.169225
  31 C :   -0.192843
  32 N :    0.180915
  33 C :   -0.058261
  34 C :   -0.016574
  35 S :    0.105529
  36 C :   -0.002286
  37 C :   -0.015246
  38 C :    0.020775
  39 C :    0.046699
  40 C :   -0.047821
  41 S :    0.033106
  42 C :    0.008454
  43 C :    0.025567
  44 C :    0.042475
  45 C :    0.014824
  46 S :    0.099639
  47 C :   -0.056419
  48 C :    0.091222
  49 C :   -0.026161
  50 C :   -0.032439
  51 C :    0.073267
  52 C :   -0.033042
  53 C :    0.029857
  54 N :   -0.069850
  55 C :   -0.105469
  56 C :   -0.176390
  57 N :    0.035034
  58 C :    0.109420
  59 C :    0.082428
  60 C :    0.049228
  61 C :   -0.029003
  62 C :    0.038001
  63 C :   -0.001798
  64 C :   -0.007747
  65 C :   -0.006717
  66 N :    0.018185
  67 C :   -0.185631
  68 C :   -0.186077
  69 N :   -0.019671
  70 C :    0.130276
  71 C :    0.139850
  72 H :    0.002559
  73 H :   -0.000876
  74 H :    0.006362
  75 H :   -0.010613
  76 H :    0.029161
  77 H :    0.026614
  78 H :    0.009130
  79 H :   -0.003177
  80 H :   -0.006948
  81 H :   -0.007500
  82 H :   -0.011523
  83 H :   -0.003778
  84 H :   -0.016491
  85 H :   -0.018078
  86 H :   -0.019371
  87 H :    0.030540
  88 H :    0.034084
  89 H :    0.031276
  90 H :    0.011610
  91 H :    0.045848
  92 H :    0.045690
  93 H :   -0.027649
  94 H :   -0.011792
  95 H :   -0.031322
  96 H :    0.030781
  97 H :    0.025294
  98 H :    0.018738
  99 H :    0.014089
 100 H :    0.029253
 101 H :    0.008957
Sum of atomic charges:   -0.0000000

LOEWDIN ATOMIC CHARGES
----------------------
   0 C :    0.003340
   1 C :   -0.001064
   2 C :    0.002269
   3 C :   -0.005720
   4 C :   -0.013429
   5 C :   -0.013259
   6 C :    0.078169
   7 C :   -0.143751
   8 C :   -0.019209
   9 N :   -0.056178
  10 C :   -0.022256
  11 N :   -0.051495
  12 C :   -0.095752
  13 C :    0.059859
  14 C :   -0.167584
  15 C :   -0.036800
  16 N :   -0.053500
  17 C :    0.004970
  18 N :   -0.064127
  19 C :    0.042869
  20 C :   -0.184030
  21 C :    0.040696
  22 C :   -0.084196
  23 C :   -0.126379
  24 S :    0.476903
  25 C :   -0.230310
  26 C :   -0.030040
  27 C :    0.077100
  28 C :   -0.101763
  29 C :   -0.015759
  30 N :   -0.036473
  31 C :   -0.019115
  32 N :   -0.026612
  33 C :   -0.033986
  34 C :   -0.130383
  35 S :    0.468787
  36 C :   -0.092201
  37 C :   -0.134219
  38 C :   -0.049353
  39 C :   -0.017731
  40 C :   -0.203365
  41 S :    0.400389
  42 C :   -0.154289
  43 C :   -0.043691
  44 C :   -0.002850
  45 C :   -0.155088
  46 S :    0.449173
  47 C :   -0.008149
  48 C :   -0.041224
  49 C :    0.002610
  50 C :   -0.016744
  51 C :    0.011864
  52 C :    0.002260
  53 C :    0.001878
  54 N :   -0.066654
  55 C :    0.014973
  56 C :    0.000650
  57 N :   -0.024612
  58 C :   -0.057478
  59 C :   -0.071091
  60 C :   -0.018013
  61 C :   -0.013612
  62 C :   -0.023715
  63 C :   -0.013670
  64 C :   -0.019413
  65 C :   -0.001310
  66 N :   -0.046977
  67 C :    0.002163
  68 C :   -0.002526
  69 N :   -0.057341
  70 C :   -0.058472
  71 C :   -0.062532
  72 H :    0.040552
  73 H :    0.036107
  74 H :    0.035246
  75 H :    0.032695
  76 H :    0.052817
  77 H :    0.051340
  78 H :    0.042073
  79 H :    0.044013
  80 H :    0.035251
  81 H :    0.035490
  82 H :    0.031942
  83 H :    0.035614
  84 H :    0.039198
  85 H :    0.030855
  86 H :    0.033933
  87 H :    0.033975
  88 H :    0.039454
  89 H :    0.036117
  90 H :    0.029414
  91 H :    0.020674
  92 H :    0.038205
  93 H :    0.028223
  94 H :    0.030253
  95 H :    0.031959
  96 H :    0.035237
  97 H :    0.040815
  98 H :    0.034505
  99 H :    0.035416
 100 H :    0.035457
 101 H :    0.031737

  Mayer bond orders larger than 0.100000
B(  0-C ,  1-C ) :   1.3554 B(  0-C ,  5-C ) :   1.3885 B(  0-C , 72-H ) :   0.9833
B(  1-C ,  2-C ) :   1.3809 B(  1-C , 73-H ) :   0.9886 B(  2-C ,  3-C ) :   1.3541
B(  2-C , 74-H ) :   0.9788 B(  3-C ,  4-C ) :   1.3864 B(  3-C , 75-H ) :   0.9797
B(  4-C ,  5-C ) :   1.3222 B(  4-C , 13-C ) :   1.0032 B(  5-C ,  6-C ) :   0.9829
B(  6-C ,  7-C ) :   1.6076 B(  6-C , 12-C ) :   1.1017 B(  7-C ,  8-C ) :   1.1541
B(  7-C , 10-C ) :   1.1415 B(  8-C ,  9-N ) :   2.9700 B( 10-C , 11-N ) :   2.9610
B( 12-C , 13-C ) :   1.0897 B( 12-C , 19-C ) :   1.4181 B( 13-C , 14-C ) :   1.5700
B( 14-C , 15-C ) :   1.1495 B( 14-C , 17-C ) :   1.1830 B( 15-C , 16-N ) :   3.0169
B( 17-C , 18-N ) :   2.8852 B( 19-C , 20-C ) :   1.3159 B( 19-C , 76-H ) :   0.9372
B( 20-C , 21-C ) :   1.2978 B( 20-C , 24-S ) :   1.0322 B( 21-C , 22-C ) :   1.3694
B( 21-C , 77-H ) :   1.0012 B( 22-C , 23-C ) :   1.2779 B( 22-C , 27-C ) :   1.0143
B( 23-C , 24-S ) :   1.1374 B( 23-C , 25-C ) :   1.3464 B( 25-C , 26-C ) :   1.3138
B( 25-C , 35-S ) :   1.0571 B( 26-C , 27-C ) :   0.9773 B( 26-C , 33-C ) :   1.4085
B( 27-C , 28-C ) :   1.7062 B( 28-C , 29-C ) :   1.1399 B( 28-C , 31-C ) :   1.1347
B( 29-C , 30-N ) :   2.9884 B( 31-C , 32-N ) :   2.9964 B( 33-C , 34-C ) :   1.2722
B( 33-C , 78-H ) :   1.0058 B( 34-C , 35-S ) :   1.1005 B( 34-C , 36-C ) :   1.2899
B( 36-C , 37-C ) :   1.4352 B( 36-C , 79-H ) :   0.9753 B( 37-C , 38-C ) :   1.1967
B( 37-C , 41-S ) :   1.0804 B( 38-C , 39-C ) :   1.5345 B( 38-C , 80-H ) :   1.0000
B( 39-C , 40-C ) :   1.2334 B( 39-C , 81-H ) :   0.9927 B( 40-C , 41-S ) :   1.0296
B( 40-C , 42-C ) :   1.4475 B( 42-C , 43-C ) :   1.1956 B( 42-C , 46-S ) :   1.0279
B( 43-C , 44-C ) :   1.5780 B( 43-C , 82-H ) :   0.9957 B( 44-C , 45-C ) :   1.1368
B( 44-C , 83-H ) :   0.9995 B( 45-C , 46-S ) :   1.0379 B( 45-C , 47-C ) :   1.5668
B( 47-C , 48-C ) :   1.1336 B( 47-C , 84-H ) :   0.9602 B( 48-C , 49-C ) :   1.3636
B( 48-C , 51-C ) :   0.1097 B( 48-C , 53-C ) :   1.1718 B( 49-C , 50-C ) :   1.2647
B( 49-C , 85-H ) :   1.0007 B( 50-C , 51-C ) :   1.4454 B( 50-C , 86-H ) :   1.0000
B( 51-C , 52-C ) :   1.2631 B( 51-C , 60-C ) :   0.9310 B( 52-C , 53-C ) :   1.2641
B( 52-C , 57-N ) :   1.4370 B( 53-C , 54-N ) :   1.4007 B( 54-N , 55-C ) :   1.6079
B( 55-C , 56-C ) :   1.1862 B( 55-C , 59-C ) :   1.0978 B( 56-C , 57-N ) :   1.7024
B( 56-C , 58-C ) :   1.0928 B( 58-C , 87-H ) :   0.9367 B( 58-C , 88-H ) :   0.9333
B( 58-C , 89-H ) :   0.9354 B( 59-C , 90-H ) :   0.9353 B( 59-C , 91-H ) :   0.9360
B( 59-C , 92-H ) :   0.9360 B( 60-C , 61-C ) :   1.5045 B( 60-C , 63-C ) :   0.1048
B( 60-C , 65-C ) :   1.2485 B( 61-C , 62-C ) :   1.2369 B( 61-C , 93-H ) :   0.9985
B( 62-C , 63-C ) :   1.4390 B( 62-C , 94-H ) :   0.9887 B( 63-C , 64-C ) :   1.2550
B( 63-C , 95-H ) :   1.0112 B( 64-C , 65-C ) :   1.2713 B( 64-C , 69-N ) :   1.3446
B( 65-C , 66-N ) :   1.4160 B( 66-N , 67-C ) :   1.7078 B( 67-C , 68-C ) :   1.1451
B( 67-C , 71-C ) :   1.1024 B( 68-C , 69-N ) :   1.6956 B( 68-C , 70-C ) :   1.0978
B( 70-C , 96-H ) :   0.9289 B( 70-C , 97-H ) :   0.9326 B( 70-C , 98-H ) :   0.9408
B( 71-C , 99-H ) :   0.9320 B( 71-C ,100-H ) :   0.9131 B( 71-C ,101-H ) :   0.9347

-----------------------------------------------------------------------------
         ABSORPTION SPECTRUM VIA TRANSITION ELECTRIC DIPOLE MOMENTS
-----------------------------------------------------------------------------
State   Energy  Wavelength   fosc         T2         TX        TY        TZ
        (cm-1)    (nm)                  (au**2)     (au)      (au)      (au)
-----------------------------------------------------------------------------
   0    7133.3   1401.9   0.369301107  17.04365   0.58240  -3.78353   1.54576
   1   13429.4    744.6   0.092481976   2.26713   0.09159  -1.35363   0.65300
   2   16295.4    613.7   0.086139423   1.74025   1.11648   0.30263   0.63414
   3   16443.2    608.2   0.679461449  13.60358   3.26657   0.28002   1.68958
   4   17911.0    558.3   0.569411861  10.46601   1.96759   1.84760   1.78353
   5   21920.2    456.2   0.244883255   3.67782  -1.61807  -0.81034  -0.63484
   6   22418.9    446.1   0.351758769   5.16543  -1.28298  -1.59610  -0.98583
   7   23947.9    417.6   0.098938923   1.36011   0.26562   1.12513  -0.15375
   8   24137.9    414.3   0.009993148   0.13629   0.22199   0.26994  -0.11895
   9   24576.0    406.9   0.528189901   7.07547   0.44321   2.55979   0.57139
  10   25761.1    388.2   0.050843362   0.64975  -0.66358  -0.37171   0.26691
  11   25895.1    386.2   0.165619695   2.10557  -0.65956   0.51990  -1.18332
  12   27219.7    367.4   0.000186654   0.00226   0.02132  -0.01713   0.03886
  13   27523.0    363.3   0.178779204   2.13844   1.09084   0.10390   0.96836
  14   27978.1    357.4   0.191514596   2.25351  -0.41665   1.29916  -0.62617
  15   28374.9    352.4   0.120496032   1.39802   0.65202   0.89422   0.41626
  16   28708.3    348.3   0.016466985   0.18883   0.42619   0.05878   0.06116
  17   29126.3    343.3   0.061998921   0.70077   0.08137   0.82714   0.09994
  18   29497.1    339.0   0.028657118   0.31984   0.32617  -0.25483   0.38537
  19   29904.8    334.4   0.009910743   0.10910   0.28128   0.03512  -0.16957
  20   30221.8    330.9   0.026874775   0.29275  -0.06585   0.22849   0.48601
  21   30633.2    326.4   0.000407388   0.00438  -0.00798  -0.05673  -0.03311
  22   30708.5    325.6   0.020816177   0.22316  -0.04324  -0.06378   0.46607
  23   30955.2    323.0   0.066125180   0.70325  -0.15882   0.29983  -0.76689
  24   31036.8    322.2   0.001131125   0.01200   0.05677   0.08363   0.04220
  25   31435.7    318.1   0.586615182   6.14337   0.21234  -2.35735  -0.73564
  26   31636.7    316.1   0.145646538   1.51560   1.15899   0.02458   0.41443
  27   31774.1    314.7   0.005551582   0.05752  -0.18098   0.15677  -0.01370
  28   32426.2    308.4   0.035483284   0.36025   0.23031  -0.42988  -0.34988
  29   32714.2    305.7   0.064769504   0.65179   0.23549  -0.67857  -0.36862
  30   32927.8    303.7   0.034228711   0.34222   0.52260  -0.24644   0.09151
  31   33105.9    302.1   0.030626687   0.30456   0.28701   0.35713  -0.30765
  32   33425.5    299.2   0.039186785   0.38596   0.11991  -0.60842  -0.03749
  33   33557.8    298.0   0.069018206   0.67709   0.44315  -0.57617   0.38566
  34   33668.5    297.0   0.017571382   0.17181  -0.09995   0.33962   0.21560
  35   34023.8    293.9   0.012905945   0.12488  -0.15627   0.11861  -0.29392
  36   34121.0    293.1   0.037502799   0.36184   0.33041  -0.05405   0.49975
  37   34253.5    291.9   0.006752054   0.06489  -0.25068   0.02493  -0.03783
  38   34429.4    290.4   0.821877349   7.85874   2.02526  -0.87237   1.73090
  39   34744.4    287.8   0.022043316   0.20887  -0.43545  -0.00410  -0.13868
  40   35170.3    284.3   0.032323839   0.30257  -0.27038   0.31023  -0.36499
  41   35268.3    283.5   0.050125014   0.46789  -0.52461  -0.19687  -0.39233
  42   35683.1    280.2   0.001452555   0.01340  -0.03912  -0.04570  -0.09891
  43   35854.1    278.9   0.003269703   0.03002  -0.08469   0.09945   0.11384
  44   35962.3    278.1   0.025389994   0.23243   0.20573   0.17867   0.39772
  45   36093.1    277.1   0.015061928   0.13738  -0.17962   0.15607   0.28419
  46   36305.3    275.4   0.010532604   0.09551   0.26511  -0.15154  -0.04751
  47   36494.8    274.0   0.005071047   0.04574  -0.15285  -0.01728   0.14861
  48   36633.6    273.0   0.044807652   0.40267  -0.07085   0.57231  -0.26479
  49   36757.4    272.1   0.020854067   0.18678  -0.41381  -0.12194  -0.02592
  50   36926.8    270.8   0.007256514   0.06469  -0.22753   0.09299   0.06538
  51   37014.4    270.2   0.000700758   0.00623  -0.03463   0.07077  -0.00497
  52   37541.0    266.4   0.040127504   0.35189  -0.30963   0.32031  -0.39170
  53   37671.3    265.5   0.006882796   0.06015   0.07218   0.08772   0.21736
  54   37978.6    263.3   0.046100838   0.39962   0.15876  -0.24405  -0.56112
  55   38087.0    262.6   0.011838389   0.10233  -0.08029   0.07365  -0.30076
  56   38181.6    261.9   0.033602284   0.28973   0.27047   0.14700  -0.44155
  57   38544.9    259.4   0.060793392   0.51924  -0.37346   0.34866  -0.50813
  58   38769.2    257.9   0.097583568   0.82864   0.15820   0.88648   0.13325
  59   38876.3    257.2   0.051563007   0.43665   0.19956   0.25597   0.57559
  60   39051.1    256.1   0.010346368   0.08722   0.07511  -0.27212  -0.08679
  61   39558.7    252.8   0.006033317   0.05021   0.01741   0.14717  -0.16807
  62   39696.5    251.9   0.019911442   0.16513  -0.32420   0.21907  -0.10970
  63   39874.6    250.8   0.002805939   0.02317  -0.03059  -0.14287   0.04265
  64   40067.7    249.6   0.019259920   0.15825   0.21028   0.25471  -0.22171
  65   40305.1    248.1   0.026272687   0.21460  -0.10862  -0.44770   0.04857

FINAL SINGLE POINT ENERGY     -4364.311333477024

DIPOLE MOMENT
-------------
                                X             Y             Z
Electronic contribution:    -39.96514      19.70202     -21.72995
Nuclear contribution   :     40.90321     -26.32919      24.59279
                        -----------------------------------------
Total Dipole Moment    :      0.93807      -6.62718       2.86284
                        -----------------------------------------
Magnitude (a.u.)       :      7.27979
Magnitude (Debye)      :     18.50375

Rotational constants in cm-1:     0.000943     0.000891     0.000501
Rotational constants in MHz :    28.257434    26.703465    15.006838

                             ****ORCA TERMINATED NORMALLY****
TOTAL RUN TIME: 0 days 0 hours 14 minutes 4 seconds 221 msec
