                         Program Version 4.2.0 -  RELEASE  -
|  1> # ORCA input file
|  2> # SCF done       -195.148203657935          0.000504102090
|  3> ! CAM-B3LYP def2-SVP def2/J RIJCOSX Grid4 TightSCF
|  4> %maxcore 5000
|  5> %tddft
|  6>     Mode sTDDFT
|  7>     Ethresh 5.0
|  8>     maxcore 5000
|  9> end
| 10>
| 11> %pal
| 12>   nprocs 6
| 13>   end
| 14> * xyz 0 1
| 15>    C       -4.49085        -0.39822         7.41828
| 16>    C       -5.10006        -1.06766         8.46986
| 17>    C       -5.36357        -2.42739         8.39717
| 18>    C       -5.01503        -3.16091         7.27259
| 19>    C       -4.40605        -2.50287         6.21825
| 20>    C       -4.14750        -1.11557         6.28383
| 21>    C       -3.53456        -0.69036         5.02949
| 22>    C       -3.07375         0.57253         4.75417
| 23>    C       -3.10405         1.64307         5.67103
| 24>    N       -3.09531         2.55803         6.36507
| 25>    C       -2.47969         0.98374         3.54394
| 26>    N       -1.99058         1.39463         2.58892
| 27>    C       -3.54678        -1.84219         4.14435
| 28>    C       -3.90084        -2.99975         4.94753
| 29>    C       -3.53821        -4.29880         4.69432
| 30>    C       -2.74531        -4.69024         3.59629
| 31>    N       -2.05769        -5.04288         2.74677
| 32>    C       -3.82786        -5.37758         5.55172
| 33>    N       -4.04988        -6.29683         6.20316
| 34>    C       -3.33999        -1.79083         2.78482
| 35>    C       -3.78889        -2.68382         1.80068
| 36>    C       -3.34415        -2.71840         0.47780
| 37>    C       -3.98983        -3.64604        -0.31806
| 38>    C       -4.99770        -4.31980         0.40265
| 39>    S       -5.11113        -3.81677         2.03910
| 40>    C       -5.72896        -5.27690        -0.31727
| 41>    C       -5.34297        -5.44863        -1.66250
| 42>   Si       -3.91876        -4.28909        -2.08136
| 43>    C       -4.38620        -3.00446        -3.35646
| 44>    C       -2.32992        -5.18102        -2.48849
| 45>    C       -6.10892        -6.41399        -2.28810
| 46>    C       -7.08392        -6.99775        -1.47177
| 47>    S       -7.02793        -6.30460         0.14268
| 48>    C       -8.03615        -7.98717        -1.74464
| 49>    C       -8.23102        -8.66266        -2.93049
| 50>    C       -9.21201        -9.65177        -3.18029
| 51>    C       -9.19099       -10.16941        -4.44568
| 52>    C       -8.18721        -9.61847        -5.26292
| 53>    S       -7.27663        -8.41914        -4.37616
| 54>    C       -7.83059        -9.87023        -6.57932
| 55>    C       -8.36214       -10.73761        -7.55072
| 56>    C       -7.70835       -10.68131        -8.75120
| 57>    C       -6.62627        -9.77041        -8.78872
| 58>    S       -6.47403        -8.98490        -7.23605
| 59>    C       -5.78632        -9.49396        -9.84833
| 60>    C       -4.72045        -8.58847        -9.83383
| 61>    C       -3.86334        -8.26625       -10.89686
| 62>    C       -2.89748        -7.32474       -10.58847
| 63>    C       -3.01002        -6.91289        -9.24336
| 64>    S       -4.29111        -7.68133        -8.39871
| 65>    C       -2.08698        -5.96128        -8.79817
| 66>    C       -1.16047        -5.50236        -9.76184
| 67>   Si       -1.46102        -6.40539       -11.38088
| 68>    C       -0.02412        -7.51378       -11.83185
| 69>    C       -2.00856        -5.27786       -12.77218
| 70>    C       -0.27320        -4.60206        -9.20790
| 71>    C       -0.48164        -4.35109        -7.84584
| 72>    S       -1.87102        -5.25394        -7.25698
| 73>    C        0.14896        -3.50082        -6.93497
| 74>    C        1.34346        -2.81707        -7.03638
| 75>    C        1.65174        -1.63507        -6.25310
| 76>    C        0.99662        -1.17140        -5.13725
| 77>    C       -0.09359        -1.78718        -4.49407
| 78>    N       -0.97961        -2.21994        -3.90145
| 79>    C        1.36082        -0.00109        -4.43944
| 80>    N        1.59660         0.94036        -3.82575
| 81>    C        2.80682        -1.00133        -6.88027
| 82>    C        3.26554        -1.83070        -7.92799
| 83>    C        4.34497        -1.45328        -8.70732
| 84>    C        4.96687        -0.24272        -8.43642
| 85>    C        4.52566         0.56793        -7.40196
| 86>    C        3.44491         0.19870        -6.61350
| 87>    C        2.44680        -3.03554        -7.94795
| 88>    C        2.81707        -4.23168        -8.51441
| 89>    C        3.92364        -4.39141        -9.36987
| 90>    N        4.78874        -4.57950       -10.10190
| 91>    C        2.19012        -5.46281        -8.24281
| 92>    N        1.75002        -6.50056        -8.02212
| 93>    H       -4.29771         0.65907         7.49359
| 94>    H       -5.37521        -0.51672         9.35638
| 95>    H       -5.84639        -2.92400         9.22503
| 96>    H       -5.22863        -4.21638         7.22253
| 97>    H       -2.83757        -0.91762         2.38854
| 98>    H       -2.54257        -2.08740         0.13717
| 99>    H       -5.24121        -2.39907        -3.06093
|100>    H       -4.62972        -3.46259        -4.31308
|101>    H       -3.55271        -2.32820        -3.53455
|102>    H       -1.97372        -5.80391        -1.67007
|103>    H       -1.54376        -4.46439        -2.71836
|104>    H       -2.43893        -5.82184        -3.36165
|105>    H       -5.96738        -6.69003        -3.31578
|106>    H       -8.69698        -8.25517        -0.93007
|107>    H       -9.90687        -9.95327        -2.41621
|108>    H       -9.86450       -10.92809        -4.80234
|109>    H       -9.20510       -11.37462        -7.34968
|110>    H       -7.97333       -11.27076        -9.61141
|111>    H       -5.96471       -10.02169       -10.77589
|112>    H       -3.97120        -8.72601       -11.86355
|113>    H        0.31419        -8.10593       -10.98335
|114>    H        0.83263        -6.93627       -12.17373
|115>    H       -0.27693        -8.20826       -12.63040
|116>    H       -2.83733        -4.63360       -12.48415
|117>    H       -2.33326        -5.84562       -13.64164
|118>    H       -1.19996        -4.62983       -13.10412
|119>    H        0.48705        -4.09599        -9.77678
|120>    H       -0.43351        -3.30854        -6.04340
|121>    H        4.69507        -2.07381        -9.51628
|122>    H        5.80513         0.06853        -9.04089
|123>    H        5.02654         1.50344        -7.20474
|124>    H        3.11693         0.84373        -5.81547
|125> *
|126>
|127>                          ****END OF INPUT****

CARTESIAN COORDINATES (ANGSTROEM)
---------------------------------
  C     -4.490850   -0.398220    7.418280
  C     -5.100060   -1.067660    8.469860
  C     -5.363570   -2.427390    8.397170
  C     -5.015030   -3.160910    7.272590
  C     -4.406050   -2.502870    6.218250
  C     -4.147500   -1.115570    6.283830
  C     -3.534560   -0.690360    5.029490
  C     -3.073750    0.572530    4.754170
  C     -3.104050    1.643070    5.671030
  N     -3.095310    2.558030    6.365070
  C     -2.479690    0.983740    3.543940
  N     -1.990580    1.394630    2.588920
  C     -3.546780   -1.842190    4.144350
  C     -3.900840   -2.999750    4.947530
  C     -3.538210   -4.298800    4.694320
  C     -2.745310   -4.690240    3.596290
  N     -2.057690   -5.042880    2.746770
  C     -3.827860   -5.377580    5.551720
  N     -4.049880   -6.296830    6.203160
  C     -3.339990   -1.790830    2.784820
  C     -3.788890   -2.683820    1.800680
  C     -3.344150   -2.718400    0.477800
  C     -3.989830   -3.646040   -0.318060
  C     -4.997700   -4.319800    0.402650
  S     -5.111130   -3.816770    2.039100
  C     -5.728960   -5.276900   -0.317270
  C     -5.342970   -5.448630   -1.662500
  Si    -3.918760   -4.289090   -2.081360
  C     -4.386200   -3.004460   -3.356460
  C     -2.329920   -5.181020   -2.488490
  C     -6.108920   -6.413990   -2.288100
  C     -7.083920   -6.997750   -1.471770
  S     -7.027930   -6.304600    0.142680
  C     -8.036150   -7.987170   -1.744640
  C     -8.231020   -8.662660   -2.930490
  C     -9.212010   -9.651770   -3.180290
  C     -9.190990  -10.169410   -4.445680
  C     -8.187210   -9.618470   -5.262920
  S     -7.276630   -8.419140   -4.376160
  C     -7.830590   -9.870230   -6.579320
  C     -8.362140  -10.737610   -7.550720
  C     -7.708350  -10.681310   -8.751200
  C     -6.626270   -9.770410   -8.788720
  S     -6.474030   -8.984900   -7.236050
  C     -5.786320   -9.493960   -9.848330
  C     -4.720450   -8.588470   -9.833830
  C     -3.863340   -8.266250  -10.896860
  C     -2.897480   -7.324740  -10.588470
  C     -3.010020   -6.912890   -9.243360
  S     -4.291110   -7.681330   -8.398710
  C     -2.086980   -5.961280   -8.798170
  C     -1.160470   -5.502360   -9.761840
  Si    -1.461020   -6.405390  -11.380880
  C     -0.024120   -7.513780  -11.831850
  C     -2.008560   -5.277860  -12.772180
  C     -0.273200   -4.602060   -9.207900
  C     -0.481640   -4.351090   -7.845840
  S     -1.871020   -5.253940   -7.256980
  C      0.148960   -3.500820   -6.934970
  C      1.343460   -2.817070   -7.036380
  C      1.651740   -1.635070   -6.253100
  C      0.996620   -1.171400   -5.137250
  C     -0.093590   -1.787180   -4.494070
  N     -0.979610   -2.219940   -3.901450
  C      1.360820   -0.001090   -4.439440
  N      1.596600    0.940360   -3.825750
  C      2.806820   -1.001330   -6.880270
  C      3.265540   -1.830700   -7.927990
  C      4.344970   -1.453280   -8.707320
  C      4.966870   -0.242720   -8.436420
  C      4.525660    0.567930   -7.401960
  C      3.444910    0.198700   -6.613500
  C      2.446800   -3.035540   -7.947950
  C      2.817070   -4.231680   -8.514410
  C      3.923640   -4.391410   -9.369870
  N      4.788740   -4.579500  -10.101900
  C      2.190120   -5.462810   -8.242810
  N      1.750020   -6.500560   -8.022120
  H     -4.297710    0.659070    7.493590
  H     -5.375210   -0.516720    9.356380
  H     -5.846390   -2.924000    9.225030
  H     -5.228630   -4.216380    7.222530
  H     -2.837570   -0.917620    2.388540
  H     -2.542570   -2.087400    0.137170
  H     -5.241210   -2.399070   -3.060930
  H     -4.629720   -3.462590   -4.313080
  H     -3.552710   -2.328200   -3.534550
  H     -1.973720   -5.803910   -1.670070
  H     -1.543760   -4.464390   -2.718360
  H     -2.438930   -5.821840   -3.361650
  H     -5.967380   -6.690030   -3.315780
  H     -8.696980   -8.255170   -0.930070
  H     -9.906870   -9.953270   -2.416210
  H     -9.864500  -10.928090   -4.802340
  H     -9.205100  -11.374620   -7.349680
  H     -7.973330  -11.270760   -9.611410
  H     -5.964710  -10.021690  -10.775890
  H     -3.971200   -8.726010  -11.863550
  H      0.314190   -8.105930  -10.983350
  H      0.832630   -6.936270  -12.173730
  H     -0.276930   -8.208260  -12.630400
  H     -2.837330   -4.633600  -12.484150
  H     -2.333260   -5.845620  -13.641640
  H     -1.199960   -4.629830  -13.104120
  H      0.487050   -4.095990   -9.776780
  H     -0.433510   -3.308540   -6.043400
  H      4.695070   -2.073810   -9.516280
  H      5.805130    0.068530   -9.040890
  H      5.026540    1.503440   -7.204740
  H      3.116930    0.843730   -5.815470

 Total Charge           Charge          ....    0
 Multiplicity           Mult            ....    1
 Number of Electrons    NEL             ....  584
 Basis Dimension        Dim             .... 1284

ORBITAL ENERGIES
----------------

  NO   OCC          E(Eh)            E(eV)
   0   2.0000     -88.977570     -2421.2028
   1   2.0000     -88.973953     -2421.1044
   2   2.0000     -88.971503     -2421.0377
   3   2.0000     -88.971361     -2421.0338
   4   2.0000     -88.961006     -2420.7521
   5   2.0000     -88.960253     -2420.7315
   6   2.0000     -66.208486     -1801.6245
   7   2.0000     -66.195246     -1801.2642
   8   2.0000     -14.424823      -392.5194
   9   2.0000     -14.415475      -392.2650
  10   2.0000     -14.415332      -392.2611
  11   2.0000     -14.411113      -392.1463
  12   2.0000     -14.409587      -392.1048
  13   2.0000     -14.409577      -392.1045
  14   2.0000     -14.406753      -392.0277
  15   2.0000     -14.406520      -392.0213
  16   2.0000     -10.342239      -281.4266
  17   2.0000     -10.341863      -281.4164
  18   2.0000     -10.340534      -281.3802
  19   2.0000     -10.340301      -281.3739
  20   2.0000     -10.337007      -281.2843
  21   2.0000     -10.335236      -281.2361
  22   2.0000     -10.334457      -281.2149
  23   2.0000     -10.333866      -281.1988
  24   2.0000     -10.333841      -281.1981
  25   2.0000     -10.329670      -281.0846
  26   2.0000     -10.327929      -281.0372
  27   2.0000     -10.327272      -281.0194
  28   2.0000     -10.323821      -280.9254
  29   2.0000     -10.323809      -280.9251
  30   2.0000     -10.322721      -280.8955
  31   2.0000     -10.322363      -280.8858
  32   2.0000     -10.322294      -280.8839
  33   2.0000     -10.318906      -280.7917
  34   2.0000     -10.318625      -280.7841
  35   2.0000     -10.318011      -280.7673
  36   2.0000     -10.317140      -280.7436
  37   2.0000     -10.317124      -280.7432
  38   2.0000     -10.317076      -280.7419
  39   2.0000     -10.315079      -280.6876
  40   2.0000     -10.314820      -280.6805
  41   2.0000     -10.312442      -280.6158
  42   2.0000     -10.312186      -280.6088
  43   2.0000     -10.311548      -280.5915
  44   2.0000     -10.309947      -280.5479
  45   2.0000     -10.309029      -280.5229
  46   2.0000     -10.305848      -280.4364
  47   2.0000     -10.305754      -280.4338
  48   2.0000     -10.305512      -280.4272
  49   2.0000     -10.304640      -280.4035
  50   2.0000     -10.304340      -280.3953
  51   2.0000     -10.301874      -280.3283
  52   2.0000     -10.301793      -280.3260
  53   2.0000     -10.301138      -280.3082
  54   2.0000     -10.300724      -280.2970
  55   2.0000     -10.300479      -280.2903
  56   2.0000     -10.300394      -280.2880
  57   2.0000     -10.298963      -280.2490
  58   2.0000     -10.298234      -280.2292
  59   2.0000     -10.294852      -280.1372
  60   2.0000     -10.294644      -280.1315
  61   2.0000     -10.294261      -280.1211
  62   2.0000     -10.293931      -280.1121
  63   2.0000     -10.292678      -280.0780
  64   2.0000     -10.289926      -280.0031
  65   2.0000     -10.289507      -279.9917
  66   2.0000     -10.289426      -279.9895
  67   2.0000     -10.289221      -279.9839
  68   2.0000     -10.288172      -279.9554
  69   2.0000     -10.286592      -279.9124
  70   2.0000     -10.275555      -279.6121
  71   2.0000     -10.272611      -279.5319
  72   2.0000     -10.268752      -279.4269
  73   2.0000     -10.263733      -279.2904
  74   2.0000     -10.260464      -279.2014
  75   2.0000     -10.255988      -279.0796
  76   2.0000     -10.241944      -278.6975
  77   2.0000     -10.240717      -278.6641
  78   2.0000      -8.073257      -219.6845
  79   2.0000      -8.069342      -219.5780
  80   2.0000      -8.066878      -219.5109
  81   2.0000      -8.066392      -219.4977
  82   2.0000      -8.057096      -219.2447
  83   2.0000      -8.056785      -219.2363
  84   2.0000      -6.042355      -164.4208
  85   2.0000      -6.038528      -164.3167
  86   2.0000      -6.038449      -164.3145
  87   2.0000      -6.036022      -164.2485
  88   2.0000      -6.035631      -164.2379
  89   2.0000      -6.035428      -164.2323
  90   2.0000      -6.034418      -164.2049
  91   2.0000      -6.032118      -164.1423
  92   2.0000      -6.031627      -164.1289
  93   2.0000      -6.031499      -164.1254
  94   2.0000      -6.029020      -164.0580
  95   2.0000      -6.028495      -164.0437
  96   2.0000      -6.026831      -163.9984
  97   2.0000      -6.026491      -163.9891
  98   2.0000      -6.022640      -163.8844
  99   2.0000      -6.022218      -163.8729
 100   2.0000      -6.018135      -163.7618
 101   2.0000      -6.017822      -163.7533
 102   2.0000      -5.374766      -146.2548
 103   2.0000      -5.361616      -145.8970
 104   2.0000      -3.738300      -101.7243
 105   2.0000      -3.736980      -101.6884
 106   2.0000      -3.735585      -101.6504
 107   2.0000      -3.725375      -101.3726
 108   2.0000      -3.723699      -101.3270
 109   2.0000      -3.722322      -101.2895
 110   2.0000      -1.030428       -28.0394
 111   2.0000      -1.024381       -27.8748
 112   2.0000      -1.016870       -27.6704
 113   2.0000      -1.014989       -27.6193
 114   2.0000      -1.011735       -27.5307
 115   2.0000      -1.008077       -27.4312
 116   2.0000      -1.004908       -27.3449
 117   2.0000      -1.003936       -27.3185
 118   2.0000      -0.995457       -27.0878
 119   2.0000      -0.995085       -27.0776
 120   2.0000      -0.994051       -27.0495
 121   2.0000      -0.992422       -27.0052
 122   2.0000      -0.987616       -26.8744
 123   2.0000      -0.986366       -26.8404
 124   2.0000      -0.983630       -26.7659
 125   2.0000      -0.978965       -26.6390
 126   2.0000      -0.952576       -25.9209
 127   2.0000      -0.947157       -25.7735
 128   2.0000      -0.933512       -25.4021
 129   2.0000      -0.927023       -25.2256
 130   2.0000      -0.919076       -25.0093
 131   2.0000      -0.911073       -24.7916
 132   2.0000      -0.897045       -24.4098
 133   2.0000      -0.889039       -24.1920
 134   2.0000      -0.884794       -24.0765
 135   2.0000      -0.880602       -23.9624
 136   2.0000      -0.869172       -23.6514
 137   2.0000      -0.860624       -23.4188
 138   2.0000      -0.859578       -23.3903
 139   2.0000      -0.856969       -23.3193
 140   2.0000      -0.854968       -23.2649
 141   2.0000      -0.852787       -23.2055
 142   2.0000      -0.849189       -23.1076
 143   2.0000      -0.841477       -22.8978
 144   2.0000      -0.834542       -22.7090
 145   2.0000      -0.830654       -22.6033
 146   2.0000      -0.823168       -22.3995
 147   2.0000      -0.808143       -21.9907
 148   2.0000      -0.802160       -21.8279
 149   2.0000      -0.795808       -21.6550
 150   2.0000      -0.787370       -21.4254
 151   2.0000      -0.785825       -21.3834
 152   2.0000      -0.778933       -21.1959
 153   2.0000      -0.776933       -21.1414
 154   2.0000      -0.775718       -21.1084
 155   2.0000      -0.760479       -20.6937
 156   2.0000      -0.751485       -20.4489
 157   2.0000      -0.736426       -20.0392
 158   2.0000      -0.717245       -19.5172
 159   2.0000      -0.711614       -19.3640
 160   2.0000      -0.707785       -19.2598
 161   2.0000      -0.704903       -19.1814
 162   2.0000      -0.702729       -19.1222
 163   2.0000      -0.699286       -19.0285
 164   2.0000      -0.693407       -18.8686
 165   2.0000      -0.688900       -18.7459
 166   2.0000      -0.681735       -18.5510
 167   2.0000      -0.669322       -18.2132
 168   2.0000      -0.664429       -18.0800
 169   2.0000      -0.660396       -17.9703
 170   2.0000      -0.657598       -17.8942
 171   2.0000      -0.654171       -17.8009
 172   2.0000      -0.652388       -17.7524
 173   2.0000      -0.645436       -17.5632
 174   2.0000      -0.639232       -17.3944
 175   2.0000      -0.637043       -17.3348
 176   2.0000      -0.634533       -17.2665
 177   2.0000      -0.631278       -17.1779
 178   2.0000      -0.624699       -16.9989
 179   2.0000      -0.615026       -16.7357
 180   2.0000      -0.613164       -16.6850
 181   2.0000      -0.611541       -16.6409
 182   2.0000      -0.606915       -16.5150
 183   2.0000      -0.595880       -16.2147
 184   2.0000      -0.589360       -16.0373
 185   2.0000      -0.579191       -15.7606
 186   2.0000      -0.575700       -15.6656
 187   2.0000      -0.573495       -15.6056
 188   2.0000      -0.571490       -15.5510
 189   2.0000      -0.565259       -15.3815
 190   2.0000      -0.559117       -15.2143
 191   2.0000      -0.554138       -15.0789
 192   2.0000      -0.546344       -14.8668
 193   2.0000      -0.540621       -14.7110
 194   2.0000      -0.537260       -14.6196
 195   2.0000      -0.534916       -14.5558
 196   2.0000      -0.532970       -14.5028
 197   2.0000      -0.531569       -14.4647
 198   2.0000      -0.529195       -14.4001
 199   2.0000      -0.528720       -14.3872
 200   2.0000      -0.525719       -14.3055
 201   2.0000      -0.524979       -14.2854
 202   2.0000      -0.521373       -14.1873
 203   2.0000      -0.516557       -14.0562
 204   2.0000      -0.515907       -14.0386
 205   2.0000      -0.512144       -13.9362
 206   2.0000      -0.511210       -13.9107
 207   2.0000      -0.507969       -13.8225
 208   2.0000      -0.506239       -13.7755
 209   2.0000      -0.504484       -13.7277
 210   2.0000      -0.502722       -13.6797
 211   2.0000      -0.501367       -13.6429
 212   2.0000      -0.497064       -13.5258
 213   2.0000      -0.495883       -13.4937
 214   2.0000      -0.495051       -13.4710
 215   2.0000      -0.494075       -13.4445
 216   2.0000      -0.491630       -13.3779
 217   2.0000      -0.490641       -13.3510
 218   2.0000      -0.485245       -13.2042
 219   2.0000      -0.484116       -13.1735
 220   2.0000      -0.481289       -13.0965
 221   2.0000      -0.480819       -13.0838
 222   2.0000      -0.479404       -13.0452
 223   2.0000      -0.478253       -13.0139
 224   2.0000      -0.477359       -12.9896
 225   2.0000      -0.475625       -12.9424
 226   2.0000      -0.470980       -12.8160
 227   2.0000      -0.467793       -12.7293
 228   2.0000      -0.466718       -12.7000
 229   2.0000      -0.464419       -12.6375
 230   2.0000      -0.462441       -12.5837
 231   2.0000      -0.460883       -12.5413
 232   2.0000      -0.458667       -12.4810
 233   2.0000      -0.457280       -12.4432
 234   2.0000      -0.453542       -12.3415
 235   2.0000      -0.453068       -12.3286
 236   2.0000      -0.450678       -12.2636
 237   2.0000      -0.449401       -12.2288
 238   2.0000      -0.448966       -12.2170
 239   2.0000      -0.448497       -12.2042
 240   2.0000      -0.444318       -12.0905
 241   2.0000      -0.442892       -12.0517
 242   2.0000      -0.442300       -12.0356
 243   2.0000      -0.441349       -12.0097
 244   2.0000      -0.440604       -11.9894
 245   2.0000      -0.439440       -11.9578
 246   2.0000      -0.438042       -11.9197
 247   2.0000      -0.436142       -11.8680
 248   2.0000      -0.435095       -11.8395
 249   2.0000      -0.433238       -11.7890
 250   2.0000      -0.431213       -11.7339
 251   2.0000      -0.429096       -11.6763
 252   2.0000      -0.429068       -11.6755
 253   2.0000      -0.427907       -11.6439
 254   2.0000      -0.425725       -11.5846
 255   2.0000      -0.423277       -11.5180
 256   2.0000      -0.420921       -11.4538
 257   2.0000      -0.419934       -11.4270
 258   2.0000      -0.418230       -11.3806
 259   2.0000      -0.414104       -11.2683
 260   2.0000      -0.411336       -11.1930
 261   2.0000      -0.408684       -11.1209
 262   2.0000      -0.408121       -11.1055
 263   2.0000      -0.406053       -11.0493
 264   2.0000      -0.404034       -10.9943
 265   2.0000      -0.402896       -10.9634
 266   2.0000      -0.399427       -10.8690
 267   2.0000      -0.395122       -10.7518
 268   2.0000      -0.392330       -10.6759
 269   2.0000      -0.387558       -10.5460
 270   2.0000      -0.386063       -10.5053
 271   2.0000      -0.381977       -10.3941
 272   2.0000      -0.381122       -10.3709
 273   2.0000      -0.379527       -10.3274
 274   2.0000      -0.374158       -10.1814
 275   2.0000      -0.372524       -10.1369
 276   2.0000      -0.357562        -9.7297
 277   2.0000      -0.355885        -9.6841
 278   2.0000      -0.344993        -9.3877
 279   2.0000      -0.340726        -9.2716
 280   2.0000      -0.335336        -9.1250
 281   2.0000      -0.333704        -9.0806
 282   2.0000      -0.331987        -9.0338
 283   2.0000      -0.329278        -8.9601
 284   2.0000      -0.327866        -8.9217
 285   2.0000      -0.322425        -8.7736
 286   2.0000      -0.317690        -8.6448
 287   2.0000      -0.305861        -8.3229
 288   2.0000      -0.293681        -7.9915
 289   2.0000      -0.271689        -7.3930
 290   2.0000      -0.250672        -6.8211
 291   2.0000      -0.214449        -5.8355
 292   0.0000      -0.115849        -3.1524
 293   0.0000      -0.094438        -2.5698
 294   0.0000      -0.083999        -2.2857
 295   0.0000      -0.076214        -2.0739
 296   0.0000      -0.074080        -2.0158

MULLIKEN ATOMIC CHARGES
-----------------------
   0 C :   -0.038292
   1 C :    0.045415
   2 C :    0.046447
   3 C :   -0.033950
   4 C :    0.002542
   5 C :    0.013266
   6 C :    0.308804
   7 C :   -0.360501
   8 C :   -0.185635
   9 N :    0.150571
  10 C :   -0.183412
  11 N :    0.150118
  12 C :   -0.082732
  13 C :    0.221297
  14 C :   -0.328696
  15 C :   -0.207195
  16 N :    0.175564
  17 C :   -0.178683
  18 N :    0.152553
  19 C :    0.043926
  20 C :   -0.115544
  21 C :    0.025150
  22 C :   -0.113234
  23 C :   -0.062063
  24 S :    0.167420
  25 C :   -0.090563
  26 C :   -0.111777
  27 Si:    0.543460
  28 C :   -0.198948
  29 C :   -0.202118
  30 C :   -0.033329
  31 C :   -0.092644
  32 S :    0.159255
  33 C :    0.057218
  34 C :   -0.035693
  35 C :    0.040013
  36 C :    0.026273
  37 C :   -0.020425
  38 S :    0.050959
  39 C :   -0.023263
  40 C :    0.036484
  41 C :    0.031371
  42 C :   -0.027781
  43 S :    0.038479
  44 C :    0.015561
  45 C :   -0.044365
  46 C :   -0.040540
  47 C :   -0.080336
  48 C :   -0.088863
  49 S :    0.117328
  50 C :   -0.036522
  51 C :   -0.140190
  52 Si:    0.527515
  53 C :   -0.197872
  54 C :   -0.197296
  55 C :    0.016831
  56 C :   -0.127459
  57 S :    0.169303
  58 C :    0.087351
  59 C :   -0.085379
  60 C :    0.312738
  61 C :   -0.371588
  62 C :   -0.153653
  63 N :    0.142549
  64 C :   -0.195174
  65 N :    0.157992
  66 C :    0.007867
  67 C :    0.004556
  68 C :   -0.038506
  69 C :    0.046929
  70 C :    0.047107
  71 C :   -0.035067
  72 C :    0.239811
  73 C :   -0.354977
  74 C :   -0.178248
  75 N :    0.152040
  76 C :   -0.212327
  77 N :    0.177738
  78 H :    0.004364
  79 H :   -0.000260
  80 H :    0.000158
  81 H :    0.004295
  82 H :    0.023520
  83 H :    0.011970
  84 H :    0.045567
  85 H :    0.036284
  86 H :    0.060246
  87 H :    0.059669
  88 H :    0.057126
  89 H :    0.037508
  90 H :    0.001603
  91 H :   -0.009779
  92 H :   -0.005240
  93 H :   -0.008932
  94 H :   -0.009610
  95 H :   -0.008823
  96 H :   -0.010755
  97 H :   -0.019816
  98 H :    0.068655
  99 H :    0.049275
 100 H :    0.044614
 101 H :    0.054694
 102 H :    0.045009
 103 H :    0.046799
 104 H :    0.006000
 105 H :   -0.000365
 106 H :    0.002538
 107 H :    0.001638
 108 H :    0.001487
 109 H :    0.005601
Sum of atomic charges:   -0.0000000

LOEWDIN ATOMIC CHARGES
----------------------
   0 C :    0.003020
   1 C :   -0.002551
   2 C :    0.000473
   3 C :   -0.001457
   4 C :   -0.010006
   5 C :   -0.013117
   6 C :    0.078924
   7 C :   -0.143360
   8 C :   -0.018627
   9 N :   -0.056413
  10 C :   -0.021618
  11 N :   -0.051174
  12 C :   -0.082544
  13 C :    0.059079
  14 C :   -0.145075
  15 C :   -0.035442
  16 N :   -0.048469
  17 C :   -0.019655
  18 N :   -0.054544
  19 C :    0.046163
  20 C :   -0.186142
  21 C :    0.012312
  22 C :   -0.197863
  23 C :   -0.150181
  24 S :    0.467461
  25 C :   -0.197874
  26 C :   -0.172408
  27 Si:    0.676514
  28 C :   -0.243745
  29 C :   -0.242868
  30 C :   -0.059275
  31 C :   -0.161412
  32 S :    0.445102
  33 C :   -0.060672
  34 C :   -0.150709
  35 C :   -0.020169
  36 C :   -0.040124
  37 C :   -0.164575
  38 S :    0.398477
  39 C :   -0.184137
  40 C :   -0.030425
  41 C :   -0.035210
  42 C :   -0.147333
  43 S :    0.378708
  44 C :   -0.077727
  45 C :   -0.149969
  46 C :   -0.058416
  47 C :   -0.176137
  48 C :   -0.215814
  49 S :    0.441280
  50 C :   -0.149788
  51 C :   -0.199190
  52 Si:    0.670318
  53 C :   -0.240316
  54 C :   -0.243034
  55 C :   -0.000049
  56 C :   -0.187894
  57 S :    0.461993
  58 C :    0.033316
  59 C :   -0.085144
  60 C :    0.084068
  61 C :   -0.152805
  62 C :   -0.001791
  63 N :   -0.066684
  64 C :   -0.021440
  65 N :   -0.053156
  66 C :   -0.014102
  67 C :   -0.010475
  68 C :   -0.001909
  69 C :    0.001703
  70 C :   -0.001130
  71 C :    0.004562
  72 C :    0.068164
  73 C :   -0.148268
  74 C :   -0.022237
  75 N :   -0.056931
  76 C :   -0.019047
  77 N :   -0.046696
  78 H :    0.040889
  79 H :    0.035849
  80 H :    0.035741
  81 H :    0.039922
  82 H :    0.052468
  83 H :    0.042850
  84 H :    0.038347
  85 H :    0.035174
  86 H :    0.040255
  87 H :    0.044262
  88 H :    0.039626
  89 H :    0.035299
  90 H :    0.015283
  91 H :    0.036669
  92 H :    0.036281
  93 H :    0.034505
  94 H :    0.034472
  95 H :    0.034750
  96 H :    0.041060
  97 H :    0.028825
  98 H :    0.048390
  99 H :    0.040520
 100 H :    0.037619
 101 H :    0.042018
 102 H :    0.038062
 103 H :    0.038506
 104 H :    0.034776
 105 H :    0.041074
 106 H :    0.039710
 107 H :    0.036387
 108 H :    0.036664
 109 H :    0.041433

  Mayer bond orders larger than 0.100000
B(  0-C ,  1-C ) :   1.3685 B(  0-C ,  5-C ) :   1.3845 B(  0-C , 78-H ) :   0.9833
B(  1-C ,  2-C ) :   1.3823 B(  1-C , 79-H ) :   0.9851 B(  2-C ,  3-C ) :   1.3605
B(  2-C , 80-H ) :   0.9860 B(  3-C ,  4-C ) :   1.3867 B(  3-C , 81-H ) :   0.9867
B(  4-C ,  5-C ) :   1.3174 B(  4-C , 13-C ) :   1.0077 B(  5-C ,  6-C ) :   0.9932
B(  6-C ,  7-C ) :   1.6126 B(  6-C , 12-C ) :   1.0920 B(  7-C ,  8-C ) :   1.1513
B(  7-C , 10-C ) :   1.1437 B(  8-C ,  9-N ) :   2.9719 B( 10-C , 11-N ) :   2.9604
B( 12-C , 13-C ) :   1.0443 B( 12-C , 19-C ) :   1.4890 B( 13-C , 14-C ) :   1.6255
B( 14-C , 15-C ) :   1.1482 B( 14-C , 17-C ) :   1.1482 B( 15-C , 16-N ) :   3.0253
B( 17-C , 18-N ) :   2.9899 B( 19-C , 20-C ) :   1.2633 B( 19-C , 82-H ) :   0.9343
B( 20-C , 21-C ) :   1.3390 B( 20-C , 24-S ) :   1.0707 B( 21-C , 22-C ) :   1.3347
B( 21-C , 83-H ) :   1.0046 B( 22-C , 23-C ) :   1.4210 B( 22-C , 27-Si) :   0.8602
B( 23-C , 24-S ) :   1.1429 B( 23-C , 25-C ) :   1.2165 B( 25-C , 26-C ) :   1.4468
B( 25-C , 32-S ) :   1.1092 B( 26-C , 27-Si) :   0.8521 B( 26-C , 30-C ) :   1.3528
B( 27-Si, 28-C ) :   1.0675 B( 27-Si, 29-C ) :   1.0718 B( 28-C , 84-H ) :   0.9461
B( 28-C , 85-H ) :   0.9502 B( 28-C , 86-H ) :   0.9461 B( 29-C , 87-H ) :   0.9456
B( 29-C , 88-H ) :   0.9460 B( 29-C , 89-H ) :   0.9490 B( 30-C , 31-C ) :   1.3888
B( 30-C , 90-H ) :   0.9742 B( 31-C , 32-S ) :   1.0973 B( 31-C , 33-C ) :   1.2037
B( 33-C , 34-C ) :   1.5628 B( 33-C , 91-H ) :   0.9516 B( 34-C , 35-C ) :   1.1683
B( 34-C , 38-S ) :   1.0436 B( 35-C , 36-C ) :   1.5606 B( 35-C , 92-H ) :   0.9984
B( 36-C , 37-C ) :   1.2120 B( 36-C , 93-H ) :   0.9963 B( 37-C , 38-S ) :   1.0558
B( 37-C , 39-C ) :   1.4646 B( 39-C , 40-C ) :   1.2124 B( 39-C , 43-S ) :   1.0409
B( 40-C , 41-C ) :   1.5633 B( 40-C , 94-H ) :   0.9948 B( 41-C , 42-C ) :   1.1697
B( 41-C , 95-H ) :   0.9989 B( 42-C , 43-S ) :   1.0528 B( 42-C , 44-C ) :   1.5027
B( 44-C , 45-C ) :   1.2333 B( 44-C , 96-H ) :   0.9746 B( 45-C , 46-C ) :   1.3601
B( 45-C , 49-S ) :   1.1010 B( 46-C , 47-C ) :   1.3420 B( 46-C , 97-H ) :   1.0040
B( 47-C , 48-C ) :   1.4124 B( 47-C , 52-Si) :   0.8681 B( 48-C , 49-S ) :   1.0967
B( 48-C , 50-C ) :   1.2305 B( 50-C , 51-C ) :   1.3905 B( 50-C , 57-S ) :   1.1570
B( 51-C , 52-Si) :   0.8665 B( 51-C , 55-C ) :   1.4076 B( 52-Si, 53-C ) :   1.0708
B( 52-Si, 54-C ) :   1.0581 B( 53-C , 98-H ) :   0.9466 B( 53-C , 99-H ) :   0.9511
B( 53-C ,100-H ) :   0.9522 B( 54-C ,101-H ) :   0.9492 B( 54-C ,102-H ) :   0.9536
B( 54-C ,103-H ) :   0.9535 B( 55-C , 56-C ) :   1.3170 B( 55-C ,104-H ) :   0.9866
B( 56-C , 57-S ) :   1.0671 B( 56-C , 58-C ) :   1.3039 B( 58-C , 59-C ) :   1.4903
B( 58-C ,105-H ) :   0.9037 B( 59-C , 60-C ) :   1.1105 B( 59-C , 72-C ) :   1.0587
B( 60-C , 61-C ) :   1.5847 B( 60-C , 66-C ) :   0.9889 B( 61-C , 62-C ) :   1.1504
B( 61-C , 64-C ) :   1.1526 B( 62-C , 63-N ) :   2.9100 B( 64-C , 65-N ) :   2.9740
B( 66-C , 67-C ) :   1.3169 B( 66-C , 71-C ) :   1.3872 B( 67-C , 68-C ) :   1.3897
B( 67-C , 72-C ) :   1.0034 B( 68-C , 69-C ) :   1.3551 B( 68-C ,106-H ) :   0.9870
B( 69-C , 70-C ) :   1.3860 B( 69-C ,107-H ) :   0.9871 B( 70-C , 71-C ) :   1.3614
B( 70-C ,108-H ) :   0.9862 B( 71-C ,109-H ) :   0.9839 B( 72-C , 73-C ) :   1.6100
B( 73-C , 74-C ) :   1.1378 B( 73-C , 76-C ) :   1.1678 B( 74-C , 75-N ) :   2.9870
B( 76-C , 77-N ) :   3.0016

-----------------------------------------------------------------------------
         ABSORPTION SPECTRUM VIA TRANSITION ELECTRIC DIPOLE MOMENTS
-----------------------------------------------------------------------------
State   Energy  Wavelength   fosc         T2         TX        TY        TZ
        (cm-1)    (nm)                  (au**2)     (au)      (au)      (au)
-----------------------------------------------------------------------------
   0    8196.9   1220.0   0.648381706  26.04105   2.44632   0.03501  -4.47832
   1   13791.3    725.1   1.087118561  25.95057   2.74597   3.03947   3.02851
   2   16153.2    619.1   0.841094359  17.14203   2.87603   2.34994   1.82983
   3   16698.6    598.9   0.308080906   6.07381  -0.94611  -1.73236  -1.47567
   4   18443.5    542.2   0.311962799   5.56847  -0.46129  -1.63299  -1.63982
   5   19118.7    523.0   0.086417099   1.48805   0.44795   1.10709  -0.24851
   6   20321.7    492.1   0.078702620   1.27498  -0.53959  -0.69812  -0.70459
   7   22199.2    450.5   0.011596526   0.17198  -0.01668   0.00669   0.41431
   8   23435.2    426.7   0.156091122   2.19273  -0.26509   1.01901   1.04118
   9   24272.7    412.0   0.068508043   0.92918   0.37467   0.79670  -0.39251
  10   25177.0    397.2   0.273394496   3.57488   0.82477   1.69812  -0.10492
  11   25504.6    392.1   0.111907062   1.44449  -0.95833  -0.72388  -0.04569
  12   26179.6    382.0   0.072304561   0.90924  -0.19178   0.45951   0.81321
  13   27057.8    369.6   0.011700507   0.14236  -0.25965  -0.15957   0.22244
  14   27359.3    365.5   0.167706453   2.01800  -0.89421  -1.06000  -0.30790
  15   28579.2    349.9   0.001146711   0.01321   0.05942   0.09061   0.03833
  16   28906.5    345.9   0.066543650   0.75786   0.46995  -0.52134  -0.51499
  17   29221.5    342.2   0.108159229   1.21853  -0.28103   0.31998   1.01841
  18   30096.7    332.3   0.000312811   0.00342  -0.00680   0.03479   0.04653
  19   30190.1    331.2   0.029057817   0.31686  -0.17644  -0.50996   0.16022
  20   30460.6    328.3   0.062127457   0.67146   0.19298   0.74297  -0.28673
  21   30784.3    324.8   0.081645754   0.87313  -0.04093   0.82419   0.43836
  22   31089.6    321.7   0.135092182   1.43051  -0.32711   0.68891   0.92137
  23   31503.9    317.4   0.051889609   0.54224   0.15860  -0.60387  -0.39042
  24   31765.5    314.8   0.101587796   1.05284   0.09495  -0.77918  -0.66083
  25   31986.2    312.6   0.070159756   0.72211   0.32014  -0.41379  -0.66962
  26   32477.0    307.9   0.155833482   1.57965  -0.28424  -1.09290   0.55175
  27   32836.1    304.5   0.030222214   0.30301   0.05790  -0.43967  -0.32611
  28   32911.9    303.8   0.474349941   4.74484  -0.86424   1.38169   1.44529
  29   33341.9    299.9   0.182019538   1.79723   0.33964  -1.25800  -0.31511
  30   33453.0    298.9   0.183967999   1.81043  -0.46133  -1.24475   0.21957
  31   33514.9    298.4   0.046558367   0.45734   0.12570  -0.53350  -0.39612
  32   33690.3    296.8   0.016325195   0.15953   0.27359   0.05410  -0.28591
  33   34008.5    294.0   0.110386467   1.06857   0.71229   0.55835  -0.49947
  34   34323.0    291.4   0.062438831   0.59889   0.27221   0.57899  -0.43539
  35   34966.9    286.0   0.192181595   1.80938  -0.24526   0.43505   1.24898
  36   35130.1    284.7   0.180975879   1.69596   0.83825   0.88948  -0.44959
  37   35312.2    283.2   0.008347309   0.07782  -0.23069  -0.12022   0.10076
  38   35754.0    279.7   0.145384342   1.33866   0.64879   0.66520  -0.68937
  39   36103.8    277.0   0.403793216   3.68198   1.05313   0.29491  -1.57668
  40   36705.7    272.4   0.023505293   0.21082  -0.18787  -0.38456   0.16625
  41   37052.6    269.9   0.089456698   0.79482  -0.66305  -0.41454   0.42819
  42   37150.9    269.2   0.004444722   0.03939  -0.19641   0.00411   0.02819
  43   37340.8    267.8   0.001690268   0.01490   0.08894   0.04205   0.07228
  44   37504.3    266.6   0.002824142   0.02479  -0.12035   0.04251   0.09219
  45   37692.0    265.3   0.038800520   0.33889   0.33881   0.36991  -0.29541
  46   37872.6    264.0   0.017174976   0.14930   0.17940   0.29929  -0.16594
  47   38254.7    261.4   0.011462104   0.09864   0.06249  -0.21801  -0.21727
  48   38324.4    260.9   0.012080699   0.10377   0.31521   0.05680  -0.03448
  49   38633.6    258.8   0.002186708   0.01863   0.01195  -0.06934   0.11697
  50   38717.7    258.3   0.005356828   0.04555  -0.08548  -0.19433  -0.02183
  51   38846.9    257.4   0.019190881   0.16263   0.18264  -0.14583  -0.32865
  52   38968.1    256.6   0.012480107   0.10543   0.13974   0.23524  -0.17483
  53   39088.3    255.8   0.022897735   0.19285   0.06681  -0.17447  -0.39742
  54   39176.4    255.3   0.008912912   0.07490  -0.02413  -0.15981   0.22085
  55   39470.5    253.4   0.137196380   1.14432  -0.49733  -0.05428   0.94553
  56   39565.9    252.7   0.031785214   0.26447  -0.41178  -0.05133   0.30376
  57   39825.1    251.1   0.018934148   0.15652   0.26203   0.21161   0.20755
  58   40065.2    249.6   0.046729650   0.38397  -0.42079  -0.37804   0.25297

FINAL SINGLE POINT ENERGY     -5783.293367406472

DIPOLE MOMENT
-------------
                                X             Y             Z
Electronic contribution:     -4.85749       5.46206      41.30679
Nuclear contribution   :      0.87472      -8.21240     -46.01082
                        -----------------------------------------
Total Dipole Moment    :     -3.98277      -2.75034      -4.70403
                        -----------------------------------------
Magnitude (a.u.)       :      6.74943
Magnitude (Debye)      :     17.15568

Rotational constants in cm-1:     0.000759     0.000385     0.000266
Rotational constants in MHz :    22.755362    11.529064     7.986792

                             ****ORCA TERMINATED NORMALLY****
TOTAL RUN TIME: 0 days 0 hours 13 minutes 34 seconds 630 msec
