                         Program Version 4.2.0 -  RELEASE  -
|  1> # ORCA input file
|  2> # SCF done       -205.816733556917          0.000916169494
|  3> ! CAM-B3LYP def2-SVP def2/J RIJCOSX Grid4 TightSCF
|  4> %maxcore 5000
|  5> %tddft
|  6>     Mode sTDDFT
|  7>     Ethresh 5.0
|  8>     maxcore 5000
|  9> end
| 10>
| 11> %pal
| 12>   nprocs 6
| 13>   end
| 14> * xyz 0 1
| 15>    C       -4.38090         2.77282         2.91090
| 16>    C       -3.89999         3.65438         1.95408
| 17>    C       -3.95332         3.34532         0.60217
| 18>    C       -4.50200         2.14879         0.16577
| 19>    C       -4.99109         1.26409         1.11228
| 20>    C       -4.92347         1.56846         2.49070
| 21>    C       -5.47186         0.45077         3.24784
| 22>    C       -5.68692         0.42760         4.60009
| 23>    C       -5.41006         1.50984         5.46305
| 24>    N       -5.21428         2.34783         6.22240
| 25>    C       -6.24655        -0.64537         5.32506
| 26>    N       -6.69654        -1.47535         5.97904
| 27>    C       -5.73119        -0.61933         2.28996
| 28>    C       -5.63795        -0.02923         0.95843
| 29>    C       -6.28232        -0.45380        -0.17265
| 30>    C       -7.12856        -1.57910        -0.23800
| 31>    N       -7.86157        -2.45665        -0.34423
| 32>    C       -6.26507         0.24592        -1.39843
| 33>    N       -6.29012         0.76353        -2.42184
| 34>    C       -5.92586        -1.92969         2.63342
| 35>    C       -5.77850        -3.06119         1.80465
| 36>    C       -5.04384        -3.20554         0.63413
| 37>    C       -5.12233        -4.49009         0.11941
| 38>    C       -5.92394        -5.34974         0.90331
| 39>    S       -6.54526        -4.57435         2.28322
| 40>    C       -5.96783        -6.61314         0.27072
| 41>    C       -5.19574        -6.56076        -0.90463
| 42>    C       -4.64786        -5.21982        -1.04253
| 43>    C       -3.89069        -4.72725        -2.06430
| 44>    C       -3.49476        -5.52149        -3.16104
| 45>    N       -3.16982        -6.16950        -4.04897
| 46>    C       -3.46781        -3.38103        -2.07813
| 47>    N       -3.13457        -2.28387        -2.07017
| 48>    C       -5.19123        -7.76205        -1.60845
| 49>    C       -5.96136        -8.73057        -0.98596
| 50>    S       -6.69352        -8.14449         0.49941
| 51>    C       -6.20299       -10.05260        -1.43272
| 52>    C       -7.06156       -10.98170        -0.87624
| 53>    C       -7.06854       -12.17124        -1.60407
| 54>    C       -6.19576       -12.15415        -2.71937
| 55>    S       -5.37417       -10.64783        -2.86720
| 56>    C       -6.32090       -13.39205        -3.34290
| 57>    C       -7.27324       -14.12841        -2.59594
| 58>    N       -7.72299       -13.37231        -1.54694
| 59>    C       -8.65902       -13.78497        -0.53813
| 60>    C       -7.52403       -15.39745        -3.11576
| 61>    C       -6.76550       -15.64132        -4.24555
| 62>    S       -5.72287       -14.29170        -4.68362
| 63>    C       -6.76592       -16.80930        -5.04512
| 64>    C       -5.92655       -17.09800        -6.11004
| 65>    C       -6.21428       -18.33368        -6.68090
| 66>    C       -7.28919       -18.99176        -6.05487
| 67>    S       -7.93114       -18.08923        -4.74986
| 68>    C       -7.50988       -20.22063        -6.71020
| 69>    C       -6.56977       -20.35256        -7.75682
| 70>    C       -5.72266       -19.17282        -7.76620
| 71>    C       -4.68450       -18.90185        -8.60678
| 72>    C       -4.29125       -19.78961        -9.63176
| 73>    N       -3.97326       -20.50022       -10.47269
| 74>    C       -3.93297       -17.71109        -8.50862
| 75>    N       -3.32221       -16.74415        -8.43080
| 76>    C       -6.72671       -21.53035        -8.47344
| 77>    C       -7.75461       -22.32468        -7.97715
| 78>    S       -8.56858       -21.54841        -6.61244
| 79>    C       -8.19622       -23.52529        -8.56774
| 80>    C       -9.05749       -24.46683        -8.07202
| 81>    C       -9.83667       -25.38485        -8.89518
| 82>    C       -9.60950       -25.73210       -10.19968
| 83>    C       -8.52506       -25.28829       -10.98594
| 84>    N       -7.66983       -24.96889       -11.68227
| 85>    C      -10.41856       -26.62784       -10.93106
| 86>    N      -11.03318       -27.34567       -11.58236
| 87>    C      -10.93142       -25.86602        -8.06036
| 88>    C      -10.73737       -25.40393        -6.73883
| 89>    C      -11.65039       -25.70242        -5.74177
| 90>    C      -12.76100       -26.46523        -6.07044
| 91>    C      -12.95021       -26.92771        -7.36501
| 92>    C      -12.04089       -26.63611        -8.37118
| 93>    C       -9.48482       -24.66717        -6.69392
| 94>    C       -8.71164       -24.47662        -5.57921
| 95>    C       -9.13919       -24.76437        -4.26761
| 96>    N       -9.44277       -24.96158        -3.17844
| 97>    C       -7.36703       -24.05319        -5.63141
| 98>    N       -6.25947       -23.75201        -5.64614
| 99>    H       -4.32238         3.02733         3.95623
|100>    H       -3.47215         4.59328         2.27059
|101>    H       -3.56138         4.04298        -0.12182
|102>    H       -4.52827         1.91249        -0.88554
|103>    H       -6.16350        -2.14879         3.66570
|104>    H       -4.45235        -2.41341         0.21180
|105>    H       -4.66937        -7.94146        -2.53122
|106>    H       -7.64387       -10.77993         0.00456
|107>    H       -9.36338       -14.49668        -0.96631
|108>    H       -9.20767       -12.91694        -0.17519
|109>    H       -8.14713       -14.25784         0.30513
|110>    H       -8.20821       -16.12008        -2.70906
|111>    H       -5.15014       -16.42737        -6.43140
|112>    H       -6.12235       -21.83336        -9.30967
|113>    H       -7.85994       -23.64906        -9.58949
|114>    H      -11.51419       -25.34174        -4.73493
|115>    H      -13.48720       -26.69994        -5.30737
|116>    H      -13.82053       -27.52204        -7.59758
|117>    H      -12.20773       -27.00135        -9.37103
|118> *
|119>
|120>                          ****END OF INPUT****

CARTESIAN COORDINATES (ANGSTROEM)
---------------------------------
  C     -4.380900    2.772820    2.910900
  C     -3.899990    3.654380    1.954080
  C     -3.953320    3.345320    0.602170
  C     -4.502000    2.148790    0.165770
  C     -4.991090    1.264090    1.112280
  C     -4.923470    1.568460    2.490700
  C     -5.471860    0.450770    3.247840
  C     -5.686920    0.427600    4.600090
  C     -5.410060    1.509840    5.463050
  N     -5.214280    2.347830    6.222400
  C     -6.246550   -0.645370    5.325060
  N     -6.696540   -1.475350    5.979040
  C     -5.731190   -0.619330    2.289960
  C     -5.637950   -0.029230    0.958430
  C     -6.282320   -0.453800   -0.172650
  C     -7.128560   -1.579100   -0.238000
  N     -7.861570   -2.456650   -0.344230
  C     -6.265070    0.245920   -1.398430
  N     -6.290120    0.763530   -2.421840
  C     -5.925860   -1.929690    2.633420
  C     -5.778500   -3.061190    1.804650
  C     -5.043840   -3.205540    0.634130
  C     -5.122330   -4.490090    0.119410
  C     -5.923940   -5.349740    0.903310
  S     -6.545260   -4.574350    2.283220
  C     -5.967830   -6.613140    0.270720
  C     -5.195740   -6.560760   -0.904630
  C     -4.647860   -5.219820   -1.042530
  C     -3.890690   -4.727250   -2.064300
  C     -3.494760   -5.521490   -3.161040
  N     -3.169820   -6.169500   -4.048970
  C     -3.467810   -3.381030   -2.078130
  N     -3.134570   -2.283870   -2.070170
  C     -5.191230   -7.762050   -1.608450
  C     -5.961360   -8.730570   -0.985960
  S     -6.693520   -8.144490    0.499410
  C     -6.202990  -10.052600   -1.432720
  C     -7.061560  -10.981700   -0.876240
  C     -7.068540  -12.171240   -1.604070
  C     -6.195760  -12.154150   -2.719370
  S     -5.374170  -10.647830   -2.867200
  C     -6.320900  -13.392050   -3.342900
  C     -7.273240  -14.128410   -2.595940
  N     -7.722990  -13.372310   -1.546940
  C     -8.659020  -13.784970   -0.538130
  C     -7.524030  -15.397450   -3.115760
  C     -6.765500  -15.641320   -4.245550
  S     -5.722870  -14.291700   -4.683620
  C     -6.765920  -16.809300   -5.045120
  C     -5.926550  -17.098000   -6.110040
  C     -6.214280  -18.333680   -6.680900
  C     -7.289190  -18.991760   -6.054870
  S     -7.931140  -18.089230   -4.749860
  C     -7.509880  -20.220630   -6.710200
  C     -6.569770  -20.352560   -7.756820
  C     -5.722660  -19.172820   -7.766200
  C     -4.684500  -18.901850   -8.606780
  C     -4.291250  -19.789610   -9.631760
  N     -3.973260  -20.500220  -10.472690
  C     -3.932970  -17.711090   -8.508620
  N     -3.322210  -16.744150   -8.430800
  C     -6.726710  -21.530350   -8.473440
  C     -7.754610  -22.324680   -7.977150
  S     -8.568580  -21.548410   -6.612440
  C     -8.196220  -23.525290   -8.567740
  C     -9.057490  -24.466830   -8.072020
  C     -9.836670  -25.384850   -8.895180
  C     -9.609500  -25.732100  -10.199680
  C     -8.525060  -25.288290  -10.985940
  N     -7.669830  -24.968890  -11.682270
  C    -10.418560  -26.627840  -10.931060
  N    -11.033180  -27.345670  -11.582360
  C    -10.931420  -25.866020   -8.060360
  C    -10.737370  -25.403930   -6.738830
  C    -11.650390  -25.702420   -5.741770
  C    -12.761000  -26.465230   -6.070440
  C    -12.950210  -26.927710   -7.365010
  C    -12.040890  -26.636110   -8.371180
  C     -9.484820  -24.667170   -6.693920
  C     -8.711640  -24.476620   -5.579210
  C     -9.139190  -24.764370   -4.267610
  N     -9.442770  -24.961580   -3.178440
  C     -7.367030  -24.053190   -5.631410
  N     -6.259470  -23.752010   -5.646140
  H     -4.322380    3.027330    3.956230
  H     -3.472150    4.593280    2.270590
  H     -3.561380    4.042980   -0.121820
  H     -4.528270    1.912490   -0.885540
  H     -6.163500   -2.148790    3.665700
  H     -4.452350   -2.413410    0.211800
  H     -4.669370   -7.941460   -2.531220
  H     -7.643870  -10.779930    0.004560
  H     -9.363380  -14.496680   -0.966310
  H     -9.207670  -12.916940   -0.175190
  H     -8.147130  -14.257840    0.305130
  H     -8.208210  -16.120080   -2.709060
  H     -5.150140  -16.427370   -6.431400
  H     -6.122350  -21.833360   -9.309670
  H     -7.859940  -23.649060   -9.589490
  H    -11.514190  -25.341740   -4.734930
  H    -13.487200  -26.699940   -5.307370
  H    -13.820530  -27.522040   -7.597580
  H    -12.207730  -27.001350   -9.371030

 Total Charge           Charge          ....    0
 Multiplicity           Mult            ....    1
 Number of Electrons    NEL             ....  596
 Basis Dimension        Dim             .... 1295

ORBITAL ENERGIES
----------------

  NO   OCC          E(Eh)            E(eV)
   0   2.0000     -89.004602     -2421.9384
   1   2.0000     -89.003829     -2421.9173
   2   2.0000     -89.003266     -2421.9020
   3   2.0000     -89.002647     -2421.8852
   4   2.0000     -88.979252     -2421.2485
   5   2.0000     -88.978779     -2421.2357
   6   2.0000     -14.489646      -394.2833
   7   2.0000     -14.441696      -392.9785
   8   2.0000     -14.439585      -392.9211
   9   2.0000     -14.439065      -392.9069
  10   2.0000     -14.437878      -392.8746
  11   2.0000     -14.427663      -392.5967
  12   2.0000     -14.426968      -392.5778
  13   2.0000     -14.426743      -392.5716
  14   2.0000     -14.425182      -392.5292
  15   2.0000     -14.424856      -392.5203
  16   2.0000     -14.422456      -392.4550
  17   2.0000     -14.422100      -392.4453
  18   2.0000     -14.421516      -392.4294
  19   2.0000     -10.376583      -282.3612
  20   2.0000     -10.376175      -282.3501
  21   2.0000     -10.363349      -282.0011
  22   2.0000     -10.362542      -281.9791
  23   2.0000     -10.356673      -281.8194
  24   2.0000     -10.356234      -281.8074
  25   2.0000     -10.355078      -281.7760
  26   2.0000     -10.353733      -281.7394
  27   2.0000     -10.353634      -281.7367
  28   2.0000     -10.352735      -281.7123
  29   2.0000     -10.352732      -281.7122
  30   2.0000     -10.352481      -281.7053
  31   2.0000     -10.351960      -281.6911
  32   2.0000     -10.351723      -281.6847
  33   2.0000     -10.346834      -281.5517
  34   2.0000     -10.344588      -281.4905
  35   2.0000     -10.342324      -281.4290
  36   2.0000     -10.342227      -281.4263
  37   2.0000     -10.341741      -281.4131
  38   2.0000     -10.341520      -281.4071
  39   2.0000     -10.339374      -281.3487
  40   2.0000     -10.338754      -281.3318
  41   2.0000     -10.337487      -281.2973
  42   2.0000     -10.337102      -281.2868
  43   2.0000     -10.336575      -281.2725
  44   2.0000     -10.336520      -281.2710
  45   2.0000     -10.336157      -281.2611
  46   2.0000     -10.333641      -281.1927
  47   2.0000     -10.333576      -281.1909
  48   2.0000     -10.332057      -281.1496
  49   2.0000     -10.331996      -281.1479
  50   2.0000     -10.329915      -281.0913
  51   2.0000     -10.329114      -281.0695
  52   2.0000     -10.328405      -281.0502
  53   2.0000     -10.326776      -281.0059
  54   2.0000     -10.326679      -281.0032
  55   2.0000     -10.325219      -280.9635
  56   2.0000     -10.324786      -280.9517
  57   2.0000     -10.324183      -280.9353
  58   2.0000     -10.324155      -280.9345
  59   2.0000     -10.324021      -280.9309
  60   2.0000     -10.322564      -280.8912
  61   2.0000     -10.321946      -280.8744
  62   2.0000     -10.321756      -280.8693
  63   2.0000     -10.320509      -280.8353
  64   2.0000     -10.317756      -280.7604
  65   2.0000     -10.317135      -280.7435
  66   2.0000     -10.316871      -280.7363
  67   2.0000     -10.316812      -280.7347
  68   2.0000     -10.316114      -280.7157
  69   2.0000     -10.315911      -280.7102
  70   2.0000     -10.315499      -280.6990
  71   2.0000     -10.315422      -280.6969
  72   2.0000     -10.312961      -280.6299
  73   2.0000     -10.312452      -280.6161
  74   2.0000     -10.309339      -280.5314
  75   2.0000     -10.308242      -280.5015
  76   2.0000     -10.305651      -280.4310
  77   2.0000     -10.304535      -280.4006
  78   2.0000     -10.304043      -280.3873
  79   2.0000     -10.303469      -280.3716
  80   2.0000     -10.303029      -280.3597
  81   2.0000     -10.302981      -280.3584
  82   2.0000     -10.302006      -280.3318
  83   2.0000     -10.301525      -280.3187
  84   2.0000      -8.099202      -220.3905
  85   2.0000      -8.097986      -220.3574
  86   2.0000      -8.097831      -220.3532
  87   2.0000      -8.097218      -220.3365
  88   2.0000      -8.073880      -219.7014
  89   2.0000      -8.073411      -219.6887
  90   2.0000      -6.068367      -165.1287
  91   2.0000      -6.067284      -165.0992
  92   2.0000      -6.067171      -165.0961
  93   2.0000      -6.066525      -165.0785
  94   2.0000      -6.064205      -165.0154
  95   2.0000      -6.063078      -164.9847
  96   2.0000      -6.063019      -164.9831
  97   2.0000      -6.062394      -164.9661
  98   2.0000      -6.061668      -164.9464
  99   2.0000      -6.060261      -164.9081
 100   2.0000      -6.059988      -164.9007
 101   2.0000      -6.059416      -164.8851
 102   2.0000      -6.043627      -164.4554
 103   2.0000      -6.043171      -164.4431
 104   2.0000      -6.039523      -164.3438
 105   2.0000      -6.039060      -164.3312
 106   2.0000      -6.035116      -164.2239
 107   2.0000      -6.034640      -164.2109
 108   2.0000      -1.116652       -30.3856
 109   2.0000      -1.059079       -28.8190
 110   2.0000      -1.058991       -28.8166
 111   2.0000      -1.041251       -28.3339
 112   2.0000      -1.040637       -28.3172
 113   2.0000      -1.032670       -28.1004
 114   2.0000      -1.030947       -28.0535
 115   2.0000      -1.022806       -27.8320
 116   2.0000      -1.022145       -27.8140
 117   2.0000      -1.018413       -27.7124
 118   2.0000      -1.017314       -27.6825
 119   2.0000      -1.015833       -27.6422
 120   2.0000      -1.014871       -27.6160
 121   2.0000      -1.011841       -27.5336
 122   2.0000      -1.011381       -27.5211
 123   2.0000      -1.004296       -27.3283
 124   2.0000      -1.003087       -27.2954
 125   2.0000      -1.002091       -27.2683
 126   2.0000      -1.001435       -27.2504
 127   2.0000      -0.995105       -27.0782
 128   2.0000      -0.993761       -27.0416
 129   2.0000      -0.971743       -26.4425
 130   2.0000      -0.970117       -26.3982
 131   2.0000      -0.961639       -26.1675
 132   2.0000      -0.961333       -26.1592
 133   2.0000      -0.944564       -25.7029
 134   2.0000      -0.944292       -25.6955
 135   2.0000      -0.932851       -25.3842
 136   2.0000      -0.929522       -25.2936
 137   2.0000      -0.911194       -24.7949
 138   2.0000      -0.901315       -24.5260
 139   2.0000      -0.899456       -24.4754
 140   2.0000      -0.894055       -24.3285
 141   2.0000      -0.892595       -24.2887
 142   2.0000      -0.883807       -24.0496
 143   2.0000      -0.877638       -23.8818
 144   2.0000      -0.872765       -23.7491
 145   2.0000      -0.872245       -23.7350
 146   2.0000      -0.870327       -23.6828
 147   2.0000      -0.868940       -23.6451
 148   2.0000      -0.859013       -23.3749
 149   2.0000      -0.858940       -23.3729
 150   2.0000      -0.845965       -23.0199
 151   2.0000      -0.832258       -22.6469
 152   2.0000      -0.816498       -22.2180
 153   2.0000      -0.805703       -21.9243
 154   2.0000      -0.795644       -21.6506
 155   2.0000      -0.795547       -21.6479
 156   2.0000      -0.791639       -21.5416
 157   2.0000      -0.788227       -21.4488
 158   2.0000      -0.779655       -21.2155
 159   2.0000      -0.771503       -20.9937
 160   2.0000      -0.749828       -20.4039
 161   2.0000      -0.733675       -19.9643
 162   2.0000      -0.723146       -19.6778
 163   2.0000      -0.721466       -19.6321
 164   2.0000      -0.719558       -19.5802
 165   2.0000      -0.717573       -19.5262
 166   2.0000      -0.716960       -19.5095
 167   2.0000      -0.712890       -19.3987
 168   2.0000      -0.702367       -19.1124
 169   2.0000      -0.698254       -19.0005
 170   2.0000      -0.696482       -18.9522
 171   2.0000      -0.692534       -18.8448
 172   2.0000      -0.675294       -18.3757
 173   2.0000      -0.673401       -18.3242
 174   2.0000      -0.670617       -18.2484
 175   2.0000      -0.670233       -18.2380
 176   2.0000      -0.668301       -18.1854
 177   2.0000      -0.667429       -18.1617
 178   2.0000      -0.661476       -17.9997
 179   2.0000      -0.658120       -17.9084
 180   2.0000      -0.645238       -17.5578
 181   2.0000      -0.644744       -17.5444
 182   2.0000      -0.637677       -17.3521
 183   2.0000      -0.633192       -17.2300
 184   2.0000      -0.631135       -17.1741
 185   2.0000      -0.629358       -17.1257
 186   2.0000      -0.625998       -17.0343
 187   2.0000      -0.620186       -16.8761
 188   2.0000      -0.609877       -16.5956
 189   2.0000      -0.596905       -16.2426
 190   2.0000      -0.593392       -16.1470
 191   2.0000      -0.590527       -16.0691
 192   2.0000      -0.589759       -16.0482
 193   2.0000      -0.588827       -16.0228
 194   2.0000      -0.587720       -15.9927
 195   2.0000      -0.585148       -15.9227
 196   2.0000      -0.574015       -15.6197
 197   2.0000      -0.561506       -15.2794
 198   2.0000      -0.561016       -15.2660
 199   2.0000      -0.560112       -15.2414
 200   2.0000      -0.554942       -15.1007
 201   2.0000      -0.552208       -15.0264
 202   2.0000      -0.550204       -14.9718
 203   2.0000      -0.548701       -14.9309
 204   2.0000      -0.545467       -14.8429
 205   2.0000      -0.542807       -14.7705
 206   2.0000      -0.540856       -14.7174
 207   2.0000      -0.538679       -14.6582
 208   2.0000      -0.535622       -14.5750
 209   2.0000      -0.526172       -14.3179
 210   2.0000      -0.525211       -14.2917
 211   2.0000      -0.523997       -14.2587
 212   2.0000      -0.522732       -14.2243
 213   2.0000      -0.520120       -14.1532
 214   2.0000      -0.517976       -14.0948
 215   2.0000      -0.517764       -14.0891
 216   2.0000      -0.516534       -14.0556
 217   2.0000      -0.513554       -13.9745
 218   2.0000      -0.512775       -13.9533
 219   2.0000      -0.511272       -13.9124
 220   2.0000      -0.508946       -13.8491
 221   2.0000      -0.506537       -13.7836
 222   2.0000      -0.505208       -13.7474
 223   2.0000      -0.502193       -13.6654
 224   2.0000      -0.499288       -13.5863
 225   2.0000      -0.497255       -13.5310
 226   2.0000      -0.494572       -13.4580
 227   2.0000      -0.493941       -13.4408
 228   2.0000      -0.488859       -13.3025
 229   2.0000      -0.486380       -13.2351
 230   2.0000      -0.485373       -13.2077
 231   2.0000      -0.480468       -13.0742
 232   2.0000      -0.478572       -13.0226
 233   2.0000      -0.471372       -12.8267
 234   2.0000      -0.469551       -12.7771
 235   2.0000      -0.468938       -12.7604
 236   2.0000      -0.468369       -12.7450
 237   2.0000      -0.468112       -12.7380
 238   2.0000      -0.466995       -12.7076
 239   2.0000      -0.464949       -12.6519
 240   2.0000      -0.463252       -12.6057
 241   2.0000      -0.462041       -12.5728
 242   2.0000      -0.459613       -12.5067
 243   2.0000      -0.459067       -12.4919
 244   2.0000      -0.458679       -12.4813
 245   2.0000      -0.458015       -12.4632
 246   2.0000      -0.456083       -12.4107
 247   2.0000      -0.455179       -12.3860
 248   2.0000      -0.454676       -12.3724
 249   2.0000      -0.452212       -12.3053
 250   2.0000      -0.451691       -12.2911
 251   2.0000      -0.451041       -12.2735
 252   2.0000      -0.450357       -12.2548
 253   2.0000      -0.449691       -12.2367
 254   2.0000      -0.449640       -12.2353
 255   2.0000      -0.449068       -12.2198
 256   2.0000      -0.448165       -12.1952
 257   2.0000      -0.447832       -12.1861
 258   2.0000      -0.445578       -12.1248
 259   2.0000      -0.441909       -12.0250
 260   2.0000      -0.441444       -12.0123
 261   2.0000      -0.437623       -11.9083
 262   2.0000      -0.437016       -11.8918
 263   2.0000      -0.436446       -11.8763
 264   2.0000      -0.436231       -11.8704
 265   2.0000      -0.434891       -11.8340
 266   2.0000      -0.434422       -11.8212
 267   2.0000      -0.433410       -11.7937
 268   2.0000      -0.432455       -11.7677
 269   2.0000      -0.431858       -11.7514
 270   2.0000      -0.429798       -11.6954
 271   2.0000      -0.427081       -11.6215
 272   2.0000      -0.420323       -11.4376
 273   2.0000      -0.419294       -11.4096
 274   2.0000      -0.417851       -11.3703
 275   2.0000      -0.414979       -11.2922
 276   2.0000      -0.414850       -11.2886
 277   2.0000      -0.414405       -11.2765
 278   2.0000      -0.401340       -10.9210
 279   2.0000      -0.395380       -10.7588
 280   2.0000      -0.389344       -10.5946
 281   2.0000      -0.388712       -10.5774
 282   2.0000      -0.380792       -10.3619
 283   2.0000      -0.363459        -9.8902
 284   2.0000      -0.361785        -9.8447
 285   2.0000      -0.359705        -9.7881
 286   2.0000      -0.351537        -9.5658
 287   2.0000      -0.343195        -9.3388
 288   2.0000      -0.338614        -9.2142
 289   2.0000      -0.337251        -9.1771
 290   2.0000      -0.334009        -9.0888
 291   2.0000      -0.332353        -9.0438
 292   2.0000      -0.322433        -8.7739
 293   2.0000      -0.313568        -8.5326
 294   2.0000      -0.296685        -8.0732
 295   2.0000      -0.294433        -8.0119
 296   2.0000      -0.273362        -7.4386
 297   2.0000      -0.242951        -6.6110
 298   0.0000      -0.126526        -3.4430
 299   0.0000      -0.119859        -3.2615
 300   0.0000      -0.099596        -2.7101
 301   0.0000      -0.096719        -2.6319
 302   0.0000      -0.091392        -2.4869

MULLIKEN ATOMIC CHARGES
-----------------------
   0 C :   -0.037730
   1 C :    0.049870
   2 C :    0.048864
   3 C :   -0.029129
   4 C :   -0.001957
   5 C :    0.018226
   6 C :    0.296864
   7 C :   -0.349992
   8 C :   -0.188089
   9 N :    0.159659
  10 C :   -0.175353
  11 N :    0.151378
  12 C :   -0.072831
  13 C :    0.227163
  14 C :   -0.340582
  15 C :   -0.192673
  16 N :    0.178562
  17 C :   -0.182621
  18 N :    0.173318
  19 C :    0.086806
  20 C :   -0.148688
  21 C :    0.000276
  22 C :   -0.010728
  23 C :   -0.058306
  24 S :    0.230178
  25 C :   -0.108892
  26 C :    0.028687
  27 C :    0.304321
  28 C :   -0.284805
  29 C :   -0.188264
  30 N :    0.180683
  31 C :   -0.182647
  32 N :    0.171153
  33 C :   -0.067860
  34 C :   -0.036956
  35 S :    0.188730
  36 C :   -0.055582
  37 C :   -0.111880
  38 C :    0.167041
  39 C :   -0.115306
  40 S :    0.160936
  41 C :   -0.112601
  42 C :    0.165124
  43 N :   -0.169752
  44 C :    0.125457
  45 C :   -0.111598
  46 C :   -0.058505
  47 S :    0.162147
  48 C :   -0.035204
  49 C :   -0.068340
  50 C :    0.029350
  51 C :   -0.107133
  52 S :    0.188394
  53 C :   -0.069055
  54 C :    0.030540
  55 C :    0.298534
  56 C :   -0.285702
  57 C :   -0.191741
  58 N :    0.187205
  59 C :   -0.188505
  60 N :    0.180613
  61 C :   -0.002227
  62 C :   -0.105774
  63 S :    0.195929
  64 C :    0.042790
  65 C :   -0.068518
  66 C :    0.294899
  67 C :   -0.342718
  68 C :   -0.184021
  69 N :    0.156832
  70 C :   -0.184676
  71 N :    0.159190
  72 C :    0.013135
  73 C :    0.006901
  74 C :   -0.032226
  75 C :    0.046848
  76 C :    0.047579
  77 C :   -0.031780
  78 C :    0.204314
  79 C :   -0.325882
  80 C :   -0.177435
  81 N :    0.162087
  82 C :   -0.205941
  83 N :    0.181995
  84 H :    0.006348
  85 H :    0.004623
  86 H :    0.007444
  87 H :    0.015070
  88 H :    0.014853
  89 H :    0.030773
  90 H :    0.018586
  91 H :   -0.015537
  92 H :    0.041957
  93 H :    0.042537
  94 H :    0.048739
  95 H :   -0.014215
  96 H :    0.020148
  97 H :    0.029512
  98 H :    0.024824
  99 H :    0.005249
 100 H :    0.005296
 101 H :    0.005055
 102 H :    0.006363
Sum of atomic charges:   -0.0000000

LOEWDIN ATOMIC CHARGES
----------------------
   0 C :    0.005085
   1 C :    0.003076
   2 C :    0.006536
   3 C :    0.005411
   4 C :   -0.010025
   5 C :   -0.013779
   6 C :    0.078864
   7 C :   -0.135819
   8 C :   -0.019395
   9 N :   -0.046087
  10 C :   -0.020732
  11 N :   -0.047856
  12 C :   -0.059107
  13 C :    0.066540
  14 C :   -0.129591
  15 C :   -0.017109
  16 N :   -0.044861
  17 C :   -0.020677
  18 N :   -0.039062
  19 C :    0.035856
  20 C :   -0.185697
  21 C :    0.008666
  22 C :   -0.069378
  23 C :   -0.149586
  24 S :    0.510113
  25 C :   -0.192551
  26 C :   -0.049061
  27 C :    0.080875
  28 C :   -0.094476
  29 C :   -0.017872
  30 N :   -0.023886
  31 C :   -0.012671
  32 N :   -0.030243
  33 C :   -0.039891
  34 C :   -0.160293
  35 S :    0.478270
  36 C :   -0.177700
  37 C :   -0.075374
  38 C :   -0.011683
  39 C :   -0.216903
  40 S :    0.435785
  41 C :   -0.214699
  42 C :   -0.013255
  43 N :    0.029583
  44 C :    0.041798
  45 C :   -0.072615
  46 C :   -0.180895
  47 S :    0.436670
  48 C :   -0.155508
  49 C :   -0.041668
  50 C :   -0.042180
  51 C :   -0.199542
  52 S :    0.476111
  53 C :   -0.139473
  54 C :   -0.078266
  55 C :    0.076727
  56 C :   -0.090413
  57 C :   -0.019213
  58 N :   -0.018006
  59 C :   -0.016770
  60 N :   -0.024544
  61 C :    0.027058
  62 C :   -0.182590
  63 S :    0.503252
  64 C :    0.044805
  65 C :   -0.072757
  66 C :    0.078419
  67 C :   -0.134475
  68 C :   -0.022834
  69 N :   -0.041482
  70 C :   -0.019134
  71 N :   -0.046464
  72 C :   -0.012248
  73 C :   -0.011270
  74 C :    0.000496
  75 C :    0.003664
  76 C :    0.002248
  77 C :    0.005793
  78 C :    0.059132
  79 C :   -0.142575
  80 C :   -0.020793
  81 N :   -0.045848
  82 C :   -0.039201
  83 N :   -0.041400
  84 H :    0.041706
  85 H :    0.038051
  86 H :    0.038874
  87 H :    0.043718
  88 H :    0.045524
  89 H :    0.043135
  90 H :    0.038436
  91 H :    0.027152
  92 H :    0.035791
  93 H :    0.035906
  94 H :    0.031776
  95 H :    0.027614
  96 H :    0.038680
  97 H :    0.051239
  98 H :    0.054874
  99 H :    0.040418
 100 H :    0.037788
 101 H :    0.038076
 102 H :    0.041895

  Mayer bond orders larger than 0.100000
B(  0-C ,  1-C ) :   1.3721 B(  0-C ,  5-C ) :   1.3789 B(  0-C , 84-H ) :   0.9850
B(  1-C ,  2-C ) :   1.3764 B(  1-C , 85-H ) :   0.9853 B(  2-C ,  3-C ) :   1.3649
B(  2-C , 86-H ) :   0.9868 B(  3-C ,  4-C ) :   1.3816 B(  3-C , 87-H ) :   0.9875
B(  4-C ,  5-C ) :   1.3107 B(  4-C , 13-C ) :   1.0067 B(  5-C ,  6-C ) :   0.9981
B(  6-C ,  7-C ) :   1.6311 B(  6-C , 12-C ) :   1.0676 B(  7-C ,  8-C ) :   1.1484
B(  7-C , 10-C ) :   1.1375 B(  8-C ,  9-N ) :   2.9770 B( 10-C , 11-N ) :   2.9631
B( 12-C , 13-C ) :   1.0173 B( 12-C , 19-C ) :   1.6146 B( 13-C , 14-C ) :   1.6569
B( 14-C , 15-C ) :   1.1604 B( 14-C , 17-C ) :   1.1402 B( 15-C , 16-N ) :   3.0057
B( 17-C , 18-N ) :   2.9996 B( 19-C , 20-C ) :   1.1848 B( 19-C , 88-H ) :   0.9120
B( 20-C , 21-C ) :   1.3759 B( 20-C , 24-S ) :   1.0894 B( 21-C , 22-C ) :   1.3711
B( 21-C , 89-H ) :   0.9838 B( 22-C , 23-C ) :   1.3894 B( 22-C , 27-C ) :   0.9984
B( 23-C , 24-S ) :   1.1618 B( 23-C , 25-C ) :   1.2103 B( 25-C , 26-C ) :   1.4353
B( 25-C , 35-S ) :   1.1011 B( 26-C , 27-C ) :   0.9909 B( 26-C , 33-C ) :   1.3091
B( 27-C , 28-C ) :   1.7210 B( 28-C , 29-C ) :   1.1307 B( 28-C , 31-C ) :   1.1351
B( 29-C , 30-N ) :   2.9929 B( 31-C , 32-N ) :   2.9784 B( 33-C , 34-C ) :   1.4388
B( 33-C , 90-H ) :   0.9892 B( 34-C , 35-S ) :   1.1200 B( 34-C , 36-C ) :   1.1848
B( 36-C , 37-C ) :   1.4619 B( 36-C , 40-S ) :   1.1014 B( 37-C , 38-C ) :   1.2442
B( 37-C , 91-H ) :   1.0032 B( 38-C , 39-C ) :   1.3820 B( 38-C , 43-N ) :   1.1499
B( 39-C , 40-S ) :   1.0349 B( 39-C , 41-C ) :   1.4001 B( 41-C , 42-C ) :   1.3789
B( 41-C , 47-S ) :   1.0380 B( 42-C , 43-N ) :   1.1500 B( 42-C , 45-C ) :   1.2488
B( 43-N , 44-C ) :   0.9656 B( 44-C , 92-H ) :   0.9719 B( 44-C , 93-H ) :   0.9719
B( 44-C , 94-H ) :   0.9737 B( 45-C , 46-C ) :   1.4568 B( 45-C , 95-H ) :   1.0027
B( 46-C , 47-S ) :   1.0977 B( 46-C , 48-C ) :   1.1898 B( 48-C , 49-C ) :   1.4274
B( 48-C , 52-S ) :   1.1239 B( 49-C , 50-C ) :   1.3169 B( 49-C , 96-H ) :   0.9890
B( 50-C , 51-C ) :   1.4251 B( 50-C , 55-C ) :   0.9926 B( 51-C , 52-S ) :   1.0910
B( 51-C , 53-C ) :   1.2322 B( 53-C , 54-C ) :   1.3701 B( 53-C , 63-S ) :   1.1579
B( 54-C , 55-C ) :   0.9941 B( 54-C , 61-C ) :   1.3156 B( 55-C , 56-C ) :   1.7212
B( 56-C , 57-C ) :   1.1335 B( 56-C , 59-C ) :   1.1341 B( 57-C , 58-N ) :   2.9942
B( 59-C , 60-N ) :   2.9894 B( 61-C , 62-C ) :   1.3676 B( 61-C , 97-H ) :   1.0030
B( 62-C , 63-S ) :   1.0640 B( 62-C , 64-C ) :   1.2211 B( 64-C , 65-C ) :   1.5489
B( 64-C , 98-H ) :   0.9325 B( 65-C , 66-C ) :   1.0660 B( 65-C , 78-C ) :   1.0258
B( 66-C , 67-C ) :   1.6384 B( 66-C , 72-C ) :   0.9971 B( 67-C , 68-C ) :   1.1359
B( 67-C , 70-C ) :   1.1458 B( 68-C , 69-N ) :   2.9685 B( 70-C , 71-N ) :   2.9767
B( 72-C , 73-C ) :   1.3134 B( 72-C , 77-C ) :   1.3862 B( 73-C , 74-C ) :   1.3820
B( 73-C , 78-C ) :   1.0147 B( 74-C , 75-C ) :   1.3647 B( 74-C , 99-H ) :   0.9876
B( 75-C , 76-C ) :   1.3785 B( 75-C ,100-H ) :   0.9863 B( 76-C , 77-C ) :   1.3704
B( 76-C ,101-H ) :   0.9858 B( 77-C ,102-H ) :   0.9834 B( 78-C , 79-C ) :   1.6445
B( 79-C , 80-C ) :   1.1422 B( 79-C , 82-C ) :   1.1450 B( 80-C , 81-N ) :   2.9965
B( 82-C , 83-N ) :   3.0253

-----------------------------------------------------------------------------
         ABSORPTION SPECTRUM VIA TRANSITION ELECTRIC DIPOLE MOMENTS
-----------------------------------------------------------------------------
State   Energy  Wavelength   fosc         T2         TX        TY        TZ
        (cm-1)    (nm)                  (au**2)     (au)      (au)      (au)
-----------------------------------------------------------------------------
   0   10478.4    954.3   1.057564368  33.22666   0.71622   5.26687   2.23020
   1   11690.7    855.4   0.006934785   0.19528   0.22508  -0.35496  -0.13649
   2   17004.9    588.1   1.394023604  26.98811   0.41453   4.89127   1.70050
   3   18313.2    546.1   0.225239562   4.04908   1.15039   1.62966   0.26439
   4   19146.6    522.3   0.016152437   0.27773  -0.30986  -0.15788   0.39597
   5   20009.7    499.8   0.037424900   0.61574  -0.11607   0.37027  -0.68203
   6   21262.2    470.3   0.350802747   5.43163   0.48040   1.49995   1.71785
   7   21379.7    467.7   0.085434452   1.31555   0.11197  -0.66872  -0.92510
   8   23537.2    424.9   0.009847984   0.13774  -0.24988  -0.27420  -0.01087
   9   24473.8    408.6   0.006437577   0.08660  -0.21115  -0.11977  -0.16633
  10   24798.6    403.2   0.137979297   1.83173   0.39065   1.03893   0.77444
  11   25176.5    397.2   0.018240738   0.23852   0.10135  -0.13189  -0.45918
  12   25413.4    393.5   0.176485303   2.28624  -0.37865   1.27418   0.72064
  13   25773.6    388.0   0.040723853   0.52017   0.07842   0.65556   0.29028
  14   26578.5    376.2   0.338317856   4.19054   0.22429   1.93241   0.63719
  15   27871.0    358.8   0.058974540   0.69661   0.10060  -0.08774  -0.82389
  16   28133.8    355.4   0.101108565   1.18314   0.46355   0.96014   0.21538
  17   28433.0    351.7   0.227984134   2.63972  -0.75065  -0.82579  -1.18081
  18   28839.0    346.8   0.076460849   0.87284  -0.27702   0.48114   0.75140
  19   29611.7    337.7   0.050383688   0.56015   0.40875   0.61351  -0.12914
  20   29689.5    336.8   0.522266310   5.79114  -1.85510  -1.07149   1.09620
  21   30224.7    330.9   0.174717670   1.90305   0.80820   0.10548  -1.11299
  22   30424.7    328.7   0.154656811   1.67347  -0.65598  -0.46908   1.01150
  23   31005.2    322.5   0.004937011   0.05242  -0.00412  -0.00420   0.22888
  24   31215.0    320.4   0.041076954   0.43322  -0.24375  -0.35483   0.49790
  25   31430.1    318.2   0.002355057   0.02467  -0.04852   0.12488   0.08197
  26   32289.6    309.7   0.085574065   0.87248  -0.06161   0.12473  -0.92365
  27   32515.6    307.5   0.219187581   2.21922  -0.42939  -1.14871  -0.84576
  28   32747.1    305.4   0.248049580   2.49368  -1.02608  -0.70323  -0.97279
  29   32833.4    304.6   0.495152944   4.96477   0.19013  -0.54654  -2.15172
  30   33083.0    302.3   0.167148085   1.66330   0.54309   0.32227   1.12450
  31   33446.3    299.0   0.464282160   4.56993  -0.36975  -0.43468   2.06016
  32   33581.5    297.8   0.270786830   2.65463  -0.70718  -0.19253   1.45515
  33   33731.5    296.5   0.030791980   0.30052   0.51032  -0.01488  -0.19969
  34   34055.5    293.6   0.017405951   0.16826   0.26756  -0.02626  -0.30982
  35   34137.0    292.9   0.024280698   0.23416   0.31048   0.33197  -0.16600
  36   34406.7    290.6   0.009952831   0.09523   0.04511  -0.27754   0.12715
  37   34641.4    288.7   0.336059586   3.19372   0.50215   1.65246   0.45929
  38   35129.4    284.7   0.072267923   0.67725   0.60190   0.41796  -0.37454
  39   35182.3    284.2   0.628613742   5.88213   2.10370   1.02735  -0.63335
  40   35521.0    281.5   0.079138786   0.73346   0.63081   0.14571  -0.56064
  41   35782.1    279.5   0.115866791   1.06603  -0.62732  -0.50958   0.64252
  42   35799.0    279.3   0.081208722   0.74680  -0.33318  -0.50741   0.61508
  43   35970.2    278.0   0.046793629   0.42827  -0.33844  -0.29807   0.47422
  44   36060.8    277.3   0.025383760   0.23174   0.38992   0.03202  -0.28049
  45   36157.4    276.6   0.029554062   0.26909   0.11969   0.08851  -0.49692
  46   36803.3    271.7   0.005993405   0.05361  -0.13760  -0.08330  -0.16656
  47   37023.1    270.1   0.029250864   0.26010   0.28870   0.07088  -0.41440
  48   37203.6    268.8   0.043133982   0.38169   0.47977   0.07506  -0.38194
  49   37384.3    267.5   0.012891105   0.11352   0.09336   0.01333   0.32346
  50   37395.6    267.4   0.011669314   0.10273   0.04702   0.01582   0.31665
  51   37589.8    266.0   0.000748029   0.00655   0.01800   0.06498   0.04477
  52   37909.0    263.8   0.037749817   0.32783   0.35358   0.20803  -0.39942
  53   38301.0    261.1   0.023017405   0.19784   0.23089   0.21103  -0.31622
  54   38476.9    259.9   0.001002193   0.00857  -0.05751   0.02854   0.06673
  55   38944.8    256.8   0.003843648   0.03249  -0.09467   0.14546  -0.04869
  56   38990.1    256.5   0.136858146   1.15556   0.30919   0.97535   0.32964
  57   39313.9    254.4   0.087399691   0.73188   0.15686   0.83224   0.12101
  58   39441.2    253.5   0.004971527   0.04150   0.13533  -0.12896  -0.08094
  59   39649.6    252.2   0.023763867   0.19731   0.32282   0.24628  -0.18013
  60   39858.1    250.9   0.050071627   0.41357   0.14038   0.46482  -0.42167
  61   40106.7    249.3   0.048677806   0.39957   0.07017   0.57964   0.24220

FINAL SINGLE POINT ENERGY     -5584.134694928687

DIPOLE MOMENT
-------------
                                X             Y             Z
Electronic contribution:     11.95148      -1.19437      -7.61731
Nuclear contribution   :    -14.54916       1.33941      10.61822
                        -----------------------------------------
Total Dipole Moment    :     -2.59768       0.14504       3.00092
                        -----------------------------------------
Magnitude (a.u.)       :      3.97171
Magnitude (Debye)      :     10.09529

Rotational constants in cm-1:     0.002210     0.000126     0.000122
Rotational constants in MHz :    66.239496     3.785770     3.661775

                             ****ORCA TERMINATED NORMALLY****
TOTAL RUN TIME: 0 days 0 hours 20 minutes 53 seconds 531 msec
