                         Program Version 4.2.0 -  RELEASE  -
|  1> # ORCA input file
|  2> # SCF done       -186.403051144456          0.000393770057
|  3> ! CAM-B3LYP def2-SVP def2/J RIJCOSX Grid4 TightSCF
|  4> %maxcore 5000
|  5> %tddft
|  6>     Mode sTDDFT
|  7>     Ethresh 5.0
|  8>     maxcore 5000
|  9> end
| 10>
| 11> %pal
| 12>   nprocs 6
| 13>   end
| 14> * xyz 0 1
| 15>    C       -4.18447         3.64024         2.93449
| 16>    C       -4.18777         4.52530         1.86633
| 17>    C       -4.80635         4.20006         0.66785
| 18>    C       -5.45083         2.98256         0.50570
| 19>    C       -5.45729         2.09356         1.56706
| 20>    C       -4.81612         2.41597         2.78389
| 21>    C       -4.94991         1.28901         3.69869
| 22>    C       -4.56005         1.27734         5.01283
| 23>    C       -3.97336         2.37762         5.67302
| 24>    N       -3.49210         3.22798         6.27575
| 25>    C       -4.71583         0.20163         5.91141
| 26>    N       -4.80934        -0.62616         6.70255
| 27>    C       -5.55985         0.20278         2.94244
| 28>    C       -6.05948         0.77532         1.70052
| 29>    C       -7.10400         0.31083         0.94439
| 30>    C       -7.85261        -0.84400         1.24508
| 31>    N       -8.51926        -1.75370         1.46179
| 32>    C       -7.63134         0.99152        -0.17319
| 33>    N       -8.11029         1.49784        -1.08483
| 34>    C       -5.54301        -1.10861         3.34683
| 35>    C       -5.69512        -2.26617         2.56517
| 36>    C       -5.57940        -2.44378         1.18998
| 37>    C       -5.73506        -3.76700         0.81338
| 38>    C       -5.96983        -4.63106         1.91130
| 39>    S       -5.97674        -3.80066         3.39546
| 40>    C       -6.12217        -5.94179         1.41833
| 41>    C       -5.98951        -5.91967         0.01565
| 42>    C       -5.74981        -4.54805        -0.40769
| 43>    C       -5.59032        -4.08499        -1.68232
| 44>    C       -5.63526        -4.93817        -2.80348
| 45>    N       -5.66757        -5.63568        -3.71322
| 46>    C       -5.36613        -2.71732        -1.94288
| 47>    N       -5.17514        -1.60314        -2.13724
| 48>    C       -6.10324        -7.17760        -0.56019
| 49>    C       -6.31122        -8.17810         0.38366
| 50>    S       -6.38812        -7.52414         2.01258
| 51>    C       -6.42195        -9.55982         0.09443
| 52>    C       -6.50361       -10.67158         0.92973
| 53>    C       -6.59626       -10.63678         2.42154
| 54>    C       -8.03977       -10.40433         2.87355
| 55>    C       -6.52990       -11.87141         0.21747
| 56>    C       -6.47900       -11.72989        -1.15709
| 57>    S       -6.40176       -10.04639        -1.58417
| 58>    C       -6.47050       -12.70990        -2.18037
| 59>    C       -6.36604       -14.04537        -1.95936
| 60>    C       -6.34409       -15.06652        -2.95049
| 61>    C       -6.58812       -14.88005        -4.29322
| 62>    C       -6.55631       -15.87979        -5.26111
| 63>    C       -6.11707       -17.24181        -4.91654
| 64>    C       -5.85712       -17.66365        -3.65997
| 65>    S       -5.97839       -16.65527        -2.28061
| 66>    C       -6.05581       -17.94714        -6.14798
| 67>    C       -6.44731       -17.10443        -7.18865
| 68>    C       -6.41565       -17.75589        -8.44191
| 69>    C       -6.00682       -19.04542        -8.32192
| 70>    S       -5.65092       -19.52473        -6.69509
| 71>    C       -6.79841       -15.81646        -6.65108
| 72>    C       -7.32431       -14.78383        -7.46324
| 73>    C       -8.00557       -13.67885        -7.05823
| 74>    C       -8.54081       -12.70525        -7.93679
| 75>    C       -8.48494       -12.63397        -9.32134
| 76>    C       -9.16353       -11.52491        -9.81856
| 77>    C       -9.74045       -10.73267        -8.81471
| 78>    S       -9.44731       -11.35857        -7.25436
| 79>    C      -10.40669        -9.63918        -9.43236
| 80>    C      -10.25030        -9.74476       -10.82155
| 81>    C       -9.46877       -10.92735       -11.11570
| 82>    C       -9.09700       -11.40088       -12.34104
| 83>    C       -9.44878       -10.74720       -13.53999
| 84>    N       -9.73197       -10.22232       -14.51955
| 85>    C       -8.34057       -12.58127       -12.48855
| 86>    N       -7.72974       -13.54484       -12.60911
| 87>    C      -10.88843        -8.69750       -11.51476
| 88>    C      -11.50244        -7.83705       -10.65780
| 89>    S      -11.32480        -8.27065        -8.98747
| 90>    H       -3.69154         3.90784         3.85443
| 91>    H       -3.69452         5.47958         1.97137
| 92>    H       -4.78541         4.90122        -0.15231
| 93>    H       -5.91878         2.73494        -0.43317
| 94>    H       -5.31402        -1.29917         4.38696
| 95>    H       -5.34234        -1.64321         0.51287
| 96>    H       -6.03032        -7.38438        -1.61288
| 97>    H       -5.95319        -9.85344         2.82691
| 98>    H       -6.24841       -11.59368         2.81503
| 99>    H       -8.41633        -9.45746         2.49474
|100>    H       -8.09427       -10.38764         3.95864
|101>    H       -8.68165       -11.20098         2.50431
|102>    H       -6.59173       -12.82895         0.70258
|103>    H       -6.52083       -12.32629        -3.18941
|104>    H       -6.26174       -14.39349        -0.94065
|105>    H       -6.79829       -13.87024        -4.60913
|106>    H       -5.56306       -18.67717        -3.43747
|107>    H       -6.67518       -17.30330        -9.38159
|108>    H       -5.88687       -19.77168        -9.10186
|109>    H       -7.20898       -14.94656        -8.52659
|110>    H       -8.21521       -13.52138        -6.01083
|111>    H       -7.97646       -13.35890        -9.92889
|112>    H      -10.89582        -8.58326       -12.58332
|113>    H      -12.06103        -6.95501       -10.89892
|114> *
|115>
|116>                          ****END OF INPUT****

CARTESIAN COORDINATES (ANGSTROEM)
---------------------------------
  C     -4.184470    3.640240    2.934490
  C     -4.187770    4.525300    1.866330
  C     -4.806350    4.200060    0.667850
  C     -5.450830    2.982560    0.505700
  C     -5.457290    2.093560    1.567060
  C     -4.816120    2.415970    2.783890
  C     -4.949910    1.289010    3.698690
  C     -4.560050    1.277340    5.012830
  C     -3.973360    2.377620    5.673020
  N     -3.492100    3.227980    6.275750
  C     -4.715830    0.201630    5.911410
  N     -4.809340   -0.626160    6.702550
  C     -5.559850    0.202780    2.942440
  C     -6.059480    0.775320    1.700520
  C     -7.104000    0.310830    0.944390
  C     -7.852610   -0.844000    1.245080
  N     -8.519260   -1.753700    1.461790
  C     -7.631340    0.991520   -0.173190
  N     -8.110290    1.497840   -1.084830
  C     -5.543010   -1.108610    3.346830
  C     -5.695120   -2.266170    2.565170
  C     -5.579400   -2.443780    1.189980
  C     -5.735060   -3.767000    0.813380
  C     -5.969830   -4.631060    1.911300
  S     -5.976740   -3.800660    3.395460
  C     -6.122170   -5.941790    1.418330
  C     -5.989510   -5.919670    0.015650
  C     -5.749810   -4.548050   -0.407690
  C     -5.590320   -4.084990   -1.682320
  C     -5.635260   -4.938170   -2.803480
  N     -5.667570   -5.635680   -3.713220
  C     -5.366130   -2.717320   -1.942880
  N     -5.175140   -1.603140   -2.137240
  C     -6.103240   -7.177600   -0.560190
  C     -6.311220   -8.178100    0.383660
  S     -6.388120   -7.524140    2.012580
  C     -6.421950   -9.559820    0.094430
  C     -6.503610  -10.671580    0.929730
  C     -6.596260  -10.636780    2.421540
  C     -8.039770  -10.404330    2.873550
  C     -6.529900  -11.871410    0.217470
  C     -6.479000  -11.729890   -1.157090
  S     -6.401760  -10.046390   -1.584170
  C     -6.470500  -12.709900   -2.180370
  C     -6.366040  -14.045370   -1.959360
  C     -6.344090  -15.066520   -2.950490
  C     -6.588120  -14.880050   -4.293220
  C     -6.556310  -15.879790   -5.261110
  C     -6.117070  -17.241810   -4.916540
  C     -5.857120  -17.663650   -3.659970
  S     -5.978390  -16.655270   -2.280610
  C     -6.055810  -17.947140   -6.147980
  C     -6.447310  -17.104430   -7.188650
  C     -6.415650  -17.755890   -8.441910
  C     -6.006820  -19.045420   -8.321920
  S     -5.650920  -19.524730   -6.695090
  C     -6.798410  -15.816460   -6.651080
  C     -7.324310  -14.783830   -7.463240
  C     -8.005570  -13.678850   -7.058230
  C     -8.540810  -12.705250   -7.936790
  C     -8.484940  -12.633970   -9.321340
  C     -9.163530  -11.524910   -9.818560
  C     -9.740450  -10.732670   -8.814710
  S     -9.447310  -11.358570   -7.254360
  C    -10.406690   -9.639180   -9.432360
  C    -10.250300   -9.744760  -10.821550
  C     -9.468770  -10.927350  -11.115700
  C     -9.097000  -11.400880  -12.341040
  C     -9.448780  -10.747200  -13.539990
  N     -9.731970  -10.222320  -14.519550
  C     -8.340570  -12.581270  -12.488550
  N     -7.729740  -13.544840  -12.609110
  C    -10.888430   -8.697500  -11.514760
  C    -11.502440   -7.837050  -10.657800
  S    -11.324800   -8.270650   -8.987470
  H     -3.691540    3.907840    3.854430
  H     -3.694520    5.479580    1.971370
  H     -4.785410    4.901220   -0.152310
  H     -5.918780    2.734940   -0.433170
  H     -5.314020   -1.299170    4.386960
  H     -5.342340   -1.643210    0.512870
  H     -6.030320   -7.384380   -1.612880
  H     -5.953190   -9.853440    2.826910
  H     -6.248410  -11.593680    2.815030
  H     -8.416330   -9.457460    2.494740
  H     -8.094270  -10.387640    3.958640
  H     -8.681650  -11.200980    2.504310
  H     -6.591730  -12.828950    0.702580
  H     -6.520830  -12.326290   -3.189410
  H     -6.261740  -14.393490   -0.940650
  H     -6.798290  -13.870240   -4.609130
  H     -5.563060  -18.677170   -3.437470
  H     -6.675180  -17.303300   -9.381590
  H     -5.886870  -19.771680   -9.101860
  H     -7.208980  -14.946560   -8.526590
  H     -8.215210  -13.521380   -6.010830
  H     -7.976460  -13.358900   -9.928890
  H    -10.895820   -8.583260  -12.583320
  H    -12.061030   -6.955010  -10.898920

 Total Charge           Charge          ....    0
 Multiplicity           Mult            ....    1
 Number of Electrons    NEL             ....  552
 Basis Dimension        Dim             .... 1198

ORBITAL ENERGIES
----------------

  NO   OCC          E(Eh)            E(eV)
   0   2.0000     -89.001349     -2421.8498
   1   2.0000     -89.000788     -2421.8346
   2   2.0000     -88.978965     -2421.2407
   3   2.0000     -88.978474     -2421.2274
   4   2.0000     -88.977288     -2421.1951
   5   2.0000     -88.971230     -2421.0302
   6   2.0000     -88.957329     -2420.6520
   7   2.0000     -14.438915      -392.9029
   8   2.0000     -14.437697      -392.8697
   9   2.0000     -14.423406      -392.4808
  10   2.0000     -14.423078      -392.4719
  11   2.0000     -14.422948      -392.4684
  12   2.0000     -14.421668      -392.4335
  13   2.0000     -14.418226      -392.3399
  14   2.0000     -14.418115      -392.3369
  15   2.0000     -10.373597      -282.2799
  16   2.0000     -10.360983      -281.9367
  17   2.0000     -10.354393      -281.7574
  18   2.0000     -10.352358      -281.7020
  19   2.0000     -10.350489      -281.6511
  20   2.0000     -10.348735      -281.6034
  21   2.0000     -10.348154      -281.5876
  22   2.0000     -10.347513      -281.5701
  23   2.0000     -10.344144      -281.4785
  24   2.0000     -10.342715      -281.4396
  25   2.0000     -10.338894      -281.3356
  26   2.0000     -10.337685      -281.3027
  27   2.0000     -10.335762      -281.2504
  28   2.0000     -10.333456      -281.1876
  29   2.0000     -10.332634      -281.1653
  30   2.0000     -10.329434      -281.0782
  31   2.0000     -10.325898      -280.9820
  32   2.0000     -10.324861      -280.9537
  33   2.0000     -10.324294      -280.9383
  34   2.0000     -10.324023      -280.9310
  35   2.0000     -10.322516      -280.8900
  36   2.0000     -10.322380      -280.8862
  37   2.0000     -10.321768      -280.8696
  38   2.0000     -10.321658      -280.8666
  39   2.0000     -10.321211      -280.8544
  40   2.0000     -10.320389      -280.8321
  41   2.0000     -10.320237      -280.8279
  42   2.0000     -10.318990      -280.7940
  43   2.0000     -10.318291      -280.7750
  44   2.0000     -10.317729      -280.7597
  45   2.0000     -10.312917      -280.6287
  46   2.0000     -10.312895      -280.6281
  47   2.0000     -10.311507      -280.5904
  48   2.0000     -10.311042      -280.5777
  49   2.0000     -10.308230      -280.5012
  50   2.0000     -10.303594      -280.3750
  51   2.0000     -10.302428      -280.3433
  52   2.0000     -10.301464      -280.3171
  53   2.0000     -10.300929      -280.3025
  54   2.0000     -10.300353      -280.2869
  55   2.0000     -10.299850      -280.2732
  56   2.0000     -10.299436      -280.2619
  57   2.0000     -10.299189      -280.2552
  58   2.0000     -10.298334      -280.2319
  59   2.0000     -10.297601      -280.2120
  60   2.0000     -10.297530      -280.2100
  61   2.0000     -10.292796      -280.0812
  62   2.0000     -10.290225      -280.0113
  63   2.0000     -10.289401      -279.9888
  64   2.0000     -10.289007      -279.9781
  65   2.0000     -10.288691      -279.9695
  66   2.0000     -10.287751      -279.9439
  67   2.0000     -10.287682      -279.9420
  68   2.0000     -10.287151      -279.9276
  69   2.0000     -10.284658      -279.8598
  70   2.0000     -10.282726      -279.8072
  71   2.0000     -10.278310      -279.6870
  72   2.0000     -10.275220      -279.6030
  73   2.0000     -10.274240      -279.5763
  74   2.0000     -10.273662      -279.5606
  75   2.0000      -8.095426      -220.2877
  76   2.0000      -8.095083      -220.2784
  77   2.0000      -8.074028      -219.7055
  78   2.0000      -8.073228      -219.6837
  79   2.0000      -8.072782      -219.6716
  80   2.0000      -8.066858      -219.5104
  81   2.0000      -8.052651      -219.1238
  82   2.0000      -6.064605      -165.0263
  83   2.0000      -6.064494      -165.0233
  84   2.0000      -6.060422      -164.9125
  85   2.0000      -6.060133      -164.9046
  86   2.0000      -6.057862      -164.8428
  87   2.0000      -6.057405      -164.8304
  88   2.0000      -6.043292      -164.4463
  89   2.0000      -6.042395      -164.4219
  90   2.0000      -6.042277      -164.4187
  91   2.0000      -6.038853      -164.3256
  92   2.0000      -6.038341      -164.3116
  93   2.0000      -6.037841      -164.2980
  94   2.0000      -6.036602      -164.2643
  95   2.0000      -6.036170      -164.2525
  96   2.0000      -6.035681      -164.2392
  97   2.0000      -6.034729      -164.2133
  98   2.0000      -6.032120      -164.1423
  99   2.0000      -6.028789      -164.0517
 100   2.0000      -6.022117      -163.8701
 101   2.0000      -6.017885      -163.7550
 102   2.0000      -6.014667      -163.6674
 103   2.0000      -1.055950       -28.7338
 104   2.0000      -1.036302       -28.1992
 105   2.0000      -1.033070       -28.1113
 106   2.0000      -1.030109       -28.0307
 107   2.0000      -1.018827       -27.7237
 108   2.0000      -1.016032       -27.6476
 109   2.0000      -1.014188       -27.5975
 110   2.0000      -1.013294       -27.5731
 111   2.0000      -1.007820       -27.4242
 112   2.0000      -1.007408       -27.4130
 113   2.0000      -1.000011       -27.2117
 114   2.0000      -0.999489       -27.1975
 115   2.0000      -0.998829       -27.1795
 116   2.0000      -0.996052       -27.1040
 117   2.0000      -0.984337       -26.7852
 118   2.0000      -0.975746       -26.5514
 119   2.0000      -0.968739       -26.3607
 120   2.0000      -0.957457       -26.0537
 121   2.0000      -0.948217       -25.8023
 122   2.0000      -0.939808       -25.5735
 123   2.0000      -0.933988       -25.4151
 124   2.0000      -0.928104       -25.2550
 125   2.0000      -0.918566       -24.9954
 126   2.0000      -0.906108       -24.6564
 127   2.0000      -0.899621       -24.4799
 128   2.0000      -0.896784       -24.4027
 129   2.0000      -0.890162       -24.2225
 130   2.0000      -0.886114       -24.1124
 131   2.0000      -0.877192       -23.8696
 132   2.0000      -0.869624       -23.6637
 133   2.0000      -0.864968       -23.5370
 134   2.0000      -0.863639       -23.5008
 135   2.0000      -0.853830       -23.2339
 136   2.0000      -0.844804       -22.9883
 137   2.0000      -0.842696       -22.9309
 138   2.0000      -0.841182       -22.8897
 139   2.0000      -0.825741       -22.4695
 140   2.0000      -0.817983       -22.2584
 141   2.0000      -0.806328       -21.9413
 142   2.0000      -0.799016       -21.7423
 143   2.0000      -0.791404       -21.5352
 144   2.0000      -0.786414       -21.3994
 145   2.0000      -0.775324       -21.0976
 146   2.0000      -0.768017       -20.8988
 147   2.0000      -0.761163       -20.7123
 148   2.0000      -0.743799       -20.2398
 149   2.0000      -0.736973       -20.0541
 150   2.0000      -0.734644       -19.9907
 151   2.0000      -0.721743       -19.6396
 152   2.0000      -0.715009       -19.4564
 153   2.0000      -0.713591       -19.4178
 154   2.0000      -0.709872       -19.3166
 155   2.0000      -0.697126       -18.9698
 156   2.0000      -0.694529       -18.8991
 157   2.0000      -0.693462       -18.8701
 158   2.0000      -0.683707       -18.6046
 159   2.0000      -0.677180       -18.4270
 160   2.0000      -0.667884       -18.1740
 161   2.0000      -0.667005       -18.1501
 162   2.0000      -0.665585       -18.1115
 163   2.0000      -0.663371       -18.0512
 164   2.0000      -0.654684       -17.8149
 165   2.0000      -0.649245       -17.6669
 166   2.0000      -0.643408       -17.5080
 167   2.0000      -0.637661       -17.3516
 168   2.0000      -0.633124       -17.2282
 169   2.0000      -0.626299       -17.0425
 170   2.0000      -0.621572       -16.9138
 171   2.0000      -0.620571       -16.8866
 172   2.0000      -0.614304       -16.7161
 173   2.0000      -0.605830       -16.4855
 174   2.0000      -0.603628       -16.4256
 175   2.0000      -0.598895       -16.2968
 176   2.0000      -0.588508       -16.0141
 177   2.0000      -0.586529       -15.9603
 178   2.0000      -0.585198       -15.9241
 179   2.0000      -0.583554       -15.8793
 180   2.0000      -0.574122       -15.6227
 181   2.0000      -0.567727       -15.4486
 182   2.0000      -0.560116       -15.2415
 183   2.0000      -0.557447       -15.1689
 184   2.0000      -0.553128       -15.0514
 185   2.0000      -0.548088       -14.9142
 186   2.0000      -0.545871       -14.8539
 187   2.0000      -0.544562       -14.8183
 188   2.0000      -0.540048       -14.6955
 189   2.0000      -0.538202       -14.6452
 190   2.0000      -0.535868       -14.5817
 191   2.0000      -0.533536       -14.5182
 192   2.0000      -0.530520       -14.4362
 193   2.0000      -0.525674       -14.3043
 194   2.0000      -0.521623       -14.1941
 195   2.0000      -0.517170       -14.0729
 196   2.0000      -0.514693       -14.0055
 197   2.0000      -0.514414       -13.9979
 198   2.0000      -0.512994       -13.9593
 199   2.0000      -0.510638       -13.8952
 200   2.0000      -0.509007       -13.8508
 201   2.0000      -0.504802       -13.7364
 202   2.0000      -0.504307       -13.7229
 203   2.0000      -0.502000       -13.6601
 204   2.0000      -0.497298       -13.5322
 205   2.0000      -0.495334       -13.4787
 206   2.0000      -0.491640       -13.3782
 207   2.0000      -0.490052       -13.3350
 208   2.0000      -0.488309       -13.2876
 209   2.0000      -0.482352       -13.1255
 210   2.0000      -0.481577       -13.1044
 211   2.0000      -0.480160       -13.0658
 212   2.0000      -0.476173       -12.9573
 213   2.0000      -0.473335       -12.8801
 214   2.0000      -0.472013       -12.8441
 215   2.0000      -0.468828       -12.7574
 216   2.0000      -0.467241       -12.7143
 217   2.0000      -0.465932       -12.6787
 218   2.0000      -0.464598       -12.6424
 219   2.0000      -0.463390       -12.6095
 220   2.0000      -0.461444       -12.5565
 221   2.0000      -0.458374       -12.4730
 222   2.0000      -0.457811       -12.4577
 223   2.0000      -0.455100       -12.3839
 224   2.0000      -0.454730       -12.3738
 225   2.0000      -0.454144       -12.3579
 226   2.0000      -0.453333       -12.3358
 227   2.0000      -0.450286       -12.2529
 228   2.0000      -0.449716       -12.2374
 229   2.0000      -0.448265       -12.1979
 230   2.0000      -0.448057       -12.1922
 231   2.0000      -0.447161       -12.1679
 232   2.0000      -0.446373       -12.1464
 233   2.0000      -0.446068       -12.1381
 234   2.0000      -0.445827       -12.1316
 235   2.0000      -0.444064       -12.0836
 236   2.0000      -0.438769       -11.9395
 237   2.0000      -0.436017       -11.8646
 238   2.0000      -0.435420       -11.8484
 239   2.0000      -0.434265       -11.8169
 240   2.0000      -0.433073       -11.7845
 241   2.0000      -0.432350       -11.7648
 242   2.0000      -0.432200       -11.7608
 243   2.0000      -0.430745       -11.7212
 244   2.0000      -0.430601       -11.7172
 245   2.0000      -0.430048       -11.7022
 246   2.0000      -0.427757       -11.6399
 247   2.0000      -0.424849       -11.5607
 248   2.0000      -0.422538       -11.4978
 249   2.0000      -0.421019       -11.4565
 250   2.0000      -0.419551       -11.4166
 251   2.0000      -0.418097       -11.3770
 252   2.0000      -0.414581       -11.2813
 253   2.0000      -0.414104       -11.2683
 254   2.0000      -0.410719       -11.1762
 255   2.0000      -0.410529       -11.1711
 256   2.0000      -0.403540       -10.9809
 257   2.0000      -0.395221       -10.7545
 258   2.0000      -0.384678       -10.4676
 259   2.0000      -0.381790       -10.3890
 260   2.0000      -0.375226       -10.2104
 261   2.0000      -0.357819        -9.7367
 262   2.0000      -0.350485        -9.5372
 263   2.0000      -0.344434        -9.3725
 264   2.0000      -0.337573        -9.1858
 265   2.0000      -0.334148        -9.0926
 266   2.0000      -0.333409        -9.0725
 267   2.0000      -0.331008        -9.0072
 268   2.0000      -0.327374        -8.9083
 269   2.0000      -0.318381        -8.6636
 270   2.0000      -0.312418        -8.5013
 271   2.0000      -0.298636        -8.1263
 272   2.0000      -0.284808        -7.7500
 273   2.0000      -0.272222        -7.4075
 274   2.0000      -0.251992        -6.8571
 275   2.0000      -0.220665        -6.0046
 276   0.0000      -0.119799        -3.2599
 277   0.0000      -0.096954        -2.6382
 278   0.0000      -0.094206        -2.5635
 279   0.0000      -0.087255        -2.3743
 280   0.0000      -0.075089        -2.0433

MULLIKEN ATOMIC CHARGES
-----------------------
   0 C :   -0.034827
   1 C :    0.048060
   2 C :    0.045687
   3 C :   -0.028232
   4 C :   -0.001946
   5 C :    0.012977
   6 C :    0.300450
   7 C :   -0.355295
   8 C :   -0.188544
   9 N :    0.159044
  10 C :   -0.177354
  11 N :    0.148851
  12 C :   -0.075098
  13 C :    0.235461
  14 C :   -0.339457
  15 C :   -0.204648
  16 N :    0.175472
  17 C :   -0.175498
  18 N :    0.170173
  19 C :    0.087968
  20 C :   -0.140468
  21 C :    0.004957
  22 C :   -0.015119
  23 C :   -0.054871
  24 S :    0.222485
  25 C :   -0.118830
  26 C :    0.050213
  27 C :    0.303389
  28 C :   -0.284560
  29 C :   -0.189135
  30 N :    0.180196
  31 C :   -0.184845
  32 N :    0.171445
  33 C :   -0.085755
  34 C :   -0.031870
  35 S :    0.178876
  36 C :   -0.107823
  37 C :   -0.040360
  38 C :    0.047675
  39 C :    0.022830
  40 C :   -0.043405
  41 C :   -0.042888
  42 S :    0.128276
  43 C :    0.065090
  44 C :    0.039891
  45 C :   -0.083099
  46 C :   -0.037575
  47 C :    0.043464
  48 C :    0.058790
  49 C :   -0.130920
  50 S :    0.129201
  51 C :   -0.109573
  52 C :    0.046134
  53 C :    0.010403
  54 C :   -0.067399
  55 S :    0.126404
  56 C :    0.086255
  57 C :   -0.028307
  58 C :    0.028337
  59 C :   -0.078586
  60 C :   -0.037769
  61 C :    0.006152
  62 C :   -0.108996
  63 S :    0.172306
  64 C :   -0.114052
  65 C :   -0.038580
  66 C :    0.303666
  67 C :   -0.302730
  68 C :   -0.192161
  69 N :    0.172258
  70 C :   -0.181100
  71 N :    0.158361
  72 C :    0.038149
  73 C :   -0.085538
  74 S :    0.176068
  75 H :    0.005638
  76 H :    0.003494
  77 H :    0.006608
  78 H :    0.011780
  79 H :    0.008904
  80 H :    0.030440
  81 H :    0.021648
  82 H :    0.020235
  83 H :    0.007297
  84 H :    0.017851
  85 H :    0.026124
  86 H :    0.017182
  87 H :   -0.024139
  88 H :   -0.010253
  89 H :   -0.011763
  90 H :   -0.026961
  91 H :    0.035132
  92 H :   -0.008920
  93 H :    0.029315
  94 H :   -0.018600
  95 H :   -0.026983
  96 H :    0.003371
  97 H :    0.011070
  98 H :    0.033336
Sum of atomic charges:   -0.0000000

LOEWDIN ATOMIC CHARGES
----------------------
   0 C :    0.004594
   1 C :    0.001491
   2 C :    0.004984
   3 C :    0.004348
   4 C :   -0.010178
   5 C :   -0.014006
   6 C :    0.079633
   7 C :   -0.139171
   8 C :   -0.019323
   9 N :   -0.049090
  10 C :   -0.021273
  11 N :   -0.050357
  12 C :   -0.065472
  13 C :    0.066432
  14 C :   -0.133069
  15 C :   -0.017438
  16 N :   -0.043841
  17 C :   -0.020278
  18 N :   -0.041597
  19 C :    0.035332
  20 C :   -0.185129
  21 C :    0.014437
  22 C :   -0.072431
  23 C :   -0.144164
  24 S :    0.505078
  25 C :   -0.206048
  26 C :   -0.044340
  27 C :    0.081421
  28 C :   -0.096294
  29 C :   -0.016962
  30 N :   -0.027486
  31 C :   -0.013401
  32 N :   -0.030059
  33 C :   -0.046102
  34 C :   -0.154665
  35 S :    0.500122
  36 C :   -0.199931
  37 C :   -0.036499
  38 C :   -0.038007
  39 C :   -0.049923
  40 C :   -0.060006
  41 C :   -0.153056
  42 S :    0.447252
  43 C :   -0.042356
  44 C :   -0.031739
  45 C :   -0.173648
  46 C :   -0.014277
  47 C :   -0.022374
  48 C :   -0.046421
  49 C :   -0.144163
  50 S :    0.447327
  51 C :   -0.203676
  52 C :   -0.037695
  53 C :   -0.062559
  54 C :   -0.161135
  55 S :    0.419240
  56 C :   -0.049210
  57 C :   -0.007681
  58 C :   -0.061375
  59 C :   -0.158451
  60 C :   -0.035362
  61 C :   -0.065782
  62 C :   -0.194708
  63 S :    0.465350
  64 C :   -0.177839
  65 C :   -0.083685
  66 C :    0.086388
  67 C :   -0.108937
  68 C :   -0.017117
  69 N :   -0.036980
  70 C :   -0.013910
  71 N :   -0.042799
  72 C :   -0.034246
  73 C :   -0.182445
  74 S :    0.473343
  75 H :    0.041381
  76 H :    0.037573
  77 H :    0.038181
  78 H :    0.042906
  79 H :    0.044692
  80 H :    0.043409
  81 H :    0.035046
  82 H :    0.015909
  83 H :    0.033707
  84 H :    0.017206
  85 H :    0.028056
  86 H :    0.027446
  87 H :    0.027556
  88 H :    0.028426
  89 H :    0.026281
  90 H :    0.033312
  91 H :    0.036138
  92 H :    0.032893
  93 H :    0.024518
  94 H :    0.031996
  95 H :    0.021802
  96 H :    0.036686
  97 H :    0.041944
  98 H :    0.026323

  Mayer bond orders larger than 0.100000
B(  0-C ,  1-C ) :   1.3700 B(  0-C ,  5-C ) :   1.3841 B(  0-C , 75-H ) :   0.9829
B(  1-C ,  2-C ) :   1.3791 B(  1-C , 76-H ) :   0.9853 B(  2-C ,  3-C ) :   1.3652
B(  2-C , 77-H ) :   0.9862 B(  3-C ,  4-C ) :   1.3847 B(  3-C , 78-H ) :   0.9865
B(  4-C ,  5-C ) :   1.3134 B(  4-C , 13-C ) :   1.0056 B(  5-C ,  6-C ) :   0.9936
B(  6-C ,  7-C ) :   1.6223 B(  6-C , 12-C ) :   1.0771 B(  7-C ,  8-C ) :   1.1526
B(  7-C , 10-C ) :   1.1373 B(  8-C ,  9-N ) :   2.9749 B( 10-C , 11-N ) :   2.9613
B( 12-C , 13-C ) :   1.0260 B( 12-C , 19-C ) :   1.5850 B( 13-C , 14-C ) :   1.6443
B( 14-C , 15-C ) :   1.1663 B( 14-C , 17-C ) :   1.1367 B( 15-C , 16-N ) :   3.0026
B( 17-C , 18-N ) :   2.9971 B( 19-C , 20-C ) :   1.2191 B( 19-C , 79-H ) :   0.9082
B( 20-C , 21-C ) :   1.3592 B( 20-C , 24-S ) :   1.0779 B( 21-C , 22-C ) :   1.3874
B( 21-C , 80-H ) :   0.9779 B( 22-C , 23-C ) :   1.3674 B( 22-C , 27-C ) :   1.0043
B( 23-C , 24-S ) :   1.1645 B( 23-C , 25-C ) :   1.2267 B( 25-C , 26-C ) :   1.4118
B( 25-C , 35-S ) :   1.0949 B( 26-C , 27-C ) :   0.9869 B( 26-C , 33-C ) :   1.3313
B( 27-C , 28-C ) :   1.7164 B( 28-C , 29-C ) :   1.1352 B( 28-C , 31-C ) :   1.1364
B( 29-C , 30-N ) :   2.9900 B( 31-C , 32-N ) :   2.9793 B( 33-C , 34-C ) :   1.4052
B( 33-C , 81-H ) :   0.9846 B( 34-C , 35-S ) :   1.1228 B( 34-C , 36-C ) :   1.1822
B( 36-C , 37-C ) :   1.4676 B( 36-C , 42-S ) :   1.1145 B( 37-C , 38-C ) :   1.0710
B( 37-C , 40-C ) :   1.3009 B( 38-C , 39-C ) :   1.0978 B( 38-C , 82-H ) :   0.9154
B( 38-C , 83-H ) :   0.9177 B( 39-C , 84-H ) :   0.9693 B( 39-C , 85-H ) :   0.9679
B( 39-C , 86-H ) :   0.9665 B( 40-C , 41-C ) :   1.4643 B( 40-C , 87-H ) :   0.9950
B( 41-C , 42-S ) :   1.1255 B( 41-C , 43-C ) :   1.1318 B( 43-C , 44-C ) :   1.7020
B( 43-C , 88-H ) :   0.9537 B( 44-C , 45-C ) :   1.1193 B( 44-C , 89-H ) :   0.9599
B( 45-C , 46-C ) :   1.5234 B( 45-C , 50-S ) :   1.0522 B( 46-C , 47-C ) :   1.2585
B( 46-C , 90-H ) :   0.9622 B( 47-C , 48-C ) :   1.0459 B( 47-C , 56-C ) :   1.3648
B( 48-C , 49-C ) :   1.6087 B( 48-C , 51-C ) :   1.1894 B( 49-C , 50-S ) :   1.1375
B( 49-C , 91-H ) :   0.9408 B( 51-C , 52-C ) :   1.4349 B( 51-C , 55-S ) :   1.0726
B( 52-C , 53-C ) :   1.2171 B( 52-C , 56-C ) :   1.1094 B( 53-C , 54-C ) :   1.5903
B( 53-C , 92-H ) :   0.9977 B( 54-C , 55-S ) :   1.1516 B( 54-C , 93-H ) :   0.9658
B( 56-C , 57-C ) :   1.1677 B( 57-C , 58-C ) :   1.6427 B( 57-C , 94-H ) :   0.9616
B( 58-C , 59-C ) :   1.1268 B( 58-C , 95-H ) :   0.9563 B( 59-C , 60-C ) :   1.4508
B( 59-C , 63-S ) :   1.1081 B( 60-C , 61-C ) :   1.3030 B( 60-C , 96-H ) :   0.9888
B( 61-C , 62-C ) :   1.4507 B( 61-C , 66-C ) :   0.9943 B( 62-C , 63-S ) :   1.1151
B( 62-C , 64-C ) :   1.1894 B( 64-C , 65-C ) :   1.4503 B( 64-C , 74-S ) :   1.1400
B( 65-C , 66-C ) :   1.0245 B( 65-C , 72-C ) :   1.2722 B( 66-C , 67-C ) :   1.7021
B( 67-C , 68-C ) :   1.1303 B( 67-C , 70-C ) :   1.1355 B( 68-C , 69-N ) :   3.0043
B( 70-C , 71-N ) :   2.9825 B( 72-C , 73-C ) :   1.5539 B( 72-C , 97-H ) :   0.9964
B( 73-C , 74-S ) :   1.1419 B( 73-C , 98-H ) :   0.9645

-----------------------------------------------------------------------------
         ABSORPTION SPECTRUM VIA TRANSITION ELECTRIC DIPOLE MOMENTS
-----------------------------------------------------------------------------
State   Energy  Wavelength   fosc         T2         TX        TY        TZ
        (cm-1)    (nm)                  (au**2)     (au)      (au)      (au)
-----------------------------------------------------------------------------
   0   10001.0    999.9   0.470378369  15.48388   0.62723   3.14197   2.28440
   1   11394.0    877.7   0.127931181   3.69637   0.69003  -1.52692   0.94273
   2   14132.6    707.6   0.102554799   2.38897  -0.33812  -0.44878  -1.43987
   3   16115.5    620.5   0.846574420  17.29407  -0.47143  -3.29142  -2.49767
   4   17926.3    557.8   0.474110580   8.70693  -0.82148   2.38187  -1.53584
   5   19787.1    505.4   0.067246895   1.11883   0.04017   0.85667   0.61914
   6   20565.1    486.3   0.155065676   2.48234   0.42155   1.28999   0.80034
   7   20891.9    478.7   0.017517000   0.27603   0.20134  -0.22729   0.42876
   8   20934.0    477.7   0.154497768   2.42966   0.04098   1.39680   0.69060
   9   21653.1    461.8   0.002675692   0.04068  -0.06490   0.02186  -0.18971
  10   24026.6    416.2   0.223526874   3.06276   0.21572   1.57122   0.73993
  11   24464.1    408.8   0.322085748   4.33428   0.58440  -1.97044   0.33186
  12   25020.8    399.7   0.040337142   0.53074   0.20729   0.69796  -0.02494
  13   26237.4    381.1   0.021292594   0.26717   0.25225   0.41396   0.17937
  14   26857.6    372.3   0.035595126   0.43631   0.01747  -0.58590   0.30452
  15   27253.4    366.9   0.000409243   0.00494  -0.03968   0.05340   0.02276
  16   27519.3    363.4   0.978719042  11.70834  -0.76555   3.17127  -1.03214
  17   28002.5    357.1   0.152387156   1.79154  -0.86181   0.69138  -0.75552
  18   28661.2    348.9   0.036008910   0.41361  -0.10254   0.31826   0.54937
  19   29576.9    338.1   0.056024921   0.62360   0.60440   0.29750  -0.41206
  20   29852.9    335.0   0.022992738   0.25356  -0.32645   0.08296   0.37431
  21   29948.3    333.9   0.123690743   1.35969   0.03659  -0.89741   0.74364
  22   30273.5    330.3   0.141549019   1.53929   0.35487  -0.14459   1.18002
  23   30963.2    323.0   0.445240210   4.73396  -0.16714  -0.46645  -2.11859
  24   31125.9    321.3   0.247989906   2.62294   0.37924   0.59843   1.45637
  25   31271.4    319.8   0.021475572   0.22609  -0.02925   0.18717   0.43612
  26   31591.6    316.5   0.047266222   0.49256   0.43309   0.54403  -0.09495
  27   31738.1    315.1   0.312908300   3.24572   0.94305  -0.93385  -1.21831
  28   32030.0    312.2   0.166871117   1.71514   0.24817  -1.12871  -0.61609
  29   32415.4    308.5   0.104406322   1.06035  -0.67062  -0.36245   0.69228
  30   32760.8    305.2   0.431913483   4.34028  -0.98651  -0.59857  -1.73459
  31   32945.1    303.5   0.053441176   0.53402   0.10824  -0.63553  -0.34411
  32   33152.0    301.6   0.463188153   4.59964  -0.87859   1.60895  -1.11311
  33   33672.6    297.0   0.015029421   0.14694   0.13712  -0.26801  -0.23729
  34   34148.6    292.8   0.161210820   1.55416  -0.34272   0.20157   1.18156
  35   34281.0    291.7   0.244390592   2.34697  -0.03038  -0.41217  -1.47518
  36   34549.2    289.4   0.245080556   2.33532  -0.70063  -1.14035   0.73759
  37   34809.0    287.3   0.127995344   1.21054  -0.23365  -0.75674  -0.76373
  38   34975.4    285.9   0.066631075   0.62718   0.54132  -0.10760  -0.56796
  39   35373.0    282.7   0.024646861   0.22939   0.07703   0.47129  -0.03654
  40   35619.1    280.7   0.007734353   0.07149  -0.25084   0.09086  -0.01761
  41   35821.2    279.2   0.073257004   0.67326  -0.21811  -0.11207   0.78303
  42   35916.0    278.4   0.178427260   1.63549   0.04406   1.09940  -0.65182
  43   36442.8    274.4   0.062230977   0.56217  -0.34573   0.58790   0.31148
  44   36813.4    271.6   0.084053986   0.75167  -0.00973   0.72704   0.47222
  45   37038.2    270.0   0.003800991   0.03378   0.02975  -0.10422   0.14845
  46   37808.7    264.5   0.012728035   0.11083   0.05969  -0.20772   0.25321
  47   37964.9    263.4   0.018065025   0.15665   0.06017  -0.33979   0.19384
  48   38039.7    262.9   0.000543413   0.00470  -0.02002   0.01847  -0.06294
  49   38059.6    262.7   0.026439534   0.22870  -0.06568  -0.19608   0.43120
  50   38355.1    260.7   0.082648323   0.70939  -0.03852   0.68458   0.48914
  51   38570.9    259.3   0.004458682   0.03806   0.07676   0.14154  -0.11014
  52   38706.4    258.4   0.069532030   0.59139   0.14998   0.58093  -0.48106
  53   39456.3    253.4   0.052885718   0.44126  -0.05184  -0.14283   0.64666
  54   39644.0    252.2   0.136969552   1.13742  -0.01930   0.94617   0.49175
  55   39725.2    251.7   0.024679831   0.20453  -0.01003   0.41994   0.16757
  56   39992.3    250.0   0.030913815   0.25448   0.00836   0.44959  -0.22865
  57   40286.6    248.2   0.008100019   0.06619  -0.01639   0.25662   0.00834

FINAL SINGLE POINT ENERGY     -5521.549508805344

DIPOLE MOMENT
-------------
                                X             Y             Z
Electronic contribution:     -1.15661      19.00756      -7.38386
Nuclear contribution   :      1.47633     -21.75049       9.21118
                        -----------------------------------------
Total Dipole Moment    :      0.31971      -2.74293       1.82732
                        -----------------------------------------
Magnitude (a.u.)       :      3.31134
Magnitude (Debye)      :      8.41676

Rotational constants in cm-1:     0.001053     0.000248     0.000208
Rotational constants in MHz :    31.565935     7.435870     6.225844

                             ****ORCA TERMINATED NORMALLY****
TOTAL RUN TIME: 0 days 0 hours 10 minutes 19 seconds 698 msec
