                         Program Version 4.2.0 -  RELEASE  -
|  1> # ORCA input file
|  2> # SCF done       -185.066156223049          0.000601424896
|  3> ! CAM-B3LYP def2-SVP def2/J RIJCOSX Grid4 TightSCF
|  4> %maxcore 5000
|  5> %tddft
|  6>     Mode sTDDFT
|  7>     Ethresh 5.0
|  8>     maxcore 5000
|  9> end
| 10>
| 11> %pal
| 12>   nprocs 6
| 13>   end
| 14> * xyz 0 1
| 15>    C       -2.55926         3.53716         0.70239
| 16>    C       -2.11344         3.93996         1.95254
| 17>    C       -1.70392         3.01352         2.90127
| 18>    C       -1.71705         1.65501         2.62304
| 19>    C       -2.15529         1.24214         1.37599
| 20>    C       -2.58705         2.18192         0.41283
| 21>    C       -3.02230         1.46783        -0.78039
| 22>    C       -3.37966         2.03985        -1.97182
| 23>    C       -3.37082         3.43036        -2.21455
| 24>    N       -3.38785         4.54596        -2.48314
| 25>    C       -3.76118         1.34035        -3.13619
| 26>    N       -4.07806         0.83885        -4.11942
| 27>    C       -3.00218         0.04610        -0.44989
| 28>    C       -2.25497        -0.08802         0.79684
| 29>    C       -1.53609        -1.17886         1.20589
| 30>    C       -1.43886        -2.38632         0.48494
| 31>    N       -1.29082        -3.37557        -0.07860
| 32>    C       -0.71516        -1.19441         2.35393
| 33>    N       -0.02785        -1.26806         3.26955
| 34>    C       -3.66391        -0.91807        -1.15984
| 35>    C       -4.03904        -2.20320        -0.71437
| 36>    C       -4.21627        -2.66685         0.58401
| 37>    C       -4.62456        -3.99070         0.61619
| 38>    C       -4.76879        -4.55550        -0.67059
| 39>    S       -4.43004        -3.43892        -1.90711
| 40>    C       -5.14278        -5.91254        -0.52544
| 41>    C       -5.23984        -6.20405         0.85298
| 42>    C       -4.91256        -5.00948         1.61145
| 43>    C       -4.84440        -4.86856         2.96681
| 44>    C       -5.13431        -5.92562         3.85509
| 45>    N       -5.37392        -6.77755         4.58370
| 46>    C       -4.47053        -3.64291         3.55714
| 47>    N       -4.16477        -2.63895         4.01968
| 48>    C       -5.58116        -7.52983         1.10105
| 49>    C       -5.73582        -8.23909        -0.07755
| 50>    S       -5.46786        -7.27040        -1.50898
| 51>    C       -6.03071        -9.62177        -0.23707
| 52>    N       -6.05969       -10.09927        -1.47774
| 53>    N       -6.24684       -11.34261        -1.76147
| 54>    C       -6.42961       -12.28440        -0.83124
| 55>    C       -6.46759       -11.88640         0.54194
| 56>    C       -6.25958       -10.50600         0.85455
| 57>    N       -6.31165       -10.27245         2.16152
| 58>    S       -6.59663       -11.66386         2.92209
| 59>    N       -6.66370       -12.62232         1.62865
| 60>    C       -6.54784       -13.65279        -1.17504
| 61>    C       -6.45698       -14.17765        -2.43800
| 62>    C       -6.28803       -13.50759        -3.67763
| 63>    C       -6.19357       -14.34499        -4.74485
| 64>    C       -6.27187       -15.71924        -4.40845
| 65>    S       -6.50712       -15.91292        -2.69137
| 66>    C       -6.14127       -16.80362        -5.25931
| 67>    C       -5.93272       -16.78250        -6.65782
| 68>    C       -5.78747       -18.02032        -7.20723
| 69>    C       -5.87113       -19.08112        -6.27265
| 70>    S       -6.16774       -18.44612        -4.66719
| 71>    C       -5.71613       -20.42347        -6.54222
| 72>    C       -5.78815       -21.41190        -5.55842
| 73>    C       -5.56731       -22.75210        -5.77513
| 74>    C       -5.61952       -23.80788        -4.79199
| 75>    C       -6.03529       -23.70559        -3.48714
| 76>    C       -6.49939       -22.52932        -2.86334
| 77>    N       -6.89493       -21.61982        -2.28329
| 78>    C       -6.07688       -24.78669        -2.58308
| 79>    N       -6.13560       -25.62000        -1.79488
| 80>    C       -5.17676       -25.04071        -5.44495
| 81>    C       -4.91703       -24.76793        -6.80047
| 82>    C       -5.16488       -23.34250        -7.07605
| 83>    O       -5.05005       -22.77690        -8.14538
| 84>    C       -4.48110       -25.75780        -7.65880
| 85>    C       -4.29580       -27.03554        -7.15265
| 86>    C       -4.53882       -27.32393        -5.81271
| 87>    C       -4.98534       -26.31846        -4.95304
| 88>    C       -4.33964       -28.70601        -5.27746
| 89>    H       -2.88155         4.27112        -0.01758
| 90>    H       -2.09179         4.99248         2.19019
| 91>    H       -1.37230         3.35200         3.87078
| 92>    H       -1.40853         0.94227         3.37041
| 93>    H       -3.99915        -0.66647        -2.15707
| 94>    H       -4.08848        -2.04551         1.45192
| 95>    H       -5.71056        -7.98379         2.06703
| 96>    H       -6.68585       -14.32591        -0.34048
| 97>    H       -6.23944       -12.43395        -3.70639
| 98>    H       -6.05874       -14.01675        -5.75959
| 99>    H       -5.89253       -15.86416        -7.21505
|100>    H       -5.61530       -18.20986        -8.25169
|101>    H       -5.51327       -20.71800        -7.56213
|102>    H       -6.01649       -21.07971        -4.55283
|103>    H       -4.28917       -25.52897        -8.69584
|104>    H       -3.95259       -27.82329        -7.80728
|105>    H       -5.16748       -26.55679        -3.91745
|106>    H       -3.78881       -29.32518        -5.98044
|107>    H       -5.30640       -29.17338        -5.09015
|108>    H       -3.80149       -28.67545        -4.33218
|109> *
|110>
|111>                          ****END OF INPUT****

CARTESIAN COORDINATES (ANGSTROEM)
---------------------------------
  C     -2.559260    3.537160    0.702390
  C     -2.113440    3.939960    1.952540
  C     -1.703920    3.013520    2.901270
  C     -1.717050    1.655010    2.623040
  C     -2.155290    1.242140    1.375990
  C     -2.587050    2.181920    0.412830
  C     -3.022300    1.467830   -0.780390
  C     -3.379660    2.039850   -1.971820
  C     -3.370820    3.430360   -2.214550
  N     -3.387850    4.545960   -2.483140
  C     -3.761180    1.340350   -3.136190
  N     -4.078060    0.838850   -4.119420
  C     -3.002180    0.046100   -0.449890
  C     -2.254970   -0.088020    0.796840
  C     -1.536090   -1.178860    1.205890
  C     -1.438860   -2.386320    0.484940
  N     -1.290820   -3.375570   -0.078600
  C     -0.715160   -1.194410    2.353930
  N     -0.027850   -1.268060    3.269550
  C     -3.663910   -0.918070   -1.159840
  C     -4.039040   -2.203200   -0.714370
  C     -4.216270   -2.666850    0.584010
  C     -4.624560   -3.990700    0.616190
  C     -4.768790   -4.555500   -0.670590
  S     -4.430040   -3.438920   -1.907110
  C     -5.142780   -5.912540   -0.525440
  C     -5.239840   -6.204050    0.852980
  C     -4.912560   -5.009480    1.611450
  C     -4.844400   -4.868560    2.966810
  C     -5.134310   -5.925620    3.855090
  N     -5.373920   -6.777550    4.583700
  C     -4.470530   -3.642910    3.557140
  N     -4.164770   -2.638950    4.019680
  C     -5.581160   -7.529830    1.101050
  C     -5.735820   -8.239090   -0.077550
  S     -5.467860   -7.270400   -1.508980
  C     -6.030710   -9.621770   -0.237070
  N     -6.059690  -10.099270   -1.477740
  N     -6.246840  -11.342610   -1.761470
  C     -6.429610  -12.284400   -0.831240
  C     -6.467590  -11.886400    0.541940
  C     -6.259580  -10.506000    0.854550
  N     -6.311650  -10.272450    2.161520
  S     -6.596630  -11.663860    2.922090
  N     -6.663700  -12.622320    1.628650
  C     -6.547840  -13.652790   -1.175040
  C     -6.456980  -14.177650   -2.438000
  C     -6.288030  -13.507590   -3.677630
  C     -6.193570  -14.344990   -4.744850
  C     -6.271870  -15.719240   -4.408450
  S     -6.507120  -15.912920   -2.691370
  C     -6.141270  -16.803620   -5.259310
  C     -5.932720  -16.782500   -6.657820
  C     -5.787470  -18.020320   -7.207230
  C     -5.871130  -19.081120   -6.272650
  S     -6.167740  -18.446120   -4.667190
  C     -5.716130  -20.423470   -6.542220
  C     -5.788150  -21.411900   -5.558420
  C     -5.567310  -22.752100   -5.775130
  C     -5.619520  -23.807880   -4.791990
  C     -6.035290  -23.705590   -3.487140
  C     -6.499390  -22.529320   -2.863340
  N     -6.894930  -21.619820   -2.283290
  C     -6.076880  -24.786690   -2.583080
  N     -6.135600  -25.620000   -1.794880
  C     -5.176760  -25.040710   -5.444950
  C     -4.917030  -24.767930   -6.800470
  C     -5.164880  -23.342500   -7.076050
  O     -5.050050  -22.776900   -8.145380
  C     -4.481100  -25.757800   -7.658800
  C     -4.295800  -27.035540   -7.152650
  C     -4.538820  -27.323930   -5.812710
  C     -4.985340  -26.318460   -4.953040
  C     -4.339640  -28.706010   -5.277460
  H     -2.881550    4.271120   -0.017580
  H     -2.091790    4.992480    2.190190
  H     -1.372300    3.352000    3.870780
  H     -1.408530    0.942270    3.370410
  H     -3.999150   -0.666470   -2.157070
  H     -4.088480   -2.045510    1.451920
  H     -5.710560   -7.983790    2.067030
  H     -6.685850  -14.325910   -0.340480
  H     -6.239440  -12.433950   -3.706390
  H     -6.058740  -14.016750   -5.759590
  H     -5.892530  -15.864160   -7.215050
  H     -5.615300  -18.209860   -8.251690
  H     -5.513270  -20.718000   -7.562130
  H     -6.016490  -21.079710   -4.552830
  H     -4.289170  -25.528970   -8.695840
  H     -3.952590  -27.823290   -7.807280
  H     -5.167480  -26.556790   -3.917450
  H     -3.788810  -29.325180   -5.980440
  H     -5.306400  -29.173380   -5.090150
  H     -3.801490  -28.675450   -4.332180

 Total Charge           Charge          ....    0
 Multiplicity           Mult            ....    1
 Number of Electrons    NEL             ....  528
 Basis Dimension        Dim             .... 1156

ORBITAL ENERGIES
----------------

  NO   OCC          E(Eh)            E(eV)
   0   2.0000     -89.051521     -2423.2151
   1   2.0000     -89.003251     -2421.9016
   2   2.0000     -88.995604     -2421.6935
   3   2.0000     -88.967586     -2420.9311
   4   2.0000     -88.966957     -2420.9140
   5   2.0000     -19.210872      -522.7544
   6   2.0000     -14.467283      -393.6748
   7   2.0000     -14.466869      -393.6635
   8   2.0000     -14.458450      -393.4344
   9   2.0000     -14.451021      -393.2323
  10   2.0000     -14.438594      -392.8941
  11   2.0000     -14.435607      -392.8128
  12   2.0000     -14.427209      -392.5843
  13   2.0000     -14.426269      -392.5587
  14   2.0000     -14.422497      -392.4561
  15   2.0000     -14.422031      -392.4434
  16   2.0000     -14.411814      -392.1654
  17   2.0000     -14.408536      -392.0762
  18   2.0000     -10.372375      -282.2467
  19   2.0000     -10.361026      -281.9379
  20   2.0000     -10.359819      -281.9050
  21   2.0000     -10.355324      -281.7827
  22   2.0000     -10.353837      -281.7422
  23   2.0000     -10.352800      -281.7140
  24   2.0000     -10.351890      -281.6892
  25   2.0000     -10.351349      -281.6745
  26   2.0000     -10.350543      -281.6526
  27   2.0000     -10.349233      -281.6170
  28   2.0000     -10.347255      -281.5631
  29   2.0000     -10.344302      -281.4828
  30   2.0000     -10.339853      -281.3617
  31   2.0000     -10.338911      -281.3361
  32   2.0000     -10.338089      -281.3137
  33   2.0000     -10.337340      -281.2933
  34   2.0000     -10.336708      -281.2761
  35   2.0000     -10.335793      -281.2512
  36   2.0000     -10.335787      -281.2511
  37   2.0000     -10.335488      -281.2429
  38   2.0000     -10.335239      -281.2361
  39   2.0000     -10.334132      -281.2060
  40   2.0000     -10.333843      -281.1982
  41   2.0000     -10.330647      -281.1112
  42   2.0000     -10.329325      -281.0752
  43   2.0000     -10.327694      -281.0309
  44   2.0000     -10.325518      -280.9716
  45   2.0000     -10.325123      -280.9609
  46   2.0000     -10.323999      -280.9303
  47   2.0000     -10.320489      -280.8348
  48   2.0000     -10.315959      -280.7115
  49   2.0000     -10.315630      -280.7026
  50   2.0000     -10.315383      -280.6958
  51   2.0000     -10.314748      -280.6786
  52   2.0000     -10.313624      -280.6480
  53   2.0000     -10.313425      -280.6426
  54   2.0000     -10.312043      -280.6049
  55   2.0000     -10.309102      -280.5249
  56   2.0000     -10.309098      -280.5248
  57   2.0000     -10.307125      -280.4711
  58   2.0000     -10.305113      -280.4164
  59   2.0000     -10.303264      -280.3661
  60   2.0000     -10.302875      -280.3555
  61   2.0000     -10.302054      -280.3332
  62   2.0000     -10.301393      -280.3151
  63   2.0000     -10.299599      -280.2663
  64   2.0000     -10.299141      -280.2539
  65   2.0000     -10.295543      -280.1560
  66   2.0000     -10.295281      -280.1488
  67   2.0000     -10.291145      -280.0363
  68   2.0000     -10.288917      -279.9757
  69   2.0000     -10.287813      -279.9456
  70   2.0000     -10.285186      -279.8741
  71   2.0000     -10.284626      -279.8589
  72   2.0000     -10.282331      -279.7964
  73   2.0000     -10.271132      -279.4917
  74   2.0000      -8.143068      -221.5842
  75   2.0000      -8.097904      -220.3552
  76   2.0000      -8.089418      -220.1243
  77   2.0000      -8.063758      -219.4260
  78   2.0000      -8.063571      -219.4209
  79   2.0000      -6.114274      -166.3778
  80   2.0000      -6.106371      -166.1628
  81   2.0000      -6.105589      -166.1415
  82   2.0000      -6.067038      -165.0925
  83   2.0000      -6.062880      -164.9794
  84   2.0000      -6.060408      -164.9121
  85   2.0000      -6.058688      -164.8653
  86   2.0000      -6.054341      -164.7470
  87   2.0000      -6.051937      -164.6816
  88   2.0000      -6.033374      -164.1764
  89   2.0000      -6.033241      -164.1728
  90   2.0000      -6.029364      -164.0673
  91   2.0000      -6.029169      -164.0620
  92   2.0000      -6.024811      -163.9434
  93   2.0000      -6.024520      -163.9355
  94   2.0000      -1.156001       -31.4564
  95   2.0000      -1.131245       -30.7827
  96   2.0000      -1.124361       -30.5954
  97   2.0000      -1.055544       -28.7228
  98   2.0000      -1.040487       -28.3131
  99   2.0000      -1.029278       -28.0081
 100   2.0000      -1.022302       -27.8183
 101   2.0000      -1.019135       -27.7321
 102   2.0000      -1.015253       -27.6264
 103   2.0000      -1.013641       -27.5826
 104   2.0000      -1.012449       -27.5501
 105   2.0000      -1.011549       -27.5257
 106   2.0000      -1.004682       -27.3388
 107   2.0000      -1.002886       -27.2899
 108   2.0000      -1.000527       -27.2257
 109   2.0000      -0.995618       -27.0921
 110   2.0000      -0.991158       -26.9708
 111   2.0000      -0.987956       -26.8837
 112   2.0000      -0.972875       -26.4733
 113   2.0000      -0.961073       -26.1521
 114   2.0000      -0.950399       -25.8617
 115   2.0000      -0.947150       -25.7733
 116   2.0000      -0.944256       -25.6945
 117   2.0000      -0.935250       -25.4494
 118   2.0000      -0.921269       -25.0690
 119   2.0000      -0.916861       -24.9491
 120   2.0000      -0.899868       -24.4866
 121   2.0000      -0.897248       -24.4154
 122   2.0000      -0.893067       -24.3016
 123   2.0000      -0.887793       -24.1581
 124   2.0000      -0.875359       -23.8197
 125   2.0000      -0.868905       -23.6441
 126   2.0000      -0.867364       -23.6022
 127   2.0000      -0.864828       -23.5332
 128   2.0000      -0.861770       -23.4499
 129   2.0000      -0.854471       -23.2513
 130   2.0000      -0.843951       -22.9651
 131   2.0000      -0.830847       -22.6085
 132   2.0000      -0.822196       -22.3731
 133   2.0000      -0.807516       -21.9736
 134   2.0000      -0.795494       -21.6465
 135   2.0000      -0.790268       -21.5043
 136   2.0000      -0.786051       -21.3895
 137   2.0000      -0.780558       -21.2401
 138   2.0000      -0.771872       -21.0037
 139   2.0000      -0.757333       -20.6081
 140   2.0000      -0.745106       -20.2754
 141   2.0000      -0.737283       -20.0625
 142   2.0000      -0.726557       -19.7706
 143   2.0000      -0.721889       -19.6436
 144   2.0000      -0.717373       -19.5207
 145   2.0000      -0.716704       -19.5025
 146   2.0000      -0.706853       -19.2344
 147   2.0000      -0.701271       -19.0826
 148   2.0000      -0.690886       -18.8000
 149   2.0000      -0.688163       -18.7259
 150   2.0000      -0.680779       -18.5249
 151   2.0000      -0.678821       -18.4716
 152   2.0000      -0.670723       -18.2513
 153   2.0000      -0.668163       -18.1816
 154   2.0000      -0.666546       -18.1376
 155   2.0000      -0.659238       -17.9388
 156   2.0000      -0.652425       -17.7534
 157   2.0000      -0.647630       -17.6229
 158   2.0000      -0.643103       -17.4997
 159   2.0000      -0.640907       -17.4400
 160   2.0000      -0.629768       -17.1369
 161   2.0000      -0.627492       -17.0749
 162   2.0000      -0.625298       -17.0152
 163   2.0000      -0.621692       -16.9171
 164   2.0000      -0.616099       -16.7649
 165   2.0000      -0.605823       -16.4853
 166   2.0000      -0.601320       -16.3628
 167   2.0000      -0.594856       -16.1869
 168   2.0000      -0.589646       -16.0451
 169   2.0000      -0.582906       -15.8617
 170   2.0000      -0.581437       -15.8217
 171   2.0000      -0.575928       -15.6718
 172   2.0000      -0.566571       -15.4172
 173   2.0000      -0.565240       -15.3810
 174   2.0000      -0.557253       -15.1636
 175   2.0000      -0.554795       -15.0967
 176   2.0000      -0.551381       -15.0038
 177   2.0000      -0.547527       -14.8990
 178   2.0000      -0.543813       -14.7979
 179   2.0000      -0.541251       -14.7282
 180   2.0000      -0.540317       -14.7028
 181   2.0000      -0.533294       -14.5117
 182   2.0000      -0.532338       -14.4857
 183   2.0000      -0.526500       -14.3268
 184   2.0000      -0.525833       -14.3086
 185   2.0000      -0.524543       -14.2735
 186   2.0000      -0.518763       -14.1163
 187   2.0000      -0.518337       -14.1047
 188   2.0000      -0.516192       -14.0463
 189   2.0000      -0.515694       -14.0328
 190   2.0000      -0.512433       -13.9440
 191   2.0000      -0.511879       -13.9289
 192   2.0000      -0.509522       -13.8648
 193   2.0000      -0.507135       -13.7999
 194   2.0000      -0.505897       -13.7662
 195   2.0000      -0.504901       -13.7391
 196   2.0000      -0.503222       -13.6934
 197   2.0000      -0.500219       -13.6116
 198   2.0000      -0.497954       -13.5500
 199   2.0000      -0.495765       -13.4905
 200   2.0000      -0.489684       -13.3250
 201   2.0000      -0.486522       -13.2389
 202   2.0000      -0.483892       -13.1674
 203   2.0000      -0.483821       -13.1654
 204   2.0000      -0.482525       -13.1302
 205   2.0000      -0.478837       -13.0298
 206   2.0000      -0.468708       -12.7542
 207   2.0000      -0.468594       -12.7511
 208   2.0000      -0.468233       -12.7413
 209   2.0000      -0.465379       -12.6636
 210   2.0000      -0.462046       -12.5729
 211   2.0000      -0.461936       -12.5699
 212   2.0000      -0.459994       -12.5171
 213   2.0000      -0.458645       -12.4804
 214   2.0000      -0.457540       -12.4503
 215   2.0000      -0.456949       -12.4342
 216   2.0000      -0.451365       -12.2823
 217   2.0000      -0.450307       -12.2535
 218   2.0000      -0.449452       -12.2302
 219   2.0000      -0.448169       -12.1953
 220   2.0000      -0.447023       -12.1641
 221   2.0000      -0.446803       -12.1581
 222   2.0000      -0.446307       -12.1446
 223   2.0000      -0.444363       -12.0917
 224   2.0000      -0.443630       -12.0718
 225   2.0000      -0.442453       -12.0398
 226   2.0000      -0.440697       -11.9920
 227   2.0000      -0.439699       -11.9648
 228   2.0000      -0.437189       -11.8965
 229   2.0000      -0.436360       -11.8740
 230   2.0000      -0.434535       -11.8243
 231   2.0000      -0.434104       -11.8126
 232   2.0000      -0.433250       -11.7893
 233   2.0000      -0.430435       -11.7127
 234   2.0000      -0.425436       -11.5767
 235   2.0000      -0.421980       -11.4827
 236   2.0000      -0.421401       -11.4669
 237   2.0000      -0.418719       -11.3939
 238   2.0000      -0.416731       -11.3398
 239   2.0000      -0.416152       -11.3241
 240   2.0000      -0.414476       -11.2785
 241   2.0000      -0.403752       -10.9867
 242   2.0000      -0.402043       -10.9402
 243   2.0000      -0.401481       -10.9249
 244   2.0000      -0.396290       -10.7836
 245   2.0000      -0.393577       -10.7098
 246   2.0000      -0.388409       -10.5691
 247   2.0000      -0.384743       -10.4694
 248   2.0000      -0.378245       -10.2926
 249   2.0000      -0.361889        -9.8475
 250   2.0000      -0.356639        -9.7047
 251   2.0000      -0.356448        -9.6994
 252   2.0000      -0.344422        -9.3722
 253   2.0000      -0.341260        -9.2862
 254   2.0000      -0.337029        -9.1710
 255   2.0000      -0.330296        -8.9878
 256   2.0000      -0.330065        -8.9815
 257   2.0000      -0.327975        -8.9247
 258   2.0000      -0.318300        -8.6614
 259   2.0000      -0.315020        -8.5721
 260   2.0000      -0.310250        -8.4423
 261   2.0000      -0.299016        -8.1366
 262   2.0000      -0.271781        -7.3955
 263   2.0000      -0.236328        -6.4308
 264   0.0000      -0.130378        -3.5478
 265   0.0000      -0.114246        -3.1088
 266   0.0000      -0.097637        -2.6568
 267   0.0000      -0.090697        -2.4680
 268   0.0000      -0.085739        -2.3331

MULLIKEN ATOMIC CHARGES
-----------------------
   0 C :   -0.031649
   1 C :    0.044359
   2 C :    0.049589
   3 C :   -0.024085
   4 C :   -0.002719
   5 C :    0.014578
   6 C :    0.295426
   7 C :   -0.345020
   8 C :   -0.188890
   9 N :    0.160623
  10 C :   -0.179550
  11 N :    0.154403
  12 C :   -0.069962
  13 C :    0.227418
  14 C :   -0.337091
  15 C :   -0.195344
  16 N :    0.179722
  17 C :   -0.178608
  18 N :    0.173143
  19 C :    0.085557
  20 C :   -0.146090
  21 C :   -0.002093
  22 C :   -0.005808
  23 C :   -0.069740
  24 S :    0.237690
  25 C :   -0.094853
  26 C :    0.023629
  27 C :    0.308808
  28 C :   -0.291653
  29 C :   -0.188711
  30 N :    0.180404
  31 C :   -0.183416
  32 N :    0.168170
  33 C :   -0.057493
  34 C :   -0.120203
  35 S :    0.252631
  36 C :   -0.004717
  37 N :   -0.055480
  38 N :   -0.095215
  39 C :   -0.006832
  40 C :    0.032352
  41 C :    0.037103
  42 N :   -0.255438
  43 S :    0.549237
  44 N :   -0.248521
  45 C :   -0.004913
  46 C :   -0.048727
  47 C :    0.047426
  48 C :    0.037853
  49 C :   -0.043570
  50 S :    0.132525
  51 C :   -0.041256
  52 C :    0.041967
  53 C :    0.036727
  54 C :    0.000180
  55 S :    0.116943
  56 C :   -0.019880
  57 C :   -0.043736
  58 C :   -0.085053
  59 C :    0.324009
  60 C :   -0.354778
  61 C :   -0.192478
  62 N :    0.143227
  63 C :   -0.184543
  64 N :    0.144898
  65 C :    0.045338
  66 C :   -0.015983
  67 C :    0.144560
  68 O :   -0.159729
  69 C :   -0.022960
  70 C :    0.006008
  71 C :   -0.039551
  72 C :   -0.075725
  73 C :    0.094498
  74 H :    0.007457
  75 H :    0.006162
  76 H :    0.006360
  77 H :    0.014486
  78 H :    0.014040
  79 H :    0.031779
  80 H :    0.019839
  81 H :    0.000766
  82 H :    0.025482
  83 H :   -0.004022
  84 H :   -0.000085
  85 H :    0.005464
  86 H :    0.022873
  87 H :    0.020043
  88 H :   -0.009192
  89 H :   -0.018061
  90 H :   -0.012678
  91 H :    0.013879
  92 H :    0.041835
  93 H :    0.034636
Sum of atomic charges:   -0.0000000

LOEWDIN ATOMIC CHARGES
----------------------
   0 C :    0.005244
   1 C :    0.003024
   2 C :    0.006897
   3 C :    0.005902
   4 C :   -0.009943
   5 C :   -0.013759
   6 C :    0.078860
   7 C :   -0.134232
   8 C :   -0.019412
   9 N :   -0.045120
  10 C :   -0.021281
  11 N :   -0.045712
  12 C :   -0.056176
  13 C :    0.066336
  14 C :   -0.127787
  15 C :   -0.017853
  16 N :   -0.042095
  17 C :   -0.020362
  18 N :   -0.038109
  19 C :    0.035966
  20 C :   -0.182500
  21 C :    0.006153
  22 C :   -0.063571
  23 C :   -0.153412
  24 S :    0.516400
  25 C :   -0.181263
  26 C :   -0.060230
  27 C :    0.080520
  28 C :   -0.097659
  29 C :   -0.018083
  30 N :   -0.025418
  31 C :   -0.012791
  32 N :   -0.034209
  33 C :   -0.014684
  34 C :   -0.166395
  35 S :    0.524128
  36 C :   -0.040514
  37 N :   -0.060858
  38 N :   -0.058444
  39 C :   -0.008872
  40 C :   -0.056347
  41 C :   -0.056407
  42 N :   -0.268811
  43 S :    0.677830
  44 N :   -0.265738
  45 C :   -0.058587
  46 C :   -0.111429
  47 C :   -0.015785
  48 C :   -0.016868
  49 C :   -0.162150
  50 S :    0.407899
  51 C :   -0.172667
  52 C :   -0.010880
  53 C :   -0.026864
  54 C :   -0.109369
  55 S :    0.412806
  56 C :   -0.057798
  57 C :    0.046993
  58 C :   -0.092443
  59 C :    0.073077
  60 C :   -0.143678
  61 C :   -0.020780
  62 N :   -0.057189
  63 C :   -0.018068
  64 N :   -0.059287
  65 C :   -0.009360
  66 C :   -0.051679
  67 C :    0.083623
  68 O :   -0.151989
  69 C :    0.015453
  70 C :   -0.012623
  71 C :    0.000012
  72 C :   -0.006098
  73 C :   -0.043539
  74 H :    0.041899
  75 H :    0.038354
  76 H :    0.038629
  77 H :    0.043804
  78 H :    0.045805
  79 H :    0.042980
  80 H :    0.042045
  81 H :    0.039842
  82 H :    0.039494
  83 H :    0.036081
  84 H :    0.037198
  85 H :    0.041252
  86 H :    0.040594
  87 H :    0.032732
  88 H :    0.038106
  89 H :    0.030151
  90 H :    0.036279
  91 H :    0.030659
  92 H :    0.044029
  93 H :    0.040121

  Mayer bond orders larger than 0.100000
B(  0-C ,  1-C ) :   1.3713 B(  0-C ,  5-C ) :   1.3813 B(  0-C , 74-H ) :   0.9831
B(  1-C ,  2-C ) :   1.3768 B(  1-C , 75-H ) :   0.9865 B(  2-C ,  3-C ) :   1.3671
B(  2-C , 76-H ) :   0.9859 B(  3-C ,  4-C ) :   1.3822 B(  3-C , 77-H ) :   0.9863
B(  4-C ,  5-C ) :   1.3104 B(  4-C , 13-C ) :   1.0093 B(  5-C ,  6-C ) :   0.9979
B(  6-C ,  7-C ) :   1.6351 B(  6-C , 12-C ) :   1.0642 B(  7-C ,  8-C ) :   1.1473
B(  7-C , 10-C ) :   1.1371 B(  8-C ,  9-N ) :   2.9780 B( 10-C , 11-N ) :   2.9665
B( 12-C , 13-C ) :   1.0120 B( 12-C , 19-C ) :   1.6231 B( 13-C , 14-C ) :   1.6609
B( 14-C , 15-C ) :   1.1598 B( 14-C , 17-C ) :   1.1383 B( 15-C , 16-N ) :   3.0064
B( 17-C , 18-N ) :   2.9996 B( 19-C , 20-C ) :   1.1782 B( 19-C , 78-H ) :   0.9131
B( 20-C , 21-C ) :   1.3780 B( 20-C , 24-S ) :   1.0980 B( 21-C , 22-C ) :   1.3678
B( 21-C , 79-H ) :   0.9832 B( 22-C , 23-C ) :   1.4005 B( 22-C , 27-C ) :   0.9934
B( 23-C , 24-S ) :   1.1612 B( 23-C , 25-C ) :   1.2061 B( 25-C , 26-C ) :   1.4209
B( 25-C , 35-S ) :   1.1156 B( 26-C , 27-C ) :   0.9967 B( 26-C , 33-C ) :   1.2696
B( 27-C , 28-C ) :   1.7156 B( 28-C , 29-C ) :   1.1369 B( 28-C , 31-C ) :   1.1349
B( 29-C , 30-N ) :   2.9913 B( 31-C , 32-N ) :   2.9774 B( 33-C , 34-C ) :   1.4760
B( 33-C , 80-H ) :   0.9839 B( 34-C , 35-S ) :   1.0975 B( 34-C , 36-C ) :   1.1641
B( 36-C , 37-N ) :   1.6888 B( 36-C , 39-C ) :   0.1095 B( 36-C , 41-C ) :   1.1267
B( 37-N , 38-N ) :   1.2641 B( 38-N , 39-C ) :   1.5480 B( 39-C , 40-C ) :   1.0890
B( 39-C , 45-C ) :   1.2511 B( 40-C , 41-C ) :   1.1880 B( 40-C , 44-N ) :   1.5778
B( 41-C , 42-N ) :   1.5570 B( 42-N , 43-S ) :   1.2632 B( 42-N , 44-N ) :   0.1409
B( 43-S , 44-N ) :   1.2766 B( 45-C , 46-C ) :   1.5034 B( 45-C , 81-H ) :   0.9552
B( 46-C , 47-C ) :   1.1753 B( 46-C , 50-S ) :   1.0536 B( 47-C , 48-C ) :   1.5647
B( 47-C , 82-H ) :   0.9786 B( 48-C , 49-C ) :   1.1806 B( 48-C , 83-H ) :   0.9962
B( 49-C , 50-S ) :   1.0705 B( 49-C , 51-C ) :   1.4801 B( 51-C , 52-C ) :   1.1936
B( 51-C , 55-S ) :   1.0571 B( 52-C , 53-C ) :   1.5676 B( 52-C , 84-H ) :   0.9957
B( 53-C , 54-C ) :   1.1554 B( 53-C , 85-H ) :   1.0023 B( 54-C , 55-S ) :   1.0697
B( 54-C , 56-C ) :   1.4625 B( 56-C , 57-C ) :   1.2128 B( 56-C , 86-H ) :   0.9768
B( 57-C , 58-C ) :   1.5339 B( 57-C , 87-H ) :   0.9446 B( 58-C , 59-C ) :   1.0905
B( 58-C , 67-C ) :   0.9487 B( 59-C , 60-C ) :   1.6092 B( 59-C , 65-C ) :   0.9740
B( 60-C , 61-C ) :   1.1495 B( 60-C , 63-C ) :   1.1498 B( 61-C , 62-N ) :   2.9645
B( 63-C , 64-N ) :   2.9643 B( 65-C , 66-C ) :   1.3272 B( 65-C , 72-C ) :   1.3772
B( 66-C , 67-C ) :   0.9490 B( 66-C , 69-C ) :   1.3875 B( 67-C , 68-O ) :   2.1883
B( 69-C , 70-C ) :   1.3386 B( 69-C , 88-H ) :   1.0059 B( 70-C , 71-C ) :   1.3957
B( 70-C , 89-H ) :   0.9891 B( 71-C , 72-C ) :   1.3460 B( 71-C , 73-C ) :   1.0534
B( 72-C , 90-H ) :   0.9862 B( 73-C , 91-H ) :   0.9595 B( 73-C , 92-H ) :   0.9511
B( 73-C , 93-H ) :   0.9550

-----------------------------------------------------------------------------
         ABSORPTION SPECTRUM VIA TRANSITION ELECTRIC DIPOLE MOMENTS
-----------------------------------------------------------------------------
State   Energy  Wavelength   fosc         T2         TX        TY        TZ
        (cm-1)    (nm)                  (au**2)     (au)      (au)      (au)
-----------------------------------------------------------------------------
   0   10229.2    977.6   1.976421103  63.60854   0.44548   7.56816   2.47650
   1   13580.1    736.4   0.144323864   3.49874  -0.65381   1.34157   1.12760
   2   17428.6    573.8   0.039106728   0.73869  -0.08372   0.78437  -0.34124
   3   18112.2    552.1   0.277895548   5.05110   1.43243   1.73178   0.01329
   4   19015.2    525.9   0.013138404   0.22747   0.18794   0.43198  -0.07443
   5   19368.2    516.3   0.120167387   2.04255  -0.44625  -1.16326   0.70017
   6   21033.4    475.4   0.003931950   0.06154  -0.18265   0.05134   0.15983
   7   22080.4    452.9   0.218964344   3.26470   0.07064  -1.48128   1.03224
   8   23580.4    424.1   0.058187118   0.81237   0.08536  -0.66556  -0.60175
   9   24040.0    416.0   0.119309531   1.63387  -0.48897  -0.38537   1.11636
  10   24641.0    405.8   0.055469138   0.74109  -0.04655   0.06184   0.85738
  11   25641.9    390.0   0.079376367   1.01910  -0.21155  -0.62951   0.76031
  12   26170.2    382.1   0.005146490   0.06474  -0.01423  -0.25339   0.01828
  13   26708.4    374.4   0.008490568   0.10466   0.19587  -0.09292   0.24012
  14   26903.8    371.7   0.089503284   1.09522  -0.14281   0.39606  -0.95810
  15   26969.6    370.8   0.146661789   1.79027  -0.30166   1.05151   0.77046
  16   27249.8    367.0   0.083313652   1.00654  -0.07436   0.79297  -0.61008
  17   28535.8    350.4   0.035952613   0.41478   0.11626   0.51417  -0.36999
  18   28621.8    349.4   0.046990225   0.54049  -0.06916  -0.39131   0.61853
  19   29157.8    343.0   0.158738103   1.79227   0.12536   0.98445   0.89856
  20   29727.1    336.4   0.139109100   1.54056  -0.27396  -0.26537  -1.18114
  21   30022.8    333.1   0.002951719   0.03237   0.10772   0.11955  -0.08044
  22   30398.6    329.0   0.049904627   0.54046  -0.19319   0.65511  -0.27197
  23   30769.8    325.0   0.090517537   0.96846   0.12438   0.40113   0.88999
  24   30873.7    323.9   0.013058938   0.13925  -0.24862  -0.26959   0.06901
  25   31632.0    316.1   0.113748088   1.18384   0.13057  -1.00394  -0.39861
  26   31988.5    312.6   0.196758930   2.02496   0.19427   1.31710  -0.50246
  27   32200.8    310.6   0.002033224   0.02079   0.04713  -0.07669  -0.11263
  28   32461.7    308.1   0.045880263   0.46530   0.00634  -0.47628   0.48828
  29   32636.3    306.4   0.511221818   5.15684  -0.75266   1.97302  -0.83519
  30   32957.9    303.4   0.130600072   1.30455   0.75349   0.38308   0.76815
  31   33178.5    301.4   0.347483006   3.44788  -0.37540   0.08753  -1.81640
  32   33592.9    297.7   0.036744794   0.36010  -0.02130   0.58299   0.14059
  33   33913.5    294.9   0.142473063   1.38304   0.05598   0.93514  -0.71094
  34   34579.0    289.2   0.033134810   0.31546   0.05260   0.47914   0.28831
  35   34781.2    287.5   0.148671662   1.40721   0.26708   0.87547  -0.75460
  36   34854.6    286.9   0.343087988   3.24057  -0.05874   1.02586   1.47808
  37   35403.8    282.5   0.021694271   0.20173  -0.08868  -0.33396  -0.28695
  38   35421.0    282.3   0.078706652   0.73152   0.00451  -0.25376   0.81676
  39   35620.4    280.7   0.001468604   0.01357   0.05628  -0.07657   0.06740
  40   35943.3    278.2   0.071089898   0.65113   0.36453  -0.50302  -0.51499
  41   36083.5    277.1   0.000567104   0.00517   0.04837   0.01266   0.05171
  42   36190.0    276.3   0.022507054   0.20474  -0.12563   0.36568   0.23502
  43   36522.0    273.8   0.123402412   1.11236   0.23542   0.47095   0.91386
  44   36762.4    272.0   0.088888939   0.79601   0.14908   0.86778   0.14402
  45   37295.9    268.1   0.198603920   1.75308  -0.27799   1.11617   0.65572
  46   37568.0    266.2   0.030650061   0.26859  -0.38716   0.04235   0.34190
  47   37734.5    265.0   0.339409245   2.96115  -0.50662   0.59562   1.53288
  48   37877.2    264.0   0.019900228   0.17296   0.03215  -0.36403  -0.19852
  49   38347.3    260.8   0.009449883   0.08113  -0.10889  -0.21217  -0.15574
  50   38550.0    259.4   0.001567850   0.01339   0.00981   0.05200  -0.10290
  51   38862.6    257.3   0.070605992   0.59812   0.36263   0.62031  -0.28606
  52   38964.3    256.6   0.067108349   0.56700   0.20065   0.58491   0.42968
  53   39156.5    255.4   0.026798762   0.22531  -0.16241  -0.34820   0.27873
  54   39330.4    254.3   0.078214743   0.65469  -0.08187  -0.36098   0.71950
  55   39575.0    252.7   0.040930170   0.34048  -0.05405  -0.42981   0.39093
  56   39653.3    252.2   0.058347369   0.48441   0.05087  -0.04869  -0.69243
  57   39960.4    250.2   0.004071107   0.03354   0.12916   0.04126   0.12311
  58   40023.0    249.9   0.004315362   0.03550   0.02813  -0.18497  -0.02220
  59   40140.1    249.1   0.091422155   0.74981   0.17103   0.82043  -0.21782

FINAL SINGLE POINT ENERGY     -4864.662695655740

DIPOLE MOMENT
-------------
                                X             Y             Z
Electronic contribution:     -6.76813      63.00437      26.76648
Nuclear contribution   :      6.16686     -63.74405     -28.11070
                        -----------------------------------------
Total Dipole Moment    :     -0.60127      -0.73968      -1.34422
                        -----------------------------------------
Magnitude (a.u.)       :      1.64790
Magnitude (Debye)      :      4.18863

Rotational constants in cm-1:     0.002321     0.000164     0.000158
Rotational constants in MHz :    69.582376     4.918137     4.730237

                             ****ORCA TERMINATED NORMALLY****
TOTAL RUN TIME: 0 days 0 hours 15 minutes 17 seconds 910 msec
