                         Program Version 4.2.0 -  RELEASE  -
|  1> # ORCA input file
|  2> # SCF done       -186.888574147028          0.000970194551
|  3> ! CAM-B3LYP def2-SVP def2/J RIJCOSX Grid4 TightSCF
|  4> %maxcore 5000
|  5> %tddft
|  6>     Mode sTDDFT
|  7>     Ethresh 5.0
|  8>     maxcore 5000
|  9> end
| 10>
| 11> %pal
| 12>   nprocs 6
| 13>   end
| 14> * xyz 0 1
| 15>    C       -4.79328        -0.13559         7.96032
| 16>    C       -5.05427        -0.73857         9.18195
| 17>    C       -4.86452        -2.10106         9.36492
| 18>    C       -4.39813        -2.90012         8.33196
| 19>    C       -4.13342        -2.30840         7.10835
| 20>    C       -4.33620        -0.92297         6.91522
| 21>    C       -4.00299        -0.58329         5.53700
| 22>    C       -3.96295         0.67865         5.00850
| 23>    C       -4.23360         1.85267         5.74413
| 24>    N       -4.43864         2.84557         6.28162
| 25>    C       -3.61274         0.99826         3.67940
| 26>    N       -3.34126         1.33144         2.61474
| 27>    C       -3.74175        -1.84231         4.84738
| 28>    C       -3.60722        -2.86849         5.87451
| 29>    C       -2.85422        -4.00874         5.77880
| 30>    C       -2.09276        -4.35172         4.64200
| 31>    N       -1.43153        -4.64882         3.75177
| 32>    C       -2.68207        -4.92837         6.83337
| 33>    N       -2.52199        -5.72123         7.64750
| 34>    C       -3.73437        -2.00027         3.48861
| 35>    C       -3.92357        -3.18346         2.74292
| 36>    C       -3.57501        -3.35570         1.40956
| 37>    C       -3.91898        -4.61252         0.92966
| 38>    C       -4.58685        -5.40188         1.89288
| 39>    S       -4.76887        -4.59889         3.38198
| 40>    C       -4.88651        -6.65669         1.32645
| 41>    C       -4.39993        -6.67860         0.00224
| 42>    C       -3.78430        -5.38944        -0.28900
| 43>    C       -3.20235        -5.00484        -1.46028
| 44>    C       -3.13145        -5.86665        -2.57546
| 45>    N       -3.07845        -6.56760        -3.48116
| 46>    C       -2.64110        -3.72193        -1.63998
| 47>    N       -2.18860        -2.68106        -1.79880
| 48>    C       -4.61716        -7.89156        -0.63561
| 49>    C       -5.26893        -8.81085         0.18218
| 50>    S       -5.61946        -8.13712         1.76784
| 51>    C       -5.63945       -10.14682        -0.08334
| 52>    C       -5.37130       -10.80645        -1.26600
| 53>    C       -5.79510       -12.15760        -1.33415
| 54>    C       -6.43061       -12.64983        -0.21220
| 55>   Si       -6.53321       -11.30414         1.08275
| 56>    C       -6.90474       -13.97372        -0.08383
| 57>    C       -6.79029       -15.04650        -0.96242
| 58>    C       -7.36947       -16.20394        -0.45969
| 59>    C       -7.94595       -16.02523         0.81601
| 60>    S       -7.75805       -14.42572         1.38639
| 61>    C       -8.50671       -17.25107         1.23622
| 62>    C       -8.27456       -18.21599         0.22940
| 63>    C       -7.56546       -17.58707        -0.86936
| 64>    C       -7.19524       -18.17105        -2.04521
| 65>    C       -7.47521       -19.52894        -2.30782
| 66>    N       -7.70796       -20.63543        -2.49838
| 67>    C       -6.51679       -17.45922        -3.05630
| 68>    N       -5.96047       -16.87518        -3.87093
| 69>    C       -8.80132       -19.45985         0.53959
| 70>    C       -9.45238       -19.46526         1.76746
| 71>    S       -9.36201       -17.89192         2.55888
| 72>    C      -10.08174       -20.52332         2.45466
| 73>    C      -10.51107       -21.72214         1.95511
| 74>    C      -10.75242       -22.90343         2.77991
| 75>    C      -10.97106       -22.94410         4.13051
| 76>    C      -11.04230       -21.82269         4.98415
| 77>    N      -11.12209       -20.95626         5.73338
| 78>    C      -11.20938       -24.13191         4.85542
| 79>    N      -11.40641       -25.05597         5.50664
| 80>    C      -10.72762       -24.05150         1.88343
| 81>    C      -10.66298       -23.58766         0.55001
| 82>    C      -10.59478       -24.47851        -0.50789
| 83>    C      -10.59831       -25.83681        -0.22744
| 84>    C      -10.67548       -26.29553         1.08015
| 85>    C      -10.74022       -25.41206         2.14753
| 86>    C      -10.69637       -22.13340         0.56725
| 87>    C      -11.10568       -21.34379        -0.47324
| 88>    C      -11.40536       -21.83556        -1.76226
| 89>    N      -11.67222       -22.17697        -2.82430
| 90>    C      -11.37661       -19.96493        -0.36509
| 91>    N      -11.63819       -18.84775        -0.32471
| 92>    H       -4.95093         0.92313         7.83749
| 93>    H       -5.41404        -0.13509        10.00113
| 94>    H       -5.08243        -2.54746        10.32298
| 95>    H       -4.25967        -3.95879         8.48113
| 96>    H       -3.63990        -1.11051         2.87914
| 97>    H       -3.06013        -2.59617         0.84903
| 98>    H       -4.31996        -8.11541        -1.64329
| 99>    H       -4.86391       -10.35124        -2.10210
|100>    H       -5.61675       -12.74094        -2.22387
|101>    H       -5.77712       -11.61235         2.29579
|102>    H       -7.90177       -10.88042         1.37618
|103>    H       -6.29842       -14.97298        -1.91466
|104>    H       -8.68447       -20.33840        -0.06837
|105>    H      -10.16871       -20.37329         3.52264
|106>    H      -10.52232       -24.13193        -1.52599
|107>    H      -10.53710       -26.54488        -1.03947
|108>    H      -10.67888       -27.35716         1.27417
|109>    H      -10.78999       -25.78699         3.15649
|110> *
|111>
|112>                          ****END OF INPUT****

CARTESIAN COORDINATES (ANGSTROEM)
---------------------------------
  C     -4.793280   -0.135590    7.960320
  C     -5.054270   -0.738570    9.181950
  C     -4.864520   -2.101060    9.364920
  C     -4.398130   -2.900120    8.331960
  C     -4.133420   -2.308400    7.108350
  C     -4.336200   -0.922970    6.915220
  C     -4.002990   -0.583290    5.537000
  C     -3.962950    0.678650    5.008500
  C     -4.233600    1.852670    5.744130
  N     -4.438640    2.845570    6.281620
  C     -3.612740    0.998260    3.679400
  N     -3.341260    1.331440    2.614740
  C     -3.741750   -1.842310    4.847380
  C     -3.607220   -2.868490    5.874510
  C     -2.854220   -4.008740    5.778800
  C     -2.092760   -4.351720    4.642000
  N     -1.431530   -4.648820    3.751770
  C     -2.682070   -4.928370    6.833370
  N     -2.521990   -5.721230    7.647500
  C     -3.734370   -2.000270    3.488610
  C     -3.923570   -3.183460    2.742920
  C     -3.575010   -3.355700    1.409560
  C     -3.918980   -4.612520    0.929660
  C     -4.586850   -5.401880    1.892880
  S     -4.768870   -4.598890    3.381980
  C     -4.886510   -6.656690    1.326450
  C     -4.399930   -6.678600    0.002240
  C     -3.784300   -5.389440   -0.289000
  C     -3.202350   -5.004840   -1.460280
  C     -3.131450   -5.866650   -2.575460
  N     -3.078450   -6.567600   -3.481160
  C     -2.641100   -3.721930   -1.639980
  N     -2.188600   -2.681060   -1.798800
  C     -4.617160   -7.891560   -0.635610
  C     -5.268930   -8.810850    0.182180
  S     -5.619460   -8.137120    1.767840
  C     -5.639450  -10.146820   -0.083340
  C     -5.371300  -10.806450   -1.266000
  C     -5.795100  -12.157600   -1.334150
  C     -6.430610  -12.649830   -0.212200
  Si    -6.533210  -11.304140    1.082750
  C     -6.904740  -13.973720   -0.083830
  C     -6.790290  -15.046500   -0.962420
  C     -7.369470  -16.203940   -0.459690
  C     -7.945950  -16.025230    0.816010
  S     -7.758050  -14.425720    1.386390
  C     -8.506710  -17.251070    1.236220
  C     -8.274560  -18.215990    0.229400
  C     -7.565460  -17.587070   -0.869360
  C     -7.195240  -18.171050   -2.045210
  C     -7.475210  -19.528940   -2.307820
  N     -7.707960  -20.635430   -2.498380
  C     -6.516790  -17.459220   -3.056300
  N     -5.960470  -16.875180   -3.870930
  C     -8.801320  -19.459850    0.539590
  C     -9.452380  -19.465260    1.767460
  S     -9.362010  -17.891920    2.558880
  C    -10.081740  -20.523320    2.454660
  C    -10.511070  -21.722140    1.955110
  C    -10.752420  -22.903430    2.779910
  C    -10.971060  -22.944100    4.130510
  C    -11.042300  -21.822690    4.984150
  N    -11.122090  -20.956260    5.733380
  C    -11.209380  -24.131910    4.855420
  N    -11.406410  -25.055970    5.506640
  C    -10.727620  -24.051500    1.883430
  C    -10.662980  -23.587660    0.550010
  C    -10.594780  -24.478510   -0.507890
  C    -10.598310  -25.836810   -0.227440
  C    -10.675480  -26.295530    1.080150
  C    -10.740220  -25.412060    2.147530
  C    -10.696370  -22.133400    0.567250
  C    -11.105680  -21.343790   -0.473240
  C    -11.405360  -21.835560   -1.762260
  N    -11.672220  -22.176970   -2.824300
  C    -11.376610  -19.964930   -0.365090
  N    -11.638190  -18.847750   -0.324710
  H     -4.950930    0.923130    7.837490
  H     -5.414040   -0.135090   10.001130
  H     -5.082430   -2.547460   10.322980
  H     -4.259670   -3.958790    8.481130
  H     -3.639900   -1.110510    2.879140
  H     -3.060130   -2.596170    0.849030
  H     -4.319960   -8.115410   -1.643290
  H     -4.863910  -10.351240   -2.102100
  H     -5.616750  -12.740940   -2.223870
  H     -5.777120  -11.612350    2.295790
  H     -7.901770  -10.880420    1.376180
  H     -6.298420  -14.972980   -1.914660
  H     -8.684470  -20.338400   -0.068370
  H    -10.168710  -20.373290    3.522640
  H    -10.522320  -24.131930   -1.525990
  H    -10.537100  -26.544880   -1.039470
  H    -10.678880  -27.357160    1.274170
  H    -10.789990  -25.786990    3.156490

 Total Charge           Charge          ....    0
 Multiplicity           Mult            ....    1
 Number of Electrons    NEL             ....  540
 Basis Dimension        Dim             .... 1188

ORBITAL ENERGIES
----------------

  NO   OCC          E(Eh)            E(eV)
   0   2.0000     -89.007334     -2422.0127
   1   2.0000     -89.006291     -2421.9843
   2   2.0000     -89.005431     -2421.9609
   3   2.0000     -89.005353     -2421.9588
   4   2.0000     -66.226627     -1802.1181
   5   2.0000     -14.444530      -393.0557
   6   2.0000     -14.443387      -393.0245
   7   2.0000     -14.442218      -392.9927
   8   2.0000     -14.440097      -392.9350
   9   2.0000     -14.429510      -392.6469
  10   2.0000     -14.429400      -392.6439
  11   2.0000     -14.429168      -392.6376
  12   2.0000     -14.428359      -392.6156
  13   2.0000     -14.427976      -392.6052
  14   2.0000     -14.424470      -392.5098
  15   2.0000     -14.424391      -392.5076
  16   2.0000     -14.424043      -392.4982
  17   2.0000     -10.379663      -282.4450
  18   2.0000     -10.378474      -282.4126
  19   2.0000     -10.366774      -282.0943
  20   2.0000     -10.365007      -282.0462
  21   2.0000     -10.359627      -281.8998
  22   2.0000     -10.357998      -281.8555
  23   2.0000     -10.357887      -281.8524
  24   2.0000     -10.356561      -281.8164
  25   2.0000     -10.356068      -281.8029
  26   2.0000     -10.355978      -281.8005
  27   2.0000     -10.355656      -281.7917
  28   2.0000     -10.354965      -281.7729
  29   2.0000     -10.354821      -281.7690
  30   2.0000     -10.354398      -281.7575
  31   2.0000     -10.346801      -281.5508
  32   2.0000     -10.345094      -281.5043
  33   2.0000     -10.344502      -281.4882
  34   2.0000     -10.344348      -281.4840
  35   2.0000     -10.343348      -281.4568
  36   2.0000     -10.343331      -281.4563
  37   2.0000     -10.342105      -281.4230
  38   2.0000     -10.340056      -281.3672
  39   2.0000     -10.339526      -281.3528
  40   2.0000     -10.339522      -281.3527
  41   2.0000     -10.339356      -281.3482
  42   2.0000     -10.339047      -281.3398
  43   2.0000     -10.331577      -281.1365
  44   2.0000     -10.331219      -281.1268
  45   2.0000     -10.330548      -281.1085
  46   2.0000     -10.330057      -281.0951
  47   2.0000     -10.329709      -281.0857
  48   2.0000     -10.327667      -281.0301
  49   2.0000     -10.327033      -281.0128
  50   2.0000     -10.326993      -281.0118
  51   2.0000     -10.326185      -280.9898
  52   2.0000     -10.325911      -280.9823
  53   2.0000     -10.325830      -280.9801
  54   2.0000     -10.325097      -280.9602
  55   2.0000     -10.324838      -280.9531
  56   2.0000     -10.324240      -280.9369
  57   2.0000     -10.319691      -280.8131
  58   2.0000     -10.319675      -280.8126
  59   2.0000     -10.319380      -280.8046
  60   2.0000     -10.318327      -280.7759
  61   2.0000     -10.318015      -280.7675
  62   2.0000     -10.317521      -280.7540
  63   2.0000     -10.315581      -280.7012
  64   2.0000     -10.315102      -280.6882
  65   2.0000     -10.314325      -280.6671
  66   2.0000     -10.313460      -280.6435
  67   2.0000     -10.307855      -280.4910
  68   2.0000     -10.306904      -280.4651
  69   2.0000     -10.306331      -280.4495
  70   2.0000     -10.305425      -280.4249
  71   2.0000     -10.305202      -280.4188
  72   2.0000     -10.305107      -280.4162
  73   2.0000     -10.304143      -280.3900
  74   2.0000     -10.303358      -280.3686
  75   2.0000     -10.301782      -280.3258
  76   2.0000     -10.301237      -280.3109
  77   2.0000      -8.101984      -220.4662
  78   2.0000      -8.100473      -220.4251
  79   2.0000      -8.100090      -220.4146
  80   2.0000      -8.099937      -220.4105
  81   2.0000      -6.071144      -165.2042
  82   2.0000      -6.069780      -165.1671
  83   2.0000      -6.069349      -165.1554
  84   2.0000      -6.069185      -165.1509
  85   2.0000      -6.066965      -165.0905
  86   2.0000      -6.065556      -165.0522
  87   2.0000      -6.065067      -165.0389
  88   2.0000      -6.064950      -165.0357
  89   2.0000      -6.064455      -165.0222
  90   2.0000      -6.062751      -164.9758
  91   2.0000      -6.062528      -164.9698
  92   2.0000      -6.062378      -164.9657
  93   2.0000      -5.397435      -146.8717
  94   2.0000      -3.760505      -102.3285
  95   2.0000      -3.759026      -102.2883
  96   2.0000      -3.758497      -102.2739
  97   2.0000      -1.061876       -28.8951
  98   2.0000      -1.061081       -28.8735
  99   2.0000      -1.044114       -28.4118
 100   2.0000      -1.042913       -28.3791
 101   2.0000      -1.035732       -28.1837
 102   2.0000      -1.033468       -28.1221
 103   2.0000      -1.025005       -27.8918
 104   2.0000      -1.024665       -27.8825
 105   2.0000      -1.021557       -27.7980
 106   2.0000      -1.018637       -27.7185
 107   2.0000      -1.015228       -27.6258
 108   2.0000      -1.014323       -27.6011
 109   2.0000      -1.014279       -27.5999
 110   2.0000      -1.013772       -27.5861
 111   2.0000      -1.006078       -27.3768
 112   2.0000      -1.004995       -27.3473
 113   2.0000      -1.004416       -27.3316
 114   2.0000      -1.003762       -27.3138
 115   2.0000      -0.978985       -26.6395
 116   2.0000      -0.976084       -26.5606
 117   2.0000      -0.964450       -26.2440
 118   2.0000      -0.963692       -26.2234
 119   2.0000      -0.955575       -26.0025
 120   2.0000      -0.947510       -25.7831
 121   2.0000      -0.946557       -25.7571
 122   2.0000      -0.934451       -25.4277
 123   2.0000      -0.928606       -25.2687
 124   2.0000      -0.904934       -24.6245
 125   2.0000      -0.903214       -24.5777
 126   2.0000      -0.897101       -24.4113
 127   2.0000      -0.895911       -24.3790
 128   2.0000      -0.888863       -24.1872
 129   2.0000      -0.881252       -23.9801
 130   2.0000      -0.873240       -23.7621
 131   2.0000      -0.872948       -23.7541
 132   2.0000      -0.871445       -23.7132
 133   2.0000      -0.870998       -23.7011
 134   2.0000      -0.859536       -23.3892
 135   2.0000      -0.834564       -22.7096
 136   2.0000      -0.820135       -22.3170
 137   2.0000      -0.808298       -21.9949
 138   2.0000      -0.798544       -21.7295
 139   2.0000      -0.797493       -21.7009
 140   2.0000      -0.792968       -21.5778
 141   2.0000      -0.789517       -21.4838
 142   2.0000      -0.771050       -20.9813
 143   2.0000      -0.760180       -20.6855
 144   2.0000      -0.731063       -19.8932
 145   2.0000      -0.728637       -19.8272
 146   2.0000      -0.724017       -19.7015
 147   2.0000      -0.721570       -19.6349
 148   2.0000      -0.720108       -19.5951
 149   2.0000      -0.719626       -19.5820
 150   2.0000      -0.717715       -19.5300
 151   2.0000      -0.712490       -19.3878
 152   2.0000      -0.700392       -19.0586
 153   2.0000      -0.697719       -18.9859
 154   2.0000      -0.691093       -18.8056
 155   2.0000      -0.687583       -18.7101
 156   2.0000      -0.674803       -18.3623
 157   2.0000      -0.673103       -18.3161
 158   2.0000      -0.672401       -18.2970
 159   2.0000      -0.671648       -18.2765
 160   2.0000      -0.661857       -18.0100
 161   2.0000      -0.658923       -17.9302
 162   2.0000      -0.648826       -17.6555
 163   2.0000      -0.645332       -17.5604
 164   2.0000      -0.635912       -17.3040
 165   2.0000      -0.635175       -17.2840
 166   2.0000      -0.631519       -17.1845
 167   2.0000      -0.626627       -17.0514
 168   2.0000      -0.622200       -16.9309
 169   2.0000      -0.610525       -16.6132
 170   2.0000      -0.607671       -16.5356
 171   2.0000      -0.593327       -16.1452
 172   2.0000      -0.592139       -16.1129
 173   2.0000      -0.590274       -16.0622
 174   2.0000      -0.587034       -15.9740
 175   2.0000      -0.584745       -15.9117
 176   2.0000      -0.578253       -15.7351
 177   2.0000      -0.564064       -15.3490
 178   2.0000      -0.563158       -15.3243
 179   2.0000      -0.556545       -15.1444
 180   2.0000      -0.554681       -15.0936
 181   2.0000      -0.553314       -15.0564
 182   2.0000      -0.550830       -14.9888
 183   2.0000      -0.547583       -14.9005
 184   2.0000      -0.544937       -14.8285
 185   2.0000      -0.542082       -14.7508
 186   2.0000      -0.540691       -14.7130
 187   2.0000      -0.538594       -14.6559
 188   2.0000      -0.529625       -14.4118
 189   2.0000      -0.525425       -14.2975
 190   2.0000      -0.524908       -14.2835
 191   2.0000      -0.520983       -14.1767
 192   2.0000      -0.520685       -14.1686
 193   2.0000      -0.519068       -14.1246
 194   2.0000      -0.518240       -14.1020
 195   2.0000      -0.516521       -14.0553
 196   2.0000      -0.513955       -13.9854
 197   2.0000      -0.511023       -13.9056
 198   2.0000      -0.510267       -13.8851
 199   2.0000      -0.506479       -13.7820
 200   2.0000      -0.505470       -13.7545
 201   2.0000      -0.503910       -13.7121
 202   2.0000      -0.501568       -13.6484
 203   2.0000      -0.490715       -13.3530
 204   2.0000      -0.488002       -13.2792
 205   2.0000      -0.486149       -13.2288
 206   2.0000      -0.483220       -13.1491
 207   2.0000      -0.482221       -13.1219
 208   2.0000      -0.474430       -12.9099
 209   2.0000      -0.472134       -12.8474
 210   2.0000      -0.471805       -12.8385
 211   2.0000      -0.471699       -12.8356
 212   2.0000      -0.469550       -12.7771
 213   2.0000      -0.469347       -12.7716
 214   2.0000      -0.467742       -12.7279
 215   2.0000      -0.465906       -12.6779
 216   2.0000      -0.463935       -12.6243
 217   2.0000      -0.463166       -12.6034
 218   2.0000      -0.461594       -12.5606
 219   2.0000      -0.460911       -12.5420
 220   2.0000      -0.459858       -12.5134
 221   2.0000      -0.458497       -12.4763
 222   2.0000      -0.458344       -12.4722
 223   2.0000      -0.457109       -12.4386
 224   2.0000      -0.455137       -12.3849
 225   2.0000      -0.454760       -12.3747
 226   2.0000      -0.453788       -12.3482
 227   2.0000      -0.453064       -12.3285
 228   2.0000      -0.452442       -12.3116
 229   2.0000      -0.452237       -12.3060
 230   2.0000      -0.451603       -12.2888
 231   2.0000      -0.450856       -12.2684
 232   2.0000      -0.450325       -12.2540
 233   2.0000      -0.449205       -12.2235
 234   2.0000      -0.443253       -12.0615
 235   2.0000      -0.440880       -11.9970
 236   2.0000      -0.440390       -11.9836
 237   2.0000      -0.439384       -11.9562
 238   2.0000      -0.438392       -11.9293
 239   2.0000      -0.438093       -11.9211
 240   2.0000      -0.436670       -11.8824
 241   2.0000      -0.436409       -11.8753
 242   2.0000      -0.434329       -11.8187
 243   2.0000      -0.433252       -11.7894
 244   2.0000      -0.431690       -11.7469
 245   2.0000      -0.429013       -11.6740
 246   2.0000      -0.423405       -11.5214
 247   2.0000      -0.422662       -11.5012
 248   2.0000      -0.420973       -11.4553
 249   2.0000      -0.417856       -11.3704
 250   2.0000      -0.417112       -11.3502
 251   2.0000      -0.416944       -11.3456
 252   2.0000      -0.414552       -11.2805
 253   2.0000      -0.405579       -11.0364
 254   2.0000      -0.393792       -10.7156
 255   2.0000      -0.392155       -10.6711
 256   2.0000      -0.390477       -10.6254
 257   2.0000      -0.376181       -10.2364
 258   2.0000      -0.364510        -9.9188
 259   2.0000      -0.364248        -9.9117
 260   2.0000      -0.354157        -9.6371
 261   2.0000      -0.341552        -9.2941
 262   2.0000      -0.339723        -9.2443
 263   2.0000      -0.337885        -9.1943
 264   2.0000      -0.336173        -9.1477
 265   2.0000      -0.330577        -8.9955
 266   2.0000      -0.319422        -8.6919
 267   2.0000      -0.305409        -8.3106
 268   2.0000      -0.282879        -7.6975
 269   2.0000      -0.251767        -6.8509
 270   0.0000      -0.133117        -3.6223
 271   0.0000      -0.120699        -3.2844
 272   0.0000      -0.102433        -2.7873
 273   0.0000      -0.100010        -2.7214
 274   0.0000      -0.094245        -2.5645

MULLIKEN ATOMIC CHARGES
-----------------------
   0 C :   -0.035896
   1 C :    0.047839
   2 C :    0.050205
   3 C :   -0.034586
   4 C :    0.006969
   5 C :    0.013770
   6 C :    0.297730
   7 C :   -0.342746
   8 C :   -0.189422
   9 N :    0.161714
  10 C :   -0.181879
  11 N :    0.161894
  12 C :   -0.071401
  13 C :    0.210401
  14 C :   -0.331415
  15 C :   -0.196806
  16 N :    0.178552
  17 C :   -0.178921
  18 N :    0.166309
  19 C :    0.045131
  20 C :   -0.121688
  21 C :    0.008840
  22 C :    0.034370
  23 C :   -0.076558
  24 S :    0.200597
  25 C :   -0.100282
  26 C :    0.021714
  27 C :    0.300127
  28 C :   -0.290145
  29 C :   -0.181447
  30 N :    0.173883
  31 C :   -0.193878
  32 N :    0.193739
  33 C :   -0.028752
  34 C :   -0.030564
  35 S :    0.171141
  36 C :   -0.150553
  37 C :   -0.006801
  38 C :   -0.009527
  39 C :   -0.150022
  40 Si:    0.485052
  41 C :   -0.032158
  42 C :   -0.024125
  43 C :    0.020378
  44 C :   -0.104311
  45 S :    0.171812
  46 C :   -0.063626
  47 C :   -0.006581
  48 C :    0.307162
  49 C :   -0.286925
  50 C :   -0.182533
  51 N :    0.173511
  52 C :   -0.184191
  53 N :    0.176611
  54 C :   -0.004306
  55 C :   -0.137316
  56 S :    0.228623
  57 C :    0.085905
  58 C :   -0.067954
  59 C :    0.288710
  60 C :   -0.342485
  61 C :   -0.178292
  62 N :    0.152565
  63 C :   -0.187959
  64 N :    0.160238
  65 C :    0.014269
  66 C :    0.000694
  67 C :   -0.025889
  68 C :    0.045888
  69 C :    0.044266
  70 C :   -0.028571
  71 C :    0.225719
  72 C :   -0.338481
  73 C :   -0.173721
  74 N :    0.175479
  75 C :   -0.199394
  76 N :    0.177941
  77 H :    0.008442
  78 H :    0.006177
  79 H :    0.005334
  80 H :    0.007473
  81 H :    0.029308
  82 H :    0.028498
  83 H :    0.005837
  84 H :    0.004166
  85 H :    0.002887
  86 H :   -0.045728
  87 H :   -0.045011
  88 H :    0.005602
  89 H :    0.031099
  90 H :    0.011837
  91 H :    0.013657
  92 H :    0.008933
  93 H :    0.007101
  94 H :    0.006746
Sum of atomic charges:   -0.0000000

LOEWDIN ATOMIC CHARGES
----------------------
   0 C :    0.005823
   1 C :    0.003145
   2 C :    0.005171
   3 C :    0.000883
   4 C :   -0.011413
   5 C :   -0.012555
   6 C :    0.077543
   7 C :   -0.131957
   8 C :   -0.019254
   9 N :   -0.044131
  10 C :   -0.022585
  11 N :   -0.040054
  12 C :   -0.068639
  13 C :    0.058512
  14 C :   -0.139578
  15 C :   -0.035676
  16 N :   -0.042671
  17 C :   -0.020971
  18 N :   -0.043642
  19 C :    0.043691
  20 C :   -0.181892
  21 C :    0.026399
  22 C :   -0.074560
  23 C :   -0.141790
  24 S :    0.501618
  25 C :   -0.197410
  26 C :   -0.043132
  27 C :    0.077416
  28 C :   -0.091174
  29 C :   -0.014773
  30 N :   -0.028381
  31 C :   -0.019460
  32 N :   -0.017476
  33 C :   -0.027115
  34 C :   -0.148833
  35 S :    0.476350
  36 C :   -0.194286
  37 C :    0.002389
  38 C :   -0.001256
  39 C :   -0.191110
  40 Si:    0.527810
  41 C :   -0.152530
  42 C :   -0.025182
  43 C :   -0.049028
  44 C :   -0.191751
  45 S :    0.478256
  46 C :   -0.152028
  47 C :   -0.067809
  48 C :    0.080792
  49 C :   -0.094897
  50 C :   -0.012713
  51 N :   -0.028928
  52 C :   -0.016340
  53 N :   -0.026934
  54 C :    0.009618
  55 C :   -0.182209
  56 S :    0.510340
  57 C :    0.032861
  58 C :   -0.056798
  59 C :    0.079332
  60 C :   -0.134653
  61 C :   -0.021495
  62 N :   -0.046508
  63 C :   -0.019592
  64 N :   -0.044705
  65 C :   -0.013918
  66 C :   -0.010030
  67 C :    0.005433
  68 C :    0.006679
  69 C :    0.003000
  70 C :    0.005739
  71 C :    0.066110
  72 C :   -0.128749
  73 C :   -0.020488
  74 N :   -0.036774
  75 C :   -0.017378
  76 N :   -0.041012
  77 H :    0.042280
  78 H :    0.038570
  79 H :    0.038104
  80 H :    0.040937
  81 H :    0.054846
  82 H :    0.051157
  83 H :    0.040589
  84 H :    0.033670
  85 H :    0.033212
  86 H :   -0.076257
  87 H :   -0.075988
  88 H :    0.040787
  89 H :    0.042920
  90 H :    0.045396
  91 H :    0.043591
  92 H :    0.039107
  93 H :    0.038605
  94 H :    0.041785

  Mayer bond orders larger than 0.100000
B(  0-C ,  1-C ) :   1.3707 B(  0-C ,  5-C ) :   1.3837 B(  0-C , 77-H ) :   0.9839
B(  1-C ,  2-C ) :   1.3782 B(  1-C , 78-H ) :   0.9854 B(  2-C ,  3-C ) :   1.3665
B(  2-C , 79-H ) :   0.9859 B(  3-C ,  4-C ) :   1.3803 B(  3-C , 80-H ) :   0.9874
B(  4-C ,  5-C ) :   1.3140 B(  4-C , 13-C ) :   1.0142 B(  5-C ,  6-C ) :   0.9984
B(  6-C ,  7-C ) :   1.6429 B(  6-C , 12-C ) :   1.0602 B(  7-C ,  8-C ) :   1.1484
B(  7-C , 10-C ) :   1.1348 B(  8-C ,  9-N ) :   2.9765 B( 10-C , 11-N ) :   2.9674
B( 12-C , 13-C ) :   1.0224 B( 12-C , 19-C ) :   1.5698 B( 13-C , 14-C ) :   1.6471
B( 14-C , 15-C ) :   1.1496 B( 14-C , 17-C ) :   1.1429 B( 15-C , 16-N ) :   3.0162
B( 17-C , 18-N ) :   2.9972 B( 19-C , 20-C ) :   1.1931 B( 19-C , 81-H ) :   0.9339
B( 20-C , 21-C ) :   1.3790 B( 20-C , 24-S ) :   1.0724 B( 21-C , 22-C ) :   1.3129
B( 21-C , 82-H ) :   1.0002 B( 22-C , 23-C ) :   1.3741 B( 22-C , 27-C ) :   0.9962
B( 23-C , 24-S ) :   1.1533 B( 23-C , 25-C ) :   1.2346 B( 25-C , 26-C ) :   1.4066
B( 25-C , 35-S ) :   1.1061 B( 26-C , 27-C ) :   0.9891 B( 26-C , 33-C ) :   1.3306
B( 27-C , 28-C ) :   1.7228 B( 28-C , 29-C ) :   1.1341 B( 28-C , 31-C ) :   1.1352
B( 29-C , 30-N ) :   2.9863 B( 31-C , 32-N ) :   2.9968 B( 33-C , 34-C ) :   1.4162
B( 33-C , 83-H ) :   0.9915 B( 34-C , 35-S ) :   1.1207 B( 34-C , 36-C ) :   1.1607
B( 36-C , 37-C ) :   1.6446 B( 36-C , 40-Si) :   0.8975 B( 37-C , 38-C ) :   1.1372
B( 37-C , 84-H ) :   0.9965 B( 38-C , 39-C ) :   1.6478 B( 38-C , 85-H ) :   0.9967
B( 39-C , 40-Si) :   0.8978 B( 39-C , 41-C ) :   1.1572 B( 40-Si, 86-H ) :   0.9601
B( 40-Si, 87-H ) :   0.9601 B( 41-C , 42-C ) :   1.4233 B( 41-C , 45-S ) :   1.1160
B( 42-C , 43-C ) :   1.3239 B( 42-C , 88-H ) :   0.9919 B( 43-C , 44-C ) :   1.4129
B( 43-C , 48-C ) :   0.9892 B( 44-C , 45-S ) :   1.1152 B( 44-C , 46-C ) :   1.2159
B( 46-C , 47-C ) :   1.3854 B( 46-C , 56-S ) :   1.1610 B( 47-C , 48-C ) :   1.0023
B( 47-C , 54-C ) :   1.3725 B( 48-C , 49-C ) :   1.7178 B( 49-C , 50-C ) :   1.1369
B( 49-C , 52-C ) :   1.1328 B( 50-C , 51-N ) :   2.9781 B( 52-C , 53-N ) :   2.9897
B( 54-C , 55-C ) :   1.3757 B( 54-C , 89-H ) :   0.9794 B( 55-C , 56-S ) :   1.0904
B( 55-C , 57-C ) :   1.1924 B( 57-C , 58-C ) :   1.6191 B( 57-C , 90-H ) :   0.9109
B( 58-C , 59-C ) :   1.0613 B( 58-C , 71-C ) :   1.0140 B( 59-C , 60-C ) :   1.6374
B( 59-C , 65-C ) :   0.9990 B( 60-C , 61-C ) :   1.1347 B( 60-C , 63-C ) :   1.1469
B( 61-C , 62-N ) :   2.9699 B( 63-C , 64-N ) :   2.9790 B( 65-C , 66-C ) :   1.3102
B( 65-C , 70-C ) :   1.3834 B( 66-C , 67-C ) :   1.3812 B( 66-C , 71-C ) :   1.0096
B( 67-C , 68-C ) :   1.3666 B( 67-C , 91-H ) :   0.9885 B( 68-C , 69-C ) :   1.3770
B( 68-C , 92-H ) :   0.9867 B( 69-C , 70-C ) :   1.3688 B( 69-C , 93-H ) :   0.9869
B( 70-C , 94-H ) :   0.9852 B( 71-C , 72-C ) :   1.6599 B( 72-C , 73-C ) :   1.1337
B( 72-C , 75-C ) :   1.1654 B( 73-C , 74-N ) :   3.0013 B( 75-C , 76-N ) :   3.0033

-----------------------------------------------------------------------------
         ABSORPTION SPECTRUM VIA TRANSITION ELECTRIC DIPOLE MOMENTS
-----------------------------------------------------------------------------
State   Energy  Wavelength   fosc         T2         TX        TY        TZ
        (cm-1)    (nm)                  (au**2)     (au)      (au)      (au)
-----------------------------------------------------------------------------
   0   10537.5    949.0   0.913750330  28.54744   1.73980   4.98141   0.84027
   1   12275.7    814.6   0.037337112   1.00131   0.27633   0.15981  -0.94838
   2   16823.7    594.4   1.214553700  23.76684  -1.74322  -4.48487  -0.78358
   3   18757.7    533.1   0.306230929   5.37460   0.63069   0.37983  -2.19831
   4   19370.1    516.3   0.009553098   0.16236  -0.00886   0.39747  -0.06559
   5   21056.4    474.9   0.180499768   2.82208   0.34537  -1.55573   0.53152
   6   21661.7    461.6   0.075357625   1.14528   0.01299   0.94010   0.51119
   7   21925.3    456.1   0.177721727   2.66852   0.49443   0.60724  -1.43364
   8   22938.6    435.9   0.004102517   0.05888   0.01409   0.23574   0.05575
   9   25209.0    396.7   0.066806637   0.87245   0.40818  -0.57943  -0.60836
  10   25845.7    386.9   0.011705064   0.14909  -0.02184   0.22605  -0.31228
  11   26093.7    383.2   0.036621422   0.46203   0.17255   0.07660  -0.65299
  12   27140.7    368.5   0.023316456   0.28282   0.40194   0.26755   0.22289
  13   28483.6    351.1   0.021826548   0.25227  -0.24466  -0.01085  -0.43851
  14   28869.9    346.4   0.135491587   1.54505  -0.12173   1.21683   0.22263
  15   29181.6    342.7   0.315611502   3.56057   0.78880  -0.09215  -1.71169
  16   29410.7    340.0   0.186619379   2.08894   0.32668   0.49842  -1.31674
  17   29577.7    338.1   0.122551506   1.36405   0.25402  -1.13812   0.06479
  18   30100.0    332.2   0.284906535   3.11610   0.29152  -0.58062  -1.64134
  19   30446.3    328.4   0.039747808   0.42979  -0.41077  -0.12090   0.49642
  20   30667.2    326.1   0.055225963   0.59285   0.05340   0.52658   0.55921
  21   31020.4    322.4   0.063498455   0.67389  -0.35519  -0.40488   0.61951
  22   31323.4    319.3   0.066812682   0.70221  -0.13066  -0.77923   0.27918
  23   31496.0    317.5   0.101522964   1.06117   0.28200  -0.40291  -0.90515
  24   32348.0    309.1   0.600112068   6.10746  -0.21625  -2.44467   0.29034
  25   32478.5    307.9   0.093316587   0.94588   0.44307  -0.66240  -0.55749
  26   32958.3    303.4   0.489604578   4.89054  -0.38784   0.72222  -2.05390
  27   33149.0    301.7   0.185020489   1.83749  -0.46411   1.17660  -0.48754
  28   33510.4    298.4   0.054397699   0.53441  -0.16481  -0.02080   0.71191
  29   33699.9    296.7   0.079383065   0.77549  -0.23989   0.48427   0.69528
  30   34094.4    293.3   0.004466944   0.04313   0.04905   0.07290  -0.18818
  31   34246.6    292.0   0.049366381   0.47456  -0.14100   0.32724   0.58957
  32   34461.1    290.2   0.081125931   0.77501   0.42962  -0.11362  -0.75995
  33   34835.4    287.1   0.238958589   2.25828  -0.15902  -1.29816   0.74012
  34   35119.5    284.7   0.644746688   6.04389   1.05040   0.05701  -2.22200
  35   35324.9    283.1   0.054187274   0.50500   0.21461  -0.66421  -0.13329
  36   35634.0    280.6   0.046049086   0.42543  -0.01141  -0.64700  -0.08184
  37   35720.3    280.0   0.003508007   0.03233  -0.16404   0.01881   0.07118
  38   35994.7    277.8   0.383084190   3.50374  -0.23910   1.28802   1.33700
  39   36346.3    275.1   0.035908159   0.32524  -0.15946   0.29879   0.45885
  40   36660.7    272.8   0.028809827   0.25871  -0.02400  -0.05914   0.50462
  41   36970.4    270.5   0.072432793   0.64499  -0.29872   0.19525   0.71947
  42   37199.6    268.8   0.018086439   0.16006  -0.33548  -0.13303   0.17269
  43   37374.3    267.6   0.044099427   0.38845  -0.19185  -0.00639   0.59296
  44   37475.1    266.8   0.037966195   0.33353  -0.02180  -0.57709  -0.00474
  45   37605.0    265.9   0.095557843   0.83656   0.16165   0.33334  -0.83625
  46   38064.8    262.7   0.032102837   0.27765  -0.04684   0.22131   0.47590
  47   38235.2    261.5   0.011582835   0.09973  -0.11257   0.26574   0.12823
  48   38298.5    261.1   0.009861511   0.08477   0.22563  -0.18400   0.00053
  49   39205.9    255.1   0.137709231   1.15635  -0.26654  -1.00269  -0.28267
  50   39344.2    254.2   0.087642426   0.73335  -0.31455  -0.79134  -0.09044
  51   39605.7    252.5   0.011014908   0.09156   0.11333   0.22794   0.16358
  52   39780.2    251.4   0.115817269   0.95848   0.26997   0.94103   0.00730
  53   40119.0    249.3   0.037701577   0.30937   0.08842   0.54237   0.08600
  54   40183.0    248.9   0.022693932   0.18593   0.05314   0.42595  -0.04088

FINAL SINGLE POINT ENERGY     -4831.787082480195

DIPOLE MOMENT
-------------
                                X             Y             Z
Electronic contribution:      2.01316       8.30682      -5.33752
Nuclear contribution   :     -2.88288      -9.68709       6.84326
                        -----------------------------------------
Total Dipole Moment    :     -0.86972      -1.38027       1.50574
                        -----------------------------------------
Magnitude (a.u.)       :      2.22009
Magnitude (Debye)      :      5.64302

Rotational constants in cm-1:     0.001681     0.000191     0.000175
Rotational constants in MHz :    50.407431     5.731092     5.251829

                             ****ORCA TERMINATED NORMALLY****
TOTAL RUN TIME: 0 days 0 hours 11 minutes 10 seconds 805 msec
