                         Program Version 4.2.0 -  RELEASE  -
|  1> # ORCA input file
|  2> # SCF done       -195.393363256121          0.000605228308
|  3> ! CAM-B3LYP def2-SVP def2/J RIJCOSX Grid4 TightSCF
|  4> %maxcore 5000
|  5> %tddft
|  6>     Mode sTDDFT
|  7>     Ethresh 5.0
|  8>     maxcore 5000
|  9> end
| 10>
| 11> %pal
| 12>   nprocs 6
| 13>   end
| 14> * xyz 0 1
| 15>    C       -4.12318         3.60729        -0.69239
| 16>    C       -4.61409         4.22693         0.44732
| 17>    C       -4.83606         3.50986         1.61449
| 18>    C       -4.56239         2.15181         1.67989
| 19>    C       -4.06743         1.52400         0.54921
| 20>    C       -3.85387         2.24847        -0.64511
| 21>    C       -3.36821         1.33388        -1.67014
| 22>    C       -2.92595         1.69005        -2.91627
| 23>    C       -2.87452         3.02020        -3.38606
| 24>    N       -2.80414         4.07435        -3.83439
| 25>    C       -2.42045         0.80781        -3.89434
| 26>    N       -1.99552         0.15282        -4.73664
| 27>    C       -3.45251        -0.01067        -1.10784
| 28>    C       -3.67150         0.14214         0.32566
| 29>    C       -3.30702        -0.73950         1.30813
| 30>    C       -2.68093        -1.97987         1.07299
| 31>    N       -2.13758        -2.98267         0.94046
| 32>    C       -3.42057        -0.47013         2.68895
| 33>    N       -3.48372        -0.30935         3.82316
| 34>    C       -3.42690        -1.15310        -1.86167
| 35>    C       -3.89364        -2.43747        -1.51856
| 36>    C       -4.79005        -2.82978        -0.53113
| 37>    C       -5.03640        -4.19356        -0.55726
| 38>    C       -4.32881        -4.86281        -1.58045
| 39>    S       -3.38249        -3.80281        -2.51146
| 40>    C       -4.64482        -6.24094        -1.51117
| 41>    C       -5.53811        -6.44580        -0.44549
| 42>    C       -5.81617        -5.16736         0.18653
| 43>    C       -6.64000        -4.92478         1.24758
| 44>    C       -7.37707        -5.95651         1.86362
| 45>    N       -7.98420        -6.80613         2.33800
| 46>    C       -6.81084        -3.62347         1.76381
| 47>    N       -6.94132        -2.55739         2.16576
| 48>    C       -5.90451        -7.78420        -0.29283
| 49>    C       -5.31511        -8.60011        -1.23753
| 50>    S       -4.26484        -7.69591        -2.31868
| 51>    C       -5.42945       -10.02847        -1.39852
| 52>    C       -4.32974       -10.74728        -1.84192
| 53>    C       -4.36572       -12.12761        -1.98764
| 54>    C       -5.50601       -12.86408        -1.70717
| 55>    C       -6.67041       -12.18288        -1.24431
| 56>    C       -7.90322       -12.77506        -0.93390
| 57>   Si       -8.78462       -11.46427        -0.05200
| 58>    C       -7.89876       -10.13559        -0.88935
| 59>    C       -6.64688       -10.72300        -1.14120
| 60>    C       -5.51108       -14.27829        -1.98238
| 61>    C       -6.53399       -15.04109        -2.51000
| 62>    C       -6.14797       -16.36522        -2.72514
| 63>    C       -4.81467       -16.61533        -2.35714
| 64>    S       -4.04302       -15.21589        -1.75236
| 65>    C       -4.51167       -17.96950        -2.63863
| 66>    C       -5.66138       -18.57363        -3.19441
| 67>    C       -6.72839       -17.59001        -3.24869
| 68>    C       -8.01208       -17.79593        -3.66361
| 69>    C       -8.43639       -19.05470        -4.13822
| 70>    N       -8.75978       -20.08364        -4.52795
| 71>    C       -8.98206       -16.77330        -3.62840
| 72>    N       -9.76390       -15.93525        -3.58961
| 73>    C       -5.47606       -19.91145        -3.50329
| 74>    C       -4.19791       -20.35449        -3.18312
| 75>    S       -3.20969       -19.05464        -2.51451
| 76>    C       -3.59969       -21.61316        -3.38679
| 77>    C       -4.21108       -22.81122        -3.64368
| 78>    C       -3.53912       -23.94320        -4.27462
| 79>    C       -2.19099       -24.15635        -4.38478
| 80>    C       -1.18099       -23.32420        -3.85766
| 81>    N       -0.30636       -22.69881        -3.45386
| 82>    C       -1.61864       -25.28305        -5.01344
| 83>    N       -1.08469       -26.17025        -5.50840
| 84>    C       -4.58493       -24.82437        -4.77769
| 85>    C       -5.83675       -24.35154        -4.32392
| 86>    C       -7.01000       -24.99063        -4.68773
| 87>    C       -6.92640       -26.11006        -5.50229
| 88>    C       -5.69757       -26.58499        -5.93828
| 89>    C       -4.51651       -25.95011        -5.58329
| 90>    C       -5.61060       -23.18738        -3.48111
| 91>    C       -6.47649       -22.73191        -2.52297
| 92>    C       -7.77600       -23.24738        -2.32805
| 93>    N       -8.83644       -23.62950        -2.11406
| 94>    C       -6.15085       -21.76703        -1.54903
| 95>    N       -5.92871       -21.00969        -0.71515
| 96>    H       -3.96560         4.17937        -1.59173
| 97>    H       -4.83157         5.28369         0.42019
| 98>    H       -5.22933         4.01292         2.48445
| 99>    H       -4.74905         1.60156         2.58773
|100>    H       -3.06760        -1.06571        -2.87849
|101>    H       -5.26780        -2.13771         0.13847
|102>    H       -6.52745        -8.15479         0.50031
|103>    H       -3.41432       -10.22207        -2.07230
|104>    H       -3.48774       -12.63738        -2.35715
|105>    H       -7.98259       -13.84269        -0.81462
|106>    H       -7.99642        -9.06893        -0.78433
|107>    H       -7.48834       -14.63240        -2.78554
|108>    H       -6.21043       -20.53154        -3.98428
|109>    H       -2.51809       -21.59613        -3.40895
|110>    H       -7.97001       -24.62242        -4.36426
|111>    H       -7.83168       -26.61516        -5.80213
|112>    H       -5.65646       -27.45924        -6.56980
|113>    H       -3.57261       -26.32856        -5.93932
|114> *
|115>
|116>                          ****END OF INPUT****

CARTESIAN COORDINATES (ANGSTROEM)
---------------------------------
  C     -4.123180    3.607290   -0.692390
  C     -4.614090    4.226930    0.447320
  C     -4.836060    3.509860    1.614490
  C     -4.562390    2.151810    1.679890
  C     -4.067430    1.524000    0.549210
  C     -3.853870    2.248470   -0.645110
  C     -3.368210    1.333880   -1.670140
  C     -2.925950    1.690050   -2.916270
  C     -2.874520    3.020200   -3.386060
  N     -2.804140    4.074350   -3.834390
  C     -2.420450    0.807810   -3.894340
  N     -1.995520    0.152820   -4.736640
  C     -3.452510   -0.010670   -1.107840
  C     -3.671500    0.142140    0.325660
  C     -3.307020   -0.739500    1.308130
  C     -2.680930   -1.979870    1.072990
  N     -2.137580   -2.982670    0.940460
  C     -3.420570   -0.470130    2.688950
  N     -3.483720   -0.309350    3.823160
  C     -3.426900   -1.153100   -1.861670
  C     -3.893640   -2.437470   -1.518560
  C     -4.790050   -2.829780   -0.531130
  C     -5.036400   -4.193560   -0.557260
  C     -4.328810   -4.862810   -1.580450
  S     -3.382490   -3.802810   -2.511460
  C     -4.644820   -6.240940   -1.511170
  C     -5.538110   -6.445800   -0.445490
  C     -5.816170   -5.167360    0.186530
  C     -6.640000   -4.924780    1.247580
  C     -7.377070   -5.956510    1.863620
  N     -7.984200   -6.806130    2.338000
  C     -6.810840   -3.623470    1.763810
  N     -6.941320   -2.557390    2.165760
  C     -5.904510   -7.784200   -0.292830
  C     -5.315110   -8.600110   -1.237530
  S     -4.264840   -7.695910   -2.318680
  C     -5.429450  -10.028470   -1.398520
  C     -4.329740  -10.747280   -1.841920
  C     -4.365720  -12.127610   -1.987640
  C     -5.506010  -12.864080   -1.707170
  C     -6.670410  -12.182880   -1.244310
  C     -7.903220  -12.775060   -0.933900
  Si    -8.784620  -11.464270   -0.052000
  C     -7.898760  -10.135590   -0.889350
  C     -6.646880  -10.723000   -1.141200
  C     -5.511080  -14.278290   -1.982380
  C     -6.533990  -15.041090   -2.510000
  C     -6.147970  -16.365220   -2.725140
  C     -4.814670  -16.615330   -2.357140
  S     -4.043020  -15.215890   -1.752360
  C     -4.511670  -17.969500   -2.638630
  C     -5.661380  -18.573630   -3.194410
  C     -6.728390  -17.590010   -3.248690
  C     -8.012080  -17.795930   -3.663610
  C     -8.436390  -19.054700   -4.138220
  N     -8.759780  -20.083640   -4.527950
  C     -8.982060  -16.773300   -3.628400
  N     -9.763900  -15.935250   -3.589610
  C     -5.476060  -19.911450   -3.503290
  C     -4.197910  -20.354490   -3.183120
  S     -3.209690  -19.054640   -2.514510
  C     -3.599690  -21.613160   -3.386790
  C     -4.211080  -22.811220   -3.643680
  C     -3.539120  -23.943200   -4.274620
  C     -2.190990  -24.156350   -4.384780
  C     -1.180990  -23.324200   -3.857660
  N     -0.306360  -22.698810   -3.453860
  C     -1.618640  -25.283050   -5.013440
  N     -1.084690  -26.170250   -5.508400
  C     -4.584930  -24.824370   -4.777690
  C     -5.836750  -24.351540   -4.323920
  C     -7.010000  -24.990630   -4.687730
  C     -6.926400  -26.110060   -5.502290
  C     -5.697570  -26.584990   -5.938280
  C     -4.516510  -25.950110   -5.583290
  C     -5.610600  -23.187380   -3.481110
  C     -6.476490  -22.731910   -2.522970
  C     -7.776000  -23.247380   -2.328050
  N     -8.836440  -23.629500   -2.114060
  C     -6.150850  -21.767030   -1.549030
  N     -5.928710  -21.009690   -0.715150
  H     -3.965600    4.179370   -1.591730
  H     -4.831570    5.283690    0.420190
  H     -5.229330    4.012920    2.484450
  H     -4.749050    1.601560    2.587730
  H     -3.067600   -1.065710   -2.878490
  H     -5.267800   -2.137710    0.138470
  H     -6.527450   -8.154790    0.500310
  H     -3.414320  -10.222070   -2.072300
  H     -3.487740  -12.637380   -2.357150
  H     -7.982590  -13.842690   -0.814620
  H     -7.996420   -9.068930   -0.784330
  H     -7.488340  -14.632400   -2.785540
  H     -6.210430  -20.531540   -3.984280
  H     -2.518090  -21.596130   -3.408950
  H     -7.970010  -24.622420   -4.364260
  H     -7.831680  -26.615160   -5.802130
  H     -5.656460  -27.459240   -6.569800
  H     -3.572610  -26.328560   -5.939320

 Total Charge           Charge          ....    0
 Multiplicity           Mult            ....    1
 Number of Electrons    NEL             ....  564
 Basis Dimension        Dim             .... 1244

ORBITAL ENERGIES
----------------

  NO   OCC          E(Eh)            E(eV)
   0   2.0000     -89.008065     -2422.0326
   1   2.0000     -89.007740     -2422.0237
   2   2.0000     -89.004396     -2421.9328
   3   2.0000     -89.004149     -2421.9260
   4   2.0000     -66.209251     -1801.6453
   5   2.0000     -14.443567      -393.0294
   6   2.0000     -14.443475      -393.0269
   7   2.0000     -14.442210      -392.9925
   8   2.0000     -14.441988      -392.9865
   9   2.0000     -14.429841      -392.6559
  10   2.0000     -14.429671      -392.6513
  11   2.0000     -14.429156      -392.6373
  12   2.0000     -14.428858      -392.6292
  13   2.0000     -14.424615      -392.5137
  14   2.0000     -14.424582      -392.5128
  15   2.0000     -14.423985      -392.4966
  16   2.0000     -14.423510      -392.4837
  17   2.0000     -10.378634      -282.4170
  18   2.0000     -10.378283      -282.4074
  19   2.0000     -10.365760      -282.0667
  20   2.0000     -10.365399      -282.0568
  21   2.0000     -10.358176      -281.8603
  22   2.0000     -10.357396      -281.8391
  23   2.0000     -10.356439      -281.8130
  24   2.0000     -10.356194      -281.8064
  25   2.0000     -10.356176      -281.8059
  26   2.0000     -10.355510      -281.7877
  27   2.0000     -10.355077      -281.7760
  28   2.0000     -10.354584      -281.7626
  29   2.0000     -10.354500      -281.7603
  30   2.0000     -10.353713      -281.7388
  31   2.0000     -10.346063      -281.5307
  32   2.0000     -10.345676      -281.5202
  33   2.0000     -10.343577      -281.4630
  34   2.0000     -10.343496      -281.4608
  35   2.0000     -10.342044      -281.4213
  36   2.0000     -10.341860      -281.4163
  37   2.0000     -10.341353      -281.4025
  38   2.0000     -10.340725      -281.3854
  39   2.0000     -10.340639      -281.3831
  40   2.0000     -10.340209      -281.3714
  41   2.0000     -10.340055      -281.3672
  42   2.0000     -10.339651      -281.3562
  43   2.0000     -10.331984      -281.1476
  44   2.0000     -10.331299      -281.1289
  45   2.0000     -10.330760      -281.1143
  46   2.0000     -10.329816      -281.0886
  47   2.0000     -10.327946      -281.0377
  48   2.0000     -10.327397      -281.0228
  49   2.0000     -10.327209      -281.0176
  50   2.0000     -10.326621      -281.0016
  51   2.0000     -10.326503      -280.9984
  52   2.0000     -10.325624      -280.9745
  53   2.0000     -10.325422      -280.9690
  54   2.0000     -10.324916      -280.9552
  55   2.0000     -10.321153      -280.8529
  56   2.0000     -10.320637      -280.8388
  57   2.0000     -10.320629      -280.8386
  58   2.0000     -10.319934      -280.8197
  59   2.0000     -10.319424      -280.8058
  60   2.0000     -10.319397      -280.8051
  61   2.0000     -10.319215      -280.8001
  62   2.0000     -10.317953      -280.7658
  63   2.0000     -10.317859      -280.7632
  64   2.0000     -10.317538      -280.7545
  65   2.0000     -10.317329      -280.7488
  66   2.0000     -10.316883      -280.7367
  67   2.0000     -10.313790      -280.6525
  68   2.0000     -10.312828      -280.6263
  69   2.0000     -10.308462      -280.5075
  70   2.0000     -10.308003      -280.4950
  71   2.0000     -10.305433      -280.4251
  72   2.0000     -10.305178      -280.4181
  73   2.0000     -10.304908      -280.4108
  74   2.0000     -10.304542      -280.4008
  75   2.0000     -10.304022      -280.3867
  76   2.0000     -10.303410      -280.3701
  77   2.0000     -10.303360      -280.3687
  78   2.0000     -10.302764      -280.3525
  79   2.0000     -10.272081      -279.5175
  80   2.0000     -10.270911      -279.4857
  81   2.0000      -8.102614      -220.4833
  82   2.0000      -8.102227      -220.4728
  83   2.0000      -8.098910      -220.3825
  84   2.0000      -8.098602      -220.3742
  85   2.0000      -6.071739      -165.2204
  86   2.0000      -6.071389      -165.2109
  87   2.0000      -6.068172      -165.1233
  88   2.0000      -6.067884      -165.1155
  89   2.0000      -6.067599      -165.1078
  90   2.0000      -6.067185      -165.0965
  91   2.0000      -6.065168      -165.0416
  92   2.0000      -6.064779      -165.0310
  93   2.0000      -6.063882      -165.0066
  94   2.0000      -6.063582      -164.9984
  95   2.0000      -6.061364      -164.9381
  96   2.0000      -6.061041      -164.9293
  97   2.0000      -5.380470      -146.4100
  98   2.0000      -3.747705      -101.9802
  99   2.0000      -3.739176      -101.7481
 100   2.0000      -3.738111      -101.7192
 101   2.0000      -1.061742       -28.8915
 102   2.0000      -1.061230       -28.8775
 103   2.0000      -1.043037       -28.3825
 104   2.0000      -1.042406       -28.3653
 105   2.0000      -1.034799       -28.1583
 106   2.0000      -1.034591       -28.1526
 107   2.0000      -1.025036       -27.8926
 108   2.0000      -1.024253       -27.8714
 109   2.0000      -1.020725       -27.7753
 110   2.0000      -1.020318       -27.7643
 111   2.0000      -1.018401       -27.7121
 112   2.0000      -1.015055       -27.6210
 113   2.0000      -1.014137       -27.5961
 114   2.0000      -1.013418       -27.5765
 115   2.0000      -1.005149       -27.3515
 116   2.0000      -1.004525       -27.3345
 117   2.0000      -1.004360       -27.3300
 118   2.0000      -1.003293       -27.3010
 119   2.0000      -0.995510       -27.0892
 120   2.0000      -0.977118       -26.5887
 121   2.0000      -0.971209       -26.4280
 122   2.0000      -0.963604       -26.2210
 123   2.0000      -0.963067       -26.2064
 124   2.0000      -0.946706       -25.7612
 125   2.0000      -0.945998       -25.7419
 126   2.0000      -0.937694       -25.5160
 127   2.0000      -0.931272       -25.3412
 128   2.0000      -0.914865       -24.8947
 129   2.0000      -0.910745       -24.7826
 130   2.0000      -0.902261       -24.5518
 131   2.0000      -0.899821       -24.4854
 132   2.0000      -0.895326       -24.3631
 133   2.0000      -0.893962       -24.3259
 134   2.0000      -0.881537       -23.9878
 135   2.0000      -0.873774       -23.7766
 136   2.0000      -0.871282       -23.7088
 137   2.0000      -0.871061       -23.7028
 138   2.0000      -0.870451       -23.6862
 139   2.0000      -0.870274       -23.6814
 140   2.0000      -0.834364       -22.7042
 141   2.0000      -0.824898       -22.4466
 142   2.0000      -0.808237       -21.9933
 143   2.0000      -0.807061       -21.9612
 144   2.0000      -0.797871       -21.7112
 145   2.0000      -0.797120       -21.6907
 146   2.0000      -0.790740       -21.5171
 147   2.0000      -0.787148       -21.4194
 148   2.0000      -0.776431       -21.1278
 149   2.0000      -0.773350       -21.0439
 150   2.0000      -0.745210       -20.2782
 151   2.0000      -0.732919       -19.9438
 152   2.0000      -0.725929       -19.7535
 153   2.0000      -0.721709       -19.6387
 154   2.0000      -0.720337       -19.6014
 155   2.0000      -0.720039       -19.5933
 156   2.0000      -0.719378       -19.5753
 157   2.0000      -0.714675       -19.4473
 158   2.0000      -0.702721       -19.1220
 159   2.0000      -0.697377       -18.9766
 160   2.0000      -0.696039       -18.9402
 161   2.0000      -0.688151       -18.7255
 162   2.0000      -0.674904       -18.3651
 163   2.0000      -0.674254       -18.3474
 164   2.0000      -0.672408       -18.2972
 165   2.0000      -0.671802       -18.2807
 166   2.0000      -0.667573       -18.1656
 167   2.0000      -0.662458       -18.0264
 168   2.0000      -0.655910       -17.8482
 169   2.0000      -0.652907       -17.7665
 170   2.0000      -0.647582       -17.6216
 171   2.0000      -0.645407       -17.5624
 172   2.0000      -0.633178       -17.2297
 173   2.0000      -0.631293       -17.1784
 174   2.0000      -0.629563       -17.1313
 175   2.0000      -0.621625       -16.9153
 176   2.0000      -0.612628       -16.6704
 177   2.0000      -0.607551       -16.5323
 178   2.0000      -0.599310       -16.3081
 179   2.0000      -0.591987       -16.1088
 180   2.0000      -0.591282       -16.0896
 181   2.0000      -0.589655       -16.0453
 182   2.0000      -0.586174       -15.9506
 183   2.0000      -0.580120       -15.7859
 184   2.0000      -0.566404       -15.4126
 185   2.0000      -0.563330       -15.3290
 186   2.0000      -0.562421       -15.3043
 187   2.0000      -0.555233       -15.1087
 188   2.0000      -0.554877       -15.0990
 189   2.0000      -0.549023       -14.9397
 190   2.0000      -0.548066       -14.9136
 191   2.0000      -0.545452       -14.8425
 192   2.0000      -0.543067       -14.7776
 193   2.0000      -0.542759       -14.7692
 194   2.0000      -0.539293       -14.6749
 195   2.0000      -0.536516       -14.5994
 196   2.0000      -0.535604       -14.5745
 197   2.0000      -0.528636       -14.3849
 198   2.0000      -0.526138       -14.3170
 199   2.0000      -0.522711       -14.2237
 200   2.0000      -0.520617       -14.1667
 201   2.0000      -0.520159       -14.1542
 202   2.0000      -0.518807       -14.1175
 203   2.0000      -0.517041       -14.0694
 204   2.0000      -0.515593       -14.0300
 205   2.0000      -0.513477       -13.9724
 206   2.0000      -0.511656       -13.9229
 207   2.0000      -0.509749       -13.8710
 208   2.0000      -0.507522       -13.8104
 209   2.0000      -0.505409       -13.7529
 210   2.0000      -0.504636       -13.7318
 211   2.0000      -0.500006       -13.6058
 212   2.0000      -0.492947       -13.4138
 213   2.0000      -0.489830       -13.3289
 214   2.0000      -0.487580       -13.2677
 215   2.0000      -0.486111       -13.2277
 216   2.0000      -0.484173       -13.1750
 217   2.0000      -0.483616       -13.1599
 218   2.0000      -0.473331       -12.8800
 219   2.0000      -0.473114       -12.8741
 220   2.0000      -0.471382       -12.8270
 221   2.0000      -0.470557       -12.8045
 222   2.0000      -0.470180       -12.7942
 223   2.0000      -0.468785       -12.7563
 224   2.0000      -0.468431       -12.7467
 225   2.0000      -0.464113       -12.6292
 226   2.0000      -0.463504       -12.6126
 227   2.0000      -0.463197       -12.6042
 228   2.0000      -0.461146       -12.5484
 229   2.0000      -0.460221       -12.5232
 230   2.0000      -0.460003       -12.5173
 231   2.0000      -0.459401       -12.5009
 232   2.0000      -0.458172       -12.4675
 233   2.0000      -0.454078       -12.3561
 234   2.0000      -0.453722       -12.3464
 235   2.0000      -0.453034       -12.3277
 236   2.0000      -0.452609       -12.3161
 237   2.0000      -0.452408       -12.3107
 238   2.0000      -0.451962       -12.2985
 239   2.0000      -0.451206       -12.2780
 240   2.0000      -0.450986       -12.2719
 241   2.0000      -0.450799       -12.2669
 242   2.0000      -0.450622       -12.2620
 243   2.0000      -0.448075       -12.1927
 244   2.0000      -0.446323       -12.1451
 245   2.0000      -0.440236       -11.9794
 246   2.0000      -0.438950       -11.9444
 247   2.0000      -0.438899       -11.9430
 248   2.0000      -0.438540       -11.9333
 249   2.0000      -0.438051       -11.9200
 250   2.0000      -0.437537       -11.9060
 251   2.0000      -0.436907       -11.8888
 252   2.0000      -0.436095       -11.8667
 253   2.0000      -0.433755       -11.8031
 254   2.0000      -0.432855       -11.7786
 255   2.0000      -0.423728       -11.5302
 256   2.0000      -0.422346       -11.4926
 257   2.0000      -0.420783       -11.4501
 258   2.0000      -0.420124       -11.4322
 259   2.0000      -0.416975       -11.3465
 260   2.0000      -0.416374       -11.3301
 261   2.0000      -0.411550       -11.1989
 262   2.0000      -0.406686       -11.0665
 263   2.0000      -0.401061       -10.9134
 264   2.0000      -0.392491       -10.6802
 265   2.0000      -0.390720       -10.6320
 266   2.0000      -0.389937       -10.6107
 267   2.0000      -0.382107       -10.3977
 268   2.0000      -0.363145        -9.8817
 269   2.0000      -0.362267        -9.8578
 270   2.0000      -0.353776        -9.6267
 271   2.0000      -0.345252        -9.3948
 272   2.0000      -0.339344        -9.2340
 273   2.0000      -0.338654        -9.2152
 274   2.0000      -0.335411        -9.1270
 275   2.0000      -0.334901        -9.1131
 276   2.0000      -0.319347        -8.6899
 277   2.0000      -0.317509        -8.6399
 278   2.0000      -0.295731        -8.0473
 279   2.0000      -0.289422        -7.8756
 280   2.0000      -0.281286        -7.6542
 281   2.0000      -0.254980        -6.9384
 282   0.0000      -0.132048        -3.5932
 283   0.0000      -0.121486        -3.3058
 284   0.0000      -0.115443        -3.1414
 285   0.0000      -0.101236        -2.7548
 286   0.0000      -0.100506        -2.7349

MULLIKEN ATOMIC CHARGES
-----------------------
   0 C :   -0.036220
   1 C :    0.047883
   2 C :    0.049318
   3 C :   -0.026713
   4 C :   -0.001098
   5 C :    0.016342
   6 C :    0.295899
   7 C :   -0.348279
   8 C :   -0.185667
   9 N :    0.159797
  10 C :   -0.177247
  11 N :    0.152824
  12 C :   -0.067935
  13 C :    0.227699
  14 C :   -0.330741
  15 C :   -0.197466
  16 N :    0.177882
  17 C :   -0.178231
  18 N :    0.170787
  19 C :    0.085225
  20 C :   -0.139610
  21 C :    0.000050
  22 C :   -0.005209
  23 C :   -0.065186
  24 S :    0.231720
  25 C :   -0.105702
  26 C :    0.003356
  27 C :    0.300287
  28 C :   -0.280552
  29 C :   -0.190665
  30 N :    0.179934
  31 C :   -0.181161
  32 N :    0.171216
  33 C :   -0.013101
  34 C :   -0.119337
  35 S :    0.200840
  36 C :    0.122854
  37 C :   -0.037500
  38 C :   -0.025218
  39 C :    0.108053
  40 C :   -0.006578
  41 C :   -0.185888
  42 Si:    0.379962
  43 C :   -0.176961
  44 C :   -0.027020
  45 C :   -0.117368
  46 C :   -0.027068
  47 C :    0.012121
  48 C :   -0.108679
  49 S :    0.203871
  50 C :   -0.066030
  51 C :   -0.007545
  52 C :    0.304611
  53 C :   -0.287965
  54 C :   -0.182001
  55 N :    0.173347
  56 C :   -0.188282
  57 N :    0.179303
  58 C :   -0.001184
  59 C :   -0.137162
  60 S :    0.231024
  61 C :    0.086932
  62 C :   -0.073819
  63 C :    0.294202
  64 C :   -0.344977
  65 C :   -0.179089
  66 N :    0.152696
  67 C :   -0.187748
  68 N :    0.162024
  69 C :    0.014921
  70 C :   -0.003095
  71 C :   -0.024848
  72 C :    0.048300
  73 C :    0.045063
  74 C :   -0.032188
  75 C :    0.231064
  76 C :   -0.333082
  77 C :   -0.176358
  78 N :    0.176727
  79 C :   -0.200440
  80 N :    0.176698
  81 H :    0.007441
  82 H :    0.006684
  83 H :    0.007231
  84 H :    0.012865
  85 H :    0.011089
  86 H :    0.031723
  87 H :    0.019916
  88 H :   -0.007811
  89 H :   -0.008944
  90 H :    0.024000
  91 H :    0.009590
  92 H :    0.023426
  93 H :    0.031938
  94 H :    0.010630
  95 H :    0.013473
  96 H :    0.007257
  97 H :    0.006719
  98 H :    0.006157
Sum of atomic charges:   -0.0000000

LOEWDIN ATOMIC CHARGES
----------------------
   0 C :    0.005388
   1 C :    0.003416
   2 C :    0.006989
   3 C :    0.005503
   4 C :   -0.010359
   5 C :   -0.013829
   6 C :    0.079208
   7 C :   -0.134390
   8 C :   -0.019290
   9 N :   -0.044585
  10 C :   -0.021417
  11 N :   -0.046106
  12 C :   -0.057309
  13 C :    0.066046
  14 C :   -0.128794
  15 C :   -0.017537
  16 N :   -0.041143
  17 C :   -0.020440
  18 N :   -0.037181
  19 C :    0.034619
  20 C :   -0.181622
  21 C :    0.010274
  22 C :   -0.066318
  23 C :   -0.153074
  24 S :    0.514244
  25 C :   -0.188774
  26 C :   -0.055823
  27 C :    0.080539
  28 C :   -0.095383
  29 C :   -0.017151
  30 N :   -0.024852
  31 C :   -0.013774
  32 N :   -0.029123
  33 C :   -0.028903
  34 C :   -0.139500
  35 S :    0.492145
  36 C :   -0.035379
  37 C :   -0.021483
  38 C :   -0.018403
  39 C :   -0.036710
  40 C :   -0.005151
  41 C :   -0.223489
  42 Si:    0.454744
  43 C :   -0.216411
  44 C :   -0.007270
  45 C :   -0.140139
  46 C :   -0.028761
  47 C :   -0.055808
  48 C :   -0.188800
  49 S :    0.491212
  50 C :   -0.152701
  51 C :   -0.066975
  52 C :    0.080721
  53 C :   -0.095754
  54 C :   -0.013122
  55 N :   -0.029792
  56 C :   -0.016913
  57 N :   -0.026245
  58 C :    0.010407
  59 C :   -0.181644
  60 S :    0.513354
  61 C :    0.034546
  62 C :   -0.057515
  63 C :    0.079434
  64 C :   -0.134865
  65 C :   -0.021514
  66 N :   -0.046273
  67 C :   -0.019539
  68 N :   -0.044708
  69 C :   -0.014022
  70 C :   -0.010340
  71 C :    0.005639
  72 C :    0.006740
  73 C :    0.002902
  74 C :    0.005750
  75 C :    0.065525
  76 C :   -0.128401
  77 C :   -0.020381
  78 N :   -0.036715
  79 C :   -0.017634
  80 N :   -0.040207
  81 H :    0.041928
  82 H :    0.038626
  83 H :    0.038901
  84 H :    0.043374
  85 H :    0.045448
  86 H :    0.043364
  87 H :    0.042443
  88 H :    0.026241
  89 H :    0.026228
  90 H :    0.025957
  91 H :    0.022731
  92 H :    0.044129
  93 H :    0.043149
  94 H :    0.045407
  95 H :    0.043490
  96 H :    0.038833
  97 H :    0.038502
  98 H :    0.041645

  Mayer bond orders larger than 0.100000
B(  0-C ,  1-C ) :   1.3728 B(  0-C ,  5-C ) :   1.3791 B(  0-C , 81-H ) :   0.9838
B(  1-C ,  2-C ) :   1.3761 B(  1-C , 82-H ) :   0.9861 B(  2-C ,  3-C ) :   1.3654
B(  2-C , 83-H ) :   0.9863 B(  3-C ,  4-C ) :   1.3855 B(  3-C , 84-H ) :   0.9868
B(  4-C ,  5-C ) :   1.3101 B(  4-C , 13-C ) :   1.0069 B(  5-C ,  6-C ) :   0.9986
B(  6-C ,  7-C ) :   1.6330 B(  6-C , 12-C ) :   1.0645 B(  7-C ,  8-C ) :   1.1471
B(  7-C , 10-C ) :   1.1368 B(  8-C ,  9-N ) :   2.9769 B( 10-C , 11-N ) :   2.9641
B( 12-C , 13-C ) :   1.0173 B( 12-C , 19-C ) :   1.6183 B( 13-C , 14-C ) :   1.6581
B( 14-C , 15-C ) :   1.1614 B( 14-C , 17-C ) :   1.1336 B( 15-C , 16-N ) :   3.0039
B( 17-C , 18-N ) :   2.9990 B( 19-C , 20-C ) :   1.1901 B( 19-C , 85-H ) :   0.9086
B( 20-C , 21-C ) :   1.3751 B( 20-C , 24-S ) :   1.0940 B( 21-C , 22-C ) :   1.3735
B( 21-C , 86-H ) :   0.9798 B( 22-C , 23-C ) :   1.3955 B( 22-C , 27-C ) :   0.9968
B( 23-C , 24-S ) :   1.1649 B( 23-C , 25-C ) :   1.2023 B( 25-C , 26-C ) :   1.4360
B( 25-C , 35-S ) :   1.1139 B( 26-C , 27-C ) :   0.9959 B( 26-C , 33-C ) :   1.2898
B( 27-C , 28-C ) :   1.7187 B( 28-C , 29-C ) :   1.1328 B( 28-C , 31-C ) :   1.1348
B( 29-C , 30-N ) :   2.9878 B( 31-C , 32-N ) :   2.9786 B( 33-C , 34-C ) :   1.4705
B( 33-C , 87-H ) :   0.9898 B( 34-C , 35-S ) :   1.1290 B( 34-C , 36-C ) :   1.0539
B( 36-C , 37-C ) :   1.5223 B( 36-C , 44-C ) :   1.1206 B( 37-C , 38-C ) :   1.1880
B( 37-C , 88-H ) :   0.9850 B( 38-C , 39-C ) :   1.5271 B( 38-C , 89-H ) :   0.9830
B( 39-C , 40-C ) :   1.1437 B( 39-C , 45-C ) :   1.0486 B( 40-C , 41-C ) :   1.6415
B( 40-C , 42-Si) :   0.1257 B( 40-C , 44-C ) :   1.0170 B( 41-C , 42-Si) :   0.9991
B( 41-C , 43-C ) :   0.1149 B( 41-C , 90-H ) :   0.9312 B( 42-Si, 43-C ) :   1.0216
B( 42-Si, 44-C ) :   0.1426 B( 43-C , 44-C ) :   1.6122 B( 43-C , 91-H ) :   0.9439
B( 45-C , 46-C ) :   1.4706 B( 45-C , 49-S ) :   1.1283 B( 46-C , 47-C ) :   1.2775
B( 46-C , 92-H ) :   0.9938 B( 47-C , 48-C ) :   1.4373 B( 47-C , 52-C ) :   0.9955
B( 48-C , 49-S ) :   1.1121 B( 48-C , 50-C ) :   1.2042 B( 50-C , 51-C ) :   1.3946
B( 50-C , 60-S ) :   1.1652 B( 51-C , 52-C ) :   0.9978 B( 51-C , 58-C ) :   1.3765
B( 52-C , 53-C ) :   1.7166 B( 53-C , 54-C ) :   1.1361 B( 53-C , 56-C ) :   1.1359
B( 54-C , 55-N ) :   2.9792 B( 56-C , 57-N ) :   2.9891 B( 58-C , 59-C ) :   1.3734
B( 58-C , 93-H ) :   0.9783 B( 59-C , 60-S ) :   1.0925 B( 59-C , 61-C ) :   1.1953
B( 61-C , 62-C ) :   1.6151 B( 61-C , 94-H ) :   0.9108 B( 62-C , 63-C ) :   1.0655
B( 62-C , 75-C ) :   1.0165 B( 63-C , 64-C ) :   1.6340 B( 63-C , 69-C ) :   0.9983
B( 64-C , 65-C ) :   1.1362 B( 64-C , 67-C ) :   1.1474 B( 65-C , 66-N ) :   2.9657
B( 67-C , 68-N ) :   2.9783 B( 69-C , 70-C ) :   1.3112 B( 69-C , 74-C ) :   1.3804
B( 70-C , 71-C ) :   1.3835 B( 70-C , 75-C ) :   1.0066 B( 71-C , 72-C ) :   1.3657
B( 71-C , 95-H ) :   0.9878 B( 72-C , 73-C ) :   1.3755 B( 72-C , 96-H ) :   0.9871
B( 73-C , 74-C ) :   1.3714 B( 73-C , 97-H ) :   0.9866 B( 74-C , 98-H ) :   0.9848
B( 75-C , 76-C ) :   1.6567 B( 76-C , 77-C ) :   1.1360 B( 76-C , 79-C ) :   1.1628
B( 77-C , 78-N ) :   3.0004 B( 79-C , 80-N ) :   3.0027

-----------------------------------------------------------------------------
         ABSORPTION SPECTRUM VIA TRANSITION ELECTRIC DIPOLE MOMENTS
-----------------------------------------------------------------------------
State   Energy  Wavelength   fosc         T2         TX        TY        TZ
        (cm-1)    (nm)                  (au**2)     (au)      (au)      (au)
-----------------------------------------------------------------------------
   0    9456.4   1057.5   0.329309039  11.46445   0.13870   3.36260   0.37165
   1   12629.5    791.8   0.311894187   8.13014   0.13428   2.83186   0.30446
   2   13026.0    767.7   0.024052390   0.60789   0.71148  -0.16430  -0.27328
   3   15335.9    652.1   0.113417235   2.43469  -1.47191   0.08803   0.51031
   4   17913.8    558.2   0.065184467   1.19793  -0.16242  -1.07547  -0.12209
   5   18225.6    548.7   0.012684336   0.22912   0.08811   0.46616   0.06364
   6   18300.3    546.4   1.179617401  21.22065  -0.43778  -4.55296  -0.54728
   7   19343.8    517.0   0.043185641   0.73497   0.82695  -0.20368   0.09820
   8   20347.9    491.5   0.093946334   1.51997   0.17407   1.22011   0.03175
   9   21468.9    465.8   0.003689306   0.05657  -0.00244   0.13766  -0.19395
  10   22640.8    441.7   0.241073156   3.50536   0.27227  -1.74678   0.61644
  11   22775.8    439.1   0.192352677   2.78036  -1.27391   0.42165   0.98981
  12   23180.2    431.4   0.001083089   0.01538   0.07756  -0.09337   0.02548
  13   23908.5    418.3   0.000557537   0.00768  -0.01995   0.07063   0.04786
  14   24924.4    401.2   0.011486001   0.15171  -0.10050  -0.04545   0.37356
  15   25270.9    395.7   0.016039413   0.20895   0.38363  -0.07728   0.23623
  16   25911.4    385.9   0.036541430   0.46427   0.08352  -0.66918  -0.09739
  17   26169.7    382.1   0.001161661   0.01461   0.08251  -0.08788  -0.00908
  18   26336.1    379.7   0.003095580   0.03870   0.11501   0.08698  -0.13381
  19   26568.7    376.4   0.001511427   0.01873  -0.01712  -0.02808   0.13284
  20   28442.2    351.6   0.337997289   3.91225  -0.17365  -1.83894  -0.70739
  21   28906.9    345.9   0.030098845   0.34279  -0.50082   0.09411  -0.28829
  22   28976.8    345.1   0.035596911   0.40442  -0.02411  -0.42515  -0.47232
  23   29219.4    342.2   0.218165981   2.45805   1.21268   0.27805  -0.95402
  24   29274.5    341.6   0.251346328   2.82656   0.40451  -1.60359   0.30240
  25   29573.1    338.1   0.067587670   0.75240  -0.83105  -0.24811  -0.01366
  26   29589.9    338.0   0.073547088   0.81827   0.42494   0.40763   0.68669
  27   30130.5    331.9   0.261953171   2.86215   0.01579  -1.40509  -0.94214
  28   30723.8    325.5   0.016470058   0.17648   0.41111  -0.05233   0.06880
  29   30827.8    324.4   0.005972148   0.06378  -0.00865  -0.12948  -0.21665
  30   30884.5    323.8   0.054932962   0.58555  -0.02986  -0.67893  -0.35174
  31   31459.7    317.9   0.223014360   2.33375  -1.50162   0.10279   0.26136
  32   31616.7    316.3   0.080149527   0.83456  -0.14410  -0.30243   0.84990
  33   31785.0    314.6   0.066347634   0.68719  -0.10482   0.81995   0.06230
  34   32007.5    312.4   0.025438431   0.26165  -0.35973   0.32911  -0.15469
  35   32262.3    310.0   0.039799813   0.40613  -0.12424  -0.15763   0.60485
  36   32390.2    308.7   0.170474275   1.73269   0.14856  -1.25386  -0.37211
  37   32704.7    305.8   0.005996441   0.06036  -0.00903   0.07729   0.23304
  38   32861.0    304.3   0.529327695   5.30298   0.01885  -1.07137   2.03833
  39   32928.5    303.7   0.576456975   5.76329  -2.10906   0.50875   1.02778
  40   33050.4    302.6   0.009838006   0.09800   0.10371   0.15162   0.25348
  41   33268.9    300.6   0.107551850   1.06428   0.07008   0.98400   0.30184
  42   33504.5    298.5   0.080942516   0.79533  -0.06973  -0.82463  -0.33235
  43   34191.5    292.5   0.366951090   3.53318  -1.03166   0.15624   1.56348
  44   34222.3    292.2   0.381869922   3.67351  -1.79509  -0.22958  -0.63124
  45   34609.2    288.9   0.347134313   3.30204  -0.43809   1.66235   0.58883
  46   34763.3    287.7   0.097947596   0.92757   0.61018  -0.67269   0.32054
  47   35021.5    285.5   0.316215727   2.97252   0.25383   1.48421   0.83976
  48   35435.7    282.2   0.026192778   0.24334   0.36210  -0.11791  -0.31356
  49   35540.9    281.4   0.124118456   1.14970  -0.50134  -0.89004  -0.32585
  50   35680.0    280.3   0.024762171   0.22848  -0.46032  -0.12864   0.00566
  51   35732.1    279.9   0.082731329   0.76223   0.50410  -0.19717  -0.68501
  52   35818.8    279.2   0.006741597   0.06196   0.05233  -0.01962   0.24257
  53   36014.7    277.7   0.020700699   0.18923  -0.04074   0.42091   0.10198
  54   36141.9    276.7   0.034911530   0.31800  -0.37652  -0.01438   0.41956
  55   36429.5    274.5   0.033097344   0.29910  -0.33965   0.36780   0.22013
  56   36531.2    273.7   0.024419038   0.22006   0.21896  -0.41417  -0.02409
  57   36641.1    272.9   0.005032988   0.04522   0.10804   0.12648  -0.13248
  58   36949.6    270.6   0.016641367   0.14827  -0.05430   0.35782  -0.13147
  59   37150.9    269.2   0.009597574   0.08505   0.01816   0.22816   0.18073
  60   37317.9    268.0   0.015680519   0.13833  -0.02187  -0.35418   0.11141
  61   37401.2    267.4   0.236172385   2.07883   0.01126  -1.43870   0.09405
  62   37666.0    265.5   0.025630794   0.22402  -0.20266   0.42444   0.05295
  63   37699.3    265.3   0.016392211   0.14315   0.26982   0.19749  -0.17703
  64   37777.2    264.7   0.010254366   0.08936  -0.00199   0.29407  -0.05367
  65   38063.5    262.7   0.008037319   0.06951  -0.04925   0.24989   0.06814
  66   38132.9    262.2   0.005732017   0.04949  -0.05111  -0.17280  -0.13044
  67   38197.2    261.8   0.009324144   0.08036  -0.13274  -0.24786   0.03616
  68   38643.9    258.8   0.008897782   0.07580   0.22806   0.13961  -0.06557
  69   38797.7    257.7   0.053424488   0.45333  -0.39513  -0.41768  -0.35034
  70   38858.7    257.3   0.026418910   0.22382   0.36730  -0.03397  -0.29625
  71   39043.8    256.1   0.023573147   0.19877   0.19757   0.33831   0.21279
  72   39308.0    254.4   0.006590752   0.05520   0.01671  -0.15158  -0.17873
  73   39428.3    253.6   0.153260869   1.27967   0.44598   0.88722   0.54186
  74   39577.5    252.7   0.097371083   0.80995   0.68486  -0.26991  -0.51775
  75   39822.9    251.1   0.012928236   0.10688  -0.05835   0.15266   0.28314
  76   39888.6    250.7   0.029794176   0.24590  -0.20917   0.42335   0.15139
  77   40060.5    249.6   0.018861225   0.15500  -0.17140  -0.35158  -0.04491

FINAL SINGLE POINT ENERGY     -4983.930898485630

DIPOLE MOMENT
-------------
                                X             Y             Z
Electronic contribution:      6.66927      -1.14535       1.96310
Nuclear contribution   :     -7.16273       1.67548      -3.52693
                        -----------------------------------------
Total Dipole Moment    :     -0.49345       0.53013      -1.56382
                        -----------------------------------------
Magnitude (a.u.)       :      1.72339
Magnitude (Debye)      :      4.38051

Rotational constants in cm-1:     0.002305     0.000161     0.000157
Rotational constants in MHz :    69.116330     4.824621     4.691967

                             ****ORCA TERMINATED NORMALLY****
TOTAL RUN TIME: 0 days 0 hours 21 minutes 40 seconds 928 msec
