                         Program Version 4.2.0 -  RELEASE  -
|  1> # ORCA input file
|  2> # SCF done       -208.993934991790          0.000239685929
|  3> ! CAM-B3LYP def2-SVP def2/J RIJCOSX Grid4 TightSCF
|  4> %maxcore 5000
|  5> %tddft
|  6>     Mode sTDDFT
|  7>     Ethresh 5.0
|  8>     maxcore 5000
|  9> end
| 10>
| 11> %pal
| 12>   nprocs 6
| 13>   end
| 14> * xyz 0 1
| 15>    C       -4.01424         3.67154        -0.03688
| 16>    C       -3.77745         4.11027         1.25734
| 17>    C       -3.30662         3.24369         2.23401
| 18>    C       -3.04682         1.91325         1.94163
| 19>    C       -3.27380         1.46568         0.65076
| 20>    C       -3.76775         2.34198        -0.34226
| 21>    C       -3.94165         1.59892        -1.58288
| 22>    C       -4.27084         2.13287        -2.79924
| 23>    C       -4.48860         3.50966        -3.02486
| 24>    N       -4.67761         4.61203        -3.28130
| 25>    C       -4.39802         1.41206        -4.00580
| 26>    N       -4.51490         0.89188        -5.02283
| 27>    C       -3.69709         0.19306        -1.26822
| 28>    C       -3.06884         0.15755         0.04965
| 29>    C       -2.21091        -0.79854         0.52156
| 30>    C       -1.81806        -1.94625        -0.19654
| 31>    N       -1.43066        -2.87574        -0.74812
| 32>    C       -1.52636        -0.70263         1.75282
| 33>    N       -0.93798        -0.68189         2.73721
| 34>    C       -4.09732        -0.84782        -2.05758
| 35>    C       -4.26006        -2.20139        -1.68828
| 36>    C       -4.46830        -2.75829        -0.43269
| 37>    C       -4.61406        -4.13663        -0.48840
| 38>    C       -4.52247        -4.64485        -1.80180
| 39>    S       -4.28672        -3.42061        -2.95738
| 40>    C       -4.65157        -6.05217        -1.74303
| 41>    C       -4.82679        -6.43816        -0.40047
| 42>    C       -4.79198        -5.24677         0.43344
| 43>    C       -4.85692        -5.17387         1.79339
| 44>    C       -4.99045        -6.31811         2.60870
| 45>    N       -5.09112        -7.24528         3.27481
| 46>    C       -4.77196        -3.93381         2.46207
| 47>    N       -4.70023        -2.91530         2.98388
| 48>    C       -4.96731        -7.81483        -0.24267
| 49>    C       -4.89159        -8.48921        -1.45129
| 50>    S       -4.64018        -7.38644        -2.80291
| 51>    C       -4.96947        -9.89007        -1.70390
| 52>    C       -4.52173       -10.43674        -2.86586
| 53>    C       -4.58146       -11.82251        -3.13999
| 54>    C       -5.25818       -12.69510        -2.34733
| 55>    C       -6.02063       -12.16617        -1.14890
| 56>    C       -5.48903       -10.81439        -0.61329
| 57>    N       -6.47390       -10.11209         0.17566
| 58>    C       -7.69539       -10.29994        -0.05595
| 59>    C       -8.17194       -11.27490        -1.05569
| 60>    N       -7.40875       -12.13598        -1.56117
| 61>    F       -9.44064       -11.21614        -1.43569
| 62>    F       -8.59814        -9.61904         0.63548
| 63>    C       -5.41331       -14.07072        -2.67418
| 64>    C       -6.24572       -15.00488        -2.07662
| 65>    C       -6.17842       -16.24651        -2.70235
| 66>    C       -5.27604       -16.26982        -3.78273
| 67>    S       -4.52043       -14.76075        -4.02528
| 68>    C       -5.29209       -17.55983        -4.36261
| 69>    C       -6.21916       -18.35388        -3.65288
| 70>    C       -6.78878       -17.56085        -2.57668
| 71>    C       -7.67618       -17.98285        -1.63097
| 72>    C       -8.17042       -19.30466        -1.62998
| 73>    N       -8.56280       -20.38175        -1.65295
| 74>    C       -8.13677       -17.13298        -0.60341
| 75>    N       -8.50228       -16.43756         0.23142
| 76>    C       -6.31126       -19.64731        -4.14413
| 77>    C       -5.45458       -19.86453        -5.21666
| 78>    S       -4.55009       -18.41079        -5.63288
| 79>    C       -5.27465       -21.00900        -6.02194
| 80>    C       -5.63792       -22.30107        -5.76369
| 81>    C       -5.79344       -23.31820        -6.80194
| 82>    C       -5.26736       -23.30348        -8.06511
| 83>    C       -4.42539       -22.30089        -8.59224
| 84>    N       -3.73213       -21.52826        -9.08317
| 85>    C       -5.46005       -24.33295        -9.01212
| 86>    N       -5.57474       -25.13013        -9.82945
| 87>    C       -6.61756       -24.37492        -6.23140
| 88>    C       -6.80343       -24.11563        -4.85452
| 89>    C       -7.57982       -24.95565        -4.07396
| 90>    C       -8.16424       -26.06086        -4.67442
| 91>    C       -7.97237       -26.32553        -6.02331
| 92>    C       -7.20033       -25.48874        -6.81543
| 93>    C       -6.05994       -22.91413        -4.50808
| 94>    C       -5.61650       -22.59728        -3.25275
| 95>    C       -5.95553       -23.32725        -2.09251
| 96>    N       -6.18893       -23.88551        -1.11817
| 97>    C       -4.69018       -21.57250        -2.97310
| 98>    N       -3.91617       -20.77032        -2.69854
| 99>    H       -4.38848         4.35723        -0.77898
|100>    H       -3.96936         5.14250         1.50702
|101>    H       -3.14133         3.60715         3.23651
|102>    H       -2.69265         1.24536         2.70990
|103>    H       -4.38114        -0.62168        -3.07676
|104>    H       -4.54830        -2.17094         0.46411
|105>    H       -5.11236        -8.31560         0.69584
|106>    H       -4.08834        -9.79378        -3.61801
|107>    H       -4.09318       -12.18179        -4.03406
|108>    H       -5.96202       -12.89960        -0.33351
|109>    H       -4.64876       -11.00919         0.06788
|110>    H       -6.89440       -14.77540        -1.25255
|111>    H       -6.99860       -20.38874        -3.77951
|112>    H       -4.84894       -20.80322        -6.99527
|113>    H       -7.74468       -24.75231        -3.02834
|114>    H       -8.77882       -26.72140        -4.08245
|115>    H       -8.43532       -27.19286        -6.46839
|116>    H       -7.07043       -25.70516        -7.86296
|117> *
|118>
|119>                          ****END OF INPUT****

CARTESIAN COORDINATES (ANGSTROEM)
---------------------------------
  C     -4.014240    3.671540   -0.036880
  C     -3.777450    4.110270    1.257340
  C     -3.306620    3.243690    2.234010
  C     -3.046820    1.913250    1.941630
  C     -3.273800    1.465680    0.650760
  C     -3.767750    2.341980   -0.342260
  C     -3.941650    1.598920   -1.582880
  C     -4.270840    2.132870   -2.799240
  C     -4.488600    3.509660   -3.024860
  N     -4.677610    4.612030   -3.281300
  C     -4.398020    1.412060   -4.005800
  N     -4.514900    0.891880   -5.022830
  C     -3.697090    0.193060   -1.268220
  C     -3.068840    0.157550    0.049650
  C     -2.210910   -0.798540    0.521560
  C     -1.818060   -1.946250   -0.196540
  N     -1.430660   -2.875740   -0.748120
  C     -1.526360   -0.702630    1.752820
  N     -0.937980   -0.681890    2.737210
  C     -4.097320   -0.847820   -2.057580
  C     -4.260060   -2.201390   -1.688280
  C     -4.468300   -2.758290   -0.432690
  C     -4.614060   -4.136630   -0.488400
  C     -4.522470   -4.644850   -1.801800
  S     -4.286720   -3.420610   -2.957380
  C     -4.651570   -6.052170   -1.743030
  C     -4.826790   -6.438160   -0.400470
  C     -4.791980   -5.246770    0.433440
  C     -4.856920   -5.173870    1.793390
  C     -4.990450   -6.318110    2.608700
  N     -5.091120   -7.245280    3.274810
  C     -4.771960   -3.933810    2.462070
  N     -4.700230   -2.915300    2.983880
  C     -4.967310   -7.814830   -0.242670
  C     -4.891590   -8.489210   -1.451290
  S     -4.640180   -7.386440   -2.802910
  C     -4.969470   -9.890070   -1.703900
  C     -4.521730  -10.436740   -2.865860
  C     -4.581460  -11.822510   -3.139990
  C     -5.258180  -12.695100   -2.347330
  C     -6.020630  -12.166170   -1.148900
  C     -5.489030  -10.814390   -0.613290
  N     -6.473900  -10.112090    0.175660
  C     -7.695390  -10.299940   -0.055950
  C     -8.171940  -11.274900   -1.055690
  N     -7.408750  -12.135980   -1.561170
  F     -9.440640  -11.216140   -1.435690
  F     -8.598140   -9.619040    0.635480
  C     -5.413310  -14.070720   -2.674180
  C     -6.245720  -15.004880   -2.076620
  C     -6.178420  -16.246510   -2.702350
  C     -5.276040  -16.269820   -3.782730
  S     -4.520430  -14.760750   -4.025280
  C     -5.292090  -17.559830   -4.362610
  C     -6.219160  -18.353880   -3.652880
  C     -6.788780  -17.560850   -2.576680
  C     -7.676180  -17.982850   -1.630970
  C     -8.170420  -19.304660   -1.629980
  N     -8.562800  -20.381750   -1.652950
  C     -8.136770  -17.132980   -0.603410
  N     -8.502280  -16.437560    0.231420
  C     -6.311260  -19.647310   -4.144130
  C     -5.454580  -19.864530   -5.216660
  S     -4.550090  -18.410790   -5.632880
  C     -5.274650  -21.009000   -6.021940
  C     -5.637920  -22.301070   -5.763690
  C     -5.793440  -23.318200   -6.801940
  C     -5.267360  -23.303480   -8.065110
  C     -4.425390  -22.300890   -8.592240
  N     -3.732130  -21.528260   -9.083170
  C     -5.460050  -24.332950   -9.012120
  N     -5.574740  -25.130130   -9.829450
  C     -6.617560  -24.374920   -6.231400
  C     -6.803430  -24.115630   -4.854520
  C     -7.579820  -24.955650   -4.073960
  C     -8.164240  -26.060860   -4.674420
  C     -7.972370  -26.325530   -6.023310
  C     -7.200330  -25.488740   -6.815430
  C     -6.059940  -22.914130   -4.508080
  C     -5.616500  -22.597280   -3.252750
  C     -5.955530  -23.327250   -2.092510
  N     -6.188930  -23.885510   -1.118170
  C     -4.690180  -21.572500   -2.973100
  N     -3.916170  -20.770320   -2.698540
  H     -4.388480    4.357230   -0.778980
  H     -3.969360    5.142500    1.507020
  H     -3.141330    3.607150    3.236510
  H     -2.692650    1.245360    2.709900
  H     -4.381140   -0.621680   -3.076760
  H     -4.548300   -2.170940    0.464110
  H     -5.112360   -8.315600    0.695840
  H     -4.088340   -9.793780   -3.618010
  H     -4.093180  -12.181790   -4.034060
  H     -5.962020  -12.899600   -0.333510
  H     -4.648760  -11.009190    0.067880
  H     -6.894400  -14.775400   -1.252550
  H     -6.998600  -20.388740   -3.779510
  H     -4.848940  -20.803220   -6.995270
  H     -7.744680  -24.752310   -3.028340
  H     -8.778820  -26.721400   -4.082450
  H     -8.435320  -27.192860   -6.468390
  H     -7.070430  -25.705160   -7.862960

 Total Charge           Charge          ....    0
 Multiplicity           Mult            ....    1
 Number of Electrons    NEL             ....  582
 Basis Dimension        Dim             .... 1282

ORBITAL ENERGIES
----------------

  NO   OCC          E(Eh)            E(eV)
   0   2.0000     -89.007266     -2422.0109
   1   2.0000     -89.006880     -2422.0003
   2   2.0000     -89.002979     -2421.8942
   3   2.0000     -89.002095     -2421.8701
   4   2.0000     -24.822139      -675.4447
   5   2.0000     -24.821195      -675.4191
   6   2.0000     -14.451065      -393.2335
   7   2.0000     -14.450852      -393.2277
   8   2.0000     -14.443410      -393.0252
   9   2.0000     -14.442026      -392.9875
  10   2.0000     -14.441947      -392.9854
  11   2.0000     -14.438430      -392.8897
  12   2.0000     -14.430011      -392.6606
  13   2.0000     -14.429690      -392.6518
  14   2.0000     -14.429662      -392.6511
  15   2.0000     -14.429359      -392.6428
  16   2.0000     -14.424943      -392.5226
  17   2.0000     -14.424625      -392.5140
  18   2.0000     -14.424538      -392.5116
  19   2.0000     -14.424231      -392.5033
  20   2.0000     -10.438454      -284.0448
  21   2.0000     -10.436640      -283.9954
  22   2.0000     -10.378481      -282.4128
  23   2.0000     -10.376611      -282.3619
  24   2.0000     -10.365544      -282.0608
  25   2.0000     -10.363467      -282.0043
  26   2.0000     -10.358435      -281.8674
  27   2.0000     -10.358356      -281.8652
  28   2.0000     -10.356687      -281.8198
  29   2.0000     -10.356459      -281.8136
  30   2.0000     -10.355751      -281.7943
  31   2.0000     -10.355500      -281.7875
  32   2.0000     -10.355379      -281.7842
  33   2.0000     -10.355302      -281.7821
  34   2.0000     -10.354698      -281.7657
  35   2.0000     -10.354516      -281.7607
  36   2.0000     -10.354284      -281.7544
  37   2.0000     -10.353887      -281.7436
  38   2.0000     -10.346796      -281.5506
  39   2.0000     -10.345783      -281.5231
  40   2.0000     -10.343489      -281.4606
  41   2.0000     -10.342042      -281.4213
  42   2.0000     -10.342042      -281.4213
  43   2.0000     -10.340723      -281.3854
  44   2.0000     -10.340280      -281.3733
  45   2.0000     -10.340090      -281.3681
  46   2.0000     -10.339752      -281.3590
  47   2.0000     -10.339700      -281.3576
  48   2.0000     -10.339183      -281.3435
  49   2.0000     -10.338015      -281.3117
  50   2.0000     -10.332118      -281.1512
  51   2.0000     -10.331806      -281.1427
  52   2.0000     -10.330785      -281.1149
  53   2.0000     -10.330544      -281.1084
  54   2.0000     -10.328625      -281.0562
  55   2.0000     -10.328197      -281.0445
  56   2.0000     -10.327485      -281.0251
  57   2.0000     -10.327207      -281.0176
  58   2.0000     -10.326391      -280.9954
  59   2.0000     -10.326059      -280.9863
  60   2.0000     -10.325437      -280.9694
  61   2.0000     -10.324810      -280.9524
  62   2.0000     -10.323564      -280.9185
  63   2.0000     -10.323258      -280.9101
  64   2.0000     -10.321023      -280.8493
  65   2.0000     -10.319710      -280.8136
  66   2.0000     -10.318804      -280.7889
  67   2.0000     -10.318384      -280.7775
  68   2.0000     -10.318373      -280.7772
  69   2.0000     -10.318194      -280.7723
  70   2.0000     -10.317949      -280.7657
  71   2.0000     -10.317765      -280.7607
  72   2.0000     -10.314960      -280.6843
  73   2.0000     -10.310687      -280.5681
  74   2.0000     -10.310362      -280.5592
  75   2.0000     -10.308947      -280.5207
  76   2.0000     -10.305652      -280.4310
  77   2.0000     -10.305646      -280.4309
  78   2.0000     -10.305302      -280.4215
  79   2.0000     -10.305269      -280.4206
  80   2.0000     -10.304322      -280.3949
  81   2.0000     -10.304220      -280.3921
  82   2.0000     -10.303688      -280.3776
  83   2.0000     -10.303514      -280.3729
  84   2.0000      -8.101972      -220.4659
  85   2.0000      -8.101409      -220.4505
  86   2.0000      -8.097667      -220.3487
  87   2.0000      -8.096637      -220.3207
  88   2.0000      -6.071121      -165.2036
  89   2.0000      -6.070564      -165.1884
  90   2.0000      -6.066935      -165.0897
  91   2.0000      -6.066927      -165.0895
  92   2.0000      -6.066385      -165.0747
  93   2.0000      -6.065886      -165.0612
  94   2.0000      -6.064461      -165.0224
  95   2.0000      -6.063950      -165.0085
  96   2.0000      -6.062749      -164.9758
  97   2.0000      -6.061714      -164.9476
  98   2.0000      -6.059963      -164.9000
  99   2.0000      -6.059006      -164.8739
 100   2.0000      -1.352316       -36.7984
 101   2.0000      -1.337824       -36.4041
 102   2.0000      -1.104835       -30.0641
 103   2.0000      -1.061354       -28.8809
 104   2.0000      -1.059889       -28.8410
 105   2.0000      -1.043174       -28.3862
 106   2.0000      -1.043073       -28.3834
 107   2.0000      -1.037578       -28.2339
 108   2.0000      -1.034497       -28.1501
 109   2.0000      -1.032417       -28.0935
 110   2.0000      -1.025046       -27.8929
 111   2.0000      -1.024808       -27.8864
 112   2.0000      -1.020393       -27.7663
 113   2.0000      -1.017765       -27.6948
 114   2.0000      -1.015846       -27.6426
 115   2.0000      -1.014476       -27.6053
 116   2.0000      -1.014077       -27.5944
 117   2.0000      -1.013037       -27.5661
 118   2.0000      -1.005508       -27.3613
 119   2.0000      -1.005222       -27.3535
 120   2.0000      -1.004091       -27.3227
 121   2.0000      -1.003864       -27.3165
 122   2.0000      -0.984698       -26.7950
 123   2.0000      -0.975988       -26.5580
 124   2.0000      -0.965854       -26.2822
 125   2.0000      -0.963646       -26.2221
 126   2.0000      -0.962661       -26.1953
 127   2.0000      -0.947003       -25.7693
 128   2.0000      -0.946832       -25.7646
 129   2.0000      -0.936360       -25.4796
 130   2.0000      -0.928770       -25.2731
 131   2.0000      -0.909645       -24.7527
 132   2.0000      -0.902846       -24.5677
 133   2.0000      -0.899735       -24.4830
 134   2.0000      -0.896005       -24.3815
 135   2.0000      -0.892725       -24.2923
 136   2.0000      -0.887288       -24.1443
 137   2.0000      -0.880520       -23.9602
 138   2.0000      -0.872433       -23.7401
 139   2.0000      -0.871377       -23.7114
 140   2.0000      -0.871206       -23.7067
 141   2.0000      -0.870714       -23.6933
 142   2.0000      -0.867881       -23.6162
 143   2.0000      -0.833936       -22.6925
 144   2.0000      -0.824376       -22.4324
 145   2.0000      -0.805989       -21.9321
 146   2.0000      -0.798862       -21.7381
 147   2.0000      -0.797912       -21.7123
 148   2.0000      -0.797419       -21.6989
 149   2.0000      -0.794547       -21.6207
 150   2.0000      -0.788081       -21.4448
 151   2.0000      -0.781740       -21.2722
 152   2.0000      -0.775700       -21.1079
 153   2.0000      -0.753757       -20.5108
 154   2.0000      -0.733732       -19.9659
 155   2.0000      -0.726537       -19.7701
 156   2.0000      -0.722250       -19.6534
 157   2.0000      -0.720548       -19.6071
 158   2.0000      -0.720057       -19.5938
 159   2.0000      -0.719983       -19.5917
 160   2.0000      -0.713750       -19.4221
 161   2.0000      -0.709349       -19.3024
 162   2.0000      -0.699573       -19.0364
 163   2.0000      -0.695675       -18.9303
 164   2.0000      -0.691958       -18.8291
 165   2.0000      -0.689369       -18.7587
 166   2.0000      -0.682121       -18.5615
 167   2.0000      -0.677918       -18.4471
 168   2.0000      -0.672824       -18.3085
 169   2.0000      -0.672676       -18.3044
 170   2.0000      -0.670799       -18.2534
 171   2.0000      -0.669856       -18.2277
 172   2.0000      -0.659396       -17.9431
 173   2.0000      -0.657725       -17.8976
 174   2.0000      -0.650312       -17.6959
 175   2.0000      -0.646629       -17.5957
 176   2.0000      -0.644896       -17.5485
 177   2.0000      -0.635742       -17.2994
 178   2.0000      -0.631940       -17.1960
 179   2.0000      -0.625664       -17.0252
 180   2.0000      -0.623860       -16.9761
 181   2.0000      -0.620473       -16.8839
 182   2.0000      -0.613759       -16.7012
 183   2.0000      -0.607980       -16.5440
 184   2.0000      -0.596930       -16.2433
 185   2.0000      -0.594970       -16.1900
 186   2.0000      -0.592478       -16.1222
 187   2.0000      -0.592114       -16.1122
 188   2.0000      -0.586297       -15.9539
 189   2.0000      -0.582385       -15.8475
 190   2.0000      -0.580428       -15.7943
 191   2.0000      -0.569884       -15.5073
 192   2.0000      -0.566213       -15.4074
 193   2.0000      -0.564323       -15.3560
 194   2.0000      -0.563049       -15.3213
 195   2.0000      -0.561044       -15.2668
 196   2.0000      -0.556202       -15.1350
 197   2.0000      -0.553805       -15.0698
 198   2.0000      -0.552545       -15.0355
 199   2.0000      -0.546528       -14.8718
 200   2.0000      -0.546097       -14.8601
 201   2.0000      -0.544108       -14.8059
 202   2.0000      -0.541974       -14.7479
 203   2.0000      -0.536337       -14.5945
 204   2.0000      -0.535545       -14.5729
 205   2.0000      -0.534614       -14.5476
 206   2.0000      -0.528302       -14.3758
 207   2.0000      -0.525698       -14.3050
 208   2.0000      -0.520006       -14.1501
 209   2.0000      -0.519333       -14.1318
 210   2.0000      -0.518883       -14.1195
 211   2.0000      -0.517022       -14.0689
 212   2.0000      -0.515755       -14.0344
 213   2.0000      -0.513642       -13.9769
 214   2.0000      -0.513296       -13.9675
 215   2.0000      -0.512136       -13.9359
 216   2.0000      -0.509802       -13.8724
 217   2.0000      -0.505680       -13.7603
 218   2.0000      -0.504964       -13.7408
 219   2.0000      -0.503643       -13.7048
 220   2.0000      -0.499717       -13.5980
 221   2.0000      -0.495949       -13.4955
 222   2.0000      -0.488885       -13.3032
 223   2.0000      -0.487368       -13.2620
 224   2.0000      -0.486690       -13.2435
 225   2.0000      -0.484293       -13.1783
 226   2.0000      -0.481175       -13.0934
 227   2.0000      -0.473184       -12.8760
 228   2.0000      -0.471491       -12.8299
 229   2.0000      -0.471262       -12.8237
 230   2.0000      -0.470783       -12.8107
 231   2.0000      -0.470142       -12.7932
 232   2.0000      -0.467792       -12.7293
 233   2.0000      -0.464822       -12.6485
 234   2.0000      -0.464223       -12.6322
 235   2.0000      -0.464072       -12.6280
 236   2.0000      -0.461552       -12.5595
 237   2.0000      -0.461131       -12.5480
 238   2.0000      -0.461023       -12.5451
 239   2.0000      -0.460169       -12.5218
 240   2.0000      -0.459912       -12.5149
 241   2.0000      -0.458742       -12.4830
 242   2.0000      -0.454869       -12.3776
 243   2.0000      -0.453937       -12.3523
 244   2.0000      -0.453182       -12.3317
 245   2.0000      -0.452443       -12.3116
 246   2.0000      -0.451973       -12.2988
 247   2.0000      -0.451713       -12.2917
 248   2.0000      -0.451213       -12.2781
 249   2.0000      -0.450862       -12.2686
 250   2.0000      -0.449849       -12.2410
 251   2.0000      -0.449173       -12.2226
 252   2.0000      -0.448363       -12.2006
 253   2.0000      -0.443508       -12.0685
 254   2.0000      -0.440421       -11.9845
 255   2.0000      -0.439261       -11.9529
 256   2.0000      -0.438846       -11.9416
 257   2.0000      -0.438523       -11.9328
 258   2.0000      -0.437180       -11.8963
 259   2.0000      -0.436792       -11.8857
 260   2.0000      -0.436637       -11.8815
 261   2.0000      -0.435842       -11.8599
 262   2.0000      -0.434775       -11.8308
 263   2.0000      -0.434042       -11.8109
 264   2.0000      -0.431144       -11.7320
 265   2.0000      -0.423079       -11.5126
 266   2.0000      -0.421155       -11.4602
 267   2.0000      -0.420912       -11.4536
 268   2.0000      -0.418523       -11.3886
 269   2.0000      -0.417244       -11.3538
 270   2.0000      -0.417062       -11.3488
 271   2.0000      -0.415717       -11.3122
 272   2.0000      -0.399787       -10.8788
 273   2.0000      -0.393980       -10.7207
 274   2.0000      -0.391094       -10.6422
 275   2.0000      -0.390669       -10.6306
 276   2.0000      -0.379767       -10.3340
 277   2.0000      -0.374472       -10.1899
 278   2.0000      -0.368513       -10.0277
 279   2.0000      -0.362421        -9.8620
 280   2.0000      -0.359486        -9.7821
 281   2.0000      -0.352088        -9.5808
 282   2.0000      -0.340021        -9.2525
 283   2.0000      -0.339625        -9.2417
 284   2.0000      -0.336758        -9.1636
 285   2.0000      -0.334059        -9.0902
 286   2.0000      -0.329441        -8.9646
 287   2.0000      -0.319325        -8.6893
 288   2.0000      -0.306659        -8.3446
 289   2.0000      -0.282832        -7.6963
 290   2.0000      -0.256438        -6.9780
 291   0.0000      -0.128827        -3.5056
 292   0.0000      -0.120234        -3.2717
 293   0.0000      -0.101050        -2.7497
 294   0.0000      -0.099984        -2.7207
 295   0.0000      -0.093243        -2.5373

MULLIKEN ATOMIC CHARGES
-----------------------
   0 C :   -0.034414
   1 C :    0.048641
   2 C :    0.049495
   3 C :   -0.026917
   4 C :   -0.002063
   5 C :    0.014824
   6 C :    0.294712
   7 C :   -0.342252
   8 C :   -0.189664
   9 N :    0.165071
  10 C :   -0.181134
  11 N :    0.154271
  12 C :   -0.071034
  13 C :    0.230337
  14 C :   -0.336690
  15 C :   -0.195073
  16 N :    0.180568
  17 C :   -0.179850
  18 N :    0.173189
  19 C :    0.088621
  20 C :   -0.147160
  21 C :    0.001245
  22 C :   -0.006757
  23 C :   -0.063964
  24 S :    0.233640
  25 C :   -0.102611
  26 C :    0.028198
  27 C :    0.303153
  28 C :   -0.283004
  29 C :   -0.187446
  30 N :    0.184875
  31 C :   -0.183942
  32 N :    0.168278
  33 C :   -0.029920
  34 C :   -0.075918
  35 S :    0.183703
  36 C :    0.010445
  37 C :   -0.035861
  38 C :   -0.060776
  39 C :    0.068189
  40 C :    0.057172
  41 C :    0.149054
  42 N :   -0.104023
  43 C :    0.124332
  44 C :    0.124977
  45 N :   -0.087507
  46 F :   -0.135302
  47 F :   -0.133266
  48 C :   -0.062832
  49 C :   -0.036717
  50 C :    0.029724
  51 C :   -0.099258
  52 S :    0.183198
  53 C :   -0.064027
  54 C :   -0.009083
  55 C :    0.307424
  56 C :   -0.284226
  57 C :   -0.182128
  58 N :    0.172395
  59 C :   -0.184028
  60 N :    0.174396
  61 C :   -0.001986
  62 C :   -0.135969
  63 S :    0.229949
  64 C :    0.088698
  65 C :   -0.070686
  66 C :    0.289078
  67 C :   -0.344434
  68 C :   -0.178282
  69 N :    0.153072
  70 C :   -0.189162
  71 N :    0.164692
  72 C :    0.014293
  73 C :    0.001124
  74 C :   -0.027754
  75 C :    0.046864
  76 C :    0.046763
  77 C :   -0.033106
  78 C :    0.225760
  79 C :   -0.331688
  80 C :   -0.177778
  81 N :    0.176027
  82 C :   -0.197306
  83 N :    0.178451
  84 H :    0.007888
  85 H :    0.006019
  86 H :    0.007338
  87 H :    0.014800
  88 H :    0.014027
  89 H :    0.029667
  90 H :    0.029562
  91 H :   -0.004657
  92 H :   -0.002746
  93 H :    0.046071
  94 H :    0.046953
  95 H :    0.012996
  96 H :    0.030087
  97 H :    0.011787
  98 H :    0.015321
  99 H :    0.008598
 100 H :    0.005908
 101 H :    0.008477
Sum of atomic charges:   -0.0000000

LOEWDIN ATOMIC CHARGES
----------------------
   0 C :    0.005576
   1 C :    0.003855
   2 C :    0.007441
   3 C :    0.005876
   4 C :   -0.009943
   5 C :   -0.013823
   6 C :    0.078759
   7 C :   -0.133247
   8 C :   -0.019661
   9 N :   -0.043562
  10 C :   -0.021431
  11 N :   -0.045271
  12 C :   -0.054830
  13 C :    0.066340
  14 C :   -0.126921
  15 C :   -0.017259
  16 N :   -0.042362
  17 C :   -0.020394
  18 N :   -0.036689
  19 C :    0.034610
  20 C :   -0.182357
  21 C :    0.006472
  22 C :   -0.063725
  23 C :   -0.155620
  24 S :    0.514303
  25 C :   -0.182549
  26 C :   -0.057908
  27 C :    0.079808
  28 C :   -0.093317
  29 C :   -0.018734
  30 N :   -0.020667
  31 C :   -0.012309
  32 N :   -0.031479
  33 C :   -0.019111
  34 C :   -0.155178
  35 S :    0.484450
  36 C :   -0.039497
  37 C :   -0.035154
  38 C :   -0.027336
  39 C :   -0.033666
  40 C :    0.024073
  41 C :    0.027912
  42 N :   -0.064735
  43 C :    0.057421
  44 C :    0.049922
  45 N :   -0.070244
  46 F :   -0.024512
  47 F :   -0.022474
  48 C :   -0.144460
  49 C :   -0.023083
  50 C :   -0.054768
  51 C :   -0.183620
  52 S :    0.485284
  53 C :   -0.154968
  54 C :   -0.065084
  55 C :    0.081338
  56 C :   -0.094680
  57 C :   -0.012900
  58 N :   -0.029523
  59 C :   -0.015766
  60 N :   -0.026965
  61 C :    0.009211
  62 C :   -0.181398
  63 S :    0.513356
  64 C :    0.032988
  65 C :   -0.056016
  66 C :    0.079457
  67 C :   -0.134052
  68 C :   -0.021651
  69 N :   -0.045765
  70 C :   -0.019759
  71 N :   -0.043971
  72 C :   -0.014020
  73 C :   -0.009960
  74 C :    0.005307
  75 C :    0.006920
  76 C :    0.003373
  77 C :    0.005553
  78 C :    0.065743
  79 C :   -0.127548
  80 C :   -0.020432
  81 N :   -0.035622
  82 C :   -0.017299
  83 N :   -0.039718
  84 H :    0.042029
  85 H :    0.038511
  86 H :    0.038981
  87 H :    0.043853
  88 H :    0.045636
  89 H :    0.042852
  90 H :    0.042379
  91 H :    0.026041
  92 H :    0.026182
  93 H :    0.043794
  94 H :    0.051589
  95 H :    0.040114
  96 H :    0.042901
  97 H :    0.045416
  98 H :    0.043774
  99 H :    0.039091
 100 H :    0.038442
 101 H :    0.042059

  Mayer bond orders larger than 0.100000
B(  0-C ,  1-C ) :   1.3726 B(  0-C ,  5-C ) :   1.3824 B(  0-C , 84-H ) :   0.9822
B(  1-C ,  2-C ) :   1.3766 B(  1-C , 85-H ) :   0.9856 B(  2-C ,  3-C ) :   1.3680
B(  2-C , 86-H ) :   0.9860 B(  3-C ,  4-C ) :   1.3831 B(  3-C , 87-H ) :   0.9859
B(  4-C ,  5-C ) :   1.3111 B(  4-C , 13-C ) :   1.0072 B(  5-C ,  6-C ) :   0.9988
B(  6-C ,  7-C ) :   1.6380 B(  6-C , 12-C ) :   1.0593 B(  7-C ,  8-C ) :   1.1472
B(  7-C , 10-C ) :   1.1354 B(  8-C ,  9-N ) :   2.9790 B( 10-C , 11-N ) :   2.9670
B( 12-C , 13-C ) :   1.0120 B( 12-C , 19-C ) :   1.6345 B( 13-C , 14-C ) :   1.6603
B( 14-C , 15-C ) :   1.1622 B( 14-C , 17-C ) :   1.1379 B( 15-C , 16-N ) :   3.0048
B( 17-C , 18-N ) :   2.9987 B( 19-C , 20-C ) :   1.1724 B( 19-C , 88-H ) :   0.9099
B( 20-C , 21-C ) :   1.3825 B( 20-C , 24-S ) :   1.0987 B( 21-C , 22-C ) :   1.3651
B( 21-C , 89-H ) :   0.9840 B( 22-C , 23-C ) :   1.4014 B( 22-C , 27-C ) :   0.9946
B( 23-C , 24-S ) :   1.1576 B( 23-C , 25-C ) :   1.2025 B( 25-C , 26-C ) :   1.4275
B( 25-C , 35-S ) :   1.1231 B( 26-C , 27-C ) :   0.9971 B( 26-C , 33-C ) :   1.2785
B( 27-C , 28-C ) :   1.7218 B( 28-C , 29-C ) :   1.1322 B( 28-C , 31-C ) :   1.1332
B( 29-C , 30-N ) :   2.9924 B( 31-C , 32-N ) :   2.9780 B( 33-C , 34-C ) :   1.4498
B( 33-C , 90-H ) :   0.9842 B( 34-C , 35-S ) :   1.1042 B( 34-C , 36-C ) :   1.1434
B( 36-C , 37-C ) :   1.6663 B( 36-C , 41-C ) :   0.9565 B( 37-C , 38-C ) :   1.1443
B( 37-C , 91-H ) :   0.9725 B( 38-C , 39-C ) :   1.6553 B( 38-C , 92-H ) :   0.9728
B( 39-C , 40-C ) :   0.9951 B( 39-C , 48-C ) :   1.1532 B( 40-C , 41-C ) :   0.9794
B( 40-C , 45-N ) :   1.0295 B( 40-C , 93-H ) :   0.8904 B( 41-C , 42-N ) :   1.0162
B( 41-C , 94-H ) :   0.8719 B( 42-N , 43-C ) :   1.9259 B( 43-C , 44-C ) :   0.9317
B( 43-C , 47-F ) :   1.1767 B( 44-C , 45-N ) :   1.9466 B( 44-C , 46-F ) :   1.1749
B( 48-C , 49-C ) :   1.4581 B( 48-C , 52-S ) :   1.1087 B( 49-C , 50-C ) :   1.2783
B( 49-C , 95-H ) :   0.9826 B( 50-C , 51-C ) :   1.4326 B( 50-C , 55-C ) :   0.9965
B( 51-C , 52-S ) :   1.1194 B( 51-C , 53-C ) :   1.2000 B( 53-C , 54-C ) :   1.3972
B( 53-C , 63-S ) :   1.1608 B( 54-C , 55-C ) :   0.9959 B( 54-C , 61-C ) :   1.3718
B( 55-C , 56-C ) :   1.7187 B( 56-C , 57-C ) :   1.1327 B( 56-C , 59-C ) :   1.1337
B( 57-C , 58-N ) :   2.9796 B( 59-C , 60-N ) :   2.9871 B( 61-C , 62-C ) :   1.3738
B( 61-C , 96-H ) :   0.9796 B( 62-C , 63-S ) :   1.0950 B( 62-C , 64-C ) :   1.1902
B( 64-C , 65-C ) :   1.6272 B( 64-C , 97-H ) :   0.9078 B( 65-C , 66-C ) :   1.0607
B( 65-C , 78-C ) :   1.0131 B( 66-C , 67-C ) :   1.6395 B( 66-C , 72-C ) :   1.0004
B( 67-C , 68-C ) :   1.1344 B( 67-C , 70-C ) :   1.1468 B( 68-C , 69-N ) :   2.9702
B( 70-C , 71-N ) :   2.9811 B( 72-C , 73-C ) :   1.3094 B( 72-C , 77-C ) :   1.3821
B( 73-C , 74-C ) :   1.3840 B( 73-C , 78-C ) :   1.0064 B( 74-C , 75-C ) :   1.3658
B( 74-C , 98-H ) :   0.9872 B( 75-C , 76-C ) :   1.3760 B( 75-C , 99-H ) :   0.9870
B( 76-C , 77-C ) :   1.3709 B( 76-C ,100-H ) :   0.9864 B( 77-C ,101-H ) :   0.9840
B( 78-C , 79-C ) :   1.6622 B( 79-C , 80-C ) :   1.1346 B( 79-C , 82-C ) :   1.1627
B( 80-C , 81-N ) :   3.0011 B( 82-C , 83-N ) :   3.0029

-----------------------------------------------------------------------------
         ABSORPTION SPECTRUM VIA TRANSITION ELECTRIC DIPOLE MOMENTS
-----------------------------------------------------------------------------
State   Energy  Wavelength   fosc         T2         TX        TY        TZ
        (cm-1)    (nm)                  (au**2)     (au)      (au)      (au)
-----------------------------------------------------------------------------
   0   12053.4    829.6   0.881683315  24.08129   0.40323   4.78660   1.00357
   1   13261.1    754.1   0.035525348   0.88193   0.29919   0.83917  -0.29700
   2   17977.4    556.3   1.481607260  27.13196   0.61046   5.08599   0.94446
   3   19332.3    517.3   0.055302219   0.94175   0.71785  -0.46677  -0.45670
   4   20694.4    483.2   0.002230916   0.03549   0.16672  -0.07613  -0.04357
   5   21859.0    457.5   0.046238494   0.69639   0.19170  -0.75955  -0.28762
   6   22533.7    443.8   0.227563993   3.32466  -0.18532   1.64595  -0.76233
   7   22593.1    442.6   0.209580165   3.05387   0.04441  -0.82826  -1.53814
   8   24690.8    405.0   0.081197909   1.08264  -0.46045  -0.90980  -0.20713
   9   25572.6    391.0   0.065569937   0.84412  -0.02547  -0.88150  -0.25774
  10   26142.2    382.5   0.168634495   2.12364  -0.25679  -1.34844  -0.48929
  11   26215.2    381.5   0.016020093   0.20118   0.36891  -0.25435  -0.01986
  12   26971.9    370.8   0.006573941   0.08024   0.27495   0.05189   0.04414
  13   28133.8    355.4   0.144140134   1.68668   0.23541   1.23749   0.31602
  14   29039.6    344.4   0.023661308   0.26824  -0.06650   0.50300   0.10397
  15   29407.8    340.0   0.083637150   0.93630   0.55744  -0.14029  -0.77838
  16   29934.7    334.1   0.172317679   1.89510  -0.31027  -1.04580  -0.83972
  17   30021.2    333.1   0.077374899   0.84849   0.75962   0.09819   0.51170
  18   30250.9    330.6   0.408217888   4.44252  -0.12980  -0.91566   1.89400
  19   30464.3    328.3   0.325878040   3.52160   1.08078  -0.02268  -1.53395
  20   30623.5    326.5   0.097897714   1.05243  -0.13119  -0.99681  -0.20395
  21   30931.1    323.3   0.021194731   0.22558   0.28472   0.06855   0.37392
  22   31673.2    315.7   0.094506134   0.98230  -0.14458   0.97614   0.09246
  23   31695.1    315.5   0.067604775   0.70220   0.21526   0.58926   0.55555
  24   32190.7    310.6   0.083586127   0.85483   0.34556  -0.03002  -0.85704
  25   32507.2    307.6   0.299632056   3.03448  -0.21396  -1.70360  -0.29405
  26   33059.0    302.5   0.253791036   2.52733  -0.70221   0.62331  -1.28286
  27   33184.1    301.3   0.249172685   2.47198  -0.78429   0.94729  -0.97955
  28   33292.8    300.4   0.482015837   4.76636  -0.24940   0.06461   2.16795
  29   33479.7    298.7   0.022004906   0.21638   0.34153  -0.09808   0.30019
  30   34016.1    294.0   0.081953616   0.79316  -0.82696   0.06586  -0.32397
  31   34345.0    291.2   0.571297056   5.47613   0.81190   0.49838  -2.13742
  32   34675.4    288.4   0.013437187   0.12757  -0.24748  -0.07142   0.24744
  33   34790.1    287.4   0.046705907   0.44197   0.09209   0.07720  -0.65386
  34   35408.4    282.4   0.152382676   1.41679  -0.09176   1.08520   0.48031
  35   35547.6    281.3   0.091483722   0.84725  -0.87242   0.05928   0.28742
  36   35630.6    280.7   0.263593732   2.43550  -0.27240  -1.41132  -0.60785
  37   35883.9    278.7   0.027101316   0.24864  -0.00625  -0.38034  -0.32240
  38   36006.1    277.7   0.077040539   0.70440   0.15135   0.60950   0.55678
  39   36286.5    275.6   0.023639231   0.21447  -0.19736   0.40997  -0.08628
  40   36587.5    273.3   0.024815242   0.22329  -0.19869  -0.18502   0.38675
  41   36808.3    271.7   0.191957357   1.71686  -0.80309  -1.03105  -0.09405
  42   36956.7    270.6   0.193507998   1.72378  -0.36213   0.11900   1.25638
  43   37464.5    266.9   0.026650321   0.23418   0.33944   0.34426   0.02121
  44   37513.5    266.6   0.002143265   0.01881   0.03475   0.05502  -0.12072
  45   37565.1    266.2   0.010988418   0.09630   0.23289   0.19735  -0.05583
  46   37757.2    264.9   0.038377265   0.33462   0.21240   0.43122   0.32180
  47   37958.7    263.4   0.006489954   0.05629  -0.10937  -0.00944   0.21032
  48   38340.5    260.8   0.020332462   0.17459  -0.03314   0.12704   0.39667
  49   38370.6    260.6   0.006398779   0.05490  -0.17275  -0.13018   0.09007
  50   38490.1    259.8   0.005843545   0.04998  -0.14790  -0.10248   0.13268
  51   38620.8    258.9   0.040743462   0.34731   0.06724   0.58493   0.02536
  52   39013.3    256.3   0.015517413   0.13094  -0.17398  -0.30283  -0.09470
  53   39171.0    255.3   0.104597543   0.87909  -0.24245  -0.72880  -0.53773
  54   39506.6    253.1   0.023912225   0.19926  -0.12526  -0.33780   0.26356
  55   39867.7    250.8   0.208717014   1.72350   0.14850   1.29165   0.18194

FINAL SINGLE POINT ENERGY     -5003.457952568751

DIPOLE MOMENT
-------------
                                X             Y             Z
Electronic contribution:     -4.97682       3.19528      -1.94056
Nuclear contribution   :      3.78458      -2.90431       1.30935
                        -----------------------------------------
Total Dipole Moment    :     -1.19224       0.29097      -0.63122
                        -----------------------------------------
Magnitude (a.u.)       :      1.38005
Magnitude (Debye)      :      3.50780

Rotational constants in cm-1:     0.002227     0.000160     0.000155
Rotational constants in MHz :    66.768066     4.808398     4.641783

                             ****ORCA TERMINATED NORMALLY****
TOTAL RUN TIME: 0 days 0 hours 12 minutes 21 seconds 360 msec
