                         Program Version 4.2.0 -  RELEASE  -
|  1> # ORCA input file
|  2> # SCF done       -184.085969391873          0.000725644002
|  3> ! CAM-B3LYP def2-SVP def2/J RIJCOSX Grid4 TightSCF
|  4> %maxcore 5000
|  5> %tddft
|  6>     Mode sTDDFT
|  7>     Ethresh 5.0
|  8>     maxcore 5000
|  9> end
| 10>
| 11> %pal
| 12>   nprocs 6
| 13>   end
| 14> * xyz 0 1
| 15>    C        0.81736         1.45941        -5.18917
| 16>    C        1.91315         1.76379        -4.39408
| 17>    C        2.07349         1.18686        -3.14324
| 18>    C        1.13392         0.29687        -2.64345
| 19>    C        0.03448        -0.00851        -3.42643
| 20>    C       -0.12333         0.56375        -4.70766
| 21>    C       -1.33587         0.02536        -5.31489
| 22>    C       -1.87501         0.43150        -6.51041
| 23>    C       -1.33277         1.45597        -7.31267
| 24>    N       -0.95034         2.28066        -8.01468
| 25>    C       -3.05589        -0.06789        -7.09513
| 26>    N       -4.00715        -0.41945        -7.63573
| 27>    C       -1.83242        -1.00746        -4.42204
| 28>    C       -1.10542        -0.87736        -3.17000
| 29>    C       -1.54301        -1.23925        -1.92086
| 30>    C       -2.78327        -1.85202        -1.65565
| 31>    N       -3.79745        -2.30999        -1.37065
| 32>    C       -0.85277        -0.93926        -0.72879
| 33>    N       -0.34463        -0.71643         0.27617
| 34>    C       -2.76580        -1.95617        -4.78051
| 35>    C       -2.96835        -3.21124        -4.19485
| 36>    C       -2.12921        -3.94484        -3.35817
| 37>    C       -2.66452        -5.16812        -3.00708
| 38>    C       -3.94874        -5.40476        -3.58633
| 39>    S       -4.44741        -4.10859        -4.57876
| 40>    C       -4.41637        -6.64239        -3.14062
| 41>    C       -3.44081        -7.20084        -2.27160
| 42>    C       -2.31586        -6.28561        -2.16584
| 43>    C       -1.19170        -6.44433        -1.39872
| 44>    C       -0.97421        -7.57127        -0.58631
| 45>    N       -0.77254        -8.48341         0.08372
| 46>    C       -0.17480        -5.46786        -1.38508
| 47>    N        0.64586        -4.66646        -1.40643
| 48>    C       -3.79414        -8.41953        -1.74820
| 49>    C       -5.05878        -8.85165        -2.18118
| 50>    S       -5.77993        -7.67796        -3.29591
| 51>    C       -5.75667       -10.00474        -1.83799
| 52>    C       -5.37117       -10.95370        -0.89901
| 53>    C       -6.06966       -12.12224        -0.54256
| 54>    C       -5.46968       -12.86520         0.44794
| 55>    C       -4.27442       -12.30932         0.91436
| 56>    S       -3.92218       -10.83118         0.06792
| 57>    C       -3.37328       -12.71525         1.90434
| 58>    C       -3.37421       -13.83063         2.74723
| 59>    C       -2.30377       -13.85456         3.61011
| 60>    C       -1.42374       -12.76641         3.47735
| 61>    S       -1.99358       -11.70081         2.22443
| 62>    C       -0.28869       -12.55136         4.25789
| 63>    C        0.64617       -11.53123         4.20121
| 64>    C        1.63186       -11.43778         5.18761
| 65>    C        2.51465       -10.38264         5.28760
| 66>    C        2.62743        -9.38975         4.31587
| 67>    C        1.88658        -9.62823         3.00793
| 68>    C        0.57835       -10.43865         3.15730
| 69>    N       -0.58031        -9.62660         3.46595
| 70>    C       -0.59351        -8.43314         3.07228
| 71>    C        0.56056        -7.81015         2.39907
| 72>    N        1.69109        -8.35758         2.34960
| 73>    F        0.40803        -6.59443         1.88523
| 74>    F       -1.64983        -7.67029         3.33189
| 75>    C        3.41895        -8.25302         4.40425
| 76>    C        4.15849        -7.75218         5.46865
| 77>    C        4.91873        -6.56609         5.39814
| 78>    C        5.55308        -6.22401         6.55897
| 79>    C        5.32322        -7.12719         7.61485
| 80>    S        4.27703        -8.42513         7.07678
| 81>    C        5.80974        -7.07010         8.90797
| 82>    C        6.65804        -6.07447         9.46052
| 83>    C        6.97216        -6.27111        10.76276
| 84>    C        6.38992        -7.44709        11.33825
| 85>    S        5.42243        -8.27748        10.10857
| 86>    C        6.51678        -7.89879        12.59493
| 87>    H        0.71576         1.91179        -6.16172
| 88>    H        2.65460         2.45668        -4.76207
| 89>    H        2.94154         1.42918        -2.54924
| 90>    H        1.27326        -0.15634        -1.67552
| 91>    H       -3.37330        -1.75288        -5.65202
| 92>    H       -1.15297        -3.60397        -3.06361
| 93>    H       -3.16111        -8.98349        -1.09304
| 94>    H       -6.70584       -10.17174        -2.32967
| 95>    H       -6.99658       -12.39128        -1.01772
| 96>    H       -5.87078       -13.78243         0.84054
| 97>    H       -4.14373       -14.58087         2.71362
| 98>    H       -2.13526       -14.63149         4.33518
| 99>    H       -0.13576       -13.28977         5.03690
|100>    H        1.65352       -12.19986         5.95345
|101>    H        3.14878       -10.33127         6.15856
|102>    H        2.56847       -10.19698         2.36017
|103>    H        0.36485       -10.89652         2.17984
|104>    H        3.45286        -7.63786         3.51354
|105>    H        4.97368        -5.99337         4.48937
|106>    H        6.16831        -5.35041         6.67459
|107>    H        7.00576        -5.24428         8.87215
|108>    H        7.59956        -5.62432        11.34949
|109>    H        7.11320        -7.36331        13.31229
|110>    H        6.03190        -8.79934        12.92430
|111> *
|112>
|113>                          ****END OF INPUT****

CARTESIAN COORDINATES (ANGSTROEM)
---------------------------------
  C      0.817360    1.459410   -5.189170
  C      1.913150    1.763790   -4.394080
  C      2.073490    1.186860   -3.143240
  C      1.133920    0.296870   -2.643450
  C      0.034480   -0.008510   -3.426430
  C     -0.123330    0.563750   -4.707660
  C     -1.335870    0.025360   -5.314890
  C     -1.875010    0.431500   -6.510410
  C     -1.332770    1.455970   -7.312670
  N     -0.950340    2.280660   -8.014680
  C     -3.055890   -0.067890   -7.095130
  N     -4.007150   -0.419450   -7.635730
  C     -1.832420   -1.007460   -4.422040
  C     -1.105420   -0.877360   -3.170000
  C     -1.543010   -1.239250   -1.920860
  C     -2.783270   -1.852020   -1.655650
  N     -3.797450   -2.309990   -1.370650
  C     -0.852770   -0.939260   -0.728790
  N     -0.344630   -0.716430    0.276170
  C     -2.765800   -1.956170   -4.780510
  C     -2.968350   -3.211240   -4.194850
  C     -2.129210   -3.944840   -3.358170
  C     -2.664520   -5.168120   -3.007080
  C     -3.948740   -5.404760   -3.586330
  S     -4.447410   -4.108590   -4.578760
  C     -4.416370   -6.642390   -3.140620
  C     -3.440810   -7.200840   -2.271600
  C     -2.315860   -6.285610   -2.165840
  C     -1.191700   -6.444330   -1.398720
  C     -0.974210   -7.571270   -0.586310
  N     -0.772540   -8.483410    0.083720
  C     -0.174800   -5.467860   -1.385080
  N      0.645860   -4.666460   -1.406430
  C     -3.794140   -8.419530   -1.748200
  C     -5.058780   -8.851650   -2.181180
  S     -5.779930   -7.677960   -3.295910
  C     -5.756670  -10.004740   -1.837990
  C     -5.371170  -10.953700   -0.899010
  C     -6.069660  -12.122240   -0.542560
  C     -5.469680  -12.865200    0.447940
  C     -4.274420  -12.309320    0.914360
  S     -3.922180  -10.831180    0.067920
  C     -3.373280  -12.715250    1.904340
  C     -3.374210  -13.830630    2.747230
  C     -2.303770  -13.854560    3.610110
  C     -1.423740  -12.766410    3.477350
  S     -1.993580  -11.700810    2.224430
  C     -0.288690  -12.551360    4.257890
  C      0.646170  -11.531230    4.201210
  C      1.631860  -11.437780    5.187610
  C      2.514650  -10.382640    5.287600
  C      2.627430   -9.389750    4.315870
  C      1.886580   -9.628230    3.007930
  C      0.578350  -10.438650    3.157300
  N     -0.580310   -9.626600    3.465950
  C     -0.593510   -8.433140    3.072280
  C      0.560560   -7.810150    2.399070
  N      1.691090   -8.357580    2.349600
  F      0.408030   -6.594430    1.885230
  F     -1.649830   -7.670290    3.331890
  C      3.418950   -8.253020    4.404250
  C      4.158490   -7.752180    5.468650
  C      4.918730   -6.566090    5.398140
  C      5.553080   -6.224010    6.558970
  C      5.323220   -7.127190    7.614850
  S      4.277030   -8.425130    7.076780
  C      5.809740   -7.070100    8.907970
  C      6.658040   -6.074470    9.460520
  C      6.972160   -6.271110   10.762760
  C      6.389920   -7.447090   11.338250
  S      5.422430   -8.277480   10.108570
  C      6.516780   -7.898790   12.594930
  H      0.715760    1.911790   -6.161720
  H      2.654600    2.456680   -4.762070
  H      2.941540    1.429180   -2.549240
  H      1.273260   -0.156340   -1.675520
  H     -3.373300   -1.752880   -5.652020
  H     -1.152970   -3.603970   -3.063610
  H     -3.161110   -8.983490   -1.093040
  H     -6.705840  -10.171740   -2.329670
  H     -6.996580  -12.391280   -1.017720
  H     -5.870780  -13.782430    0.840540
  H     -4.143730  -14.580870    2.713620
  H     -2.135260  -14.631490    4.335180
  H     -0.135760  -13.289770    5.036900
  H      1.653520  -12.199860    5.953450
  H      3.148780  -10.331270    6.158560
  H      2.568470  -10.196980    2.360170
  H      0.364850  -10.896520    2.179840
  H      3.452860   -7.637860    3.513540
  H      4.973680   -5.993370    4.489370
  H      6.168310   -5.350410    6.674590
  H      7.005760   -5.244280    8.872150
  H      7.599560   -5.624320   11.349490
  H      7.113200   -7.363310   13.312290
  H      6.031900   -8.799340   12.924300

 Total Charge           Charge          ....    0
 Multiplicity           Mult            ....    1
 Number of Electrons    NEL             ....  530
 Basis Dimension        Dim             .... 1152

ORBITAL ENERGIES
----------------

  NO   OCC          E(Eh)            E(eV)
   0   2.0000     -88.974796     -2421.1273
   1   2.0000     -88.970189     -2421.0019
   2   2.0000     -88.965224     -2420.8668
   3   2.0000     -88.960995     -2420.7517
   4   2.0000     -88.955568     -2420.6041
   5   2.0000     -88.952721     -2420.5266
   6   2.0000     -24.799858      -674.8384
   7   2.0000     -24.795959      -674.7323
   8   2.0000     -14.430225      -392.6664
   9   2.0000     -14.424799      -392.5187
  10   2.0000     -14.423735      -392.4898
  11   2.0000     -14.420755      -392.4087
  12   2.0000     -14.403416      -391.9369
  13   2.0000     -14.402230      -391.9046
  14   2.0000     -14.399347      -391.8262
  15   2.0000     -14.398980      -391.8162
  16   2.0000     -10.413559      -283.3673
  17   2.0000     -10.410022      -283.2711
  18   2.0000     -10.354002      -281.7467
  19   2.0000     -10.344096      -281.4772
  20   2.0000     -10.335979      -281.2563
  21   2.0000     -10.334177      -281.2073
  22   2.0000     -10.332552      -281.1630
  23   2.0000     -10.328679      -281.0576
  24   2.0000     -10.327698      -281.0309
  25   2.0000     -10.327541      -281.0267
  26   2.0000     -10.326659      -281.0027
  27   2.0000     -10.326335      -280.9938
  28   2.0000     -10.326243      -280.9914
  29   2.0000     -10.326078      -280.9869
  30   2.0000     -10.326056      -280.9863
  31   2.0000     -10.324435      -280.9422
  32   2.0000     -10.322162      -280.8803
  33   2.0000     -10.321728      -280.8685
  34   2.0000     -10.321718      -280.8682
  35   2.0000     -10.316026      -280.7133
  36   2.0000     -10.311302      -280.5848
  37   2.0000     -10.310048      -280.5507
  38   2.0000     -10.309162      -280.5266
  39   2.0000     -10.308496      -280.5084
  40   2.0000     -10.307982      -280.4945
  41   2.0000     -10.307838      -280.4905
  42   2.0000     -10.306669      -280.4587
  43   2.0000     -10.306477      -280.4535
  44   2.0000     -10.304317      -280.3947
  45   2.0000     -10.303339      -280.3681
  46   2.0000     -10.302445      -280.3438
  47   2.0000     -10.302359      -280.3414
  48   2.0000     -10.301996      -280.3316
  49   2.0000     -10.301104      -280.3073
  50   2.0000     -10.300789      -280.2987
  51   2.0000     -10.300756      -280.2978
  52   2.0000     -10.295690      -280.1600
  53   2.0000     -10.295443      -280.1533
  54   2.0000     -10.294743      -280.1342
  55   2.0000     -10.294009      -280.1142
  56   2.0000     -10.293149      -280.0908
  57   2.0000     -10.293031      -280.0876
  58   2.0000     -10.292931      -280.0849
  59   2.0000     -10.292317      -280.0682
  60   2.0000     -10.291589      -280.0484
  61   2.0000     -10.291258      -280.0394
  62   2.0000     -10.289241      -279.9845
  63   2.0000     -10.288635      -279.9680
  64   2.0000     -10.284211      -279.8476
  65   2.0000     -10.283497      -279.8282
  66   2.0000     -10.282181      -279.7924
  67   2.0000     -10.282137      -279.7912
  68   2.0000     -10.282064      -279.7892
  69   2.0000     -10.281648      -279.7779
  70   2.0000     -10.281486      -279.7735
  71   2.0000     -10.281042      -279.7614
  72   2.0000      -8.069635      -219.5859
  73   2.0000      -8.064797      -219.4543
  74   2.0000      -8.060986      -219.3506
  75   2.0000      -8.057749      -219.2625
  76   2.0000      -8.051110      -219.0818
  77   2.0000      -8.048491      -219.0106
  78   2.0000      -6.038956      -164.3283
  79   2.0000      -6.034843      -164.2164
  80   2.0000      -6.034283      -164.2012
  81   2.0000      -6.031692      -164.1307
  82   2.0000      -6.030618      -164.1015
  83   2.0000      -6.030239      -164.0911
  84   2.0000      -6.027500      -164.0166
  85   2.0000      -6.026561      -163.9911
  86   2.0000      -6.026489      -163.9891
  87   2.0000      -6.023530      -163.9086
  88   2.0000      -6.022257      -163.8739
  89   2.0000      -6.020718      -163.8321
  90   2.0000      -6.018432      -163.7699
  91   2.0000      -6.018078      -163.7602
  92   2.0000      -6.016347      -163.7131
  93   2.0000      -6.013839      -163.6449
  94   2.0000      -6.012571      -163.6104
  95   2.0000      -6.009948      -163.5390
  96   2.0000      -1.327385       -36.1200
  97   2.0000      -1.312376       -35.7116
  98   2.0000      -1.078125       -29.3373
  99   2.0000      -1.034886       -28.1607
 100   2.0000      -1.017755       -27.6945
 101   2.0000      -1.015074       -27.6216
 102   2.0000      -1.012638       -27.5553
 103   2.0000      -1.011084       -27.5130
 104   2.0000      -1.003320       -27.3017
 105   2.0000      -1.001964       -27.2648
 106   2.0000      -0.998791       -27.1785
 107   2.0000      -0.988887       -26.9090
 108   2.0000      -0.988298       -26.8930
 109   2.0000      -0.986597       -26.8467
 110   2.0000      -0.979995       -26.6670
 111   2.0000      -0.979635       -26.6572
 112   2.0000      -0.976725       -26.5780
 113   2.0000      -0.956347       -26.0235
 114   2.0000      -0.950388       -25.8614
 115   2.0000      -0.938735       -25.5443
 116   2.0000      -0.919273       -25.0147
 117   2.0000      -0.915553       -24.9135
 118   2.0000      -0.910788       -24.7838
 119   2.0000      -0.896243       -24.3880
 120   2.0000      -0.885019       -24.0826
 121   2.0000      -0.875334       -23.8191
 122   2.0000      -0.870607       -23.6904
 123   2.0000      -0.866256       -23.5720
 124   2.0000      -0.863341       -23.4927
 125   2.0000      -0.861539       -23.4437
 126   2.0000      -0.856306       -23.3013
 127   2.0000      -0.848356       -23.0849
 128   2.0000      -0.846835       -23.0435
 129   2.0000      -0.844010       -22.9667
 130   2.0000      -0.840078       -22.8597
 131   2.0000      -0.834343       -22.7036
 132   2.0000      -0.825135       -22.4531
 133   2.0000      -0.811631       -22.0856
 134   2.0000      -0.798634       -21.7319
 135   2.0000      -0.788224       -21.4487
 136   2.0000      -0.772575       -21.0228
 137   2.0000      -0.771155       -20.9842
 138   2.0000      -0.769755       -20.9461
 139   2.0000      -0.764311       -20.7980
 140   2.0000      -0.754416       -20.5287
 141   2.0000      -0.743501       -20.2317
 142   2.0000      -0.726841       -19.7783
 143   2.0000      -0.709046       -19.2941
 144   2.0000      -0.702912       -19.1272
 145   2.0000      -0.695856       -18.9352
 146   2.0000      -0.694184       -18.8897
 147   2.0000      -0.692755       -18.8508
 148   2.0000      -0.685579       -18.6556
 149   2.0000      -0.683271       -18.5927
 150   2.0000      -0.671579       -18.2746
 151   2.0000      -0.666395       -18.1335
 152   2.0000      -0.663046       -18.0424
 153   2.0000      -0.658486       -17.9183
 154   2.0000      -0.652731       -17.7617
 155   2.0000      -0.648551       -17.6480
 156   2.0000      -0.646495       -17.5920
 157   2.0000      -0.643754       -17.5174
 158   2.0000      -0.639102       -17.3908
 159   2.0000      -0.635259       -17.2863
 160   2.0000      -0.633236       -17.2312
 161   2.0000      -0.626905       -17.0589
 162   2.0000      -0.624977       -17.0065
 163   2.0000      -0.617017       -16.7899
 164   2.0000      -0.615326       -16.7439
 165   2.0000      -0.611933       -16.6515
 166   2.0000      -0.610495       -16.6124
 167   2.0000      -0.604884       -16.4597
 168   2.0000      -0.599263       -16.3068
 169   2.0000      -0.592641       -16.1266
 170   2.0000      -0.588274       -16.0077
 171   2.0000      -0.582938       -15.8626
 172   2.0000      -0.571678       -15.5562
 173   2.0000      -0.565618       -15.3912
 174   2.0000      -0.564669       -15.3654
 175   2.0000      -0.563115       -15.3231
 176   2.0000      -0.558725       -15.2037
 177   2.0000      -0.553783       -15.0692
 178   2.0000      -0.546911       -14.8822
 179   2.0000      -0.543518       -14.7899
 180   2.0000      -0.538066       -14.6415
 181   2.0000      -0.535539       -14.5728
 182   2.0000      -0.534588       -14.5469
 183   2.0000      -0.531670       -14.4675
 184   2.0000      -0.527619       -14.3572
 185   2.0000      -0.524707       -14.2780
 186   2.0000      -0.522621       -14.2213
 187   2.0000      -0.520018       -14.1504
 188   2.0000      -0.518193       -14.1007
 189   2.0000      -0.513446       -13.9716
 190   2.0000      -0.511025       -13.9057
 191   2.0000      -0.510194       -13.8831
 192   2.0000      -0.508271       -13.8307
 193   2.0000      -0.503822       -13.7097
 194   2.0000      -0.503094       -13.6899
 195   2.0000      -0.500834       -13.6284
 196   2.0000      -0.497784       -13.5454
 197   2.0000      -0.497511       -13.5380
 198   2.0000      -0.494953       -13.4684
 199   2.0000      -0.492598       -13.4043
 200   2.0000      -0.492067       -13.3898
 201   2.0000      -0.488045       -13.2804
 202   2.0000      -0.486927       -13.2499
 203   2.0000      -0.482115       -13.1190
 204   2.0000      -0.481277       -13.0962
 205   2.0000      -0.479356       -13.0439
 206   2.0000      -0.478209       -13.0127
 207   2.0000      -0.474510       -12.9121
 208   2.0000      -0.469440       -12.7741
 209   2.0000      -0.468007       -12.7351
 210   2.0000      -0.467030       -12.7085
 211   2.0000      -0.463545       -12.6137
 212   2.0000      -0.461181       -12.5494
 213   2.0000      -0.456566       -12.4238
 214   2.0000      -0.451389       -12.2829
 215   2.0000      -0.450177       -12.2499
 216   2.0000      -0.446559       -12.1515
 217   2.0000      -0.443702       -12.0737
 218   2.0000      -0.441082       -12.0025
 219   2.0000      -0.439384       -11.9563
 220   2.0000      -0.438656       -11.9364
 221   2.0000      -0.436596       -11.8804
 222   2.0000      -0.436116       -11.8673
 223   2.0000      -0.436011       -11.8645
 224   2.0000      -0.435454       -11.8493
 225   2.0000      -0.434818       -11.8320
 226   2.0000      -0.430480       -11.7140
 227   2.0000      -0.429515       -11.6877
 228   2.0000      -0.428498       -11.6600
 229   2.0000      -0.428018       -11.6470
 230   2.0000      -0.427300       -11.6274
 231   2.0000      -0.426098       -11.5947
 232   2.0000      -0.418668       -11.3925
 233   2.0000      -0.416354       -11.3296
 234   2.0000      -0.414944       -11.2912
 235   2.0000      -0.413535       -11.2529
 236   2.0000      -0.411918       -11.2089
 237   2.0000      -0.410536       -11.1713
 238   2.0000      -0.408517       -11.1163
 239   2.0000      -0.407563       -11.0903
 240   2.0000      -0.400108       -10.8875
 241   2.0000      -0.399469       -10.8701
 242   2.0000      -0.395492       -10.7619
 243   2.0000      -0.392485       -10.6801
 244   2.0000      -0.391715       -10.6591
 245   2.0000      -0.382602       -10.4111
 246   2.0000      -0.375410       -10.2154
 247   2.0000      -0.365547        -9.9470
 248   2.0000      -0.363158        -9.8820
 249   2.0000      -0.356287        -9.6951
 250   2.0000      -0.354925        -9.6580
 251   2.0000      -0.344996        -9.3878
 252   2.0000      -0.344418        -9.3721
 253   2.0000      -0.340112        -9.2549
 254   2.0000      -0.337353        -9.1799
 255   2.0000      -0.331983        -9.0337
 256   2.0000      -0.322553        -8.7771
 257   2.0000      -0.318943        -8.6789
 258   2.0000      -0.315095        -8.5742
 259   2.0000      -0.312867        -8.5135
 260   2.0000      -0.299755        -8.1568
 261   2.0000      -0.284212        -7.7338
 262   2.0000      -0.259567        -7.0632
 263   2.0000      -0.235539        -6.4093
 264   2.0000      -0.194551        -5.2940
 265   0.0000      -0.122591        -3.3359
 266   0.0000      -0.096567        -2.6277
 267   0.0000      -0.080326        -2.1858
 268   0.0000      -0.068654        -1.8682
 269   0.0000      -0.063158        -1.7186

MULLIKEN ATOMIC CHARGES
-----------------------
   0 C :   -0.036012
   1 C :    0.041817
   2 C :    0.045735
   3 C :   -0.028335
   4 C :   -0.008094
   5 C :    0.014471
   6 C :    0.307314
   7 C :   -0.363779
   8 C :   -0.189846
   9 N :    0.143429
  10 C :   -0.177718
  11 N :    0.141973
  12 C :   -0.094756
  13 C :    0.238877
  14 C :   -0.349005
  15 C :   -0.202782
  16 N :    0.171077
  17 C :   -0.178936
  18 N :    0.155265
  19 C :    0.083428
  20 C :   -0.144458
  21 C :    0.007989
  22 C :   -0.030010
  23 C :   -0.054637
  24 S :    0.202275
  25 C :   -0.114057
  26 C :    0.013486
  27 C :    0.327582
  28 C :   -0.312504
  29 C :   -0.121647
  30 N :    0.105753
  31 C :   -0.196610
  32 N :    0.169150
  33 C :   -0.072748
  34 C :   -0.062434
  35 S :    0.168915
  36 C :    0.018544
  37 C :   -0.018268
  38 C :    0.014168
  39 C :    0.040369
  40 C :   -0.039678
  41 S :    0.045522
  42 C :   -0.006318
  43 C :    0.012086
  44 C :    0.041321
  45 C :   -0.033294
  46 S :    0.108846
  47 C :   -0.000892
  48 C :    0.043558
  49 C :   -0.002870
  50 C :   -0.024607
  51 C :   -0.019298
  52 C :    0.130793
  53 C :    0.048002
  54 N :   -0.101168
  55 C :    0.144222
  56 C :    0.132778
  57 N :   -0.104828
  58 F :   -0.143100
  59 F :   -0.142279
  60 C :   -0.019850
  61 C :   -0.003483
  62 C :    0.028557
  63 C :    0.033451
  64 C :   -0.044421
  65 S :    0.084903
  66 C :   -0.052977
  67 C :    0.027350
  68 C :    0.064019
  69 C :   -0.072964
  70 S :    0.101950
  71 C :   -0.011421
  72 H :    0.000898
  73 H :   -0.002640
  74 H :   -0.002365
  75 H :    0.007290
  76 H :    0.005823
  77 H :    0.030522
  78 H :    0.031872
  79 H :   -0.020177
  80 H :   -0.014967
  81 H :   -0.013716
  82 H :   -0.012329
  83 H :   -0.008783
  84 H :   -0.014834
  85 H :   -0.014734
  86 H :   -0.012812
  87 H :    0.043211
  88 H :    0.052901
  89 H :    0.012410
  90 H :    0.001257
  91 H :   -0.006459
  92 H :   -0.002616
  93 H :   -0.000609
  94 H :    0.030950
  95 H :    0.031014
Sum of atomic charges:   -0.0000000

LOEWDIN ATOMIC CHARGES
----------------------
   0 C :    0.001378
   1 C :   -0.004449
   2 C :   -0.001057
   3 C :    0.001536
   4 C :   -0.009491
   5 C :   -0.013129
   6 C :    0.079296
   7 C :   -0.150331
   8 C :   -0.018951
   9 N :   -0.062179
  10 C :   -0.021151
  11 N :   -0.059561
  12 C :   -0.081507
  13 C :    0.066482
  14 C :   -0.143205
  15 C :   -0.018086
  16 N :   -0.050971
  17 C :   -0.019367
  18 N :   -0.056486
  19 C :    0.032395
  20 C :   -0.191482
  21 C :    0.019703
  22 C :   -0.081788
  23 C :   -0.133265
  24 S :    0.479773
  25 C :   -0.222819
  26 C :   -0.033551
  27 C :    0.087948
  28 C :   -0.114072
  29 C :    0.009425
  30 N :   -0.064417
  31 C :   -0.014070
  32 N :   -0.038563
  33 C :   -0.055656
  34 C :   -0.132251
  35 S :    0.443932
  36 C :   -0.103661
  37 C :   -0.129600
  38 C :   -0.055342
  39 C :   -0.025383
  40 C :   -0.204337
  41 S :    0.423952
  42 C :   -0.153784
  43 C :   -0.054872
  44 C :   -0.015321
  45 C :   -0.172828
  46 S :    0.453385
  47 C :   -0.006988
  48 C :   -0.044816
  49 C :    0.010150
  50 C :   -0.061611
  51 C :   -0.006449
  52 C :    0.027142
  53 C :    0.006778
  54 N :   -0.084659
  55 C :    0.054843
  56 C :    0.056920
  57 N :   -0.073580
  58 F :   -0.027731
  59 F :   -0.029667
  60 C :   -0.067963
  61 C :   -0.123971
  62 C :   -0.031925
  63 C :   -0.024753
  64 C :   -0.188868
  65 S :    0.406408
  66 C :   -0.155951
  67 C :   -0.026833
  68 C :   -0.015476
  69 C :   -0.142153
  70 S :    0.371641
  71 C :   -0.050453
  72 H :    0.039895
  73 H :    0.034674
  74 H :    0.034714
  75 H :    0.041350
  76 H :    0.043101
  77 H :    0.043125
  78 H :    0.017773
  79 H :    0.033321
  80 H :    0.031882
  81 H :    0.032920
  82 H :    0.032466
  83 H :    0.034075
  84 H :    0.038583
  85 H :    0.033335
  86 H :    0.014157
  87 H :    0.049698
  88 H :    0.030394
  89 H :    0.040162
  90 H :    0.039255
  91 H :    0.034483
  92 H :    0.036157
  93 H :    0.037917
  94 H :    0.033658
  95 H :    0.030645

  Mayer bond orders larger than 0.100000
B(  0-C ,  1-C ) :   1.3642 B(  0-C ,  5-C ) :   1.3866 B(  0-C , 72-H ) :   0.9834
B(  1-C ,  2-C ) :   1.3832 B(  1-C , 73-H ) :   0.9864 B(  2-C ,  3-C ) :   1.3597
B(  2-C , 74-H ) :   0.9865 B(  3-C ,  4-C ) :   1.3909 B(  3-C , 75-H ) :   0.9858
B(  4-C ,  5-C ) :   1.3197 B(  4-C , 13-C ) :   0.9975 B(  5-C ,  6-C ) :   0.9859
B(  6-C ,  7-C ) :   1.5980 B(  6-C , 12-C ) :   1.1084 B(  7-C ,  8-C ) :   1.1549
B(  7-C , 10-C ) :   1.1407 B(  8-C ,  9-N ) :   2.9701 B( 10-C , 11-N ) :   2.9590
B( 12-C , 13-C ) :   1.0506 B( 12-C , 19-C ) :   1.5018 B( 13-C , 14-C ) :   1.6225
B( 14-C , 15-C ) :   1.1635 B( 14-C , 17-C ) :   1.1440 B( 15-C , 16-N ) :   3.0047
B( 17-C , 18-N ) :   2.9949 B( 19-C , 20-C ) :   1.2824 B( 19-C , 76-H ) :   0.9140
B( 20-C , 21-C ) :   1.3204 B( 20-C , 24-S ) :   1.0468 B( 21-C , 22-C ) :   1.4144
B( 21-C , 77-H ) :   0.9789 B( 22-C , 23-C ) :   1.2963 B( 22-C , 27-C ) :   1.0317
B( 23-C , 24-S ) :   1.1448 B( 23-C , 25-C ) :   1.3355 B( 25-C , 26-C ) :   1.3421
B( 25-C , 35-S ) :   1.0457 B( 26-C , 27-C ) :   0.9890 B( 26-C , 33-C ) :   1.4421
B( 27-C , 28-C ) :   1.6687 B( 28-C , 29-C ) :   1.1614 B( 28-C , 31-C ) :   1.1446
B( 29-C , 30-N ) :   2.8724 B( 31-C , 32-N ) :   2.9799 B( 33-C , 34-C ) :   1.2837
B( 33-C , 78-H ) :   0.9574 B( 34-C , 35-S ) :   1.0966 B( 34-C , 36-C ) :   1.3023
B( 36-C , 37-C ) :   1.4298 B( 36-C , 79-H ) :   0.9564 B( 37-C , 38-C ) :   1.2420
B( 37-C , 41-S ) :   1.0846 B( 38-C , 39-C ) :   1.4741 B( 38-C , 80-H ) :   0.9989
B( 39-C , 40-C ) :   1.2943 B( 39-C , 81-H ) :   0.9946 B( 40-C , 41-S ) :   1.0565
B( 40-C , 42-C ) :   1.3412 B( 42-C , 43-C ) :   1.2727 B( 42-C , 46-S ) :   1.1139
B( 43-C , 44-C ) :   1.4845 B( 43-C , 82-H ) :   0.9965 B( 44-C , 45-C ) :   1.2347
B( 44-C , 83-H ) :   0.9995 B( 45-C , 46-S ) :   1.0513 B( 45-C , 47-C ) :   1.3930
B( 47-C , 48-C ) :   1.3307 B( 47-C , 84-H ) :   0.9727 B( 48-C , 49-C ) :   1.4199
B( 48-C , 53-C ) :   0.9697 B( 49-C , 50-C ) :   1.3035 B( 49-C , 85-H ) :   0.9819
B( 50-C , 51-C ) :   1.4314 B( 50-C , 86-H ) :   0.9592 B( 51-C , 52-C ) :   0.9502
B( 51-C , 60-C ) :   1.3340 B( 52-C , 53-C ) :   0.9873 B( 52-C , 57-N ) :   1.0300
B( 52-C , 87-H ) :   0.8815 B( 53-C , 54-N ) :   1.0249 B( 53-C , 88-H ) :   0.8823
B( 54-N , 55-C ) :   1.9379 B( 55-C , 56-C ) :   0.9292 B( 55-C , 59-F ) :   1.1740
B( 56-C , 57-N ) :   1.9280 B( 56-C , 58-F ) :   1.1467 B( 60-C , 61-C ) :   1.4247
B( 60-C , 89-H ) :   0.9535 B( 61-C , 62-C ) :   1.1957 B( 61-C , 65-S ) :   1.0739
B( 62-C , 63-C ) :   1.5443 B( 62-C , 90-H ) :   1.0014 B( 63-C , 64-C ) :   1.2061
B( 63-C , 91-H ) :   0.9934 B( 64-C , 65-S ) :   1.0356 B( 64-C , 66-C ) :   1.4988
B( 66-C , 67-C ) :   1.1655 B( 66-C , 70-S ) :   1.0717 B( 67-C , 68-C ) :   1.6466
B( 67-C , 92-H ) :   0.9931 B( 68-C , 69-C ) :   1.0846 B( 68-C , 93-H ) :   0.9938
B( 69-C , 70-S ) :   1.0055 B( 69-C , 71-C ) :   1.8548 B( 71-C , 94-H ) :   0.9512
B( 71-C , 95-H ) :   0.9425

-----------------------------------------------------------------------------
         ABSORPTION SPECTRUM VIA TRANSITION ELECTRIC DIPOLE MOMENTS
-----------------------------------------------------------------------------
State   Energy  Wavelength   fosc         T2         TX        TY        TZ
        (cm-1)    (nm)                  (au**2)     (au)      (au)      (au)
-----------------------------------------------------------------------------
   0    3302.5   3028.0   0.265960839  26.51247   2.37903  -2.00979   4.10042
   1    7793.4   1283.1   0.423178615  17.87616   2.96660   0.35063   2.99207
   2   11444.0    873.8   0.058001204   1.66853  -0.70427   0.36495  -1.01949
   3   13110.5    762.7   1.300612886  32.65901   2.97747   4.80471   0.84172
   4   15435.1    647.9   0.056321763   1.20127  -0.47508  -0.91745  -0.36585
   5   16056.9    622.8   0.226850209   4.65108   0.61474   1.87469  -0.87103
   6   17688.0    565.4   0.182431515   3.39545  -0.54252  -1.70388  -0.44487
   7   18580.9    538.2   0.041294751   0.73165  -0.26016  -0.31710   0.75061
   8   19807.8    504.9   0.002353650   0.03912   0.02949   0.12109  -0.15358
   9   20726.1    482.5   0.075113710   1.19310  -0.49597  -0.92200   0.31150
  10   21960.9    455.4   0.016316029   0.24459   0.14450  -0.07554  -0.46691
  11   23496.0    425.6   0.034339940   0.48115   0.10758   0.32871  -0.60127
  12   24259.4    412.2   0.129136877   1.75245  -0.11538  -0.68478   1.12704
  13   24642.5    405.8   0.109513029   1.46304   0.24519   0.70250  -0.95364
  14   25650.6    389.9   0.106157336   1.36247  -0.84602  -0.65074   0.47251
  15   26362.0    379.3   0.351218555   4.38607   0.78443   1.24426  -1.49083
  16   26800.3    373.1   0.006352618   0.07803   0.04729  -0.08366   0.26230
  17   27129.3    368.6   0.135658426   1.64621   0.04048  -0.73562   1.05045
  18   28136.4    355.4   0.034407752   0.40259  -0.22785   0.45651  -0.37719
  19   28592.3    349.7   0.212866595   2.45095  -1.44084  -0.53333  -0.30080
  20   28684.5    348.6   0.083018097   0.95280  -0.33005  -0.85529   0.33518
  21   29003.3    344.8   0.107505101   1.22027  -0.67006   0.45390  -0.75184
  22   29493.7    339.1   0.014826632   0.16550  -0.02857  -0.08211  -0.39741
  23   29997.2    333.4   0.130218863   1.42912  -0.23447   0.41271  -1.09719
  24   30275.9    330.3   0.002752234   0.02993  -0.12308  -0.10342  -0.06390
  25   30621.9    326.6   0.022578492   0.24274  -0.06251  -0.43713   0.21850
  26   30881.3    323.8   0.275725340   2.93938   0.19343   1.30399  -1.09616
  27   31219.0    320.3   0.054136224   0.57088  -0.26792   0.49087  -0.50808
  28   31464.8    317.8   0.001974374   0.02066  -0.08982   0.05607   0.09719
  29   31669.2    315.8   0.024218568   0.25176   0.41954   0.23473   0.14371
  30   32149.5    311.0   0.036542876   0.37420   0.60472   0.08552   0.03459
  31   32410.5    308.5   0.082145271   0.83440   0.82668  -0.19348   0.33699
  32   32581.9    306.9   0.582471217   5.88537   0.99859  -0.74213   2.08265
  33   32608.5    306.7   0.114538299   1.15636   0.29690   0.36817  -0.96575
  34   32814.9    304.7   0.007268992   0.07293   0.14959  -0.14262  -0.17380
  35   33165.8    301.5   0.055181711   0.54775  -0.56094  -0.36806  -0.31245
  36   33470.4    298.8   0.010905720   0.10727   0.20513  -0.25530  -0.00337
  37   33615.1    297.5   0.133932696   1.31168   0.82802  -0.17459   0.77174
  38   33796.9    295.9   0.001397504   0.01361  -0.08268   0.02473  -0.07852
  39   34066.4    293.5   0.002817573   0.02723  -0.06497  -0.13103  -0.07641
  40   34185.7    292.5   0.191705265   1.84614  -0.61120  -0.90478   0.80867
  41   34284.6    291.7   0.014488520   0.13912  -0.11700  -0.22018  -0.27741
  42   34395.2    290.7   0.077239051   0.73929   0.44372   0.50452  -0.53652
  43   34582.3    289.2   0.030266646   0.28813   0.41516   0.23345   0.24753
  44   35046.6    285.3   0.242228413   2.27538  -1.20875  -0.57786  -0.69309
  45   35229.2    283.9   0.031175718   0.29133  -0.51344  -0.15939   0.04807
  46   35445.5    282.1   0.015437161   0.14338  -0.07730   0.24627  -0.27705
  47   35561.9    281.2   0.026750935   0.24765   0.27099   0.05196   0.41413
  48   35808.8    279.3   0.056468055   0.51915  -0.63733  -0.12863   0.31051
  49   36419.3    274.6   0.035139653   0.31764   0.32789   0.18853   0.41784
  50   36741.9    272.2   0.103797738   0.93004  -0.66135  -0.46891  -0.52229
  51   36990.9    270.3   0.026366184   0.23465   0.38696   0.28978  -0.03070
  52   37157.6    269.1   0.019553924   0.17325   0.13679   0.30402  -0.24920
  53   37212.6    268.7   0.018040016   0.15960  -0.24399  -0.11693  -0.29392
  54   37281.9    268.2   0.007329148   0.06472  -0.19453  -0.12109  -0.11052
  55   37665.7    265.5   0.016769444   0.14657  -0.15213  -0.00523  -0.35128
  56   37864.8    264.1   0.052954901   0.46041  -0.19019   0.44175  -0.47864
  57   38136.4    262.2   0.026517403   0.22891  -0.05271  -0.38108   0.28445
  58   38308.2    261.0   0.012165496   0.10455  -0.28794  -0.14696   0.00639
  59   38618.2    258.9   0.011054112   0.09423   0.25311   0.13434   0.11011
  60   38650.0    258.7   0.003536842   0.03013   0.06981   0.05712  -0.14829
  61   39260.3    254.7   0.030800720   0.25828   0.01026  -0.39685   0.31730
  62   39353.7    254.1   0.048586959   0.40645   0.52439   0.01507   0.36228
  63   39987.4    250.1   0.037679864   0.31021  -0.29277  -0.43991   0.17602
  64   40032.0    249.8   0.020327204   0.16717   0.24996   0.31147  -0.08759
  65   40221.6    248.6   0.041409262   0.33893   0.28806  -0.30754   0.40172

FINAL SINGLE POINT ENERGY     -5170.705105510959

DIPOLE MOMENT
-------------
                                X             Y             Z
Electronic contribution:    -31.10095      13.55416     -33.25123
Nuclear contribution   :     34.35101     -18.72635      38.61147
                        -----------------------------------------
Total Dipole Moment    :      3.25006      -5.17219       5.36024
                        -----------------------------------------
Magnitude (a.u.)       :      8.12691
Magnitude (Debye)      :     20.65696

Rotational constants in cm-1:     0.000930     0.000421     0.000299
Rotational constants in MHz :    27.883061    12.632270     8.949989

                             ****ORCA TERMINATED NORMALLY****
TOTAL RUN TIME: 0 days 0 hours 13 minutes 26 seconds 291 msec
