                         Program Version 4.2.0 -  RELEASE  -
|  1> # ORCA input file
|  2> # SCF done       -200.129469110299          0.000545918998
|  3> ! CAM-B3LYP def2-SVP def2/J RIJCOSX Grid4 TightSCF
|  4> %maxcore 5000
|  5> %tddft
|  6>     Mode sTDDFT
|  7>     Ethresh 5.0
|  8>     maxcore 5000
|  9> end
| 10>
| 11> %pal
| 12>   nprocs 6
| 13>   end
| 14> * xyz 0 1
| 15>    C       -2.48877         2.33711        -3.31950
| 16>    C       -2.47360         2.36424        -4.70653
| 17>    C       -3.28511         1.51906        -5.44921
| 18>    C       -4.14460         0.62696        -4.82513
| 19>    C       -4.16762         0.59166        -3.44160
| 20>    C       -3.33403         1.44320        -2.68200
| 21>    C       -3.54626         1.17038        -1.26474
| 22>    C       -2.98255         1.86151        -0.22276
| 23>    C       -2.11842         2.96498        -0.38011
| 24>    N       -1.41155         3.86818        -0.43140
| 25>    C       -3.20351         1.60317         1.14515
| 26>    N       -3.33428         1.45037         2.27645
| 27>    C       -4.43528         0.02220        -1.18809
| 28>    C       -4.97344        -0.19529        -2.52138
| 29>    C       -6.18508        -0.76625        -2.81564
| 30>    C       -7.08852        -1.22703        -1.83611
| 31>    N       -7.86852        -1.56446        -1.06369
| 32>    C       -6.70959        -0.87017        -4.11889
| 33>    N       -7.17871        -0.99659        -5.15899
| 34>    C       -4.63004        -0.74261        -0.06428
| 35>    C       -5.05078        -2.07963         0.02402
| 36>    C       -5.47910        -2.70591         1.19579
| 37>    C       -5.76137        -4.04292         1.01417
| 38>    C       -5.51026        -4.47717        -0.29559
| 39>    S       -4.94929        -3.22387        -1.31369
| 40>    C       -5.79417        -5.85158        -0.38667
| 41>    C       -6.23903        -6.31019         0.85731
| 42>    C       -6.27445        -5.18260         1.86214
| 43>    C       -7.70631        -4.90469         2.33097
| 44>    C       -5.35459        -5.46055         3.05364
| 45>    C       -6.53117        -7.66344         0.85985
| 46>    C       -6.31355        -8.25703        -0.37959
| 47>    S       -5.74260        -7.09795        -1.56492
| 48>    C       -6.48011        -9.62278        -0.74696
| 49>    C       -6.80876       -10.61248         0.15231
| 50>    C       -6.94477       -11.96152        -0.16330
| 51>    C       -6.72909       -12.45051        -1.52810
| 52>    C       -6.41002       -11.65843        -2.57454
| 53>    S       -6.20643        -9.96105        -2.45326
| 54>    C       -6.91195       -13.85763        -1.45586
| 55>    C       -7.20816       -14.23647        -0.14355
| 56>    C       -7.43028       -15.62933        -0.04434
| 57>    C       -7.28688       -16.24948        -1.24474
| 58>    S       -6.88499       -15.18341        -2.54601
| 59>    C       -7.22978       -13.05525         0.68320
| 60>    C       -7.48188       -12.96395         2.06954
| 61>    C       -7.48625       -14.00913         2.94191
| 62>    C       -7.75445       -13.90654         4.32499
| 63>    C       -8.23968       -12.82646         5.05991
| 64>    C       -8.36997       -13.11685         6.40505
| 65>    C       -7.97584       -14.42315         6.72396
| 66>    S       -7.46262       -15.30466         5.34471
| 67>    C       -8.12273       -14.62749         8.10613
| 68>    C       -8.62598       -13.44910         8.68850
| 69>    C       -8.84144       -12.38441         7.63948
| 70>    C      -10.32913       -12.03161         7.53394
| 71>    C       -8.00118       -11.13456         7.91136
| 72>    C       -8.83824       -13.56905        10.04085
| 73>    C       -8.49247       -14.83494        10.53031
| 74>    S       -7.86716       -15.86845         9.24871
| 75>    C       -8.50731       -15.33069        11.83826
| 76>    C       -9.19000       -14.83128        12.92818
| 77>    C       -8.79392       -15.04943        14.30832
| 78>    C       -7.82552       -15.90121        14.77851
| 79>    C       -7.02918       -16.76442        13.99898
| 80>    N       -6.33399       -17.48905        13.44031
| 81>    C       -7.49383       -16.04807        16.14128
| 82>    N       -7.16845       -16.22365        17.22855
| 83>    C       -9.59039       -14.14260        15.12788
| 84>    C      -10.50714       -13.46322        14.29544
| 85>    C      -11.36983       -12.51584        14.82024
| 86>    C      -11.31669       -12.25178        16.18091
| 87>    C      -10.42593       -12.92624        17.00223
| 88>    C       -9.55563       -13.87600        16.48698
| 89>    C      -10.35880       -13.97266        12.93933
| 90>    C      -11.31172       -13.86735        11.95494
| 91>    C      -12.45543       -13.05051        12.04563
| 92>    N      -13.38562       -12.37669        12.03475
| 93>    C      -11.32219       -14.61219        10.75950
| 94>    N      -11.42849       -15.21876         9.78978
| 95>    H       -1.84840         2.99958        -2.76090
| 96>    H       -1.81537         3.05370        -5.21283
| 97>    H       -3.24886         1.55359        -6.52734
| 98>    H       -4.76752        -0.03033        -5.41010
| 99>    H       -4.35550        -0.30697         0.88796
|100>    H       -5.59359        -2.16214         2.11609
|101>    H       -8.34568        -4.68455         1.47953
|102>    H       -7.71743        -4.05014         3.00224
|103>    H       -8.10365        -5.77027         2.85522
|104>    H       -4.34112        -5.65954         2.71259
|105>    H       -5.71205        -6.32456         3.60820
|106>    H       -5.33626        -4.60077         3.71815
|107>    H       -6.89095        -8.20221         1.71651
|108>    H       -6.95138       -10.31382         1.18027
|109>    H       -6.25514       -12.04257        -3.57030
|110>    H       -7.69757       -16.16061         0.85018
|111>    H       -7.39665       -17.29480        -1.45794
|112>    H       -7.65369       -11.96961         2.45862
|113>    H       -7.22556       -14.99400         2.58616
|114>    H       -8.49625       -11.88543         4.60924
|115>    H      -10.92013       -12.93276         7.38806
|116>    H      -10.49782       -11.36019         6.69571
|117>    H      -10.66367       -11.54497         8.44677
|118>    H       -6.94690       -11.39342         7.98124
|119>    H       -8.30994       -10.67265         8.84574
|120>    H       -8.13200       -10.41539         7.10659
|121>    H       -9.18611       -12.77697        10.68005
|122>    H       -7.85040       -16.17253        12.01197
|123>    H      -12.06391       -11.98182        14.19181
|124>    H      -11.97912       -11.51130        16.60258
|125>    H      -10.40437       -12.70973        18.05939
|126>    H       -8.87001       -14.38749        17.14178
|127> *
|128>
|129>                          ****END OF INPUT****

CARTESIAN COORDINATES (ANGSTROEM)
---------------------------------
  C     -2.488770    2.337110   -3.319500
  C     -2.473600    2.364240   -4.706530
  C     -3.285110    1.519060   -5.449210
  C     -4.144600    0.626960   -4.825130
  C     -4.167620    0.591660   -3.441600
  C     -3.334030    1.443200   -2.682000
  C     -3.546260    1.170380   -1.264740
  C     -2.982550    1.861510   -0.222760
  C     -2.118420    2.964980   -0.380110
  N     -1.411550    3.868180   -0.431400
  C     -3.203510    1.603170    1.145150
  N     -3.334280    1.450370    2.276450
  C     -4.435280    0.022200   -1.188090
  C     -4.973440   -0.195290   -2.521380
  C     -6.185080   -0.766250   -2.815640
  C     -7.088520   -1.227030   -1.836110
  N     -7.868520   -1.564460   -1.063690
  C     -6.709590   -0.870170   -4.118890
  N     -7.178710   -0.996590   -5.158990
  C     -4.630040   -0.742610   -0.064280
  C     -5.050780   -2.079630    0.024020
  C     -5.479100   -2.705910    1.195790
  C     -5.761370   -4.042920    1.014170
  C     -5.510260   -4.477170   -0.295590
  S     -4.949290   -3.223870   -1.313690
  C     -5.794170   -5.851580   -0.386670
  C     -6.239030   -6.310190    0.857310
  C     -6.274450   -5.182600    1.862140
  C     -7.706310   -4.904690    2.330970
  C     -5.354590   -5.460550    3.053640
  C     -6.531170   -7.663440    0.859850
  C     -6.313550   -8.257030   -0.379590
  S     -5.742600   -7.097950   -1.564920
  C     -6.480110   -9.622780   -0.746960
  C     -6.808760  -10.612480    0.152310
  C     -6.944770  -11.961520   -0.163300
  C     -6.729090  -12.450510   -1.528100
  C     -6.410020  -11.658430   -2.574540
  S     -6.206430   -9.961050   -2.453260
  C     -6.911950  -13.857630   -1.455860
  C     -7.208160  -14.236470   -0.143550
  C     -7.430280  -15.629330   -0.044340
  C     -7.286880  -16.249480   -1.244740
  S     -6.884990  -15.183410   -2.546010
  C     -7.229780  -13.055250    0.683200
  C     -7.481880  -12.963950    2.069540
  C     -7.486250  -14.009130    2.941910
  C     -7.754450  -13.906540    4.324990
  C     -8.239680  -12.826460    5.059910
  C     -8.369970  -13.116850    6.405050
  C     -7.975840  -14.423150    6.723960
  S     -7.462620  -15.304660    5.344710
  C     -8.122730  -14.627490    8.106130
  C     -8.625980  -13.449100    8.688500
  C     -8.841440  -12.384410    7.639480
  C    -10.329130  -12.031610    7.533940
  C     -8.001180  -11.134560    7.911360
  C     -8.838240  -13.569050   10.040850
  C     -8.492470  -14.834940   10.530310
  S     -7.867160  -15.868450    9.248710
  C     -8.507310  -15.330690   11.838260
  C     -9.190000  -14.831280   12.928180
  C     -8.793920  -15.049430   14.308320
  C     -7.825520  -15.901210   14.778510
  C     -7.029180  -16.764420   13.998980
  N     -6.333990  -17.489050   13.440310
  C     -7.493830  -16.048070   16.141280
  N     -7.168450  -16.223650   17.228550
  C     -9.590390  -14.142600   15.127880
  C    -10.507140  -13.463220   14.295440
  C    -11.369830  -12.515840   14.820240
  C    -11.316690  -12.251780   16.180910
  C    -10.425930  -12.926240   17.002230
  C     -9.555630  -13.876000   16.486980
  C    -10.358800  -13.972660   12.939330
  C    -11.311720  -13.867350   11.954940
  C    -12.455430  -13.050510   12.045630
  N    -13.385620  -12.376690   12.034750
  C    -11.322190  -14.612190   10.759500
  N    -11.428490  -15.218760    9.789780
  H     -1.848400    2.999580   -2.760900
  H     -1.815370    3.053700   -5.212830
  H     -3.248860    1.553590   -6.527340
  H     -4.767520   -0.030330   -5.410100
  H     -4.355500   -0.306970    0.887960
  H     -5.593590   -2.162140    2.116090
  H     -8.345680   -4.684550    1.479530
  H     -7.717430   -4.050140    3.002240
  H     -8.103650   -5.770270    2.855220
  H     -4.341120   -5.659540    2.712590
  H     -5.712050   -6.324560    3.608200
  H     -5.336260   -4.600770    3.718150
  H     -6.890950   -8.202210    1.716510
  H     -6.951380  -10.313820    1.180270
  H     -6.255140  -12.042570   -3.570300
  H     -7.697570  -16.160610    0.850180
  H     -7.396650  -17.294800   -1.457940
  H     -7.653690  -11.969610    2.458620
  H     -7.225560  -14.994000    2.586160
  H     -8.496250  -11.885430    4.609240
  H    -10.920130  -12.932760    7.388060
  H    -10.497820  -11.360190    6.695710
  H    -10.663670  -11.544970    8.446770
  H     -6.946900  -11.393420    7.981240
  H     -8.309940  -10.672650    8.845740
  H     -8.132000  -10.415390    7.106590
  H     -9.186110  -12.776970   10.680050
  H     -7.850400  -16.172530   12.011970
  H    -12.063910  -11.981820   14.191810
  H    -11.979120  -11.511300   16.602580
  H    -10.404370  -12.709730   18.059390
  H     -8.870010  -14.387490   17.141780

 Total Charge           Charge          ....    0
 Multiplicity           Mult            ....    1
 Number of Electrons    NEL             ....  580
 Basis Dimension        Dim             .... 1304

ORBITAL ENERGIES
----------------

  NO   OCC          E(Eh)            E(eV)
   0   2.0000     -88.989422     -2421.5253
   1   2.0000     -88.988392     -2421.4973
   2   2.0000     -88.985738     -2421.4250
   3   2.0000     -88.979344     -2421.2510
   4   2.0000     -88.975602     -2421.1492
   5   2.0000     -88.968033     -2420.9433
   6   2.0000     -14.421107      -392.4183
   7   2.0000     -14.419521      -392.3751
   8   2.0000     -14.418525      -392.3480
   9   2.0000     -14.416235      -392.2857
  10   2.0000     -14.414239      -392.2314
  11   2.0000     -14.414051      -392.2263
  12   2.0000     -14.413918      -392.2226
  13   2.0000     -14.410006      -392.1162
  14   2.0000     -10.348192      -281.5886
  15   2.0000     -10.346039      -281.5300
  16   2.0000     -10.345351      -281.5113
  17   2.0000     -10.344855      -281.4978
  18   2.0000     -10.342407      -281.4312
  19   2.0000     -10.341090      -281.3954
  20   2.0000     -10.340109      -281.3687
  21   2.0000     -10.339381      -281.3489
  22   2.0000     -10.338755      -281.3318
  23   2.0000     -10.338706      -281.3305
  24   2.0000     -10.338104      -281.3141
  25   2.0000     -10.336515      -281.2709
  26   2.0000     -10.330829      -281.1162
  27   2.0000     -10.328617      -281.0560
  28   2.0000     -10.325739      -280.9776
  29   2.0000     -10.325416      -280.9689
  30   2.0000     -10.323827      -280.9256
  31   2.0000     -10.323623      -280.9201
  32   2.0000     -10.322926      -280.9011
  33   2.0000     -10.322046      -280.8772
  34   2.0000     -10.320793      -280.8431
  35   2.0000     -10.319467      -280.8070
  36   2.0000     -10.318570      -280.7826
  37   2.0000     -10.317457      -280.7523
  38   2.0000     -10.317056      -280.7414
  39   2.0000     -10.316664      -280.7307
  40   2.0000     -10.315334      -280.6945
  41   2.0000     -10.314704      -280.6774
  42   2.0000     -10.313638      -280.6484
  43   2.0000     -10.313142      -280.6349
  44   2.0000     -10.312891      -280.6280
  45   2.0000     -10.310821      -280.5717
  46   2.0000     -10.310573      -280.5650
  47   2.0000     -10.310255      -280.5563
  48   2.0000     -10.309926      -280.5474
  49   2.0000     -10.308971      -280.5214
  50   2.0000     -10.306926      -280.4657
  51   2.0000     -10.304876      -280.4099
  52   2.0000     -10.304623      -280.4030
  53   2.0000     -10.304296      -280.3941
  54   2.0000     -10.304009      -280.3863
  55   2.0000     -10.303535      -280.3734
  56   2.0000     -10.303077      -280.3610
  57   2.0000     -10.300359      -280.2870
  58   2.0000     -10.299588      -280.2660
  59   2.0000     -10.299403      -280.2610
  60   2.0000     -10.298852      -280.2460
  61   2.0000     -10.298269      -280.2302
  62   2.0000     -10.297221      -280.2016
  63   2.0000     -10.296598      -280.1847
  64   2.0000     -10.295794      -280.1628
  65   2.0000     -10.295653      -280.1590
  66   2.0000     -10.294000      -280.1140
  67   2.0000     -10.293185      -280.0918
  68   2.0000     -10.292896      -280.0839
  69   2.0000     -10.292069      -280.0614
  70   2.0000     -10.291914      -280.0572
  71   2.0000     -10.291232      -280.0387
  72   2.0000     -10.290398      -280.0160
  73   2.0000     -10.290145      -280.0091
  74   2.0000     -10.287152      -279.9276
  75   2.0000     -10.285893      -279.8934
  76   2.0000     -10.283289      -279.8225
  77   2.0000     -10.280028      -279.7338
  78   2.0000     -10.278983      -279.7053
  79   2.0000     -10.273267      -279.5498
  80   2.0000      -8.084970      -220.0032
  81   2.0000      -8.083339      -219.9588
  82   2.0000      -8.080251      -219.8748
  83   2.0000      -8.074390      -219.7153
  84   2.0000      -8.070771      -219.6169
  85   2.0000      -8.063498      -219.4189
  86   2.0000      -6.054610      -164.7543
  87   2.0000      -6.052779      -164.7045
  88   2.0000      -6.050002      -164.6289
  89   2.0000      -6.049671      -164.6199
  90   2.0000      -6.048567      -164.5899
  91   2.0000      -6.046722      -164.5397
  92   2.0000      -6.045527      -164.5072
  93   2.0000      -6.045284      -164.5005
  94   2.0000      -6.043673      -164.4567
  95   2.0000      -6.042193      -164.4164
  96   2.0000      -6.040097      -164.3594
  97   2.0000      -6.039603      -164.3460
  98   2.0000      -6.036472      -164.2607
  99   2.0000      -6.036038      -164.2490
 100   2.0000      -6.032892      -164.1633
 101   2.0000      -6.032792      -164.1606
 102   2.0000      -6.028667      -164.0484
 103   2.0000      -6.025582      -163.9644
 104   2.0000      -1.039911       -28.2974
 105   2.0000      -1.033601       -28.1257
 106   2.0000      -1.031487       -28.0682
 107   2.0000      -1.026076       -27.9209
 108   2.0000      -1.019812       -27.7505
 109   2.0000      -1.016257       -27.6538
 110   2.0000      -1.010814       -27.5056
 111   2.0000      -1.005678       -27.3659
 112   2.0000      -1.004527       -27.3346
 113   2.0000      -1.000206       -27.2170
 114   2.0000      -0.996842       -27.1254
 115   2.0000      -0.996760       -27.1232
 116   2.0000      -0.994594       -27.0643
 117   2.0000      -0.990593       -26.9554
 118   2.0000      -0.989027       -26.9128
 119   2.0000      -0.981457       -26.7068
 120   2.0000      -0.959119       -26.0990
 121   2.0000      -0.953538       -25.9471
 122   2.0000      -0.948454       -25.8087
 123   2.0000      -0.942561       -25.6484
 124   2.0000      -0.937770       -25.5180
 125   2.0000      -0.935390       -25.4532
 126   2.0000      -0.931263       -25.3410
 127   2.0000      -0.911452       -24.8019
 128   2.0000      -0.903691       -24.5907
 129   2.0000      -0.899595       -24.4792
 130   2.0000      -0.893300       -24.3079
 131   2.0000      -0.890980       -24.2448
 132   2.0000      -0.885386       -24.0926
 133   2.0000      -0.869916       -23.6716
 134   2.0000      -0.865588       -23.5538
 135   2.0000      -0.864545       -23.5255
 136   2.0000      -0.858910       -23.3721
 137   2.0000      -0.855414       -23.2770
 138   2.0000      -0.848893       -23.0996
 139   2.0000      -0.847569       -23.0635
 140   2.0000      -0.844235       -22.9728
 141   2.0000      -0.837955       -22.8019
 142   2.0000      -0.830432       -22.5972
 143   2.0000      -0.816171       -22.2091
 144   2.0000      -0.811188       -22.0735
 145   2.0000      -0.799360       -21.7517
 146   2.0000      -0.793671       -21.5969
 147   2.0000      -0.789267       -21.4771
 148   2.0000      -0.788096       -21.4452
 149   2.0000      -0.784060       -21.3354
 150   2.0000      -0.777066       -21.1451
 151   2.0000      -0.758693       -20.6451
 152   2.0000      -0.740912       -20.1612
 153   2.0000      -0.737845       -20.0778
 154   2.0000      -0.724928       -19.7263
 155   2.0000      -0.720156       -19.5964
 156   2.0000      -0.714000       -19.4289
 157   2.0000      -0.712711       -19.3939
 158   2.0000      -0.709848       -19.3159
 159   2.0000      -0.707616       -19.2552
 160   2.0000      -0.702806       -19.1243
 161   2.0000      -0.696103       -18.9419
 162   2.0000      -0.686025       -18.6677
 163   2.0000      -0.670643       -18.2491
 164   2.0000      -0.666622       -18.1397
 165   2.0000      -0.664672       -18.0866
 166   2.0000      -0.663246       -18.0478
 167   2.0000      -0.659194       -17.9376
 168   2.0000      -0.657842       -17.9008
 169   2.0000      -0.653509       -17.7829
 170   2.0000      -0.651689       -17.7334
 171   2.0000      -0.648635       -17.6502
 172   2.0000      -0.645544       -17.5661
 173   2.0000      -0.645083       -17.5536
 174   2.0000      -0.641210       -17.4482
 175   2.0000      -0.632270       -17.2049
 176   2.0000      -0.627858       -17.0849
 177   2.0000      -0.623516       -16.9667
 178   2.0000      -0.608711       -16.5639
 179   2.0000      -0.598663       -16.2905
 180   2.0000      -0.592060       -16.1108
 181   2.0000      -0.585399       -15.9295
 182   2.0000      -0.583835       -15.8870
 183   2.0000      -0.582333       -15.8461
 184   2.0000      -0.578683       -15.7468
 185   2.0000      -0.577674       -15.7193
 186   2.0000      -0.571781       -15.5590
 187   2.0000      -0.569315       -15.4919
 188   2.0000      -0.563494       -15.3334
 189   2.0000      -0.560076       -15.2404
 190   2.0000      -0.556593       -15.1457
 191   2.0000      -0.550482       -14.9794
 192   2.0000      -0.548406       -14.9229
 193   2.0000      -0.543317       -14.7844
 194   2.0000      -0.542726       -14.7683
 195   2.0000      -0.541646       -14.7389
 196   2.0000      -0.538112       -14.6428
 197   2.0000      -0.537122       -14.6158
 198   2.0000      -0.535385       -14.5686
 199   2.0000      -0.532607       -14.4930
 200   2.0000      -0.531843       -14.4722
 201   2.0000      -0.530036       -14.4230
 202   2.0000      -0.527036       -14.3414
 203   2.0000      -0.526052       -14.3146
 204   2.0000      -0.524625       -14.2758
 205   2.0000      -0.520453       -14.1623
 206   2.0000      -0.517120       -14.0716
 207   2.0000      -0.514631       -14.0038
 208   2.0000      -0.511273       -13.9124
 209   2.0000      -0.505775       -13.7628
 210   2.0000      -0.504699       -13.7335
 211   2.0000      -0.503930       -13.7126
 212   2.0000      -0.501637       -13.6502
 213   2.0000      -0.500573       -13.6213
 214   2.0000      -0.500036       -13.6067
 215   2.0000      -0.495703       -13.4888
 216   2.0000      -0.493546       -13.4301
 217   2.0000      -0.492568       -13.4034
 218   2.0000      -0.488180       -13.2840
 219   2.0000      -0.485838       -13.2203
 220   2.0000      -0.485185       -13.2025
 221   2.0000      -0.480822       -13.0838
 222   2.0000      -0.477558       -12.9950
 223   2.0000      -0.476559       -12.9678
 224   2.0000      -0.473288       -12.8788
 225   2.0000      -0.472574       -12.8594
 226   2.0000      -0.468270       -12.7423
 227   2.0000      -0.467214       -12.7135
 228   2.0000      -0.461940       -12.5700
 229   2.0000      -0.460510       -12.5311
 230   2.0000      -0.458894       -12.4871
 231   2.0000      -0.458723       -12.4825
 232   2.0000      -0.457520       -12.4497
 233   2.0000      -0.454451       -12.3662
 234   2.0000      -0.453770       -12.3477
 235   2.0000      -0.452858       -12.3229
 236   2.0000      -0.452132       -12.3031
 237   2.0000      -0.449285       -12.2257
 238   2.0000      -0.448812       -12.2128
 239   2.0000      -0.447737       -12.1835
 240   2.0000      -0.446558       -12.1515
 241   2.0000      -0.445946       -12.1348
 242   2.0000      -0.445319       -12.1178
 243   2.0000      -0.444359       -12.0916
 244   2.0000      -0.442739       -12.0475
 245   2.0000      -0.442069       -12.0293
 246   2.0000      -0.439419       -11.9572
 247   2.0000      -0.438766       -11.9394
 248   2.0000      -0.438642       -11.9361
 249   2.0000      -0.434273       -11.8172
 250   2.0000      -0.432577       -11.7710
 251   2.0000      -0.430776       -11.7220
 252   2.0000      -0.430617       -11.7177
 253   2.0000      -0.429410       -11.6849
 254   2.0000      -0.428330       -11.6555
 255   2.0000      -0.427054       -11.6207
 256   2.0000      -0.425968       -11.5912
 257   2.0000      -0.425373       -11.5750
 258   2.0000      -0.423357       -11.5201
 259   2.0000      -0.423070       -11.5123
 260   2.0000      -0.422067       -11.4850
 261   2.0000      -0.419474       -11.4145
 262   2.0000      -0.418751       -11.3948
 263   2.0000      -0.417505       -11.3609
 264   2.0000      -0.415839       -11.3156
 265   2.0000      -0.413641       -11.2558
 266   2.0000      -0.410147       -11.1607
 267   2.0000      -0.408662       -11.1203
 268   2.0000      -0.407813       -11.0972
 269   2.0000      -0.403060       -10.9678
 270   2.0000      -0.394125       -10.7247
 271   2.0000      -0.383261       -10.4291
 272   2.0000      -0.379280       -10.3207
 273   2.0000      -0.378371       -10.2960
 274   2.0000      -0.369743       -10.0612
 275   2.0000      -0.351559        -9.5664
 276   2.0000      -0.346479        -9.4282
 277   2.0000      -0.343422        -9.3450
 278   2.0000      -0.340984        -9.2787
 279   2.0000      -0.338006        -9.1976
 280   2.0000      -0.335796        -9.1375
 281   2.0000      -0.332293        -9.0422
 282   2.0000      -0.327126        -8.9016
 283   2.0000      -0.324513        -8.8304
 284   2.0000      -0.311178        -8.4676
 285   2.0000      -0.303477        -8.2580
 286   2.0000      -0.291880        -7.9425
 287   2.0000      -0.274450        -7.4682
 288   2.0000      -0.256690        -6.9849
 289   2.0000      -0.226582        -6.1656
 290   0.0000      -0.111636        -3.0378
 291   0.0000      -0.098507        -2.6805
 292   0.0000      -0.086254        -2.3471
 293   0.0000      -0.081889        -2.2283
 294   0.0000      -0.068854        -1.8736

MULLIKEN ATOMIC CHARGES
-----------------------
   0 C :   -0.032873
   1 C :    0.045314
   2 C :    0.044690
   3 C :   -0.032086
   4 C :    0.002257
   5 C :    0.012746
   6 C :    0.305890
   7 C :   -0.350844
   8 C :   -0.187768
   9 N :    0.154882
  10 C :   -0.178793
  11 N :    0.140583
  12 C :   -0.079273
  13 C :    0.216123
  14 C :   -0.330746
  15 C :   -0.202041
  16 N :    0.173745
  17 C :   -0.177445
  18 N :    0.156979
  19 C :    0.034145
  20 C :   -0.112719
  21 C :   -0.000787
  22 C :    0.032601
  23 C :   -0.059822
  24 S :    0.175732
  25 C :   -0.087530
  26 C :    0.022018
  27 C :   -0.119555
  28 C :    0.107695
  29 C :    0.100945
  30 C :   -0.043892
  31 C :   -0.059989
  32 S :    0.165141
  33 C :   -0.025631
  34 C :   -0.060798
  35 C :    0.058633
  36 C :    0.065841
  37 C :   -0.123280
  38 S :    0.130248
  39 C :   -0.113781
  40 C :    0.053674
  41 C :   -0.005677
  42 C :   -0.066226
  43 S :    0.136599
  44 C :    0.087477
  45 C :   -0.022640
  46 C :    0.028923
  47 C :   -0.062187
  48 C :   -0.048081
  49 C :    0.027460
  50 C :   -0.099582
  51 S :    0.163398
  52 C :   -0.043809
  53 C :   -0.006798
  54 C :   -0.113331
  55 C :    0.103666
  56 C :    0.103832
  57 C :    0.012274
  58 C :   -0.151569
  59 S :    0.196339
  60 C :    0.073912
  61 C :   -0.089144
  62 C :    0.312749
  63 C :   -0.361605
  64 C :   -0.182642
  65 N :    0.146229
  66 C :   -0.191060
  67 N :    0.152052
  68 C :    0.009136
  69 C :   -0.002764
  70 C :   -0.036754
  71 C :    0.046233
  72 C :    0.044903
  73 C :   -0.035759
  74 C :    0.249307
  75 C :   -0.365954
  76 C :   -0.179976
  77 N :    0.150158
  78 C :   -0.197767
  79 N :    0.170176
  80 H :    0.005270
  81 H :    0.002879
  82 H :    0.004877
  83 H :    0.005410
  84 H :    0.020220
  85 H :    0.002258
  86 H :    0.036252
  87 H :    0.020089
  88 H :    0.010235
  89 H :    0.024862
  90 H :    0.011326
  91 H :    0.020238
  92 H :   -0.020326
  93 H :   -0.029834
  94 H :    0.039995
  95 H :   -0.009978
  96 H :    0.030909
  97 H :   -0.034303
  98 H :   -0.028294
  99 H :   -0.025872
 100 H :    0.039011
 101 H :    0.010277
 102 H :    0.016967
 103 H :    0.023502
 104 H :    0.014984
 105 H :    0.009841
 106 H :    0.003093
 107 H :    0.015976
 108 H :    0.002566
 109 H :    0.000825
 110 H :    0.001559
 111 H :    0.003460
Sum of atomic charges:   -0.0000000

LOEWDIN ATOMIC CHARGES
----------------------
   0 C :    0.004443
   1 C :   -0.000231
   2 C :    0.002364
   3 C :   -0.000035
   4 C :   -0.010344
   5 C :   -0.013238
   6 C :    0.079597
   7 C :   -0.141814
   8 C :   -0.019557
   9 N :   -0.052137
  10 C :   -0.019535
  11 N :   -0.054155
  12 C :   -0.079526
  13 C :    0.059602
  14 C :   -0.143352
  15 C :   -0.033398
  16 N :   -0.050376
  17 C :   -0.020550
  18 N :   -0.050021
  19 C :    0.043353
  20 C :   -0.180765
  21 C :    0.006174
  22 C :   -0.040723
  23 C :   -0.152729
  24 S :    0.472810
  25 C :   -0.204287
  26 C :   -0.014590
  27 C :   -0.035300
  28 C :   -0.020983
  29 C :   -0.023796
  30 C :   -0.054590
  31 C :   -0.168107
  32 S :    0.444731
  33 C :   -0.183817
  34 C :   -0.015000
  35 C :   -0.018370
  36 C :   -0.048994
  37 C :   -0.137761
  38 S :    0.444990
  39 C :   -0.198829
  40 C :   -0.037569
  41 C :   -0.065897
  42 C :   -0.161676
  43 S :    0.430378
  44 C :   -0.047223
  45 C :   -0.003920
  46 C :   -0.060941
  47 C :   -0.138086
  48 C :   -0.065578
  49 C :   -0.010082
  50 C :   -0.212143
  51 S :    0.446912
  52 C :   -0.150890
  53 C :   -0.035624
  54 C :   -0.035733
  55 C :   -0.021792
  56 C :   -0.024879
  57 C :   -0.005401
  58 C :   -0.184987
  59 S :    0.478295
  60 C :    0.039529
  61 C :   -0.083637
  62 C :    0.077485
  63 C :   -0.144881
  64 C :   -0.022080
  65 N :   -0.054688
  66 C :   -0.019236
  67 N :   -0.056437
  68 C :   -0.012816
  69 C :   -0.012137
  70 C :   -0.001975
  71 C :   -0.000091
  72 C :   -0.001441
  73 C :    0.002952
  74 C :    0.067035
  75 C :   -0.149247
  76 C :   -0.022171
  77 N :   -0.058842
  78 C :   -0.017654
  79 N :   -0.051534
  80 H :    0.041310
  81 H :    0.037061
  82 H :    0.037254
  83 H :    0.040362
  84 H :    0.051590
  85 H :    0.041754
  86 H :    0.036168
  87 H :    0.028087
  88 H :    0.023361
  89 H :    0.031136
  90 H :    0.024231
  91 H :    0.027800
  92 H :    0.029885
  93 H :    0.034146
  94 H :    0.038599
  95 H :    0.030078
  96 H :    0.025611
  97 H :    0.024188
  98 H :    0.026614
  99 H :    0.027388
 100 H :    0.036689
 101 H :    0.023714
 102 H :    0.026525
 103 H :    0.030441
 104 H :    0.025888
 105 H :    0.023753
 106 H :    0.036434
 107 H :    0.044548
 108 H :    0.039573
 109 H :    0.036054
 110 H :    0.036419
 111 H :    0.040882

  Mayer bond orders larger than 0.100000
B(  0-C ,  1-C ) :   1.3700 B(  0-C ,  5-C ) :   1.3867 B(  0-C , 80-H ) :   0.9831
B(  1-C ,  2-C ) :   1.3807 B(  1-C , 81-H ) :   0.9855 B(  2-C ,  3-C ) :   1.3631
B(  2-C , 82-H ) :   0.9857 B(  3-C ,  4-C ) :   1.3875 B(  3-C , 83-H ) :   0.9867
B(  4-C ,  5-C ) :   1.3157 B(  4-C , 13-C ) :   1.0100 B(  5-C ,  6-C ) :   0.9958
B(  6-C ,  7-C ) :   1.6166 B(  6-C , 12-C ) :   1.0846 B(  7-C ,  8-C ) :   1.1501
B(  7-C , 10-C ) :   1.1415 B(  8-C ,  9-N ) :   2.9734 B( 10-C , 11-N ) :   2.9563
B( 12-C , 13-C ) :   1.0383 B( 12-C , 19-C ) :   1.5086 B( 13-C , 14-C ) :   1.6335
B( 14-C , 15-C ) :   1.1507 B( 14-C , 17-C ) :   1.1451 B( 15-C , 16-N ) :   3.0193
B( 17-C , 18-N ) :   2.9923 B( 19-C , 20-C ) :   1.2446 B( 19-C , 84-H ) :   0.9331
B( 20-C , 21-C ) :   1.3372 B( 20-C , 24-S ) :   1.0779 B( 21-C , 22-C ) :   1.3596
B( 21-C , 85-H ) :   1.0109 B( 22-C , 23-C ) :   1.4534 B( 22-C , 27-C ) :   0.9318
B( 23-C , 24-S ) :   1.1186 B( 23-C , 25-C ) :   1.2180 B( 25-C , 26-C ) :   1.4936
B( 25-C , 32-S ) :   1.0731 B( 26-C , 27-C ) :   0.9450 B( 26-C , 30-C ) :   1.3392
B( 27-C , 28-C ) :   1.0337 B( 27-C , 29-C ) :   1.0354 B( 28-C , 86-H ) :   0.9630
B( 28-C , 87-H ) :   0.9640 B( 28-C , 88-H ) :   0.9643 B( 29-C , 89-H ) :   0.9650
B( 29-C , 90-H ) :   0.9647 B( 29-C , 91-H ) :   0.9647 B( 30-C , 31-C ) :   1.4601
B( 30-C , 92-H ) :   0.9944 B( 31-C , 32-S ) :   1.1223 B( 31-C , 33-C ) :   1.1269
B( 33-C , 34-C ) :   1.5467 B( 33-C , 38-S ) :   1.0400 B( 34-C , 35-C ) :   1.2506
B( 34-C , 93-H ) :   0.9666 B( 35-C , 36-C ) :   1.0478 B( 35-C , 44-C ) :   1.3575
B( 36-C , 37-C ) :   1.6092 B( 36-C , 39-C ) :   1.1787 B( 37-C , 38-S ) :   1.1407
B( 37-C , 94-H ) :   0.9404 B( 39-C , 40-C ) :   1.4474 B( 39-C , 43-S ) :   1.0832
B( 40-C , 41-C ) :   1.2130 B( 40-C , 44-C ) :   1.0854 B( 41-C , 42-C ) :   1.5869
B( 41-C , 95-H ) :   0.9984 B( 42-C , 43-S ) :   1.1563 B( 42-C , 96-H ) :   0.9652
B( 44-C , 45-C ) :   1.1905 B( 45-C , 46-C ) :   1.6217 B( 45-C , 97-H ) :   0.9581
B( 46-C , 47-C ) :   1.1369 B( 46-C , 98-H ) :   0.9635 B( 47-C , 48-C ) :   1.4192
B( 47-C , 51-S ) :   1.1251 B( 48-C , 49-C ) :   1.3456 B( 48-C , 99-H ) :   0.9981
B( 49-C , 50-C ) :   1.4814 B( 49-C , 54-C ) :   0.9400 B( 50-C , 51-S ) :   1.0643
B( 50-C , 52-C ) :   1.2255 B( 52-C , 53-C ) :   1.4318 B( 52-C , 59-S ) :   1.1362
B( 53-C , 54-C ) :   0.9337 B( 53-C , 57-C ) :   1.4487 B( 54-C , 55-C ) :   1.0344
B( 54-C , 56-C ) :   1.0370 B( 55-C ,100-H ) :   0.9625 B( 55-C ,101-H ) :   0.9635
B( 55-C ,102-H ) :   0.9642 B( 56-C ,103-H ) :   0.9646 B( 56-C ,104-H ) :   0.9648
B( 56-C ,105-H ) :   0.9644 B( 57-C , 58-C ) :   1.3104 B( 57-C ,106-H ) :   0.9921
B( 58-C , 59-S ) :   1.0766 B( 58-C , 60-C ) :   1.2740 B( 60-C , 61-C ) :   1.4970
B( 60-C ,107-H ) :   0.9132 B( 61-C , 62-C ) :   1.1057 B( 61-C , 74-C ) :   1.0612
B( 62-C , 63-C ) :   1.6006 B( 62-C , 68-C ) :   0.9864 B( 63-C , 64-C ) :   1.1418
B( 63-C , 66-C ) :   1.1554 B( 64-C , 65-N ) :   2.9569 B( 66-C , 67-N ) :   2.9693
B( 68-C , 69-C ) :   1.3187 B( 68-C , 73-C ) :   1.3871 B( 69-C , 70-C ) :   1.3844
B( 69-C , 74-C ) :   1.0029 B( 70-C , 71-C ) :   1.3613 B( 70-C ,108-H ) :   0.9862
B( 71-C , 72-C ) :   1.3816 B( 71-C ,109-H ) :   0.9868 B( 72-C , 73-C ) :   1.3657
B( 72-C ,110-H ) :   0.9856 B( 73-C ,111-H ) :   0.9829 B( 74-C , 75-C ) :   1.6038
B( 75-C , 76-C ) :   1.1431 B( 75-C , 78-C ) :   1.1662 B( 76-C , 77-N ) :   2.9841
B( 78-C , 79-N ) :   2.9867

-----------------------------------------------------------------------------
         ABSORPTION SPECTRUM VIA TRANSITION ELECTRIC DIPOLE MOMENTS
-----------------------------------------------------------------------------
State   Energy  Wavelength   fosc         T2         TX        TY        TZ
        (cm-1)    (nm)                  (au**2)     (au)      (au)      (au)
-----------------------------------------------------------------------------
   0   11920.9    838.9   1.987985510  54.90104   1.74097   4.95745  -5.22434
   1   15236.1    656.3   0.716914706  15.49063   0.35609  -2.86649  -2.67340
   2   18688.1    535.1   0.135538307   2.38766  -0.17874   1.53395   0.05217
   3   18706.7    534.6   0.151580269   2.66761  -0.72476   0.46025  -1.38942
   4   19754.5    506.2   0.256782251   4.27932  -0.86192  -1.34514  -1.31416
   5   20396.0    490.3   0.028820180   0.46519  -0.36478  -0.44893   0.36136
   6   21437.7    466.5   0.034584198   0.53110   0.29683   0.35212  -0.56480
   7   23782.1    420.5   0.056799282   0.78626  -0.17364  -0.66905   0.55542
   8   24858.1    402.3   0.276541800   3.66242   0.64889   1.07226   1.44625
   9   25279.8    395.6   0.055127143   0.71791  -0.41886  -0.32732  -0.65979
  10   25572.1    391.1   0.095394186   1.22809   0.29518   0.34162  -1.01206
  11   26680.6    374.8   0.187069179   2.30825  -0.49427   0.85346  -1.15566
  12   27018.4    370.1   0.175229036   2.13512  -0.73023  -0.26679   1.23722
  13   27691.9    361.1   0.058815045   0.69921  -0.42647  -0.30894   0.64953
  14   28051.6    356.5   0.063962351   0.75066   0.24059   0.80178   0.22344
  15   28840.7    346.7   0.157384949   1.79652   0.10344   0.19057   1.32269
  16   29472.7    339.3   0.091430251   1.02128   0.13383  -0.54241  -0.84212
  17   30380.2    329.2   0.295684512   3.20415  -0.96070  -1.29106  -0.78381
  18   30845.1    324.2   0.128865195   1.37539  -0.75202   0.55501  -0.70839
  19   30901.0    323.6   0.096721893   1.03045  -0.83758   0.34696  -0.45666
  20   32152.9    311.0   0.049250574   0.50427   0.55535   0.33672   0.28719
  21   32463.2    308.0   0.037029964   0.37552  -0.53444  -0.26070   0.14811
  22   32779.0    305.1   0.052588209   0.52816  -0.06297   0.37603   0.61871
  23   32929.6    303.7   0.260917510   2.60851   0.55189  -1.33867   0.71545
  24   32944.3    303.5   0.491878247   4.91533  -1.77119  -0.68927  -1.14154
  25   33157.2    301.6   0.042831144   0.42526   0.61545   0.21262   0.03579
  26   33338.2    300.0   0.199345105   1.96852  -0.54197  -0.57607  -1.15885
  27   33506.4    298.5   0.129999006   1.27729   0.63282  -0.56282   0.74837
  28   33757.2    296.2   0.055156727   0.53791  -0.19434  -0.47109   0.52746
  29   33982.5    294.3   0.170280305   1.64962   0.30769   1.05812  -0.65980
  30   34316.8    291.4   0.043989924   0.42201   0.30691   0.12713  -0.55826
  31   34639.6    288.7   0.202989572   1.92920  -0.48895   1.01649   0.81048
  32   34938.5    286.2   0.074591707   0.70285   0.15659  -0.58567  -0.57906
  33   35142.5    284.6   0.042444503   0.39762  -0.36615   0.48053  -0.18066
  34   35444.1    282.1   0.198832914   1.84680   0.38269  -0.43205  -1.23032
  35   35611.4    280.8   0.000759817   0.00702  -0.05076  -0.06190  -0.02480
  36   35868.6    278.8   0.039598062   0.36344   0.05985  -0.32378  -0.50500
  37   36109.6    276.9   0.137012536   1.24914   0.28397   0.64797  -0.86524
  38   36717.5    272.3   0.036250830   0.32503   0.03659  -0.29299  -0.48769
  39   36938.5    270.7   0.041275838   0.36787   0.08661  -0.33276  -0.49964
  40   37066.6    269.8   0.024081318   0.21388   0.02569  -0.33278  -0.32012
  41   37573.3    266.1   0.035057420   0.30717  -0.33495   0.29244   0.33084
  42   37699.9    265.3   0.095903479   0.83747  -0.18336   0.08092   0.89292
  43   37898.5    263.9   0.115568018   1.00390  -0.30062   0.51046   0.80806
  44   37969.2    263.4   0.014425324   0.12507   0.14890  -0.11691  -0.29872
  45   38529.4    259.5   0.009008033   0.07697   0.05291  -0.26969   0.03792
  46   38590.2    259.1   0.018642770   0.15904  -0.36878  -0.00080   0.15179
  47   39381.4    253.9   0.072661557   0.60742   0.19698   0.68700  -0.31088
  48   39424.3    253.7   0.004999045   0.04174   0.03738   0.17705  -0.09486
  49   39594.5    252.6   0.017319104   0.14400  -0.00349  -0.34425   0.15964
  50   39674.9    252.0   0.010740176   0.08912   0.10406   0.23280   0.15522
  51   39933.0    250.4   0.004737450   0.03906   0.07378   0.18328   0.00469
  52   40088.1    249.5   0.080531530   0.66134  -0.24279   0.58053   0.51515

FINAL SINGLE POINT ENERGY     -5356.650729638882

DIPOLE MOMENT
-------------
                                X             Y             Z
Electronic contribution:     11.61721     -10.86230     -22.43746
Nuclear contribution   :    -10.77853      10.57672      19.10257
                        -----------------------------------------
Total Dipole Moment    :      0.83868      -0.28558      -3.33489
                        -----------------------------------------
Magnitude (a.u.)       :      3.45057
Magnitude (Debye)      :      8.77066

Rotational constants in cm-1:     0.000908     0.000198     0.000169
Rotational constants in MHz :    27.222588     5.921569     5.079171

                             ****ORCA TERMINATED NORMALLY****
TOTAL RUN TIME: 0 days 0 hours 13 minutes 16 seconds 443 msec
