                         Program Version 4.2.0 -  RELEASE  -
|  1> # ORCA input file
|  2> # SCF done       -184.488849556130          0.000774019258
|  3> ! CAM-B3LYP def2-SVP def2/J RIJCOSX Grid4 TightSCF
|  4> %maxcore 5000
|  5> %tddft
|  6>     Mode sTDDFT
|  7>     Ethresh 5.0
|  8>     maxcore 5000
|  9> end
| 10>
| 11> %pal
| 12>   nprocs 6
| 13>   end
| 14> * xyz 0 1
| 15>    C        0.41645         0.31352        -4.16169
| 16>    C        0.38366         0.25332        -5.54715
| 17>    C       -0.68272        -0.33187        -6.21478
| 18>    C       -1.75447        -0.86626        -5.51515
| 19>    C       -1.73201        -0.81152        -4.13210
| 20>    C       -0.64207        -0.22636        -3.44833
| 21>    C       -0.87010        -0.33653        -2.01240
| 22>    C       -0.07396         0.19294        -1.02997
| 23>    C        1.08333         0.96120        -1.27670
| 24>    N        2.03374         1.59301        -1.40071
| 25>    C       -0.30108         0.07834         0.35675
| 26>    N       -0.42067         0.02000         1.49809
| 27>    C       -2.07387        -1.13737        -1.84028
| 28>    C       -2.70787        -1.24620        -3.14598
| 29>    C       -4.04858        -1.41649        -3.37124
| 30>    C       -5.00203        -1.50261        -2.33558
| 31>    N       -5.80500        -1.51918        -1.51499
| 32>    C       -4.63725        -1.41588        -4.65159
| 33>    N       -5.16652        -1.43454        -5.66983
| 34>    C       -2.44926        -1.73549        -0.66609
| 35>    C       -3.26924        -2.86505        -0.47883
| 36>    C       -3.83431        -3.27539         0.73153
| 37>    C       -3.75016        -2.49475         2.00321
| 38>    C       -2.51016        -2.89528         2.80820
| 39>    C       -4.48648        -4.50003         0.63004
| 40>    C       -4.42993        -5.07511        -0.62944
| 41>    S       -3.55833        -4.05330        -1.72758
| 42>    C       -4.95991        -6.30241        -1.09853
| 43>    C       -5.65919        -7.17806        -0.33250
| 44>    C       -6.20373        -8.40133        -0.79346
| 45>    C       -6.15747        -8.97441        -2.05546
| 46>    C       -6.82918       -10.19263        -2.10533
| 47>    C       -7.39713       -10.55976        -0.86980
| 48>    S       -7.09808        -9.40297         0.34593
| 49>    C       -8.05813       -11.80089        -1.02778
| 50>    C       -7.91649       -12.22051        -2.36235
| 51>    C       -7.13848       -11.22436        -3.08358
| 52>    C       -6.78114       -11.25086        -4.39902
| 53>    C       -6.00837       -10.22511        -4.98353
| 54>    N       -5.37587        -9.39223        -5.45335
| 55>    C       -7.16770       -12.30057        -5.25950
| 56>    N       -7.49176       -13.14835        -5.95977
| 57>    C       -8.53902       -13.43874        -2.61515
| 58>    C       -9.16402       -13.95935        -1.49089
| 59>    S       -8.96100       -12.90840        -0.09521
| 60>    C       -9.87751       -15.18491        -1.44239
| 61>    C      -10.59267       -15.78860        -0.40978
| 62>    C      -10.73655       -15.26362         0.98312
| 63>    C       -9.53851       -15.66666         1.84583
| 64>    C      -11.15198       -17.00463        -0.80131
| 65>    C      -10.89485       -17.36645        -2.11221
| 66>    S       -9.92263       -16.15272        -2.89260
| 67>    C      -11.30922       -18.54336        -2.76742
| 68>    C      -10.98576       -18.86388        -4.05111
| 69>    C      -11.40750       -20.06237        -4.65657
| 70>    C      -11.00464       -20.54217        -5.87502
| 71>    C      -11.71511       -21.55237        -6.64763
| 72>    C      -12.63676       -22.45322        -6.18387
| 73>    C      -13.03339       -22.59129        -4.83720
| 74>    N      -13.40059       -22.76159        -3.76236
| 75>    C      -13.28776       -23.40760        -6.99398
| 76>    N      -13.85042       -24.20900        -7.59286
| 77>    C      -11.25216       -21.42949        -8.02382
| 78>    C      -10.19268       -20.49455        -8.06788
| 79>    C       -9.58704       -20.17084        -9.27034
| 80>    C      -10.04076       -20.78735       -10.42708
| 81>    C      -11.07249       -21.71404       -10.38441
| 82>    C      -11.68801       -22.04516        -9.18635
| 83>    C       -9.91911       -20.04724        -6.70965
| 84>    C       -8.74684       -19.48673        -6.27606
| 85>    C       -7.70549       -19.08494        -7.13991
| 86>    N       -6.83102       -18.73240        -7.79403
| 87>    C       -8.36893       -19.36726        -4.92110
| 88>    N       -7.98084       -19.30374        -3.84259
| 89>    H        1.25545         0.76879        -3.66180
| 90>    H        1.20537         0.66632        -6.11204
| 91>    H       -0.68013        -0.37398        -7.29320
| 92>    H       -2.57599        -1.32490        -6.04147
| 93>    H       -1.99317        -1.36474         0.24153
| 94>    H       -4.64334        -2.69668         2.59679
| 95>    H       -3.72046        -1.42591         1.79141
| 96>    H       -2.52360        -3.96132         3.02424
| 97>    H       -2.48749        -2.34885         3.74681
| 98>    H       -1.59975        -2.66548         2.26016
| 99>    H       -4.99309        -4.96003         1.45910
|100>    H       -4.78330        -6.52642        -2.14088
|101>    H       -5.83540        -6.94939         0.70914
|102>    H       -5.65865        -8.51890        -2.89047
|103>    H       -8.54979       -13.94101        -3.56566
|104>    H      -11.64599       -15.68099         1.41912
|105>    H      -10.83805       -14.17678         0.97484
|106>    H       -9.45973       -16.75004         1.89530
|107>    H       -9.65627       -15.27925         2.85418
|108>    H       -8.61268       -15.27545         1.43130
|109>    H      -11.73763       -17.62102        -0.14193
|110>    H      -11.88661       -19.24223        -2.17547
|111>    H      -10.40569       -18.15512        -4.62657
|112>    H      -12.17550       -20.61093        -4.12850
|113>    H       -8.78931       -19.44747        -9.31746
|114>    H       -9.58333       -20.53968       -11.37268
|115>    H      -11.40711       -22.18351       -11.29679
|116>    H      -12.49184       -22.76270        -9.17272
|117> *
|118>
|119>                          ****END OF INPUT****

CARTESIAN COORDINATES (ANGSTROEM)
---------------------------------
  C      0.416450    0.313520   -4.161690
  C      0.383660    0.253320   -5.547150
  C     -0.682720   -0.331870   -6.214780
  C     -1.754470   -0.866260   -5.515150
  C     -1.732010   -0.811520   -4.132100
  C     -0.642070   -0.226360   -3.448330
  C     -0.870100   -0.336530   -2.012400
  C     -0.073960    0.192940   -1.029970
  C      1.083330    0.961200   -1.276700
  N      2.033740    1.593010   -1.400710
  C     -0.301080    0.078340    0.356750
  N     -0.420670    0.020000    1.498090
  C     -2.073870   -1.137370   -1.840280
  C     -2.707870   -1.246200   -3.145980
  C     -4.048580   -1.416490   -3.371240
  C     -5.002030   -1.502610   -2.335580
  N     -5.805000   -1.519180   -1.514990
  C     -4.637250   -1.415880   -4.651590
  N     -5.166520   -1.434540   -5.669830
  C     -2.449260   -1.735490   -0.666090
  C     -3.269240   -2.865050   -0.478830
  C     -3.834310   -3.275390    0.731530
  C     -3.750160   -2.494750    2.003210
  C     -2.510160   -2.895280    2.808200
  C     -4.486480   -4.500030    0.630040
  C     -4.429930   -5.075110   -0.629440
  S     -3.558330   -4.053300   -1.727580
  C     -4.959910   -6.302410   -1.098530
  C     -5.659190   -7.178060   -0.332500
  C     -6.203730   -8.401330   -0.793460
  C     -6.157470   -8.974410   -2.055460
  C     -6.829180  -10.192630   -2.105330
  C     -7.397130  -10.559760   -0.869800
  S     -7.098080   -9.402970    0.345930
  C     -8.058130  -11.800890   -1.027780
  C     -7.916490  -12.220510   -2.362350
  C     -7.138480  -11.224360   -3.083580
  C     -6.781140  -11.250860   -4.399020
  C     -6.008370  -10.225110   -4.983530
  N     -5.375870   -9.392230   -5.453350
  C     -7.167700  -12.300570   -5.259500
  N     -7.491760  -13.148350   -5.959770
  C     -8.539020  -13.438740   -2.615150
  C     -9.164020  -13.959350   -1.490890
  S     -8.961000  -12.908400   -0.095210
  C     -9.877510  -15.184910   -1.442390
  C    -10.592670  -15.788600   -0.409780
  C    -10.736550  -15.263620    0.983120
  C     -9.538510  -15.666660    1.845830
  C    -11.151980  -17.004630   -0.801310
  C    -10.894850  -17.366450   -2.112210
  S     -9.922630  -16.152720   -2.892600
  C    -11.309220  -18.543360   -2.767420
  C    -10.985760  -18.863880   -4.051110
  C    -11.407500  -20.062370   -4.656570
  C    -11.004640  -20.542170   -5.875020
  C    -11.715110  -21.552370   -6.647630
  C    -12.636760  -22.453220   -6.183870
  C    -13.033390  -22.591290   -4.837200
  N    -13.400590  -22.761590   -3.762360
  C    -13.287760  -23.407600   -6.993980
  N    -13.850420  -24.209000   -7.592860
  C    -11.252160  -21.429490   -8.023820
  C    -10.192680  -20.494550   -8.067880
  C     -9.587040  -20.170840   -9.270340
  C    -10.040760  -20.787350  -10.427080
  C    -11.072490  -21.714040  -10.384410
  C    -11.688010  -22.045160   -9.186350
  C     -9.919110  -20.047240   -6.709650
  C     -8.746840  -19.486730   -6.276060
  C     -7.705490  -19.084940   -7.139910
  N     -6.831020  -18.732400   -7.794030
  C     -8.368930  -19.367260   -4.921100
  N     -7.980840  -19.303740   -3.842590
  H      1.255450    0.768790   -3.661800
  H      1.205370    0.666320   -6.112040
  H     -0.680130   -0.373980   -7.293200
  H     -2.575990   -1.324900   -6.041470
  H     -1.993170   -1.364740    0.241530
  H     -4.643340   -2.696680    2.596790
  H     -3.720460   -1.425910    1.791410
  H     -2.523600   -3.961320    3.024240
  H     -2.487490   -2.348850    3.746810
  H     -1.599750   -2.665480    2.260160
  H     -4.993090   -4.960030    1.459100
  H     -4.783300   -6.526420   -2.140880
  H     -5.835400   -6.949390    0.709140
  H     -5.658650   -8.518900   -2.890470
  H     -8.549790  -13.941010   -3.565660
  H    -11.645990  -15.680990    1.419120
  H    -10.838050  -14.176780    0.974840
  H     -9.459730  -16.750040    1.895300
  H     -9.656270  -15.279250    2.854180
  H     -8.612680  -15.275450    1.431300
  H    -11.737630  -17.621020   -0.141930
  H    -11.886610  -19.242230   -2.175470
  H    -10.405690  -18.155120   -4.626570
  H    -12.175500  -20.610930   -4.128500
  H     -8.789310  -19.447470   -9.317460
  H     -9.583330  -20.539680  -11.372680
  H    -11.407110  -22.183510  -11.296790
  H    -12.491840  -22.762700   -9.172720

 Total Charge           Charge          ....    0
 Multiplicity           Mult            ....    1
 Number of Electrons    NEL             ....  522
 Basis Dimension        Dim             .... 1192

ORBITAL ENERGIES
----------------

  NO   OCC          E(Eh)            E(eV)
   0   2.0000     -89.004215     -2421.9278
   1   2.0000     -89.000627     -2421.8302
   2   2.0000     -88.976132     -2421.1637
   3   2.0000     -88.974568     -2421.1211
   4   2.0000     -14.439165      -392.9096
   5   2.0000     -14.438238      -392.8844
   6   2.0000     -14.423828      -392.4923
   7   2.0000     -14.423272      -392.4772
   8   2.0000     -14.420598      -392.4044
   9   2.0000     -14.419957      -392.3870
  10   2.0000     -14.419649      -392.3786
  11   2.0000     -14.419197      -392.3663
  12   2.0000     -14.417451      -392.3188
  13   2.0000     -14.417281      -392.3142
  14   2.0000     -10.374824      -282.3133
  15   2.0000     -10.361493      -281.9506
  16   2.0000     -10.352559      -281.7075
  17   2.0000     -10.349983      -281.6373
  18   2.0000     -10.348725      -281.6031
  19   2.0000     -10.348122      -281.5867
  20   2.0000     -10.347462      -281.5688
  21   2.0000     -10.347129      -281.5597
  22   2.0000     -10.346899      -281.5534
  23   2.0000     -10.344322      -281.4833
  24   2.0000     -10.344130      -281.4781
  25   2.0000     -10.342137      -281.4238
  26   2.0000     -10.341209      -281.3986
  27   2.0000     -10.339121      -281.3418
  28   2.0000     -10.338024      -281.3119
  29   2.0000     -10.334996      -281.2296
  30   2.0000     -10.334411      -281.2136
  31   2.0000     -10.332855      -281.1713
  32   2.0000     -10.327665      -281.0301
  33   2.0000     -10.326639      -281.0021
  34   2.0000     -10.325706      -280.9767
  35   2.0000     -10.324064      -280.9321
  36   2.0000     -10.322754      -280.8964
  37   2.0000     -10.322566      -280.8913
  38   2.0000     -10.322385      -280.8864
  39   2.0000     -10.322155      -280.8801
  40   2.0000     -10.321341      -280.8580
  41   2.0000     -10.320570      -280.8370
  42   2.0000     -10.320472      -280.8343
  43   2.0000     -10.319297      -280.8023
  44   2.0000     -10.318128      -280.7705
  45   2.0000     -10.316291      -280.7206
  46   2.0000     -10.316254      -280.7195
  47   2.0000     -10.315110      -280.6884
  48   2.0000     -10.314938      -280.6837
  49   2.0000     -10.314131      -280.6618
  50   2.0000     -10.312709      -280.6231
  51   2.0000     -10.312594      -280.6199
  52   2.0000     -10.312402      -280.6147
  53   2.0000     -10.312271      -280.6112
  54   2.0000     -10.310947      -280.5751
  55   2.0000     -10.310616      -280.5661
  56   2.0000     -10.308408      -280.5060
  57   2.0000     -10.308127      -280.4984
  58   2.0000     -10.303382      -280.3693
  59   2.0000     -10.300779      -280.2984
  60   2.0000     -10.300769      -280.2982
  61   2.0000     -10.300595      -280.2934
  62   2.0000     -10.300387      -280.2878
  63   2.0000     -10.299572      -280.2656
  64   2.0000     -10.299256      -280.2570
  65   2.0000     -10.299167      -280.2546
  66   2.0000     -10.298844      -280.2458
  67   2.0000     -10.298335      -280.2319
  68   2.0000     -10.297192      -280.2009
  69   2.0000     -10.293052      -280.0882
  70   2.0000     -10.291102      -280.0351
  71   2.0000     -10.283570      -279.8302
  72   2.0000     -10.275198      -279.6023
  73   2.0000     -10.266172      -279.3567
  74   2.0000      -8.097911      -220.3554
  75   2.0000      -8.095376      -220.2864
  76   2.0000      -8.071398      -219.6339
  77   2.0000      -8.069691      -219.5875
  78   2.0000      -6.067289      -165.0993
  79   2.0000      -6.064535      -165.0244
  80   2.0000      -6.062924      -164.9805
  81   2.0000      -6.060422      -164.9125
  82   2.0000      -6.060332      -164.9100
  83   2.0000      -6.057864      -164.8429
  84   2.0000      -6.040705      -164.3759
  85   2.0000      -6.038972      -164.3288
  86   2.0000      -6.036692      -164.2667
  87   2.0000      -6.034914      -164.2184
  88   2.0000      -6.033334      -164.1754
  89   2.0000      -6.031750      -164.1323
  90   2.0000      -1.055591       -28.7241
  91   2.0000      -1.035964       -28.1900
  92   2.0000      -1.035389       -28.1744
  93   2.0000      -1.030869       -28.0514
  94   2.0000      -1.018829       -27.7237
  95   2.0000      -1.018129       -27.7047
  96   2.0000      -1.017497       -27.6875
  97   2.0000      -1.015802       -27.6414
  98   2.0000      -1.008274       -27.4365
  99   2.0000      -1.007527       -27.4162
 100   2.0000      -1.005974       -27.3739
 101   2.0000      -1.001367       -27.2486
 102   2.0000      -0.999611       -27.2008
 103   2.0000      -0.998450       -27.1692
 104   2.0000      -0.998394       -27.1677
 105   2.0000      -0.995463       -27.0879
 106   2.0000      -0.969630       -26.3850
 107   2.0000      -0.960911       -26.1477
 108   2.0000      -0.957650       -26.0590
 109   2.0000      -0.940356       -25.5884
 110   2.0000      -0.938567       -25.5397
 111   2.0000      -0.937892       -25.5214
 112   2.0000      -0.933061       -25.3899
 113   2.0000      -0.917402       -24.9638
 114   2.0000      -0.903289       -24.5797
 115   2.0000      -0.896398       -24.3922
 116   2.0000      -0.894670       -24.3452
 117   2.0000      -0.892244       -24.2792
 118   2.0000      -0.889138       -24.1947
 119   2.0000      -0.886803       -24.1311
 120   2.0000      -0.869133       -23.6503
 121   2.0000      -0.866173       -23.5698
 122   2.0000      -0.865185       -23.5429
 123   2.0000      -0.864609       -23.5272
 124   2.0000      -0.850414       -23.1409
 125   2.0000      -0.835309       -22.7299
 126   2.0000      -0.826849       -22.4997
 127   2.0000      -0.823687       -22.4137
 128   2.0000      -0.807241       -21.9661
 129   2.0000      -0.795838       -21.6559
 130   2.0000      -0.791540       -21.5389
 131   2.0000      -0.789511       -21.4837
 132   2.0000      -0.783748       -21.3269
 133   2.0000      -0.771070       -20.9819
 134   2.0000      -0.752841       -20.4858
 135   2.0000      -0.732515       -19.9327
 136   2.0000      -0.728331       -19.8189
 137   2.0000      -0.722289       -19.6545
 138   2.0000      -0.716851       -19.5065
 139   2.0000      -0.714871       -19.4526
 140   2.0000      -0.714159       -19.4333
 141   2.0000      -0.712254       -19.3814
 142   2.0000      -0.707879       -19.2624
 143   2.0000      -0.696866       -18.9627
 144   2.0000      -0.695243       -18.9185
 145   2.0000      -0.686919       -18.6920
 146   2.0000      -0.680065       -18.5055
 147   2.0000      -0.668059       -18.1788
 148   2.0000      -0.666624       -18.1398
 149   2.0000      -0.665683       -18.1142
 150   2.0000      -0.662850       -18.0371
 151   2.0000      -0.659080       -17.9345
 152   2.0000      -0.655007       -17.8236
 153   2.0000      -0.650572       -17.7030
 154   2.0000      -0.640520       -17.4294
 155   2.0000      -0.634374       -17.2622
 156   2.0000      -0.630508       -17.1570
 157   2.0000      -0.625750       -17.0275
 158   2.0000      -0.620038       -16.8721
 159   2.0000      -0.615387       -16.7455
 160   2.0000      -0.606036       -16.4911
 161   2.0000      -0.595483       -16.2039
 162   2.0000      -0.586396       -15.9567
 163   2.0000      -0.584515       -15.9055
 164   2.0000      -0.584088       -15.8939
 165   2.0000      -0.577953       -15.7269
 166   2.0000      -0.574862       -15.6428
 167   2.0000      -0.571370       -15.5478
 168   2.0000      -0.558057       -15.1855
 169   2.0000      -0.556632       -15.1467
 170   2.0000      -0.552229       -15.0269
 171   2.0000      -0.548064       -14.9136
 172   2.0000      -0.545523       -14.8444
 173   2.0000      -0.543672       -14.7941
 174   2.0000      -0.540674       -14.7125
 175   2.0000      -0.539454       -14.6793
 176   2.0000      -0.538640       -14.6571
 177   2.0000      -0.536995       -14.6124
 178   2.0000      -0.532487       -14.4897
 179   2.0000      -0.532234       -14.4828
 180   2.0000      -0.528962       -14.3938
 181   2.0000      -0.524854       -14.2820
 182   2.0000      -0.520929       -14.1752
 183   2.0000      -0.517933       -14.0937
 184   2.0000      -0.513269       -13.9668
 185   2.0000      -0.512246       -13.9389
 186   2.0000      -0.510371       -13.8879
 187   2.0000      -0.508461       -13.8359
 188   2.0000      -0.507147       -13.8002
 189   2.0000      -0.505027       -13.7425
 190   2.0000      -0.499660       -13.5965
 191   2.0000      -0.497388       -13.5346
 192   2.0000      -0.496387       -13.5074
 193   2.0000      -0.491838       -13.3836
 194   2.0000      -0.491200       -13.3662
 195   2.0000      -0.490133       -13.3372
 196   2.0000      -0.485732       -13.2174
 197   2.0000      -0.482973       -13.1424
 198   2.0000      -0.479562       -13.0495
 199   2.0000      -0.477798       -13.0016
 200   2.0000      -0.474183       -12.9032
 201   2.0000      -0.472848       -12.8668
 202   2.0000      -0.469039       -12.7632
 203   2.0000      -0.465804       -12.6752
 204   2.0000      -0.465122       -12.6566
 205   2.0000      -0.463752       -12.6193
 206   2.0000      -0.461426       -12.5561
 207   2.0000      -0.459085       -12.4923
 208   2.0000      -0.458400       -12.4737
 209   2.0000      -0.456275       -12.4159
 210   2.0000      -0.455264       -12.3884
 211   2.0000      -0.454997       -12.3811
 212   2.0000      -0.453338       -12.3359
 213   2.0000      -0.452331       -12.3086
 214   2.0000      -0.452008       -12.2998
 215   2.0000      -0.451156       -12.2766
 216   2.0000      -0.449797       -12.2396
 217   2.0000      -0.448525       -12.2050
 218   2.0000      -0.448130       -12.1942
 219   2.0000      -0.447474       -12.1764
 220   2.0000      -0.446848       -12.1594
 221   2.0000      -0.446248       -12.1430
 222   2.0000      -0.445893       -12.1334
 223   2.0000      -0.445269       -12.1164
 224   2.0000      -0.443493       -12.0681
 225   2.0000      -0.437894       -11.9157
 226   2.0000      -0.434724       -11.8294
 227   2.0000      -0.433456       -11.7949
 228   2.0000      -0.432960       -11.7814
 229   2.0000      -0.432186       -11.7604
 230   2.0000      -0.431661       -11.7461
 231   2.0000      -0.431178       -11.7330
 232   2.0000      -0.430088       -11.7033
 233   2.0000      -0.428795       -11.6681
 234   2.0000      -0.428208       -11.6521
 235   2.0000      -0.425034       -11.5658
 236   2.0000      -0.424266       -11.5449
 237   2.0000      -0.422103       -11.4860
 238   2.0000      -0.419324       -11.4104
 239   2.0000      -0.415495       -11.3062
 240   2.0000      -0.413283       -11.2460
 241   2.0000      -0.412230       -11.2174
 242   2.0000      -0.410829       -11.1792
 243   2.0000      -0.408077       -11.1043
 244   2.0000      -0.402678       -10.9574
 245   2.0000      -0.385662       -10.4944
 246   2.0000      -0.384345       -10.4586
 247   2.0000      -0.382786       -10.4161
 248   2.0000      -0.367369        -9.9966
 249   2.0000      -0.359493        -9.7823
 250   2.0000      -0.343776        -9.3546
 251   2.0000      -0.338533        -9.2120
 252   2.0000      -0.335453        -9.1281
 253   2.0000      -0.334213        -9.0944
 254   2.0000      -0.332451        -9.0465
 255   2.0000      -0.331944        -9.0327
 256   2.0000      -0.322495        -8.7755
 257   2.0000      -0.311261        -8.4698
 258   2.0000      -0.297165        -8.0863
 259   2.0000      -0.273768        -7.4496
 260   2.0000      -0.248088        -6.7508
 261   0.0000      -0.120246        -3.2721
 262   0.0000      -0.103007        -2.8030
 263   0.0000      -0.101339        -2.7576
 264   0.0000      -0.087419        -2.3788
 265   0.0000      -0.086337        -2.3494

MULLIKEN ATOMIC CHARGES
-----------------------
   0 C :   -0.032178
   1 C :    0.046282
   2 C :    0.046130
   3 C :   -0.030849
   4 C :    0.004134
   5 C :    0.008693
   6 C :    0.303195
   7 C :   -0.349410
   8 C :   -0.187675
   9 N :    0.156052
  10 C :   -0.180703
  11 N :    0.147090
  12 C :   -0.070543
  13 C :    0.209657
  14 C :   -0.316617
  15 C :   -0.199976
  16 N :    0.177854
  17 C :   -0.183400
  18 N :    0.160252
  19 C :    0.026153
  20 C :   -0.160468
  21 C :    0.030919
  22 C :    0.074597
  23 C :    0.021269
  24 C :   -0.031866
  25 C :   -0.040268
  26 S :    0.154145
  27 C :    0.054590
  28 C :    0.057265
  29 C :   -0.082762
  30 C :   -0.024626
  31 C :   -0.000037
  32 C :   -0.098536
  33 S :    0.192698
  34 C :   -0.098288
  35 C :    0.034993
  36 C :    0.304418
  37 C :   -0.289348
  38 C :   -0.183492
  39 N :    0.172963
  40 C :   -0.186192
  41 N :    0.178207
  42 C :   -0.069147
  43 C :   -0.054673
  44 S :    0.175233
  45 C :   -0.076841
  46 C :   -0.044220
  47 C :    0.045583
  48 C :    0.026615
  49 C :   -0.021267
  50 C :   -0.014287
  51 S :    0.131957
  52 C :    0.042915
  53 C :   -0.021132
  54 C :    0.031633
  55 C :   -0.063244
  56 C :    0.299749
  57 C :   -0.342191
  58 C :   -0.184673
  59 N :    0.151426
  60 C :   -0.190883
  61 N :    0.159838
  62 C :    0.013094
  63 C :    0.008862
  64 C :   -0.034414
  65 C :    0.048525
  66 C :    0.048255
  67 C :   -0.037768
  68 C :    0.239807
  69 C :   -0.326044
  70 C :   -0.184837
  71 N :    0.164634
  72 C :   -0.214948
  73 N :    0.178332
  74 H :    0.005282
  75 H :    0.003365
  76 H :    0.006013
  77 H :    0.007187
  78 H :    0.012227
  79 H :    0.012638
  80 H :    0.028941
  81 H :    0.007568
  82 H :    0.030590
  83 H :    0.024116
  84 H :   -0.022185
  85 H :   -0.003151
  86 H :   -0.010859
  87 H :    0.010938
  88 H :    0.022480
  89 H :    0.009761
  90 H :    0.020863
  91 H :    0.020260
  92 H :    0.023093
  93 H :    0.016475
  94 H :   -0.012914
  95 H :    0.015666
  96 H :    0.032584
  97 H :    0.012834
  98 H :    0.009944
  99 H :    0.004851
 100 H :    0.003832
 101 H :    0.007396
Sum of atomic charges:   -0.0000000

LOEWDIN ATOMIC CHARGES
----------------------
   0 C :    0.005120
   1 C :   -0.000003
   2 C :    0.004350
   3 C :    0.000862
   4 C :   -0.009192
   5 C :   -0.014417
   6 C :    0.081164
   7 C :   -0.140840
   8 C :   -0.019713
   9 N :   -0.050275
  10 C :   -0.017972
  11 N :   -0.053344
  12 C :   -0.072352
  13 C :    0.059070
  14 C :   -0.137189
  15 C :   -0.032616
  16 N :   -0.046466
  17 C :   -0.020440
  18 N :   -0.046048
  19 C :    0.045718
  20 C :   -0.194222
  21 C :    0.011401
  22 C :   -0.026692
  23 C :   -0.043476
  24 C :   -0.059515
  25 C :   -0.128564
  26 S :    0.466969
  27 C :   -0.039509
  28 C :   -0.019260
  29 C :   -0.166448
  30 C :   -0.018229
  31 C :   -0.065733
  32 C :   -0.180095
  33 S :    0.479119
  34 C :   -0.185724
  35 C :   -0.063186
  36 C :    0.079972
  37 C :   -0.095477
  38 C :   -0.015587
  39 N :   -0.028604
  40 C :   -0.017252
  41 N :   -0.024648
  42 C :   -0.030799
  43 C :   -0.177583
  44 S :    0.501118
  45 C :   -0.166662
  46 C :   -0.053909
  47 C :   -0.038656
  48 C :   -0.050224
  49 C :   -0.025243
  50 C :   -0.170882
  51 S :    0.462180
  52 C :    0.028055
  53 C :   -0.042750
  54 C :    0.058871
  55 C :   -0.062192
  56 C :    0.079021
  57 C :   -0.135276
  58 C :   -0.020451
  59 N :   -0.049750
  60 C :   -0.019516
  61 N :   -0.047514
  62 C :   -0.013680
  63 C :   -0.010089
  64 C :    0.002033
  65 C :    0.004663
  66 C :    0.001572
  67 C :    0.004610
  68 C :    0.070273
  69 C :   -0.130983
  70 C :   -0.020203
  71 N :   -0.041849
  72 C :   -0.026052
  73 N :   -0.043657
  74 H :    0.041428
  75 H :    0.037368
  76 H :    0.037862
  77 H :    0.041144
  78 H :    0.047585
  79 H :    0.036064
  80 H :    0.036549
  81 H :    0.022861
  82 H :    0.032056
  83 H :    0.025946
  84 H :    0.028643
  85 H :    0.033636
  86 H :    0.031060
  87 H :    0.040950
  88 H :    0.036110
  89 H :    0.034820
  90 H :    0.015639
  91 H :    0.028626
  92 H :    0.027215
  93 H :    0.016720
  94 H :    0.034139
  95 H :    0.045914
  96 H :    0.027688
  97 H :    0.046072
  98 H :    0.041767
  99 H :    0.037836
 100 H :    0.037577
 101 H :    0.041598

  Mayer bond orders larger than 0.100000
B(  0-C ,  1-C ) :   1.3701 B(  0-C ,  5-C ) :   1.3860 B(  0-C , 74-H ) :   0.9827
B(  1-C ,  2-C ) :   1.3789 B(  1-C , 75-H ) :   0.9854 B(  2-C ,  3-C ) :   1.3617
B(  2-C , 76-H ) :   0.9872 B(  3-C ,  4-C ) :   1.3859 B(  3-C , 77-H ) :   0.9868
B(  4-C ,  5-C ) :   1.3126 B(  4-C , 13-C ) :   1.0104 B(  5-C ,  6-C ) :   0.9968
B(  6-C ,  7-C ) :   1.6233 B(  6-C , 12-C ) :   1.0766 B(  7-C ,  8-C ) :   1.1475
B(  7-C , 10-C ) :   1.1434 B(  8-C ,  9-N ) :   2.9749 B( 10-C , 11-N ) :   2.9654
B( 12-C , 13-C ) :   1.0304 B( 12-C , 19-C ) :   1.5565 B( 13-C , 14-C ) :   1.6460
B( 14-C , 15-C ) :   1.1498 B( 14-C , 17-C ) :   1.1429 B( 15-C , 16-N ) :   3.0260
B( 17-C , 18-N ) :   2.9950 B( 19-C , 20-C ) :   1.2233 B( 19-C , 78-H ) :   0.9250
B( 20-C , 21-C ) :   1.3940 B( 20-C , 26-S ) :   1.0848 B( 21-C , 22-C ) :   1.0723
B( 21-C , 24-C ) :   1.3351 B( 22-C , 23-C ) :   1.0973 B( 22-C , 79-H ) :   0.9231
B( 22-C , 80-H ) :   0.9191 B( 23-C , 81-H ) :   0.9657 B( 23-C , 82-H ) :   0.9657
B( 23-C , 83-H ) :   0.9693 B( 24-C , 25-C ) :   1.4268 B( 24-C , 84-H ) :   0.9925
B( 25-C , 26-S ) :   1.1521 B( 25-C , 27-C ) :   1.1372 B( 27-C , 28-C ) :   1.6863
B( 27-C , 85-H ) :   0.9612 B( 28-C , 29-C ) :   1.1377 B( 28-C , 86-H ) :   0.9581
B( 29-C , 30-C ) :   1.4441 B( 29-C , 33-S ) :   1.0996 B( 30-C , 31-C ) :   1.3155
B( 30-C , 87-H ) :   0.9891 B( 31-C , 32-C ) :   1.4226 B( 31-C , 36-C ) :   0.9972
B( 32-C , 33-S ) :   1.1283 B( 32-C , 34-C ) :   1.1945 B( 34-C , 35-C ) :   1.4273
B( 34-C , 44-S ) :   1.1246 B( 35-C , 36-C ) :   0.9921 B( 35-C , 42-C ) :   1.3152
B( 36-C , 37-C ) :   1.7181 B( 37-C , 38-C ) :   1.1329 B( 37-C , 40-C ) :   1.1314
B( 38-C , 39-N ) :   2.9874 B( 40-C , 41-N ) :   2.9886 B( 42-C , 43-C ) :   1.4298
B( 42-C , 88-H ) :   0.9834 B( 43-C , 44-S ) :   1.1011 B( 43-C , 45-C ) :   1.1746
B( 45-C , 46-C ) :   1.4637 B( 45-C , 51-S ) :   1.1486 B( 46-C , 47-C ) :   1.0712
B( 46-C , 49-C ) :   1.2908 B( 47-C , 48-C ) :   1.0968 B( 47-C , 89-H ) :   0.9179
B( 47-C , 90-H ) :   0.9166 B( 48-C , 91-H ) :   0.9668 B( 48-C , 92-H ) :   0.9681
B( 48-C , 93-H ) :   0.9694 B( 49-C , 50-C ) :   1.4229 B( 49-C , 94-H ) :   1.0042
B( 50-C , 51-S ) :   1.0959 B( 50-C , 52-C ) :   1.1796 B( 52-C , 53-C ) :   1.5707
B( 52-C , 95-H ) :   0.9878 B( 53-C , 54-C ) :   1.1948 B( 53-C , 96-H ) :   0.9607
B( 54-C , 55-C ) :   1.5405 B( 54-C , 97-H ) :   0.9485 B( 55-C , 56-C ) :   1.0564
B( 55-C , 68-C ) :   1.0295 B( 56-C , 57-C ) :   1.6333 B( 56-C , 62-C ) :   1.0011
B( 57-C , 58-C ) :   1.1385 B( 57-C , 60-C ) :   1.1472 B( 58-C , 59-N ) :   2.9754
B( 60-C , 61-N ) :   2.9784 B( 62-C , 63-C ) :   1.3124 B( 62-C , 67-C ) :   1.3825
B( 63-C , 64-C ) :   1.3843 B( 63-C , 68-C ) :   1.0088 B( 64-C , 65-C ) :   1.3628
B( 64-C , 98-H ) :   0.9872 B( 65-C , 66-C ) :   1.3779 B( 65-C , 99-H ) :   0.9870
B( 66-C , 67-C ) :   1.3692 B( 66-C ,100-H ) :   0.9864 B( 67-C ,101-H ) :   0.9850
B( 68-C , 69-C ) :   1.6405 B( 69-C , 70-C ) :   1.1395 B( 69-C , 72-C ) :   1.1489
B( 70-C , 71-N ) :   2.9931 B( 72-C , 73-N ) :   3.0189

-----------------------------------------------------------------------------
         ABSORPTION SPECTRUM VIA TRANSITION ELECTRIC DIPOLE MOMENTS
-----------------------------------------------------------------------------
State   Energy  Wavelength   fosc         T2         TX        TY        TZ
        (cm-1)    (nm)                  (au**2)     (au)      (au)      (au)
-----------------------------------------------------------------------------
   0   11400.5    877.2   0.484338012  13.98616   1.56486   3.35157   0.55165
   1   16213.7    616.8   1.716204757  34.84667  -2.20006  -5.40945  -0.86268
   2   18187.4    549.8   0.315865039   5.71751   0.56678  -0.27581  -2.30655
   3   20382.0    490.6   0.003991658   0.06447   0.01928  -0.09454  -0.23487
   4   21543.9    464.2   0.218582084   3.34014  -1.48853  -0.94299  -0.48496
   5   21894.7    456.7   0.122726121   1.84533   0.98261   0.93184   0.10719
   6   24431.1    409.3   0.048594426   0.65481   0.69408   0.39408   0.13329
   7   25165.2    397.4   0.031544079   0.41266   0.43445  -0.09529  -0.46351
   8   26137.0    382.6   0.077520529   0.97642   0.66801   0.72813  -0.00416
   9   27547.7    363.0   0.125621607   1.50125   0.35365   0.09196  -1.16950
  10   27969.3    357.5   0.013202883   0.15540  -0.03877   0.26978   0.28482
  11   29110.9    343.5   0.121392020   1.37281  -0.16147  -1.15611   0.10068
  12   29273.3    341.6   0.334010980   3.75634  -1.38329  -1.23016  -0.57407
  13   29424.2    339.9   0.336083247   3.76026  -1.41096  -1.30511  -0.25714
  14   30546.4    327.4   0.057053759   0.61489  -0.11703  -0.22970  -0.74057
  15   30735.9    325.4   0.025714119   0.27542  -0.20396  -0.00800   0.48349
  16   31114.3    321.4   0.430957214   4.55984  -0.80207  -0.26116   1.96171
  17   31534.2    317.1   0.029881704   0.31196   0.46574   0.27643  -0.13649
  18   31644.5    316.0   0.080994962   0.84263  -0.65343  -0.36569   0.53096
  19   31920.2    313.3   0.005449677   0.05621  -0.06654  -0.13085  -0.18616
  20   32071.4    311.8   0.251550828   2.58216  -0.02366  -0.53747  -1.51417
  21   32797.1    304.9   0.522260523   5.24236   1.64070   1.28304   0.95094
  22   32889.7    304.0   0.066466149   0.66530   0.49980  -0.10918  -0.63528
  23   32953.0    303.5   0.038961264   0.38924   0.55384   0.13953   0.25107
  24   33072.1    302.4   0.145882915   1.45217  -0.87248   0.18674  -0.80998
  25   33239.4    300.8   0.392666024   3.88907   1.67326   0.99184  -0.32485
  26   34238.6    292.1   0.214860783   2.06593  -1.05945  -0.97030  -0.04505
  27   34532.0    289.6   0.015270242   0.14558  -0.15108   0.26478   0.22945
  28   34812.6    287.3   0.635473304   6.00948   0.42792   0.11008  -2.41127
  29   35089.5    285.0   0.020911992   0.19620   0.34917   0.26183   0.07563
  30   35543.0    281.3   0.020641554   0.19119   0.32524   0.23237  -0.17723
  31   35727.6    279.9   0.036115314   0.33278   0.46256   0.19901   0.28146
  32   36079.7    277.2   0.176267184   1.60836   0.53965  -0.11219  -1.14217
  33   36088.3    277.1   0.147813093   1.34841  -0.06981  -0.02969   1.15873
  34   36409.7    274.7   0.000900796   0.00814   0.04843   0.05389  -0.05380
  35   36758.1    272.0   0.117340344   1.05092   0.38324   0.09555  -0.94600
  36   37099.8    269.5   0.005316275   0.04717  -0.10619   0.06226   0.17894
  37   37629.8    265.7   0.042284001   0.36993  -0.03828  -0.20343  -0.57191
  38   38224.2    261.6   0.229023855   1.97250  -0.31172   0.12699   1.36353
  39   38437.2    260.2   0.061940171   0.53051   0.01155   0.06963  -0.72494
  40   38627.2    258.9   0.022210983   0.18930   0.24300   0.13097  -0.33630
  41   38839.9    257.5   0.033344571   0.28263  -0.11298  -0.02742   0.51877
  42   38898.3    257.1   0.011737436   0.09934  -0.20563   0.01918  -0.23809

FINAL SINGLE POINT ENERGY     -4439.098772716283

DIPOLE MOMENT
-------------
                                X             Y             Z
Electronic contribution:     -3.63565      -8.07362     -24.83699
Nuclear contribution   :      2.61990       7.76692      26.30323
                        -----------------------------------------
Total Dipole Moment    :     -1.01576      -0.30670       1.46624
                        -----------------------------------------
Magnitude (a.u.)       :      1.80988
Magnitude (Debye)      :      4.60036

Rotational constants in cm-1:     0.001945     0.000201     0.000187
Rotational constants in MHz :    58.316463     6.028525     5.607537

                             ****ORCA TERMINATED NORMALLY****
TOTAL RUN TIME: 0 days 0 hours 14 minutes 14 seconds 614 msec
