                         Program Version 4.2.0 -  RELEASE  -
|  1> # ORCA input file
|  2> # SCF done       -202.406511547614          0.000563181261
|  3> ! CAM-B3LYP def2-SVP def2/J RIJCOSX Grid4 TightSCF
|  4> %maxcore 5000
|  5> %tddft
|  6>     Mode sTDDFT
|  7>     Ethresh 5.0
|  8>     maxcore 5000
|  9> end
| 10>
| 11> %pal
| 12>   nprocs 6
| 13>   end
| 14> * xyz 0 1
| 15>    C        2.27472       -14.26287        -4.64186
| 16>    C        3.47129       -14.23631        -3.93830
| 17>    C        3.50765       -13.90123        -2.59238
| 18>    C        2.34049       -13.60105        -1.90501
| 19>    C        1.14004       -13.63123        -2.59500
| 20>    C        1.10305       -13.94845        -3.97221
| 21>    C       -0.27326       -13.83782        -4.44354
| 22>    C       -0.71458       -14.14805        -5.70213
| 23>    C        0.11081       -14.66851        -6.72157
| 24>    N        0.71927       -15.09603        -7.59636
| 25>    C       -2.04091       -14.03029        -6.16968
| 26>    N       -3.08530       -13.96814        -6.64316
| 27>    C       -1.05681       -13.30650        -3.33465
| 28>    C       -0.21886       -13.37614        -2.15109
| 29>    C       -0.65027       -13.43445        -0.85064
| 30>    C       -1.99628       -13.42088        -0.43252
| 31>    N       -3.05920       -13.45363         0.00161
| 32>    C        0.20550       -13.59184         0.25236
| 33>    N        0.83258       -13.70340         1.20934
| 34>    C       -2.31745       -12.78504        -3.44135
| 35>    C       -2.99780       -11.90301        -2.55534
| 36>    C       -2.38251       -10.90999        -1.76045
| 37>    O       -1.04005       -10.81884        -1.88687
| 38>    C       -0.23100       -10.14297        -0.93922
| 39>    C       -3.15381       -10.04251        -0.95900
| 40>    O       -2.51483        -8.94479        -0.42281
| 41>    C       -3.06793        -7.68510        -0.74889
| 42>    C       -4.52480       -10.25896        -0.71612
| 43>    C       -5.17424       -11.16199        -1.60468
| 44>    C       -4.41754       -11.93935        -2.54046
| 45>    N       -5.19152       -12.73506        -3.26939
| 46>    S       -6.72381       -12.52027        -2.82423
| 47>    N       -6.47509       -11.41490        -1.67515
| 48>    C       -5.27315        -9.68474         0.34008
| 49>    C       -4.78633        -9.24467         1.55041
| 50>    C       -5.55837        -8.71865         2.62241
| 51>    C       -4.83884        -8.41132         3.73860
| 52>    C       -3.46344        -8.70468         3.61557
| 53>    S       -3.11264        -9.35855         2.03654
| 54>    C       -2.40296        -8.48859         4.47985
| 55>    C       -2.34962        -7.84407         5.73580
| 56>    C       -1.08216        -7.71277         6.21918
| 57>    C       -0.07214        -8.26567         5.38422
| 58>    S       -0.81229        -9.00943         3.98782
| 59>    C        1.28188        -8.09284         5.53223
| 60>    C        2.28627        -8.58310         4.65716
| 61>    C        3.49587        -7.86956         4.47740
| 62>    O        3.65689        -6.79607         5.29437
| 63>    C        4.33546        -5.63786         4.84474
| 64>    C        4.42246        -8.24127         3.48758
| 65>    O        5.61668        -7.53929         3.37546
| 66>    C        6.66849        -8.11228         4.12700
| 67>    C        4.20343        -9.32009         2.61353
| 68>    C        3.09180       -10.14693         2.90147
| 69>    C        2.14817        -9.78246         3.91132
| 70>    N        1.20861       -10.71414         4.05528
| 71>    S        1.46412       -11.89949         3.00062
| 72>    N        2.78423       -11.30132         2.31240
| 73>    C        5.06518        -9.68131         1.53447
| 74>    C        5.81599        -8.83191         0.77559
| 75>    C        6.97137        -9.21459        -0.02447
| 76>    C        7.24517       -10.45253        -0.54086
| 77>    C        6.37733       -11.56179        -0.47307
| 78>    N        5.71194       -12.49742        -0.49322
| 79>    C        8.40515       -10.75936        -1.28245
| 80>    N        9.33072       -11.07297        -1.88454
| 81>    C        7.77225        -8.00823        -0.19624
| 82>    C        7.03982        -6.90073         0.29152
| 83>    C        7.57682        -5.62552         0.25186
| 84>    C        8.85086        -5.46075        -0.27192
| 85>    C        9.56925        -6.54490        -0.75558
| 86>    C        9.03948        -7.82697        -0.72606
| 87>    C        5.74597        -7.37605         0.75198
| 88>    C        4.60750        -6.62756         0.88476
| 89>    C        4.58385        -5.22061         0.83855
| 90>    N        4.51124        -4.07456         0.84904
| 91>    C        3.32023        -7.18223         1.03608
| 92>    N        2.24118        -7.57292         1.09002
| 93>    H        2.27156       -14.51574        -5.68939
| 94>    H        4.38960       -14.47337        -4.45391
| 95>    H        4.44971       -13.86160        -2.06810
| 96>    H        2.38554       -13.33253        -0.86175
| 97>    H       -2.89890       -13.04118        -4.31825
| 98>    H        0.76783       -10.56414        -1.06500
| 99>    H       -0.57558       -10.31149         0.08210
|100>    H       -0.19269        -9.07006        -1.13042
|101>    H       -2.41281        -6.95259        -0.28080
|102>    H       -4.08409        -7.56302        -0.36501
|103>    H       -3.07468        -7.53442        -1.83300
|104>    H       -6.34812        -9.71934         0.21983
|105>    H       -6.62028        -8.57669         2.52429
|106>    H       -5.25728        -7.98977         4.63515
|107>    H       -3.23131        -7.47542         6.22933
|108>    H       -0.83292        -7.22379         7.14465
|109>    H        1.61154        -7.43222         6.32249
|110>    H        5.41642        -5.71628         4.97639
|111>    H        3.95739        -4.82625         5.46700
|112>    H        4.11476        -5.42418         3.79721
|113>    H        7.53910        -7.48088         3.95685
|114>    H        6.88249        -9.13187         3.78825
|115>    H        6.43106        -8.13578         5.19572
|116>    H        5.11646       -10.74493         1.34072
|117>    H        7.02704        -4.77867         0.63010
|118>    H        9.28779        -4.47424        -0.30209
|119>    H       10.55803        -6.39213        -1.16042
|120>    H        9.61289        -8.65785        -1.10359
|121> *
|122>
|123>                          ****END OF INPUT****

CARTESIAN COORDINATES (ANGSTROEM)
---------------------------------
  C      2.274720  -14.262870   -4.641860
  C      3.471290  -14.236310   -3.938300
  C      3.507650  -13.901230   -2.592380
  C      2.340490  -13.601050   -1.905010
  C      1.140040  -13.631230   -2.595000
  C      1.103050  -13.948450   -3.972210
  C     -0.273260  -13.837820   -4.443540
  C     -0.714580  -14.148050   -5.702130
  C      0.110810  -14.668510   -6.721570
  N      0.719270  -15.096030   -7.596360
  C     -2.040910  -14.030290   -6.169680
  N     -3.085300  -13.968140   -6.643160
  C     -1.056810  -13.306500   -3.334650
  C     -0.218860  -13.376140   -2.151090
  C     -0.650270  -13.434450   -0.850640
  C     -1.996280  -13.420880   -0.432520
  N     -3.059200  -13.453630    0.001610
  C      0.205500  -13.591840    0.252360
  N      0.832580  -13.703400    1.209340
  C     -2.317450  -12.785040   -3.441350
  C     -2.997800  -11.903010   -2.555340
  C     -2.382510  -10.909990   -1.760450
  O     -1.040050  -10.818840   -1.886870
  C     -0.231000  -10.142970   -0.939220
  C     -3.153810  -10.042510   -0.959000
  O     -2.514830   -8.944790   -0.422810
  C     -3.067930   -7.685100   -0.748890
  C     -4.524800  -10.258960   -0.716120
  C     -5.174240  -11.161990   -1.604680
  C     -4.417540  -11.939350   -2.540460
  N     -5.191520  -12.735060   -3.269390
  S     -6.723810  -12.520270   -2.824230
  N     -6.475090  -11.414900   -1.675150
  C     -5.273150   -9.684740    0.340080
  C     -4.786330   -9.244670    1.550410
  C     -5.558370   -8.718650    2.622410
  C     -4.838840   -8.411320    3.738600
  C     -3.463440   -8.704680    3.615570
  S     -3.112640   -9.358550    2.036540
  C     -2.402960   -8.488590    4.479850
  C     -2.349620   -7.844070    5.735800
  C     -1.082160   -7.712770    6.219180
  C     -0.072140   -8.265670    5.384220
  S     -0.812290   -9.009430    3.987820
  C      1.281880   -8.092840    5.532230
  C      2.286270   -8.583100    4.657160
  C      3.495870   -7.869560    4.477400
  O      3.656890   -6.796070    5.294370
  C      4.335460   -5.637860    4.844740
  C      4.422460   -8.241270    3.487580
  O      5.616680   -7.539290    3.375460
  C      6.668490   -8.112280    4.127000
  C      4.203430   -9.320090    2.613530
  C      3.091800  -10.146930    2.901470
  C      2.148170   -9.782460    3.911320
  N      1.208610  -10.714140    4.055280
  S      1.464120  -11.899490    3.000620
  N      2.784230  -11.301320    2.312400
  C      5.065180   -9.681310    1.534470
  C      5.815990   -8.831910    0.775590
  C      6.971370   -9.214590   -0.024470
  C      7.245170  -10.452530   -0.540860
  C      6.377330  -11.561790   -0.473070
  N      5.711940  -12.497420   -0.493220
  C      8.405150  -10.759360   -1.282450
  N      9.330720  -11.072970   -1.884540
  C      7.772250   -8.008230   -0.196240
  C      7.039820   -6.900730    0.291520
  C      7.576820   -5.625520    0.251860
  C      8.850860   -5.460750   -0.271920
  C      9.569250   -6.544900   -0.755580
  C      9.039480   -7.826970   -0.726060
  C      5.745970   -7.376050    0.751980
  C      4.607500   -6.627560    0.884760
  C      4.583850   -5.220610    0.838550
  N      4.511240   -4.074560    0.849040
  C      3.320230   -7.182230    1.036080
  N      2.241180   -7.572920    1.090020
  H      2.271560  -14.515740   -5.689390
  H      4.389600  -14.473370   -4.453910
  H      4.449710  -13.861600   -2.068100
  H      2.385540  -13.332530   -0.861750
  H     -2.898900  -13.041180   -4.318250
  H      0.767830  -10.564140   -1.065000
  H     -0.575580  -10.311490    0.082100
  H     -0.192690   -9.070060   -1.130420
  H     -2.412810   -6.952590   -0.280800
  H     -4.084090   -7.563020   -0.365010
  H     -3.074680   -7.534420   -1.833000
  H     -6.348120   -9.719340    0.219830
  H     -6.620280   -8.576690    2.524290
  H     -5.257280   -7.989770    4.635150
  H     -3.231310   -7.475420    6.229330
  H     -0.832920   -7.223790    7.144650
  H      1.611540   -7.432220    6.322490
  H      5.416420   -5.716280    4.976390
  H      3.957390   -4.826250    5.467000
  H      4.114760   -5.424180    3.797210
  H      7.539100   -7.480880    3.956850
  H      6.882490   -9.131870    3.788250
  H      6.431060   -8.135780    5.195720
  H      5.116460  -10.744930    1.340720
  H      7.027040   -4.778670    0.630100
  H      9.287790   -4.474240   -0.302090
  H     10.558030   -6.392130   -1.160420
  H      9.612890   -8.657850   -1.103590

 Total Charge           Charge          ....    0
 Multiplicity           Mult            ....    1
 Number of Electrons    NEL             ....  556
 Basis Dimension        Dim             .... 1248

ORBITAL ENERGIES
----------------

  NO   OCC          E(Eh)            E(eV)
   0   2.0000     -89.019555     -2422.3453
   1   2.0000     -89.009777     -2422.0792
   2   2.0000     -88.951719     -2420.4993
   3   2.0000     -88.949159     -2420.4297
   4   2.0000     -19.265499      -524.2409
   5   2.0000     -19.263857      -524.1962
   6   2.0000     -19.262777      -524.1668
   7   2.0000     -19.253079      -523.9029
   8   2.0000     -14.435840      -392.8192
   9   2.0000     -14.431336      -392.6966
  10   2.0000     -14.430651      -392.6780
  11   2.0000     -14.430014      -392.6606
  12   2.0000     -14.426884      -392.5755
  13   2.0000     -14.425726      -392.5440
  14   2.0000     -14.425553      -392.5393
  15   2.0000     -14.424421      -392.5085
  16   2.0000     -14.417031      -392.3073
  17   2.0000     -14.409175      -392.0936
  18   2.0000     -14.405681      -391.9985
  19   2.0000     -14.405362      -391.9898
  20   2.0000     -10.363435      -282.0034
  21   2.0000     -10.363419      -282.0030
  22   2.0000     -10.360862      -281.9334
  23   2.0000     -10.355962      -281.8001
  24   2.0000     -10.354790      -281.7682
  25   2.0000     -10.351671      -281.6833
  26   2.0000     -10.351003      -281.6651
  27   2.0000     -10.346138      -281.5327
  28   2.0000     -10.342796      -281.4418
  29   2.0000     -10.334673      -281.2207
  30   2.0000     -10.333869      -281.1989
  31   2.0000     -10.333074      -281.1772
  32   2.0000     -10.332860      -281.1714
  33   2.0000     -10.332090      -281.1505
  34   2.0000     -10.331061      -281.1225
  35   2.0000     -10.329325      -281.0752
  36   2.0000     -10.328259      -281.0462
  37   2.0000     -10.327498      -281.0255
  38   2.0000     -10.327091      -281.0144
  39   2.0000     -10.326810      -281.0068
  40   2.0000     -10.323701      -280.9222
  41   2.0000     -10.323609      -280.9197
  42   2.0000     -10.323303      -280.9113
  43   2.0000     -10.320956      -280.8475
  44   2.0000     -10.320276      -280.8290
  45   2.0000     -10.320191      -280.8267
  46   2.0000     -10.319923      -280.8194
  47   2.0000     -10.319480      -280.8073
  48   2.0000     -10.319456      -280.8067
  49   2.0000     -10.318370      -280.7771
  50   2.0000     -10.316781      -280.7339
  51   2.0000     -10.316277      -280.7202
  52   2.0000     -10.315275      -280.6929
  53   2.0000     -10.312212      -280.6096
  54   2.0000     -10.310015      -280.5498
  55   2.0000     -10.308899      -280.5194
  56   2.0000     -10.308500      -280.5085
  57   2.0000     -10.308186      -280.5000
  58   2.0000     -10.308038      -280.4960
  59   2.0000     -10.307669      -280.4859
  60   2.0000     -10.307271      -280.4751
  61   2.0000     -10.306830      -280.4631
  62   2.0000     -10.306331      -280.4495
  63   2.0000     -10.303515      -280.3729
  64   2.0000     -10.299254      -280.2569
  65   2.0000     -10.298270      -280.2302
  66   2.0000     -10.297191      -280.2008
  67   2.0000     -10.296890      -280.1926
  68   2.0000     -10.296350      -280.1779
  69   2.0000     -10.296068      -280.1702
  70   2.0000     -10.292300      -280.0677
  71   2.0000     -10.292123      -280.0629
  72   2.0000     -10.289922      -280.0030
  73   2.0000     -10.285876      -279.8929
  74   2.0000     -10.285368      -279.8791
  75   2.0000     -10.284411      -279.8531
  76   2.0000     -10.282625      -279.8045
  77   2.0000     -10.278799      -279.7003
  78   2.0000      -8.109898      -220.6815
  79   2.0000      -8.101736      -220.4595
  80   2.0000      -8.047065      -218.9718
  81   2.0000      -8.044970      -218.9148
  82   2.0000      -6.081038      -165.4734
  83   2.0000      -6.073209      -165.2604
  84   2.0000      -6.073126      -165.2582
  85   2.0000      -6.072403      -165.2385
  86   2.0000      -6.065380      -165.0474
  87   2.0000      -6.063733      -165.0026
  88   2.0000      -6.016748      -163.7240
  89   2.0000      -6.014741      -163.6694
  90   2.0000      -6.012405      -163.6059
  91   2.0000      -6.010460      -163.5529
  92   2.0000      -6.008314      -163.4945
  93   2.0000      -6.005903      -163.4289
  94   2.0000      -1.178808       -32.0770
  95   2.0000      -1.173934       -31.9444
  96   2.0000      -1.155067       -31.4310
  97   2.0000      -1.148770       -31.2596
  98   2.0000      -1.123074       -30.5604
  99   2.0000      -1.113566       -30.3017
 100   2.0000      -1.041654       -28.3448
 101   2.0000      -1.023852       -27.8604
 102   2.0000      -1.021898       -27.8073
 103   2.0000      -1.013664       -27.5832
 104   2.0000      -1.008328       -27.4380
 105   2.0000      -1.005839       -27.3703
 106   2.0000      -1.005443       -27.3595
 107   2.0000      -1.004193       -27.3255
 108   2.0000      -0.995495       -27.0888
 109   2.0000      -0.991399       -26.9773
 110   2.0000      -0.986020       -26.8310
 111   2.0000      -0.983688       -26.7675
 112   2.0000      -0.978604       -26.6292
 113   2.0000      -0.972152       -26.4536
 114   2.0000      -0.970273       -26.4025
 115   2.0000      -0.961956       -26.1761
 116   2.0000      -0.959820       -26.1180
 117   2.0000      -0.945143       -25.7187
 118   2.0000      -0.940909       -25.6034
 119   2.0000      -0.926172       -25.2024
 120   2.0000      -0.913636       -24.8613
 121   2.0000      -0.903003       -24.5720
 122   2.0000      -0.899742       -24.4832
 123   2.0000      -0.887456       -24.1489
 124   2.0000      -0.880413       -23.9572
 125   2.0000      -0.873389       -23.7661
 126   2.0000      -0.871194       -23.7064
 127   2.0000      -0.868408       -23.6306
 128   2.0000      -0.861717       -23.4485
 129   2.0000      -0.857175       -23.3249
 130   2.0000      -0.850304       -23.1380
 131   2.0000      -0.847954       -23.0740
 132   2.0000      -0.835321       -22.7302
 133   2.0000      -0.825983       -22.4761
 134   2.0000      -0.816918       -22.2295
 135   2.0000      -0.811091       -22.0709
 136   2.0000      -0.798817       -21.7369
 137   2.0000      -0.796817       -21.6825
 138   2.0000      -0.793279       -21.5862
 139   2.0000      -0.788817       -21.4648
 140   2.0000      -0.777493       -21.1567
 141   2.0000      -0.777053       -21.1447
 142   2.0000      -0.764093       -20.7920
 143   2.0000      -0.744889       -20.2695
 144   2.0000      -0.727507       -19.7965
 145   2.0000      -0.722488       -19.6599
 146   2.0000      -0.720053       -19.5936
 147   2.0000      -0.713214       -19.4075
 148   2.0000      -0.705625       -19.2010
 149   2.0000      -0.702557       -19.1176
 150   2.0000      -0.699857       -19.0441
 151   2.0000      -0.699296       -19.0288
 152   2.0000      -0.694165       -18.8892
 153   2.0000      -0.689327       -18.7575
 154   2.0000      -0.684750       -18.6330
 155   2.0000      -0.676033       -18.3958
 156   2.0000      -0.672664       -18.3041
 157   2.0000      -0.667312       -18.1585
 158   2.0000      -0.661125       -17.9901
 159   2.0000      -0.652118       -17.7450
 160   2.0000      -0.650711       -17.7067
 161   2.0000      -0.646926       -17.6037
 162   2.0000      -0.641604       -17.4589
 163   2.0000      -0.635697       -17.2982
 164   2.0000      -0.631886       -17.1945
 165   2.0000      -0.624355       -16.9896
 166   2.0000      -0.623106       -16.9556
 167   2.0000      -0.617330       -16.7984
 168   2.0000      -0.613685       -16.6992
 169   2.0000      -0.611338       -16.6354
 170   2.0000      -0.606738       -16.5102
 171   2.0000      -0.603206       -16.4141
 172   2.0000      -0.592612       -16.1258
 173   2.0000      -0.590395       -16.0655
 174   2.0000      -0.590144       -16.0586
 175   2.0000      -0.579935       -15.7808
 176   2.0000      -0.576007       -15.6740
 177   2.0000      -0.574061       -15.6210
 178   2.0000      -0.570144       -15.5144
 179   2.0000      -0.567169       -15.4334
 180   2.0000      -0.560650       -15.2561
 181   2.0000      -0.559404       -15.2222
 182   2.0000      -0.558221       -15.1900
 183   2.0000      -0.555509       -15.1162
 184   2.0000      -0.554076       -15.0772
 185   2.0000      -0.550297       -14.9744
 186   2.0000      -0.546444       -14.8695
 187   2.0000      -0.543870       -14.7995
 188   2.0000      -0.543602       -14.7922
 189   2.0000      -0.540366       -14.7041
 190   2.0000      -0.537711       -14.6319
 191   2.0000      -0.536800       -14.6071
 192   2.0000      -0.532619       -14.4933
 193   2.0000      -0.528718       -14.3872
 194   2.0000      -0.524954       -14.2847
 195   2.0000      -0.522049       -14.2057
 196   2.0000      -0.520878       -14.1738
 197   2.0000      -0.517912       -14.0931
 198   2.0000      -0.516363       -14.0509
 199   2.0000      -0.512281       -13.9399
 200   2.0000      -0.510811       -13.8999
 201   2.0000      -0.508658       -13.8413
 202   2.0000      -0.506588       -13.7849
 203   2.0000      -0.504633       -13.7318
 204   2.0000      -0.502033       -13.6610
 205   2.0000      -0.499704       -13.5976
 206   2.0000      -0.495234       -13.4760
 207   2.0000      -0.492348       -13.3975
 208   2.0000      -0.492009       -13.3883
 209   2.0000      -0.490179       -13.3385
 210   2.0000      -0.489066       -13.3082
 211   2.0000      -0.483643       -13.1606
 212   2.0000      -0.475830       -12.9480
 213   2.0000      -0.473306       -12.8793
 214   2.0000      -0.471425       -12.8281
 215   2.0000      -0.470042       -12.7905
 216   2.0000      -0.466106       -12.6834
 217   2.0000      -0.464800       -12.6478
 218   2.0000      -0.463764       -12.6197
 219   2.0000      -0.462553       -12.5867
 220   2.0000      -0.459426       -12.5016
 221   2.0000      -0.456680       -12.4269
 222   2.0000      -0.455629       -12.3983
 223   2.0000      -0.454649       -12.3716
 224   2.0000      -0.453098       -12.3294
 225   2.0000      -0.452890       -12.3238
 226   2.0000      -0.452118       -12.3028
 227   2.0000      -0.447857       -12.1868
 228   2.0000      -0.442767       -12.0483
 229   2.0000      -0.442193       -12.0327
 230   2.0000      -0.440728       -11.9928
 231   2.0000      -0.438608       -11.9351
 232   2.0000      -0.437928       -11.9166
 233   2.0000      -0.436927       -11.8894
 234   2.0000      -0.436243       -11.8708
 235   2.0000      -0.435366       -11.8469
 236   2.0000      -0.434353       -11.8193
 237   2.0000      -0.433211       -11.7883
 238   2.0000      -0.430790       -11.7224
 239   2.0000      -0.430019       -11.7014
 240   2.0000      -0.426786       -11.6134
 241   2.0000      -0.422882       -11.5072
 242   2.0000      -0.422145       -11.4872
 243   2.0000      -0.421151       -11.4601
 244   2.0000      -0.419134       -11.4052
 245   2.0000      -0.417922       -11.3722
 246   2.0000      -0.415836       -11.3155
 247   2.0000      -0.414623       -11.2825
 248   2.0000      -0.412346       -11.2205
 249   2.0000      -0.405892       -11.0449
 250   2.0000      -0.402983       -10.9657
 251   2.0000      -0.402268       -10.9463
 252   2.0000      -0.398048       -10.8314
 253   2.0000      -0.397097       -10.8056
 254   2.0000      -0.395240       -10.7550
 255   2.0000      -0.392210       -10.6726
 256   2.0000      -0.389513       -10.5992
 257   2.0000      -0.387451       -10.5431
 258   2.0000      -0.379568       -10.3286
 259   2.0000      -0.372425       -10.1342
 260   2.0000      -0.371203       -10.1009
 261   2.0000      -0.366812        -9.9815
 262   2.0000      -0.365745        -9.9524
 263   2.0000      -0.359980        -9.7955
 264   2.0000      -0.359185        -9.7739
 265   2.0000      -0.348182        -9.4745
 266   2.0000      -0.341388        -9.2896
 267   2.0000      -0.337104        -9.1731
 268   2.0000      -0.334338        -9.0978
 269   2.0000      -0.321339        -8.7441
 270   2.0000      -0.318994        -8.6803
 271   2.0000      -0.315826        -8.5941
 272   2.0000      -0.312977        -8.5165
 273   2.0000      -0.301314        -8.1992
 274   2.0000      -0.293461        -7.9855
 275   2.0000      -0.289117        -7.8673
 276   2.0000      -0.266404        -7.2492
 277   2.0000      -0.222610        -6.0575
 278   0.0000      -0.119106        -3.2410
 279   0.0000      -0.093849        -2.5538
 280   0.0000      -0.091773        -2.4973
 281   0.0000      -0.073494        -1.9999
 282   0.0000      -0.065667        -1.7869

MULLIKEN ATOMIC CHARGES
-----------------------
   0 C :   -0.040035
   1 C :    0.047599
   2 C :    0.045809
   3 C :   -0.047629
   4 C :    0.002076
   5 C :    0.017661
   6 C :    0.305053
   7 C :   -0.357455
   8 C :   -0.193086
   9 N :    0.155624
  10 C :   -0.181723
  11 N :    0.159214
  12 C :   -0.047668
  13 C :    0.296605
  14 C :   -0.378442
  15 C :   -0.203973
  16 N :    0.185759
  17 C :   -0.144085
  18 N :    0.108140
  19 C :   -0.020601
  20 C :   -0.039066
  21 C :    0.183877
  22 O :   -0.310011
  23 C :    0.210350
  24 C :   -0.001342
  25 O :   -0.358734
  26 C :    0.190783
  27 C :    0.088770
  28 C :    0.004170
  29 C :    0.035227
  30 N :   -0.266572
  31 S :    0.497695
  32 N :   -0.272848
  33 C :   -0.094197
  34 C :   -0.021783
  35 C :    0.037195
  36 C :    0.037127
  37 C :   -0.047254
  38 S :    0.115770
  39 C :   -0.040044
  40 C :    0.042387
  41 C :    0.034099
  42 C :    0.006207
  43 S :    0.123252
  44 C :   -0.057214
  45 C :    0.023098
  46 C :    0.179908
  47 O :   -0.315728
  48 C :    0.202561
  49 C :    0.017228
  50 O :   -0.368970
  51 C :    0.202791
  52 C :    0.013167
  53 C :    0.050948
  54 C :   -0.016404
  55 N :   -0.275391
  56 S :    0.546090
  57 N :   -0.270931
  58 C :   -0.038302
  59 C :   -0.070883
  60 C :    0.288698
  61 C :   -0.345435
  62 C :   -0.169882
  63 N :    0.165925
  64 C :   -0.191525
  65 N :    0.161978
  66 C :    0.012933
  67 C :    0.003188
  68 C :   -0.034815
  69 C :    0.045695
  70 C :    0.049892
  71 C :   -0.037235
  72 C :    0.281865
  73 C :   -0.324234
  74 C :   -0.204294
  75 N :    0.159993
  76 C :   -0.191877
  77 N :    0.170574
  78 H :    0.003160
  79 H :   -0.001101
  80 H :    0.006303
  81 H :    0.005553
  82 H :    0.038772
  83 H :    0.029403
  84 H :    0.029997
  85 H :    0.038419
  86 H :    0.042371
  87 H :    0.038320
  88 H :    0.023860
  89 H :    0.007278
  90 H :   -0.005026
  91 H :   -0.011676
  92 H :   -0.008845
  93 H :   -0.005362
  94 H :    0.003191
  95 H :    0.017254
  96 H :    0.033908
  97 H :    0.028521
  98 H :    0.041216
  99 H :    0.026164
 100 H :    0.028126
 101 H :    0.039413
 102 H :    0.005174
 103 H :    0.005550
 104 H :    0.005471
 105 H :    0.007275
Sum of atomic charges:   -0.0000000

LOEWDIN ATOMIC CHARGES
----------------------
   0 C :    0.002232
   1 C :   -0.000942
   2 C :    0.008631
   3 C :    0.000300
   4 C :   -0.013599
   5 C :   -0.014049
   6 C :    0.080284
   7 C :   -0.135736
   8 C :   -0.017847
   9 N :   -0.054276
  10 C :   -0.023788
  11 N :   -0.042958
  12 C :   -0.061334
  13 C :    0.086360
  14 C :   -0.148290
  15 C :   -0.018060
  16 N :   -0.050725
  17 C :    0.004876
  18 N :   -0.094800
  19 C :    0.079681
  20 C :   -0.088778
  21 C :    0.081642
  22 O :   -0.073722
  23 C :    0.082550
  24 C :   -0.003618
  25 O :   -0.116585
  26 C :    0.075327
  27 C :   -0.030890
  28 C :   -0.046129
  29 C :   -0.036160
  30 N :   -0.282934
  31 S :    0.630913
  32 N :   -0.283605
  33 C :   -0.056760
  34 C :   -0.134863
  35 C :   -0.029076
  36 C :   -0.030045
  37 C :   -0.183010
  38 S :    0.436695
  39 C :   -0.167455
  40 C :   -0.027543
  41 C :   -0.021441
  42 C :   -0.125261
  43 S :    0.431945
  44 C :   -0.041855
  45 C :   -0.030643
  46 C :    0.045052
  47 O :   -0.101430
  48 C :    0.083240
  49 C :    0.035309
  50 O :   -0.121981
  51 C :    0.080523
  52 C :   -0.067670
  53 C :   -0.040257
  54 C :   -0.061593
  55 N :   -0.297564
  56 S :    0.711792
  57 N :   -0.289123
  58 C :    0.070287
  59 C :   -0.055823
  60 C :    0.080572
  61 C :   -0.136461
  62 C :   -0.010004
  63 N :   -0.041664
  64 C :   -0.020526
  65 N :   -0.046013
  66 C :   -0.013082
  67 C :   -0.008245
  68 C :    0.001281
  69 C :    0.004137
  70 C :    0.002248
  71 C :    0.004579
  72 C :    0.083967
  73 C :   -0.134205
  74 C :   -0.020241
  75 N :   -0.053765
  76 C :   -0.018399
  77 N :   -0.054460
  78 H :    0.040058
  79 H :    0.035797
  80 H :    0.034011
  81 H :    0.039681
  82 H :    0.050372
  83 H :    0.022189
  84 H :    0.018079
  85 H :    0.023143
  86 H :    0.029013
  87 H :    0.015730
  88 H :    0.018407
  89 H :    0.041471
  90 H :    0.035803
  91 H :    0.032973
  92 H :    0.033849
  93 H :    0.035338
  94 H :    0.038222
  95 H :    0.013709
  96 H :    0.025631
  97 H :    0.019900
  98 H :    0.027341
  99 H :    0.016733
 100 H :    0.018310
 101 H :    0.049878
 102 H :    0.041009
 103 H :    0.037980
 104 H :    0.038277
 105 H :    0.041958

  Mayer bond orders larger than 0.100000
B(  0-C ,  1-C ) :   1.3604 B(  0-C ,  5-C ) :   1.3854 B(  0-C , 78-H ) :   0.9832
B(  1-C ,  2-C ) :   1.3706 B(  1-C , 79-H ) :   0.9880 B(  2-C ,  3-C ) :   1.3714
B(  2-C , 80-H ) :   0.9764 B(  3-C ,  4-C ) :   1.3650 B(  3-C , 81-H ) :   0.9907
B(  4-C ,  5-C ) :   1.3056 B(  4-C , 13-C ) :   1.0092 B(  5-C ,  6-C ) :   0.9905
B(  6-C ,  7-C ) :   1.6304 B(  6-C , 12-C ) :   1.0667 B(  7-C ,  8-C ) :   1.1515
B(  7-C , 10-C ) :   1.1360 B(  8-C ,  9-N ) :   2.9766 B( 10-C , 11-N ) :   2.9692
B( 12-C , 13-C ) :   1.0438 B( 12-C , 19-C ) :   1.5554 B( 13-C , 14-C ) :   1.6089
B( 14-C , 15-C ) :   1.1623 B( 14-C , 17-C ) :   1.1709 B( 15-C , 16-N ) :   3.0030
B( 17-C , 18-N ) :   2.8853 B( 19-C , 20-C ) :   1.1923 B( 19-C , 82-H ) :   0.9239
B( 20-C , 21-C ) :   1.3233 B( 20-C , 27-C ) :   0.1001 B( 20-C , 29-C ) :   1.1724
B( 21-C , 22-O ) :   1.2311 B( 21-C , 24-C ) :   1.1969 B( 22-O , 23-C ) :   0.8955
B( 23-C , 83-H ) :   0.9738 B( 23-C , 84-H ) :   0.9719 B( 23-C , 85-H ) :   0.9770
B( 24-C , 25-O ) :   1.1095 B( 24-C , 27-C ) :   1.3192 B( 25-O , 26-C ) :   0.9207
B( 26-C , 86-H ) :   0.9799 B( 26-C , 87-H ) :   0.9651 B( 26-C , 88-H ) :   0.9691
B( 27-C , 28-C ) :   1.1224 B( 27-C , 33-C ) :   1.1962 B( 28-C , 29-C ) :   1.1601
B( 28-C , 32-N ) :   1.5911 B( 29-C , 30-N ) :   1.5916 B( 30-N , 31-S ) :   1.2379
B( 30-N , 32-N ) :   0.1397 B( 31-S , 32-N ) :   1.2453 B( 33-C , 34-C ) :   1.4941
B( 33-C , 89-H ) :   0.9641 B( 34-C , 35-C ) :   1.1481 B( 34-C , 38-S ) :   1.0885
B( 35-C , 36-C ) :   1.5828 B( 35-C , 90-H ) :   1.0004 B( 36-C , 37-C ) :   1.1870
B( 36-C , 91-H ) :   0.9954 B( 37-C , 38-S ) :   1.0539 B( 37-C , 39-C ) :   1.4802
B( 39-C , 40-C ) :   1.1795 B( 39-C , 43-S ) :   1.0805 B( 40-C , 41-C ) :   1.5921
B( 40-C , 92-H ) :   0.9955 B( 41-C , 42-C ) :   1.1455 B( 41-C , 93-H ) :   0.9975
B( 42-C , 43-S ) :   1.0630 B( 42-C , 44-C ) :   1.5598 B( 44-C , 45-C ) :   1.1622
B( 44-C , 94-H ) :   0.9537 B( 45-C , 46-C ) :   1.3465 B( 45-C , 52-C ) :   0.1227
B( 45-C , 54-C ) :   1.1632 B( 46-C , 47-O ) :   1.2269 B( 46-C , 49-C ) :   1.2193
B( 47-O , 48-C ) :   0.9289 B( 48-C , 95-H ) :   0.9736 B( 48-C , 96-H ) :   0.9759
B( 48-C , 97-H ) :   0.9728 B( 49-C , 50-O ) :   1.0672 B( 49-C , 52-C ) :   1.3443
B( 50-O , 51-C ) :   0.9292 B( 51-C , 98-H ) :   0.9804 B( 51-C , 99-H ) :   0.9668
B( 51-C ,100-H ) :   0.9675 B( 52-C , 53-C ) :   1.1628 B( 52-C , 58-C ) :   1.1334
B( 53-C , 54-C ) :   1.1551 B( 53-C , 57-N ) :   1.5590 B( 54-C , 55-N ) :   1.5092
B( 55-N , 56-S ) :   1.2600 B( 55-N , 57-N ) :   0.1368 B( 56-S , 57-N ) :   1.2673
B( 58-C , 59-C ) :   1.6044 B( 58-C ,101-H ) :   0.9355 B( 59-C , 60-C ) :   1.0464
B( 59-C , 72-C ) :   1.0069 B( 60-C , 61-C ) :   1.6424 B( 60-C , 66-C ) :   1.0028
B( 61-C , 62-C ) :   1.1423 B( 61-C , 64-C ) :   1.1417 B( 62-C , 63-N ) :   2.9504
B( 64-C , 65-N ) :   2.9825 B( 66-C , 67-C ) :   1.3063 B( 66-C , 71-C ) :   1.3804
B( 67-C , 68-C ) :   1.3843 B( 67-C , 72-C ) :   1.0180 B( 68-C , 69-C ) :   1.3603
B( 68-C ,102-H ) :   0.9890 B( 69-C , 70-C ) :   1.3778 B( 69-C ,103-H ) :   0.9868
B( 70-C , 71-C ) :   1.3694 B( 70-C ,104-H ) :   0.9856 B( 71-C ,105-H ) :   0.9855
B( 72-C , 73-C ) :   1.6518 B( 73-C , 74-C ) :   1.1578 B( 73-C , 76-C ) :   1.1582
B( 74-C , 75-N ) :   2.9695 B( 76-C , 77-N ) :   2.9992

-----------------------------------------------------------------------------
         ABSORPTION SPECTRUM VIA TRANSITION ELECTRIC DIPOLE MOMENTS
-----------------------------------------------------------------------------
State   Energy  Wavelength   fosc         T2         TX        TY        TZ
        (cm-1)    (nm)                  (au**2)     (au)      (au)      (au)
-----------------------------------------------------------------------------
   0    8013.2   1247.9   0.361835056  14.86560  -3.30617  -1.42781  -1.37702
   1   13741.7    727.7   0.459001025  10.99632   1.27825  -1.38096  -2.73045
   2   16128.6    620.0   0.045237051   0.92337   0.69772  -0.59560  -0.28603
   3   17727.2    564.1   0.407398457   7.56579  -2.44093   0.52709   1.15319
   4   18489.2    540.9   0.326998461   5.82243   0.24759  -0.63225  -2.31547
   5   20531.3    487.1   0.162770711   2.60997   1.21757  -0.80844   0.68842
   6   21160.4    472.6   0.088867068   1.38259  -0.90303  -0.39343   0.64213
   7   22390.1    446.6   0.195922620   2.88074   1.35276  -0.65199   0.79101
   8   22961.3    435.5   0.195736939   2.80641   1.42899   0.08749   0.86991
   9   23471.2    426.1   0.027215558   0.38173   0.17887  -0.31945  -0.49769
  10   24723.5    404.5   0.013032161   0.17353   0.29268  -0.28328  -0.08731
  11   24952.2    400.8   0.126291126   1.66624   0.47498  -0.60425  -1.03707
  12   25123.7    398.0   0.042044620   0.55094   0.21676   0.12072   0.69955
  13   25633.6    390.1   0.054076412   0.69450   0.57208   0.59251   0.12708
  14   25742.8    388.5   0.075708319   0.96820  -0.06787   0.43039   0.88225
  15   25956.4    385.3   0.114321890   1.44997   1.11664  -0.30207  -0.33443
  16   26426.4    378.4   0.021774694   0.27126  -0.21007  -0.12610  -0.45960
  17   27559.4    362.9   0.001610180   0.01923  -0.09364   0.09085   0.04702
  18   27781.9    359.9   0.013112298   0.15538  -0.28443  -0.08879  -0.25806
  19   28921.9    345.8   0.057832213   0.65829  -0.42076  -0.18093  -0.66972
  20   29250.8    341.9   0.093528088   1.05264  -0.04798   0.90288   0.48491
  21   29391.7    340.2   0.073166857   0.81953   0.41637  -0.46970  -0.65234
  22   29944.2    334.0   0.107998906   1.18736  -0.99030   0.29851  -0.34286
  23   30118.1    332.0   0.006639816   0.07258   0.12423   0.23402  -0.04881
  24   30712.5    325.6   0.313218140   3.35743  -0.57386   0.35790   1.70295
  25   30950.8    323.1   0.073595870   0.78281  -0.25112  -0.24316   0.81279
  26   31456.2    317.9   0.020045223   0.20979  -0.27873   0.36065   0.04500
  27   31880.9    313.7   0.061217976   0.63216   0.05180   0.10037  -0.78702
  28   31933.4    313.2   0.018240301   0.18805  -0.13975  -0.39975   0.09335
  29   32282.3    309.8   0.165607538   1.68885   0.52522   0.45871   1.09662
  30   32461.7    308.1   0.335198100   3.39943   1.51851  -1.00760  -0.27978
  31   32567.0    307.1   0.118407375   1.19695  -0.31563   0.68185   0.79524
  32   32823.2    304.7   0.075214891   0.75439  -0.34215   0.46435   0.64939
  33   32903.6    303.9   0.029724253   0.29740  -0.07340   0.06976  -0.53586
  34   33111.5    302.0   0.044929599   0.44671  -0.36759   0.49057   0.26633
  35   33309.9    300.2   0.014882430   0.14709  -0.10432   0.23240   0.28670
  36   33717.5    296.6   0.118248970   1.15456  -0.15970  -0.59070  -0.88325
  37   33888.6    295.1   0.006760191   0.06567   0.11095   0.03349   0.22856
  38   34049.7    293.7   0.066057071   0.63868   0.36430  -0.40479   0.58490
  39   34342.1    291.2   0.027091473   0.25971   0.29923   0.23710   0.33757
  40   34440.6    290.4   0.119315341   1.14052   0.16899   0.80018   0.68678
  41   34776.2    287.6   0.084721253   0.80202   0.60668   0.25647  -0.60679
  42   34827.9    287.1   0.000784298   0.00741  -0.07460  -0.00500   0.04270
  43   34891.6    286.6   0.049700572   0.46894   0.63593  -0.16701   0.19141
  44   35083.1    285.0   0.093456238   0.87697   0.64037  -0.12616  -0.67156
  45   35246.1    283.7   0.092558620   0.86453   0.87575   0.00242   0.31240
  46   35922.6    278.4   0.040556244   0.37168  -0.45789  -0.39890  -0.05376
  47   36009.5    277.7   0.165140504   1.50977  -1.08364   0.30870   0.49009
  48   36277.6    275.7   0.335455723   3.04419  -1.50692  -0.77349   0.41843
  49   36421.7    274.6   0.119893966   1.08371   0.56926  -0.86431  -0.11236
  50   36710.8    272.4   0.004407273   0.03952   0.04402   0.19223  -0.02515
  51   36916.7    270.9   0.182010165   1.62311  -1.14658  -0.46688   0.30080
  52   37008.0    270.2   0.083107168   0.73930  -0.84988   0.11663  -0.05835
  53   37177.3    269.0   0.022484061   0.19910   0.01305  -0.43123   0.11390
  54   37446.3    267.0   0.004032464   0.03545  -0.02695   0.16157  -0.09284
  55   37696.0    265.3   0.009629745   0.08410  -0.09378   0.26478   0.07211
  56   37756.5    264.9   0.011182766   0.09751   0.01560   0.07465  -0.30281
  57   38022.7    263.0   0.042383354   0.36697  -0.58756  -0.04885  -0.13910
  58   38206.0    261.7   0.082530433   0.71114   0.76763   0.31606   0.14832
  59   38393.9    260.5   0.020632743   0.17692   0.04239  -0.28342   0.30789
  60   38474.0    259.9   0.033212407   0.28419   0.38138   0.20566   0.31055
  61   38984.0    256.5   0.005250615   0.04434   0.12590   0.14480  -0.08673
  62   39150.8    255.4   0.074467425   0.62618   0.63701   0.44920   0.13649
  63   39216.6    255.0   0.059799804   0.50200  -0.51370  -0.44563  -0.19883
  64   39675.9    252.0   0.038969718   0.32335   0.25161   0.24343   0.44809
  65   39836.3    251.0   0.036921044   0.30512  -0.40843   0.36817  -0.05251
  66   39961.3    250.2   0.092981072   0.76600  -0.50050  -0.64935  -0.30635
  67   40228.1    248.6   0.014982826   0.12261  -0.31217   0.06595   0.14428

FINAL SINGLE POINT ENERGY     -4772.868572020264

DIPOLE MOMENT
-------------
                                X             Y             Z
Electronic contribution:    -25.83764     -34.28957     -18.84964
Nuclear contribution   :     27.62800      38.80474      23.31331
                        -----------------------------------------
Total Dipole Moment    :      1.79036       4.51517       4.46367
                        -----------------------------------------
Magnitude (a.u.)       :      6.59670
Magnitude (Debye)      :     16.76748

Rotational constants in cm-1:     0.001060     0.000650     0.000463
Rotational constants in MHz :    31.766567    19.478707    13.873222

                             ****ORCA TERMINATED NORMALLY****
TOTAL RUN TIME: 0 days 0 hours 24 minutes 0 seconds 282 msec
