                         Program Version 4.2.0 -  RELEASE  -
|  1> # ORCA input file
|  2> # SCF done       -196.009927206743          0.000809429854
|  3> ! CAM-B3LYP def2-SVP def2/J RIJCOSX Grid4 TightSCF
|  4> %maxcore 5000
|  5> %tddft
|  6>     Mode sTDDFT
|  7>     Ethresh 5.0
|  8>     maxcore 5000
|  9> end
| 10>
| 11> %pal
| 12>   nprocs 6
| 13>   end
| 14> * xyz 0 1
| 15>    C       -0.82867         1.80696        -2.09126
| 16>    C       -1.31629         2.47183        -3.20655
| 17>    C       -2.62526         2.29192        -3.62670
| 18>    C       -3.48689         1.44426        -2.94535
| 19>    C       -3.01075         0.77287        -1.83231
| 20>    C       -1.67731         0.95355        -1.40315
| 21>    C       -1.44992         0.12182        -0.22955
| 22>    C       -0.31340         0.12316         0.53560
| 23>    C        0.80707         0.94784         0.28920
| 24>    N        1.75415         1.58323         0.16269
| 25>    C       -0.08042        -0.64729         1.69481
| 26>    N        0.19283        -1.23270         2.64519
| 27>    C       -2.65442        -0.69009        -0.04225
| 28>    C       -3.66978        -0.14829        -0.91558
| 29>    C       -5.02895        -0.31346        -0.80042
| 30>    C       -5.63815        -0.95236         0.29628
| 31>    N       -6.17258        -1.45230         1.18046
| 32>    C       -5.96865         0.22997        -1.70045
| 33>    N       -6.77442         0.62307        -2.41746
| 34>    C       -2.65261        -1.80640         0.76660
| 35>    C       -3.46358        -2.94960         0.81859
| 36>    C       -4.40725        -3.50931        -0.06502
| 37>    C       -4.79090        -4.76877         0.42794
| 38>    C       -4.06558        -5.02666         1.65420
| 39>    O       -4.07277        -5.96540         2.41942
| 40>    N       -3.28496        -3.87224         1.82961
| 41>    C       -2.46120        -3.70614         2.99707
| 42>    C       -5.69124        -5.35586        -0.47474
| 43>    N       -5.94230        -4.41571        -1.45548
| 44>    C       -5.13227        -3.29028        -1.29521
| 45>    O       -5.12531        -2.36196        -2.08824
| 46>    C       -7.11858        -4.32500        -2.28853
| 47>    C       -6.15240        -6.68183        -0.47216
| 48>    C       -6.42503        -7.41224        -1.61210
| 49>    C       -7.06950        -8.66721        -1.72895
| 50>    C       -7.22258        -9.09632        -3.01856
| 51>    C       -6.67145        -8.21838        -3.97458
| 52>    S       -5.89437        -6.87513        -3.19026
| 53>    C       -6.76974        -8.18974        -5.36102
| 54>    C       -7.52589        -8.98640        -6.24702
| 55>    C       -7.57666        -8.47685        -7.51335
| 56>    C       -6.87959        -7.25178        -7.66788
| 57>    S       -6.05186        -6.84798        -6.20426
| 58>    C       -6.82325        -6.45667        -8.80158
| 59>    C       -6.37504        -5.13570        -8.84912
| 60>    C       -6.21818        -4.15542        -7.83662
| 61>    C       -5.75007        -2.97735        -8.44367
| 62>    C       -5.62366        -3.19747        -9.87264
| 63>    O       -5.25483        -2.48471       -10.77624
| 64>    N       -6.03503        -4.52888       -10.03952
| 65>    C       -6.02461        -5.15672       -11.33203
| 66>    C       -5.72362        -1.94333        -7.50012
| 67>    N       -6.14694        -2.48839        -6.30796
| 68>    C       -6.50083        -3.83461        -6.45280
| 69>    O       -6.95186        -4.48939        -5.52672
| 70>    C       -6.06702        -1.89420        -5.00052
| 71>    C       -5.30599        -0.61969        -7.72290
| 72>    C       -5.68256         0.51280        -7.03600
| 73>    C       -4.89620         1.73116        -6.92791
| 74>    C       -3.66008         1.96216        -7.47662
| 75>    C       -2.92857         1.06119        -8.27892
| 76>    N       -2.24531         0.38055        -8.90178
| 77>    C       -2.91035         3.13734        -7.26244
| 78>    N       -2.24214         4.05917        -7.11244
| 79>    C       -5.59091         2.60866        -5.99366
| 80>    C       -6.76668         1.96292        -5.54820
| 81>    C       -7.57322         2.54220        -4.58406
| 82>    C       -7.21199         3.78339        -4.08071
| 83>    C       -6.08532         4.44246        -4.54950
| 84>    C       -5.26583         3.86644        -5.50983
| 85>    C       -6.91142         0.71869        -6.28679
| 86>    C       -8.08407         0.02582        -6.44717
| 87>    C       -9.27390         0.31906        -5.74667
| 88>    N      -10.27392         0.49054        -5.21070
| 89>    C       -8.30204        -0.98840        -7.40203
| 90>    N       -8.57454        -1.77045        -8.19786
| 91>    H        0.19212         1.95565        -1.78077
| 92>    H       -0.66812         3.13571        -3.75706
| 93>    H       -2.97879         2.82421        -4.49577
| 94>    H       -4.50108         1.31169        -3.28590
| 95>    H       -1.80745        -1.87066         1.43827
| 96>    H       -2.62838        -4.58257         3.62323
| 97>    H       -2.74258        -2.80821         3.54911
| 98>    H       -1.40112        -3.65261         2.73941
| 99>    H       -7.85573        -5.05366        -1.95940
|100>    H       -6.89901        -4.48334        -3.34677
|101>    H       -7.53166        -3.32040        -2.17661
|102>    H       -6.20412        -7.17244         0.49012
|103>    H       -7.44752        -9.18683        -0.86651
|104>    H       -7.72952       -10.00190        -3.29968
|105>    H       -8.03723        -9.87611        -5.92656
|106>    H       -8.13649        -8.91269        -8.32175
|107>    H       -7.16450        -6.90043        -9.72714
|108>    H       -5.62401        -4.42431       -12.03315
|109>    H       -7.03459        -5.43029       -11.64444
|110>    H       -5.38827        -6.04375       -11.33190
|111>    H       -5.39091        -1.04240        -5.01238
|112>    H       -5.68009        -2.63104        -4.29713
|113>    H       -7.04547        -1.57096        -4.63839
|114>    H       -4.58035        -0.52010        -8.52022
|115>    H       -8.44862         2.03850        -4.21116
|116>    H       -7.82239         4.24304        -3.31891
|117>    H       -5.83483         5.41806        -4.16137
|118>    H       -4.40272         4.40293        -5.86922
|119> *
|120>
|121>                          ****END OF INPUT****

CARTESIAN COORDINATES (ANGSTROEM)
---------------------------------
  C     -0.828670    1.806960   -2.091260
  C     -1.316290    2.471830   -3.206550
  C     -2.625260    2.291920   -3.626700
  C     -3.486890    1.444260   -2.945350
  C     -3.010750    0.772870   -1.832310
  C     -1.677310    0.953550   -1.403150
  C     -1.449920    0.121820   -0.229550
  C     -0.313400    0.123160    0.535600
  C      0.807070    0.947840    0.289200
  N      1.754150    1.583230    0.162690
  C     -0.080420   -0.647290    1.694810
  N      0.192830   -1.232700    2.645190
  C     -2.654420   -0.690090   -0.042250
  C     -3.669780   -0.148290   -0.915580
  C     -5.028950   -0.313460   -0.800420
  C     -5.638150   -0.952360    0.296280
  N     -6.172580   -1.452300    1.180460
  C     -5.968650    0.229970   -1.700450
  N     -6.774420    0.623070   -2.417460
  C     -2.652610   -1.806400    0.766600
  C     -3.463580   -2.949600    0.818590
  C     -4.407250   -3.509310   -0.065020
  C     -4.790900   -4.768770    0.427940
  C     -4.065580   -5.026660    1.654200
  O     -4.072770   -5.965400    2.419420
  N     -3.284960   -3.872240    1.829610
  C     -2.461200   -3.706140    2.997070
  C     -5.691240   -5.355860   -0.474740
  N     -5.942300   -4.415710   -1.455480
  C     -5.132270   -3.290280   -1.295210
  O     -5.125310   -2.361960   -2.088240
  C     -7.118580   -4.325000   -2.288530
  C     -6.152400   -6.681830   -0.472160
  C     -6.425030   -7.412240   -1.612100
  C     -7.069500   -8.667210   -1.728950
  C     -7.222580   -9.096320   -3.018560
  C     -6.671450   -8.218380   -3.974580
  S     -5.894370   -6.875130   -3.190260
  C     -6.769740   -8.189740   -5.361020
  C     -7.525890   -8.986400   -6.247020
  C     -7.576660   -8.476850   -7.513350
  C     -6.879590   -7.251780   -7.667880
  S     -6.051860   -6.847980   -6.204260
  C     -6.823250   -6.456670   -8.801580
  C     -6.375040   -5.135700   -8.849120
  C     -6.218180   -4.155420   -7.836620
  C     -5.750070   -2.977350   -8.443670
  C     -5.623660   -3.197470   -9.872640
  O     -5.254830   -2.484710  -10.776240
  N     -6.035030   -4.528880  -10.039520
  C     -6.024610   -5.156720  -11.332030
  C     -5.723620   -1.943330   -7.500120
  N     -6.146940   -2.488390   -6.307960
  C     -6.500830   -3.834610   -6.452800
  O     -6.951860   -4.489390   -5.526720
  C     -6.067020   -1.894200   -5.000520
  C     -5.305990   -0.619690   -7.722900
  C     -5.682560    0.512800   -7.036000
  C     -4.896200    1.731160   -6.927910
  C     -3.660080    1.962160   -7.476620
  C     -2.928570    1.061190   -8.278920
  N     -2.245310    0.380550   -8.901780
  C     -2.910350    3.137340   -7.262440
  N     -2.242140    4.059170   -7.112440
  C     -5.590910    2.608660   -5.993660
  C     -6.766680    1.962920   -5.548200
  C     -7.573220    2.542200   -4.584060
  C     -7.211990    3.783390   -4.080710
  C     -6.085320    4.442460   -4.549500
  C     -5.265830    3.866440   -5.509830
  C     -6.911420    0.718690   -6.286790
  C     -8.084070    0.025820   -6.447170
  C     -9.273900    0.319060   -5.746670
  N    -10.273920    0.490540   -5.210700
  C     -8.302040   -0.988400   -7.402030
  N     -8.574540   -1.770450   -8.197860
  H      0.192120    1.955650   -1.780770
  H     -0.668120    3.135710   -3.757060
  H     -2.978790    2.824210   -4.495770
  H     -4.501080    1.311690   -3.285900
  H     -1.807450   -1.870660    1.438270
  H     -2.628380   -4.582570    3.623230
  H     -2.742580   -2.808210    3.549110
  H     -1.401120   -3.652610    2.739410
  H     -7.855730   -5.053660   -1.959400
  H     -6.899010   -4.483340   -3.346770
  H     -7.531660   -3.320400   -2.176610
  H     -6.204120   -7.172440    0.490120
  H     -7.447520   -9.186830   -0.866510
  H     -7.729520  -10.001900   -3.299680
  H     -8.037230   -9.876110   -5.926560
  H     -8.136490   -8.912690   -8.321750
  H     -7.164500   -6.900430   -9.727140
  H     -5.624010   -4.424310  -12.033150
  H     -7.034590   -5.430290  -11.644440
  H     -5.388270   -6.043750  -11.331900
  H     -5.390910   -1.042400   -5.012380
  H     -5.680090   -2.631040   -4.297130
  H     -7.045470   -1.570960   -4.638390
  H     -4.580350   -0.520100   -8.520220
  H     -8.448620    2.038500   -4.211160
  H     -7.822390    4.243040   -3.318910
  H     -5.834830    5.418060   -4.161370
  H     -4.402720    4.402930   -5.869220

 Total Charge           Charge          ....    0
 Multiplicity           Mult            ....    1
 Number of Electrons    NEL             ....  524
 Basis Dimension        Dim             .... 1212

ORBITAL ENERGIES
----------------

  NO   OCC          E(Eh)            E(eV)
   0   2.0000     -88.979115     -2421.2448
   1   2.0000     -88.975021     -2421.1334
   2   2.0000     -19.225499      -523.1524
   3   2.0000     -19.204024      -522.5681
   4   2.0000     -19.198810      -522.4262
   5   2.0000     -19.196842      -522.3726
   6   2.0000     -14.477315      -393.9478
   7   2.0000     -14.465690      -393.6314
   8   2.0000     -14.464430      -393.5971
   9   2.0000     -14.461967      -393.5301
  10   2.0000     -14.432446      -392.7268
  11   2.0000     -14.427380      -392.5890
  12   2.0000     -14.427038      -392.5797
  13   2.0000     -14.425226      -392.5303
  14   2.0000     -14.422225      -392.4487
  15   2.0000     -14.418715      -392.3532
  16   2.0000     -14.415813      -392.2742
  17   2.0000     -14.415602      -392.2685
  18   2.0000     -10.399981      -282.9979
  19   2.0000     -10.386344      -282.6268
  20   2.0000     -10.384989      -282.5899
  21   2.0000     -10.380284      -282.4619
  22   2.0000     -10.362487      -281.9776
  23   2.0000     -10.359269      -281.8900
  24   2.0000     -10.359109      -281.8857
  25   2.0000     -10.358997      -281.8826
  26   2.0000     -10.358112      -281.8586
  27   2.0000     -10.353261      -281.7266
  28   2.0000     -10.350570      -281.6533
  29   2.0000     -10.349404      -281.6216
  30   2.0000     -10.349041      -281.6117
  31   2.0000     -10.347125      -281.5596
  32   2.0000     -10.345918      -281.5267
  33   2.0000     -10.344929      -281.4998
  34   2.0000     -10.343139      -281.4511
  35   2.0000     -10.341252      -281.3998
  36   2.0000     -10.341010      -281.3932
  37   2.0000     -10.339826      -281.3610
  38   2.0000     -10.334598      -281.2187
  39   2.0000     -10.333244      -281.1819
  40   2.0000     -10.331067      -281.1226
  41   2.0000     -10.327322      -281.0207
  42   2.0000     -10.326952      -281.0107
  43   2.0000     -10.326611      -281.0014
  44   2.0000     -10.325042      -280.9587
  45   2.0000     -10.324341      -280.9396
  46   2.0000     -10.322535      -280.8905
  47   2.0000     -10.321641      -280.8661
  48   2.0000     -10.320624      -280.8385
  49   2.0000     -10.319397      -280.8051
  50   2.0000     -10.319278      -280.8018
  51   2.0000     -10.318382      -280.7774
  52   2.0000     -10.318205      -280.7726
  53   2.0000     -10.317701      -280.7589
  54   2.0000     -10.313645      -280.6486
  55   2.0000     -10.313487      -280.6443
  56   2.0000     -10.311192      -280.5818
  57   2.0000     -10.310128      -280.5528
  58   2.0000     -10.309075      -280.5242
  59   2.0000     -10.309053      -280.5236
  60   2.0000     -10.306654      -280.4583
  61   2.0000     -10.305852      -280.4365
  62   2.0000     -10.304698      -280.4051
  63   2.0000     -10.299401      -280.2609
  64   2.0000     -10.298239      -280.2293
  65   2.0000     -10.297899      -280.2201
  66   2.0000     -10.297036      -280.1966
  67   2.0000     -10.296868      -280.1920
  68   2.0000     -10.296170      -280.1730
  69   2.0000     -10.294772      -280.1350
  70   2.0000     -10.293757      -280.1074
  71   2.0000     -10.293274      -280.0942
  72   2.0000     -10.292724      -280.0793
  73   2.0000     -10.285700      -279.8881
  74   2.0000     -10.284128      -279.8453
  75   2.0000     -10.280794      -279.7546
  76   2.0000      -8.075169      -219.7365
  77   2.0000      -8.071038      -219.6241
  78   2.0000      -6.044850      -164.4887
  79   2.0000      -6.040598      -164.3730
  80   2.0000      -6.040505      -164.3705
  81   2.0000      -6.036252      -164.2548
  82   2.0000      -6.036172      -164.2526
  83   2.0000      -6.032530      -164.1535
  84   2.0000      -1.161281       -31.6001
  85   2.0000      -1.144851       -31.1530
  86   2.0000      -1.140023       -31.0216
  87   2.0000      -1.136133       -30.9158
  88   2.0000      -1.086178       -29.5564
  89   2.0000      -1.074577       -29.2407
  90   2.0000      -1.070811       -29.1383
  91   2.0000      -1.064312       -28.9614
  92   2.0000      -1.038517       -28.2595
  93   2.0000      -1.032006       -28.0823
  94   2.0000      -1.031496       -28.0684
  95   2.0000      -1.024839       -27.8873
  96   2.0000      -1.015700       -27.6386
  97   2.0000      -1.012888       -27.5621
  98   2.0000      -1.007557       -27.4170
  99   2.0000      -1.005878       -27.3713
 100   2.0000      -1.005803       -27.3693
 101   2.0000      -1.004256       -27.3272
 102   2.0000      -0.998634       -27.1742
 103   2.0000      -0.993627       -27.0380
 104   2.0000      -0.959206       -26.1013
 105   2.0000      -0.954811       -25.9817
 106   2.0000      -0.943974       -25.6868
 107   2.0000      -0.938302       -25.5325
 108   2.0000      -0.937779       -25.5183
 109   2.0000      -0.932696       -25.3800
 110   2.0000      -0.928605       -25.2686
 111   2.0000      -0.910551       -24.7773
 112   2.0000      -0.906463       -24.6661
 113   2.0000      -0.899829       -24.4856
 114   2.0000      -0.895083       -24.3564
 115   2.0000      -0.889016       -24.1914
 116   2.0000      -0.884463       -24.0675
 117   2.0000      -0.865177       -23.5427
 118   2.0000      -0.862689       -23.4750
 119   2.0000      -0.861176       -23.4338
 120   2.0000      -0.855020       -23.2663
 121   2.0000      -0.849632       -23.1197
 122   2.0000      -0.843844       -22.9622
 123   2.0000      -0.832085       -22.6422
 124   2.0000      -0.824462       -22.4348
 125   2.0000      -0.814975       -22.1766
 126   2.0000      -0.794243       -21.6124
 127   2.0000      -0.788455       -21.4549
 128   2.0000      -0.781014       -21.2525
 129   2.0000      -0.776056       -21.1176
 130   2.0000      -0.771736       -21.0000
 131   2.0000      -0.767497       -20.8846
 132   2.0000      -0.758011       -20.6265
 133   2.0000      -0.737189       -20.0599
 134   2.0000      -0.720748       -19.6126
 135   2.0000      -0.717386       -19.5211
 136   2.0000      -0.715324       -19.4650
 137   2.0000      -0.712889       -19.3987
 138   2.0000      -0.711767       -19.3682
 139   2.0000      -0.706333       -19.2203
 140   2.0000      -0.698005       -18.9937
 141   2.0000      -0.692061       -18.8319
 142   2.0000      -0.689005       -18.7488
 143   2.0000      -0.683536       -18.6000
 144   2.0000      -0.677336       -18.4312
 145   2.0000      -0.673196       -18.3186
 146   2.0000      -0.669868       -18.2280
 147   2.0000      -0.667556       -18.1651
 148   2.0000      -0.663057       -18.0427
 149   2.0000      -0.661344       -17.9961
 150   2.0000      -0.655205       -17.8290
 151   2.0000      -0.648442       -17.6450
 152   2.0000      -0.638201       -17.3663
 153   2.0000      -0.635997       -17.3063
 154   2.0000      -0.630165       -17.1477
 155   2.0000      -0.612162       -16.6578
 156   2.0000      -0.609569       -16.5872
 157   2.0000      -0.603323       -16.4173
 158   2.0000      -0.599415       -16.3109
 159   2.0000      -0.593789       -16.1578
 160   2.0000      -0.590790       -16.0762
 161   2.0000      -0.586494       -15.9593
 162   2.0000      -0.585069       -15.9205
 163   2.0000      -0.584848       -15.9145
 164   2.0000      -0.581212       -15.8156
 165   2.0000      -0.574689       -15.6381
 166   2.0000      -0.572700       -15.5840
 167   2.0000      -0.570902       -15.5350
 168   2.0000      -0.565148       -15.3784
 169   2.0000      -0.564198       -15.3526
 170   2.0000      -0.561216       -15.2715
 171   2.0000      -0.558624       -15.2009
 172   2.0000      -0.551506       -15.0072
 173   2.0000      -0.548858       -14.9352
 174   2.0000      -0.544664       -14.8211
 175   2.0000      -0.542149       -14.7526
 176   2.0000      -0.540891       -14.7184
 177   2.0000      -0.539806       -14.6889
 178   2.0000      -0.536248       -14.5920
 179   2.0000      -0.536161       -14.5897
 180   2.0000      -0.533538       -14.5183
 181   2.0000      -0.531823       -14.4716
 182   2.0000      -0.528668       -14.3858
 183   2.0000      -0.526327       -14.3221
 184   2.0000      -0.522004       -14.2044
 185   2.0000      -0.520054       -14.1514
 186   2.0000      -0.519057       -14.1242
 187   2.0000      -0.514618       -14.0035
 188   2.0000      -0.512311       -13.9407
 189   2.0000      -0.511832       -13.9277
 190   2.0000      -0.509738       -13.8707
 191   2.0000      -0.506799       -13.7907
 192   2.0000      -0.504589       -13.7306
 193   2.0000      -0.503855       -13.7106
 194   2.0000      -0.499113       -13.5815
 195   2.0000      -0.496979       -13.5235
 196   2.0000      -0.494740       -13.4626
 197   2.0000      -0.493925       -13.4404
 198   2.0000      -0.489398       -13.3172
 199   2.0000      -0.486999       -13.2519
 200   2.0000      -0.484230       -13.1766
 201   2.0000      -0.482505       -13.1296
 202   2.0000      -0.480483       -13.0746
 203   2.0000      -0.479449       -13.0465
 204   2.0000      -0.475621       -12.9423
 205   2.0000      -0.473195       -12.8763
 206   2.0000      -0.470857       -12.8127
 207   2.0000      -0.468568       -12.7504
 208   2.0000      -0.467167       -12.7123
 209   2.0000      -0.465349       -12.6628
 210   2.0000      -0.462319       -12.5803
 211   2.0000      -0.462018       -12.5722
 212   2.0000      -0.460398       -12.5281
 213   2.0000      -0.458982       -12.4895
 214   2.0000      -0.457500       -12.4492
 215   2.0000      -0.455771       -12.4021
 216   2.0000      -0.454248       -12.3607
 217   2.0000      -0.453482       -12.3399
 218   2.0000      -0.452778       -12.3207
 219   2.0000      -0.451048       -12.2736
 220   2.0000      -0.450600       -12.2615
 221   2.0000      -0.447357       -12.1732
 222   2.0000      -0.445206       -12.1147
 223   2.0000      -0.442807       -12.0494
 224   2.0000      -0.440264       -11.9802
 225   2.0000      -0.439479       -11.9588
 226   2.0000      -0.438481       -11.9317
 227   2.0000      -0.434506       -11.8235
 228   2.0000      -0.432403       -11.7663
 229   2.0000      -0.431866       -11.7517
 230   2.0000      -0.429791       -11.6952
 231   2.0000      -0.429055       -11.6752
 232   2.0000      -0.425595       -11.5810
 233   2.0000      -0.424387       -11.5482
 234   2.0000      -0.422761       -11.5039
 235   2.0000      -0.421021       -11.4566
 236   2.0000      -0.415207       -11.2984
 237   2.0000      -0.413109       -11.2413
 238   2.0000      -0.411378       -11.1942
 239   2.0000      -0.410235       -11.1631
 240   2.0000      -0.400850       -10.9077
 241   2.0000      -0.395279       -10.7561
 242   2.0000      -0.392929       -10.6921
 243   2.0000      -0.379717       -10.3326
 244   2.0000      -0.376480       -10.2445
 245   2.0000      -0.371069       -10.0973
 246   2.0000      -0.360513        -9.8101
 247   2.0000      -0.354095        -9.6354
 248   2.0000      -0.352361        -9.5882
 249   2.0000      -0.348374        -9.4797
 250   2.0000      -0.346666        -9.4333
 251   2.0000      -0.346379        -9.4255
 252   2.0000      -0.332680        -9.0527
 253   2.0000      -0.330439        -8.9917
 254   2.0000      -0.327734        -8.9181
 255   2.0000      -0.326136        -8.8746
 256   2.0000      -0.321107        -8.7378
 257   2.0000      -0.306736        -8.3467
 258   2.0000      -0.304972        -8.2987
 259   2.0000      -0.289258        -7.8711
 260   2.0000      -0.260460        -7.0875
 261   2.0000      -0.236714        -6.4413
 262   0.0000      -0.144569        -3.9339
 263   0.0000      -0.112192        -3.0529
 264   0.0000      -0.090663        -2.4671
 265   0.0000      -0.087255        -2.3743
 266   0.0000      -0.083345        -2.2679

MULLIKEN ATOMIC CHARGES
-----------------------
   0 C :   -0.029388
   1 C :    0.047771
   2 C :    0.054788
   3 C :   -0.042514
   4 C :    0.029369
   5 C :   -0.001624
   6 C :    0.285705
   7 C :   -0.343864
   8 C :   -0.185379
   9 N :    0.166920
  10 C :   -0.166612
  11 N :    0.151546
  12 C :   -0.015827
  13 C :    0.253379
  14 C :   -0.275511
  15 C :   -0.259866
  16 N :    0.191399
  17 C :   -0.164042
  18 N :    0.150269
  19 C :   -0.037486
  20 C :    0.182490
  21 C :   -0.046917
  22 C :   -0.029023
  23 C :    0.151406
  24 O :   -0.180285
  25 N :   -0.286471
  26 C :    0.123078
  27 C :    0.063585
  28 N :   -0.268824
  29 C :    0.163471
  30 O :   -0.197286
  31 C :    0.108065
  32 C :   -0.014659
  33 C :   -0.052903
  34 C :    0.058744
  35 C :    0.038949
  36 C :   -0.040507
  37 S :    0.127742
  38 C :   -0.053702
  39 C :    0.043316
  40 C :    0.041278
  41 C :   -0.039414
  42 S :    0.192130
  43 C :   -0.052856
  44 C :    0.170240
  45 C :   -0.064794
  46 C :    0.002489
  47 C :    0.165694
  48 O :   -0.159799
  49 N :   -0.287423
  50 C :    0.116251
  51 C :    0.005752
  52 N :   -0.257170
  53 C :    0.154789
  54 O :   -0.213645
  55 C :    0.153165
  56 C :   -0.000390
  57 C :   -0.080214
  58 C :    0.316680
  59 C :   -0.352705
  60 C :   -0.192925
  61 N :    0.173621
  62 C :   -0.198163
  63 N :    0.154757
  64 C :    0.004747
  65 C :   -0.009610
  66 C :    0.024128
  67 C :    0.034389
  68 C :    0.043839
  69 C :   -0.053580
  70 C :    0.246646
  71 C :   -0.351283
  72 C :   -0.193990
  73 N :    0.172269
  74 C :   -0.184438
  75 N :    0.169440
  76 H :    0.005522
  77 H :    0.010223
  78 H :   -0.019757
  79 H :   -0.007489
  80 H :   -0.024201
  81 H :    0.061269
  82 H :    0.041379
  83 H :    0.055144
  84 H :    0.036636
  85 H :    0.086308
  86 H :    0.043089
  87 H :    0.030797
  88 H :    0.008740
  89 H :    0.002487
  90 H :   -0.001444
  91 H :   -0.000188
  92 H :   -0.008263
  93 H :    0.065511
  94 H :    0.038901
  95 H :    0.034737
  96 H :    0.031462
  97 H :    0.042460
  98 H :    0.046792
  99 H :    0.049951
 100 H :    0.011843
 101 H :    0.003485
 102 H :    0.000158
 103 H :    0.005241
Sum of atomic charges:   -0.0000000

LOEWDIN ATOMIC CHARGES
----------------------
   0 C :    0.007934
   1 C :    0.001355
   2 C :    0.007695
   3 C :   -0.007487
   4 C :   -0.003190
   5 C :   -0.022769
   6 C :    0.079659
   7 C :   -0.124344
   8 C :   -0.018491
   9 N :   -0.037515
  10 C :   -0.020057
  11 N :   -0.043546
  12 C :   -0.015697
  13 C :    0.048660
  14 C :   -0.102084
  15 C :   -0.021096
  16 N :   -0.040150
  17 C :   -0.001300
  18 N :   -0.055116
  19 C :    0.006582
  20 C :    0.063670
  21 C :   -0.078960
  22 C :   -0.096395
  23 C :    0.075934
  24 O :   -0.188111
  25 N :   -0.002561
  26 C :    0.028587
  27 C :    0.069913
  28 N :   -0.001215
  29 C :    0.087352
  30 O :   -0.160682
  31 C :    0.013978
  32 C :   -0.050401
  33 C :   -0.127917
  34 C :   -0.015826
  35 C :   -0.020527
  36 C :   -0.156289
  37 S :    0.455533
  38 C :   -0.173735
  39 C :   -0.018552
  40 C :   -0.029091
  41 C :   -0.118439
  42 S :    0.502328
  43 C :   -0.085240
  44 C :    0.083539
  45 C :   -0.124052
  46 C :   -0.060898
  47 C :    0.087227
  48 O :   -0.164000
  49 N :   -0.009735
  50 C :    0.029537
  51 C :    0.030114
  52 N :    0.008788
  53 C :    0.068381
  54 O :   -0.218112
  55 C :    0.027768
  56 C :    0.043727
  57 C :   -0.055700
  58 C :    0.072281
  59 C :   -0.134778
  60 C :   -0.026546
  61 N :   -0.037234
  62 C :   -0.017707
  63 N :   -0.054892
  64 C :   -0.020216
  65 C :   -0.011808
  66 C :    0.021622
  67 C :    0.004438
  68 C :   -0.001573
  69 C :   -0.008501
  70 C :    0.066574
  71 C :   -0.124453
  72 C :   -0.018924
  73 N :   -0.043003
  74 C :   -0.018888
  75 N :   -0.047951
  76 H :    0.041194
  77 H :    0.041136
  78 H :    0.032047
  79 H :    0.036035
  80 H :    0.047367
  81 H :    0.044153
  82 H :    0.032598
  83 H :    0.031257
  84 H :    0.030711
  85 H :    0.018374
  86 H :    0.034737
  87 H :    0.055696
  88 H :    0.041964
  89 H :    0.038909
  90 H :    0.037119
  91 H :    0.038022
  92 H :    0.040342
  93 H :    0.044610
  94 H :    0.027796
  95 H :    0.027414
  96 H :    0.030261
  97 H :    0.028886
  98 H :    0.028546
  99 H :    0.059150
 100 H :    0.041928
 101 H :    0.037812
 102 H :    0.036388
 103 H :    0.038125

  Mayer bond orders larger than 0.100000
B(  0-C ,  1-C ) :   1.3602 B(  0-C ,  5-C ) :   1.3758 B(  0-C , 76-H ) :   0.9848
B(  1-C ,  2-C ) :   1.3896 B(  1-C , 77-H ) :   0.9878 B(  2-C ,  3-C ) :   1.3489
B(  2-C , 78-H ) :   0.9795 B(  3-C ,  4-C ) :   1.3891 B(  3-C , 79-H ) :   0.9893
B(  4-C ,  5-C ) :   1.3052 B(  4-C , 13-C ) :   1.0033 B(  5-C ,  6-C ) :   0.9998
B(  6-C ,  7-C ) :   1.6270 B(  6-C , 12-C ) :   1.0572 B(  7-C ,  8-C ) :   1.1487
B(  7-C , 10-C ) :   1.1395 B(  8-C ,  9-N ) :   2.9765 B( 10-C , 11-N ) :   2.9619
B( 12-C , 13-C ) :   1.0772 B( 12-C , 19-C ) :   1.5226 B( 13-C , 14-C ) :   1.6020
B( 14-C , 15-C ) :   1.1756 B( 14-C , 17-C ) :   1.1293 B( 14-C , 30-O ) :   0.1375
B( 15-C , 16-N ) :   2.9946 B( 17-C , 18-N ) :   2.9556 B( 19-C , 20-C ) :   1.2323
B( 19-C , 80-H ) :   0.8937 B( 20-C , 21-C ) :   1.2618 B( 20-C , 25-N ) :   1.1792
B( 21-C , 22-C ) :   1.3199 B( 21-C , 29-C ) :   0.9820 B( 22-C , 23-C ) :   0.9699
B( 22-C , 27-C ) :   1.2815 B( 23-C , 24-O ) :   2.1669 B( 23-C , 25-N ) :   1.0380
B( 25-N , 26-C ) :   0.9570 B( 26-C , 81-H ) :   0.9464 B( 26-C , 82-H ) :   0.9713
B( 26-C , 83-H ) :   0.9585 B( 27-C , 28-N ) :   1.1729 B( 27-C , 32-C ) :   1.2371
B( 28-N , 29-C ) :   1.0888 B( 28-N , 31-C ) :   0.9261 B( 29-C , 30-O ) :   1.9745
B( 31-C , 84-H ) :   0.9655 B( 31-C , 85-H ) :   0.9350 B( 31-C , 86-H ) :   0.9575
B( 32-C , 33-C ) :   1.4883 B( 32-C , 87-H ) :   0.9547 B( 33-C , 34-C ) :   1.1612
B( 33-C , 37-S ) :   1.0782 B( 34-C , 35-C ) :   1.5662 B( 34-C , 88-H ) :   0.9999
B( 35-C , 36-C ) :   1.2068 B( 35-C , 89-H ) :   0.9954 B( 36-C , 37-S ) :   1.0896
B( 36-C , 38-C ) :   1.4264 B( 38-C , 39-C ) :   1.2035 B( 38-C , 42-S ) :   1.1024
B( 39-C , 40-C ) :   1.5666 B( 39-C , 90-H ) :   0.9942 B( 40-C , 41-C ) :   1.1674
B( 40-C , 91-H ) :   0.9974 B( 41-C , 42-S ) :   1.1469 B( 41-C , 43-C ) :   1.4234
B( 43-C , 44-C ) :   1.2835 B( 43-C , 92-H ) :   0.9506 B( 44-C , 45-C ) :   1.2003
B( 44-C , 49-N ) :   1.1642 B( 45-C , 46-C ) :   1.3390 B( 45-C , 53-C ) :   1.0136
B( 46-C , 47-C ) :   0.9542 B( 46-C , 51-C ) :   1.3113 B( 47-C , 48-O ) :   2.1779
B( 47-C , 49-N ) :   1.0363 B( 49-N , 50-C ) :   0.9697 B( 50-C , 93-H ) :   0.9511
B( 50-C , 94-H ) :   0.9702 B( 50-C , 95-H ) :   0.9715 B( 51-C , 52-N ) :   1.1638
B( 51-C , 56-C ) :   1.2399 B( 52-N , 53-C ) :   1.0704 B( 52-N , 55-C ) :   0.9424
B( 53-C , 54-O ) :   1.9816 B( 54-O , 85-H ) :   0.1020 B( 55-C , 96-H ) :   0.9589
B( 55-C , 97-H ) :   0.9491 B( 55-C , 98-H ) :   0.9575 B( 56-C , 57-C ) :   1.4761
B( 56-C , 99-H ) :   0.9235 B( 57-C , 58-C ) :   1.0797 B( 57-C , 70-C ) :   1.0602
B( 58-C , 59-C ) :   1.6151 B( 58-C , 64-C ) :   0.9838 B( 59-C , 60-C ) :   1.1351
B( 59-C , 62-C ) :   1.1661 B( 60-C , 61-N ) :   2.9807 B( 62-C , 63-N ) :   2.9392
B( 64-C , 65-C ) :   1.3178 B( 64-C , 69-C ) :   1.3720 B( 65-C , 66-C ) :   1.3998
B( 65-C , 70-C ) :   0.9995 B( 66-C , 67-C ) :   1.3553 B( 66-C ,100-H ) :   0.9748
B( 67-C , 68-C ) :   1.3771 B( 67-C ,101-H ) :   0.9891 B( 68-C , 69-C ) :   1.3625
B( 68-C ,102-H ) :   0.9882 B( 69-C ,103-H ) :   0.9808 B( 70-C , 71-C ) :   1.6251
B( 71-C , 72-C ) :   1.1502 B( 71-C , 74-C ) :   1.1641 B( 72-C , 73-N ) :   2.9933
B( 74-C , 75-N ) :   2.9814

-----------------------------------------------------------------------------
         ABSORPTION SPECTRUM VIA TRANSITION ELECTRIC DIPOLE MOMENTS
-----------------------------------------------------------------------------
State   Energy  Wavelength   fosc         T2         TX        TY        TZ
        (cm-1)    (nm)                  (au**2)     (au)      (au)      (au)
-----------------------------------------------------------------------------
   0    5612.8   1781.6   0.183956153  10.78971  -1.10753   0.85071  -2.97311
   1   10958.8    912.5   0.212457492   6.38240   0.92893   1.67422   1.64818
   2   12679.5    788.7   0.784324315  20.36434  -1.16797  -4.18453  -1.22062
   3   15854.7    630.7   0.047357028   0.98334   0.14913   0.90486  -0.37726
   4   17095.8    584.9   0.187742768   3.61534  -1.22792  -0.43171   1.38606
   5   17612.1    567.8   0.164131782   3.06802  -0.44587  -0.39454  -1.64729
   6   17996.1    555.7   0.018740265   0.34283   0.10558  -0.42544   0.38817
   7   18614.2    537.2   0.017862924   0.31592   0.30061   0.44577   0.16386
   8   18991.0    526.6   0.088382495   1.53212   0.12923   1.23101   0.00535
   9   20365.6    491.0   0.123459467   1.99573  -0.11728  -0.18204   1.39601
  10   21605.5    462.8   0.005084719   0.07748  -0.01777   0.09260  -0.26189
  11   21959.2    455.4   0.005520654   0.08277   0.11915   0.21625   0.14767
  12   22587.0    442.7   0.002668950   0.03890  -0.08211   0.13089   0.12258
  13   22722.3    440.1   0.040759340   0.59054  -0.23991  -0.68847  -0.24288
  14   23406.6    427.2   0.018924428   0.26617   0.28161  -0.03760   0.43064
  15   24143.5    414.2   0.038132812   0.51996   0.17768   0.67483  -0.18163
  16   24533.0    407.6   0.004788289   0.06425   0.22653  -0.10485  -0.04408
  17   25138.5    397.8   0.056560094   0.74071   0.44274  -0.00283   0.73803
  18   25528.4    391.7   0.070024675   0.90303   0.26011   0.57468  -0.71071
  19   25803.5    387.5   0.016141202   0.20594   0.31031   0.32315   0.07226
  20   26079.4    383.4   0.015866905   0.20029   0.15634   0.28131   0.31099
  21   26320.0    379.9   0.010329625   0.12920   0.12429  -0.33192   0.05988
  22   26676.4    374.9   0.028643111   0.35348   0.23343  -0.24822   0.48722
  23   27127.0    368.6   0.023125903   0.28065   0.05784  -0.48769  -0.19865
  24   27583.7    362.5   0.020269796   0.24192   0.02102  -0.48714   0.06456
  25   28558.8    350.2   0.040272358   0.46424  -0.46628  -0.21723   0.44681
  26   28890.1    346.1   0.140024679   1.59562  -0.93097  -0.35302  -0.77737
  27   29114.7    343.5   0.085261949   0.96409   0.03780   0.98115  -0.00384
  28   29436.0    339.7   0.117272171   1.31157  -0.34953   0.89943   0.61679
  29   29552.5    338.4   0.034377391   0.38296   0.11549   0.60230   0.08281
  30   29897.3    334.5   0.228997710   2.52159   0.83154   1.29492  -0.39155
  31   30185.6    331.3   0.047060635   0.51326  -0.26402   0.66576  -0.01769
  32   30345.9    329.5   0.161997871   1.75746   0.64894   1.15561  -0.02991
  33   30504.2    327.8   0.118795734   1.28209   1.00971   0.51001  -0.04964
  34   30734.7    325.4   0.101394633   1.08608   0.88352   0.53648  -0.13289
  35   31148.6    321.0   0.161573978   1.70769  -1.24913  -0.21990  -0.31465
  36   31421.8    318.3   0.143515032   1.50363   1.17462   0.35041   0.03322
  37   31482.2    317.6   0.125158768   1.30880   1.14359  -0.03079  -0.00684
  38   31692.3    315.5   0.081695091   0.84863   0.27507  -0.49236   0.72839
  39   32132.1    311.2   0.099982218   1.02438   0.81691   0.59235  -0.07845
  40   32252.7    310.1   0.191123330   1.95084   0.78555   0.34980  -1.10063
  41   32359.5    309.0   0.125490894   1.27669  -1.02316  -0.29504  -0.37787
  42   32542.3    307.3   0.064144653   0.64892   0.38782   0.70378  -0.05666
  43   32959.0    303.4   0.029959916   0.29926  -0.48878   0.11502  -0.21707
  44   33035.7    302.7   0.081058669   0.80778   0.53236   0.34692   0.63562
  45   33323.7    300.1   0.039396934   0.38921  -0.27098  -0.55691  -0.07507
  46   33469.3    298.8   0.090188223   0.88711   0.60498  -0.57521  -0.43617
  47   33929.9    294.7   0.004841007   0.04697  -0.05577   0.11087   0.17768
  48   33996.0    294.2   0.150697576   1.45933   0.02636  -0.03514  -1.20723
  49   34527.7    289.6   0.193500018   1.84497   0.13029   1.17357  -0.67137
  50   34621.0    288.8   0.026406021   0.25110   0.32522  -0.35699  -0.13373
  51   34697.6    288.2   0.020706500   0.19646   0.28081  -0.28418  -0.19197
  52   34970.8    286.0   0.031222782   0.29393   0.10573  -0.30188   0.43774
  53   35200.3    284.1   0.005203095   0.04866  -0.09259  -0.18719  -0.07108
  54   35401.0    282.5   0.200998476   1.86919   0.01296   1.08753  -0.82844
  55   35836.8    279.0   0.143685067   1.31995   0.10267  -0.79493  -0.82310
  56   35901.2    278.5   0.114308864   1.04821  -0.03072  -1.01166   0.15428
  57   36141.9    276.7   0.037853135   0.34480   0.01224  -0.17869  -0.55921
  58   36332.6    275.2   0.012179233   0.11036   0.12076  -0.30165  -0.06912
  59   36413.8    274.6   0.035215865   0.31838   0.06345  -0.52690   0.19166
  60   36720.2    272.3   0.047645790   0.42716  -0.05876  -0.52967   0.37836
  61   36856.8    271.3   0.004929521   0.04403   0.04547  -0.17895   0.09970
  62   37065.3    269.8   0.002739971   0.02434   0.13005  -0.02866   0.08126
  63   37248.0    268.5   0.132894028   1.17457   1.00814   0.22827  -0.32574
  64   37317.5    268.0   0.033206329   0.29294  -0.33610  -0.03760   0.42257
  65   37742.7    265.0   0.021913102   0.19114   0.37904  -0.14421   0.16331
  66   37998.6    263.2   0.019788322   0.17144  -0.28481   0.00089  -0.30054
  67   38033.8    262.9   0.169179668   1.46438  -0.25259  -0.71488   0.94315
  68   38085.3    262.6   0.031768403   0.27461   0.48949   0.17287   0.07158
  69   38358.3    260.7   0.225486319   1.93524   1.29764  -0.12054   0.48665
  70   38404.6    260.4   0.085744385   0.73502  -0.82369  -0.21826  -0.09445
  71   38476.2    259.9   0.015610391   0.13357  -0.22567  -0.19618   0.21012
  72   38702.9    258.4   0.013515704   0.11497  -0.26587  -0.14798   0.14961
  73   39146.3    255.5   0.139388505   1.17223  -0.39273   0.71466  -0.71221
  74   39366.0    254.0   0.037662593   0.31497  -0.48169  -0.28021  -0.06652
  75   39600.4    252.5   0.027638434   0.22977  -0.16878  -0.32991   0.30404
  76   39712.1    251.8   0.153102794   1.26922   0.43896   0.80279  -0.65732
  77   39968.8    250.2   0.063481373   0.52288   0.52819   0.39077  -0.30198
  78   40141.6    249.1   0.016727389   0.13719   0.36930   0.02285  -0.01675
  79   40266.0    248.3   0.006006579   0.04911   0.08589   0.20231   0.02833

FINAL SINGLE POINT ENERGY     -3976.849305722281

DIPOLE MOMENT
-------------
                                X             Y             Z
Electronic contribution:      6.98735       7.98480       1.83461
Nuclear contribution   :     -8.95705     -12.17183      -2.29912
                        -----------------------------------------
Total Dipole Moment    :     -1.96970      -4.18703      -0.46451
                        -----------------------------------------
Magnitude (a.u.)       :      4.65045
Magnitude (Debye)      :     11.82051

Rotational constants in cm-1:     0.001011     0.000875     0.000569
Rotational constants in MHz :    30.306097    26.237853    17.054763

                             ****ORCA TERMINATED NORMALLY****
TOTAL RUN TIME: 0 days 0 hours 21 minutes 55 seconds 589 msec
