                         Program Version 4.2.0 -  RELEASE  -
|  1> # ORCA input file
|  2> # SCF done       -197.993640926272          0.000756720464
|  3> ! CAM-B3LYP def2-SVP def2/J RIJCOSX Grid4 TightSCF
|  4> %maxcore 5000
|  5> %tddft
|  6>     Mode sTDDFT
|  7>     Ethresh 5.0
|  8>     maxcore 5000
|  9> end
| 10>
| 11> %pal
| 12>   nprocs 6
| 13>   end
| 14> * xyz 0 1
| 15>    C       -1.80218         5.14379         0.47144
| 16>    C       -2.69558         5.76941        -0.38731
| 17>    C       -3.69104         5.05141        -1.03197
| 18>    C       -3.82890         3.68518        -0.82999
| 19>    C       -2.94304         3.05192         0.02332
| 20>    C       -1.92092         3.77899         0.67370
| 21>    C       -1.12928         2.85607         1.48088
| 22>    C       -0.08547         3.20615         2.30265
| 23>    C        0.35120         4.53102         2.50726
| 24>    N        0.76155         5.58107         2.72617
| 25>    C        0.68455         2.31849         3.07930
| 26>    N        1.35849         1.65839         3.73666
| 27>    C       -1.63193         1.52197         1.21019
| 28>    C       -2.85899         1.66435         0.45466
| 29>    C       -3.88818         0.75384         0.41180
| 30>    C       -3.89055        -0.45086         1.14155
| 31>    N       -3.94569        -1.41632         1.76202
| 32>    C       -5.09820         0.96415        -0.27603
| 33>    N       -6.09534         1.06917        -0.83599
| 34>    C       -0.99232         0.35899         1.59139
| 35>    C       -1.05094        -0.92074         1.01295
| 36>    C       -0.54036        -2.01650         1.70296
| 37>    C       -0.52922        -3.31561         1.24378
| 38>    C       -1.12757        -3.66199        -0.04834
| 39>    C       -1.61588        -2.75941        -0.92694
| 40>    S       -1.63971        -1.07074        -0.64275
| 41>    C       -1.07412        -5.08222        -0.13318
| 42>    C       -0.47723        -5.60019         1.01450
| 43>    C       -0.40634        -7.01056         0.99105
| 44>    C       -0.94122        -7.51363        -0.15213
| 45>    S       -1.54515        -6.30609        -1.23874
| 46>    C       -0.08956        -4.51805         1.88467
| 47>    C        0.57429        -4.74385         3.08739
| 48>    C        1.19002        -3.82911         3.92404
| 49>    C        1.74350        -4.10357         5.16837
| 50>    C        1.71729        -5.27661         5.91561
| 51>    C        2.27269        -5.41904         7.20164
| 52>    C        2.09423        -6.65455         7.76908
| 53>    C        1.39326        -7.54973         6.94890
| 54>    S        0.96517        -6.78263         5.44313
| 55>    C        1.02692        -8.87052         7.19506
| 56>    C        1.19837        -9.63404         8.35922
| 57>    C        0.67255       -10.89516         8.26893
| 58>    C        0.07281       -11.18805         7.02622
| 59>    S        0.20377        -9.80410         5.96851
| 60>    C       -0.55399       -12.37818         6.70263
| 61>    C       -1.15102       -12.76154         5.49831
| 62>    C       -1.81589       -13.98856         5.39869
| 63>    C       -2.42672       -14.47303         4.26532
| 64>    C       -2.40671       -13.73502         3.00344
| 65>    C       -1.83778       -12.51877         2.85471
| 66>    S       -1.04858       -11.67141         4.12156
| 67>    C       -3.09719       -14.55645         2.07105
| 68>    C       -3.55158       -15.72314         2.69356
| 69>    C       -4.20835       -16.57544         1.77664
| 70>    C       -4.24232       -16.04312         0.52744
| 71>    S       -3.48451       -14.49347         0.40123
| 72>    C       -3.16394       -15.68762         4.08141
| 73>    C       -3.45006       -16.59404         5.09915
| 74>    C       -4.28956       -17.68459         5.01399
| 75>    C       -4.54387       -18.48591         6.12261
| 76>    C       -5.37213       -19.59459         6.18008
| 77>    C       -5.97919       -20.09657         7.39578
| 78>    C       -5.64405       -19.78332         8.69169
| 79>    C       -4.60411       -18.92058         9.08933
| 80>    N       -3.78091       -18.22878         9.49636
| 81>    C       -6.28962       -20.31345         9.82675
| 82>    N       -6.76651       -20.70136        10.79712
| 83>    C       -7.05559       -20.99631         6.99338
| 84>    C       -7.04070       -21.11934         5.58617
| 85>    C       -7.98313       -21.89655         4.93596
| 86>    C       -8.94191       -22.55111         5.69637
| 87>    C       -8.95248       -22.43954         7.07800
| 88>    C       -8.01104       -21.66435         7.74066
| 89>    C       -5.91278       -20.35198         5.07306
| 90>    C       -5.34937       -20.51085         3.82875
| 91>    C       -5.93059       -21.26279         2.78939
| 92>    N       -6.36410       -21.82597         1.88670
| 93>    C       -4.07211       -20.04286         3.46046
| 94>    N       -3.02122       -19.73910         3.10934
| 95>    H       -1.03500         5.71967         0.96211
| 96>    H       -2.60865         6.83208        -0.55510
| 97>    H       -4.36961         5.55878        -1.70062
| 98>    H       -4.60355         3.13508        -1.33934
| 99>    H       -0.28012         0.44384         2.40119
|100>    H       -0.19128        -1.80868         2.70351
|101>    H       -2.02929        -3.04141        -1.88223
|102>    H        0.00848        -7.62137         1.77237
|103>    H       -1.02399        -8.54286        -0.44194
|104>    H        0.63938        -5.78807         3.36045
|105>    H        1.29096        -2.80787         3.58789
|106>    H        2.24461        -3.27945         5.66160
|107>    H        2.78598        -4.60571         7.68371
|108>    H        2.45050        -6.92805         8.74566
|109>    H        1.68631        -9.24444         9.23430
|110>    H        0.69999       -11.61984         9.06311
|111>    H       -0.59443       -13.11043         7.49919
|112>    H       -1.84006       -14.58496         6.30048
|113>    H       -1.84627       -11.98115         1.92021
|114>    H       -4.61256       -17.54503         1.99737
|115>    H       -4.67232       -16.47432        -0.35530
|116>    H       -2.98010       -16.41491         6.05835
|117>    H       -4.81208       -17.86973         4.09048
|118>    H       -4.12078       -18.14452         7.05739
|119>    H       -7.98855       -21.98855         3.86197
|120>    H       -9.68828       -23.15391         5.20174
|121>    H       -9.70511       -22.95950         7.65100
|122>    H       -8.03696       -21.58882         8.81515
|123> *
|124>
|125>                          ****END OF INPUT****

CARTESIAN COORDINATES (ANGSTROEM)
---------------------------------
  C     -1.802180    5.143790    0.471440
  C     -2.695580    5.769410   -0.387310
  C     -3.691040    5.051410   -1.031970
  C     -3.828900    3.685180   -0.829990
  C     -2.943040    3.051920    0.023320
  C     -1.920920    3.778990    0.673700
  C     -1.129280    2.856070    1.480880
  C     -0.085470    3.206150    2.302650
  C      0.351200    4.531020    2.507260
  N      0.761550    5.581070    2.726170
  C      0.684550    2.318490    3.079300
  N      1.358490    1.658390    3.736660
  C     -1.631930    1.521970    1.210190
  C     -2.858990    1.664350    0.454660
  C     -3.888180    0.753840    0.411800
  C     -3.890550   -0.450860    1.141550
  N     -3.945690   -1.416320    1.762020
  C     -5.098200    0.964150   -0.276030
  N     -6.095340    1.069170   -0.835990
  C     -0.992320    0.358990    1.591390
  C     -1.050940   -0.920740    1.012950
  C     -0.540360   -2.016500    1.702960
  C     -0.529220   -3.315610    1.243780
  C     -1.127570   -3.661990   -0.048340
  C     -1.615880   -2.759410   -0.926940
  S     -1.639710   -1.070740   -0.642750
  C     -1.074120   -5.082220   -0.133180
  C     -0.477230   -5.600190    1.014500
  C     -0.406340   -7.010560    0.991050
  C     -0.941220   -7.513630   -0.152130
  S     -1.545150   -6.306090   -1.238740
  C     -0.089560   -4.518050    1.884670
  C      0.574290   -4.743850    3.087390
  C      1.190020   -3.829110    3.924040
  C      1.743500   -4.103570    5.168370
  C      1.717290   -5.276610    5.915610
  C      2.272690   -5.419040    7.201640
  C      2.094230   -6.654550    7.769080
  C      1.393260   -7.549730    6.948900
  S      0.965170   -6.782630    5.443130
  C      1.026920   -8.870520    7.195060
  C      1.198370   -9.634040    8.359220
  C      0.672550  -10.895160    8.268930
  C      0.072810  -11.188050    7.026220
  S      0.203770   -9.804100    5.968510
  C     -0.553990  -12.378180    6.702630
  C     -1.151020  -12.761540    5.498310
  C     -1.815890  -13.988560    5.398690
  C     -2.426720  -14.473030    4.265320
  C     -2.406710  -13.735020    3.003440
  C     -1.837780  -12.518770    2.854710
  S     -1.048580  -11.671410    4.121560
  C     -3.097190  -14.556450    2.071050
  C     -3.551580  -15.723140    2.693560
  C     -4.208350  -16.575440    1.776640
  C     -4.242320  -16.043120    0.527440
  S     -3.484510  -14.493470    0.401230
  C     -3.163940  -15.687620    4.081410
  C     -3.450060  -16.594040    5.099150
  C     -4.289560  -17.684590    5.013990
  C     -4.543870  -18.485910    6.122610
  C     -5.372130  -19.594590    6.180080
  C     -5.979190  -20.096570    7.395780
  C     -5.644050  -19.783320    8.691690
  C     -4.604110  -18.920580    9.089330
  N     -3.780910  -18.228780    9.496360
  C     -6.289620  -20.313450    9.826750
  N     -6.766510  -20.701360   10.797120
  C     -7.055590  -20.996310    6.993380
  C     -7.040700  -21.119340    5.586170
  C     -7.983130  -21.896550    4.935960
  C     -8.941910  -22.551110    5.696370
  C     -8.952480  -22.439540    7.078000
  C     -8.011040  -21.664350    7.740660
  C     -5.912780  -20.351980    5.073060
  C     -5.349370  -20.510850    3.828750
  C     -5.930590  -21.262790    2.789390
  N     -6.364100  -21.825970    1.886700
  C     -4.072110  -20.042860    3.460460
  N     -3.021220  -19.739100    3.109340
  H     -1.035000    5.719670    0.962110
  H     -2.608650    6.832080   -0.555100
  H     -4.369610    5.558780   -1.700620
  H     -4.603550    3.135080   -1.339340
  H     -0.280120    0.443840    2.401190
  H     -0.191280   -1.808680    2.703510
  H     -2.029290   -3.041410   -1.882230
  H      0.008480   -7.621370    1.772370
  H     -1.023990   -8.542860   -0.441940
  H      0.639380   -5.788070    3.360450
  H      1.290960   -2.807870    3.587890
  H      2.244610   -3.279450    5.661600
  H      2.785980   -4.605710    7.683710
  H      2.450500   -6.928050    8.745660
  H      1.686310   -9.244440    9.234300
  H      0.699990  -11.619840    9.063110
  H     -0.594430  -13.110430    7.499190
  H     -1.840060  -14.584960    6.300480
  H     -1.846270  -11.981150    1.920210
  H     -4.612560  -17.545030    1.997370
  H     -4.672320  -16.474320   -0.355300
  H     -2.980100  -16.414910    6.058350
  H     -4.812080  -17.869730    4.090480
  H     -4.120780  -18.144520    7.057390
  H     -7.988550  -21.988550    3.861970
  H     -9.688280  -23.153910    5.201740
  H     -9.705110  -22.959500    7.651000
  H     -8.036960  -21.588820    8.815150

 Total Charge           Charge          ....    0
 Multiplicity           Mult            ....    1
 Number of Electrons    NEL             ....  576
 Basis Dimension        Dim             .... 1284

ORBITAL ENERGIES
----------------

  NO   OCC          E(Eh)            E(eV)
   0   2.0000     -88.996908     -2421.7290
   1   2.0000     -88.987059     -2421.4610
   2   2.0000     -88.977015     -2421.1877
   3   2.0000     -88.976150     -2421.1641
   4   2.0000     -88.975889     -2421.1570
   5   2.0000     -88.965949     -2420.8865
   6   2.0000     -14.423440      -392.4817
   7   2.0000     -14.418124      -392.3371
   8   2.0000     -14.417053      -392.3080
   9   2.0000     -14.416627      -392.2964
  10   2.0000     -14.407456      -392.0468
  11   2.0000     -14.405284      -391.9877
  12   2.0000     -14.404096      -391.9554
  13   2.0000     -14.402563      -391.9137
  14   2.0000     -10.347837      -281.5790
  15   2.0000     -10.346453      -281.5413
  16   2.0000     -10.346147      -281.5330
  17   2.0000     -10.345796      -281.5234
  18   2.0000     -10.343361      -281.4572
  19   2.0000     -10.342385      -281.4306
  20   2.0000     -10.341635      -281.4102
  21   2.0000     -10.338823      -281.3337
  22   2.0000     -10.338447      -281.3234
  23   2.0000     -10.336742      -281.2771
  24   2.0000     -10.335883      -281.2537
  25   2.0000     -10.331903      -281.1454
  26   2.0000     -10.331065      -281.1226
  27   2.0000     -10.329329      -281.0753
  28   2.0000     -10.328766      -281.0600
  29   2.0000     -10.328197      -281.0445
  30   2.0000     -10.326759      -281.0054
  31   2.0000     -10.326473      -280.9976
  32   2.0000     -10.324173      -280.9350
  33   2.0000     -10.320790      -280.8430
  34   2.0000     -10.320342      -280.8308
  35   2.0000     -10.319445      -280.8064
  36   2.0000     -10.316387      -280.7232
  37   2.0000     -10.316117      -280.7158
  38   2.0000     -10.315193      -280.6907
  39   2.0000     -10.313806      -280.6529
  40   2.0000     -10.313579      -280.6468
  41   2.0000     -10.312937      -280.6293
  42   2.0000     -10.311872      -280.6003
  43   2.0000     -10.311789      -280.5980
  44   2.0000     -10.311683      -280.5952
  45   2.0000     -10.311411      -280.5878
  46   2.0000     -10.310097      -280.5520
  47   2.0000     -10.309062      -280.5238
  48   2.0000     -10.308997      -280.5221
  49   2.0000     -10.308943      -280.5206
  50   2.0000     -10.308685      -280.5136
  51   2.0000     -10.308362      -280.5048
  52   2.0000     -10.308153      -280.4991
  53   2.0000     -10.307267      -280.4750
  54   2.0000     -10.306684      -280.4591
  55   2.0000     -10.306326      -280.4494
  56   2.0000     -10.305447      -280.4255
  57   2.0000     -10.303916      -280.3838
  58   2.0000     -10.302900      -280.3562
  59   2.0000     -10.302518      -280.3458
  60   2.0000     -10.301035      -280.3054
  61   2.0000     -10.300512      -280.2912
  62   2.0000     -10.299444      -280.2621
  63   2.0000     -10.297790      -280.2171
  64   2.0000     -10.297480      -280.2087
  65   2.0000     -10.296909      -280.1931
  66   2.0000     -10.295592      -280.1573
  67   2.0000     -10.295457      -280.1536
  68   2.0000     -10.295372      -280.1513
  69   2.0000     -10.295059      -280.1428
  70   2.0000     -10.294108      -280.1169
  71   2.0000     -10.290716      -280.0246
  72   2.0000     -10.289246      -279.9846
  73   2.0000     -10.287607      -279.9400
  74   2.0000     -10.285169      -279.8737
  75   2.0000     -10.284976      -279.8684
  76   2.0000     -10.284611      -279.8585
  77   2.0000     -10.283783      -279.8359
  78   2.0000     -10.280677      -279.7515
  79   2.0000     -10.278122      -279.6819
  80   2.0000      -8.091908      -220.1920
  81   2.0000      -8.081896      -219.9196
  82   2.0000      -8.072612      -219.6669
  83   2.0000      -8.072183      -219.6553
  84   2.0000      -8.071521      -219.6372
  85   2.0000      -8.061542      -219.3657
  86   2.0000      -6.061323      -164.9370
  87   2.0000      -6.056800      -164.8139
  88   2.0000      -6.054082      -164.7399
  89   2.0000      -6.051518      -164.6702
  90   2.0000      -6.046938      -164.5455
  91   2.0000      -6.043680      -164.4569
  92   2.0000      -6.042060      -164.4128
  93   2.0000      -6.041854      -164.4072
  94   2.0000      -6.041126      -164.3874
  95   2.0000      -6.037740      -164.2953
  96   2.0000      -6.037587      -164.2911
  97   2.0000      -6.037010      -164.2754
  98   2.0000      -6.034596      -164.2097
  99   2.0000      -6.033403      -164.1772
 100   2.0000      -6.032884      -164.1631
 101   2.0000      -6.030936      -164.1101
 102   2.0000      -6.026711      -163.9952
 103   2.0000      -6.023588      -163.9102
 104   2.0000      -1.034653       -28.1543
 105   2.0000      -1.026290       -27.9268
 106   2.0000      -1.025185       -27.8967
 107   2.0000      -1.020202       -27.7611
 108   2.0000      -1.017678       -27.6924
 109   2.0000      -1.016742       -27.6670
 110   2.0000      -1.005450       -27.3597
 111   2.0000      -1.002868       -27.2894
 112   2.0000      -1.002541       -27.2805
 113   2.0000      -0.998363       -27.1668
 114   2.0000      -0.997294       -27.1378
 115   2.0000      -0.991737       -26.9865
 116   2.0000      -0.988563       -26.9002
 117   2.0000      -0.986037       -26.8314
 118   2.0000      -0.983578       -26.7645
 119   2.0000      -0.983380       -26.7591
 120   2.0000      -0.958036       -26.0695
 121   2.0000      -0.947979       -25.7958
 122   2.0000      -0.946423       -25.7535
 123   2.0000      -0.942033       -25.6340
 124   2.0000      -0.936802       -25.4917
 125   2.0000      -0.929419       -25.2908
 126   2.0000      -0.923268       -25.1234
 127   2.0000      -0.921771       -25.0827
 128   2.0000      -0.914199       -24.8766
 129   2.0000      -0.905787       -24.6477
 130   2.0000      -0.892521       -24.2867
 131   2.0000      -0.890601       -24.2345
 132   2.0000      -0.877423       -23.8759
 133   2.0000      -0.872909       -23.7531
 134   2.0000      -0.871639       -23.7185
 135   2.0000      -0.870726       -23.6937
 136   2.0000      -0.863815       -23.5056
 137   2.0000      -0.863178       -23.4883
 138   2.0000      -0.852573       -23.1997
 139   2.0000      -0.850270       -23.1370
 140   2.0000      -0.847703       -23.0672
 141   2.0000      -0.838507       -22.8169
 142   2.0000      -0.829155       -22.5624
 143   2.0000      -0.826449       -22.4888
 144   2.0000      -0.813230       -22.1291
 145   2.0000      -0.805239       -21.9117
 146   2.0000      -0.795356       -21.6427
 147   2.0000      -0.788635       -21.4599
 148   2.0000      -0.781621       -21.2690
 149   2.0000      -0.774644       -21.0791
 150   2.0000      -0.767915       -20.8960
 151   2.0000      -0.757077       -20.6011
 152   2.0000      -0.737939       -20.0803
 153   2.0000      -0.733732       -19.9659
 154   2.0000      -0.730243       -19.8709
 155   2.0000      -0.714849       -19.4520
 156   2.0000      -0.710282       -19.3278
 157   2.0000      -0.709495       -19.3064
 158   2.0000      -0.699979       -19.0474
 159   2.0000      -0.699957       -19.0468
 160   2.0000      -0.697517       -18.9804
 161   2.0000      -0.692879       -18.8542
 162   2.0000      -0.683591       -18.6015
 163   2.0000      -0.676020       -18.3954
 164   2.0000      -0.668697       -18.1962
 165   2.0000      -0.665971       -18.1220
 166   2.0000      -0.664034       -18.0693
 167   2.0000      -0.661272       -17.9941
 168   2.0000      -0.661042       -17.9879
 169   2.0000      -0.653280       -17.7767
 170   2.0000      -0.651482       -17.7277
 171   2.0000      -0.649399       -17.6711
 172   2.0000      -0.645189       -17.5565
 173   2.0000      -0.642912       -17.4945
 174   2.0000      -0.632715       -17.2171
 175   2.0000      -0.631554       -17.1855
 176   2.0000      -0.627799       -17.0833
 177   2.0000      -0.617162       -16.7938
 178   2.0000      -0.615242       -16.7416
 179   2.0000      -0.611082       -16.6284
 180   2.0000      -0.602955       -16.4072
 181   2.0000      -0.593718       -16.1559
 182   2.0000      -0.592287       -16.1170
 183   2.0000      -0.588011       -16.0006
 184   2.0000      -0.582309       -15.8454
 185   2.0000      -0.576916       -15.6987
 186   2.0000      -0.574716       -15.6388
 187   2.0000      -0.573480       -15.6052
 188   2.0000      -0.568309       -15.4645
 189   2.0000      -0.565548       -15.3893
 190   2.0000      -0.557579       -15.1725
 191   2.0000      -0.555667       -15.1205
 192   2.0000      -0.554169       -15.0797
 193   2.0000      -0.548607       -14.9283
 194   2.0000      -0.543411       -14.7870
 195   2.0000      -0.538267       -14.6470
 196   2.0000      -0.536154       -14.5895
 197   2.0000      -0.533444       -14.5157
 198   2.0000      -0.532982       -14.5032
 199   2.0000      -0.531702       -14.4683
 200   2.0000      -0.530533       -14.4365
 201   2.0000      -0.529484       -14.4080
 202   2.0000      -0.528987       -14.3945
 203   2.0000      -0.525484       -14.2992
 204   2.0000      -0.523073       -14.2335
 205   2.0000      -0.521883       -14.2012
 206   2.0000      -0.520664       -14.1680
 207   2.0000      -0.516224       -14.0472
 208   2.0000      -0.514010       -13.9869
 209   2.0000      -0.511674       -13.9234
 210   2.0000      -0.510703       -13.8969
 211   2.0000      -0.508676       -13.8418
 212   2.0000      -0.505569       -13.7572
 213   2.0000      -0.502765       -13.6809
 214   2.0000      -0.497030       -13.5249
 215   2.0000      -0.494283       -13.4501
 216   2.0000      -0.491342       -13.3701
 217   2.0000      -0.491265       -13.3680
 218   2.0000      -0.487416       -13.2633
 219   2.0000      -0.482613       -13.1326
 220   2.0000      -0.480554       -13.0765
 221   2.0000      -0.477480       -12.9929
 222   2.0000      -0.476108       -12.9556
 223   2.0000      -0.475328       -12.9343
 224   2.0000      -0.470773       -12.8104
 225   2.0000      -0.467747       -12.7280
 226   2.0000      -0.462974       -12.5982
 227   2.0000      -0.462115       -12.5748
 228   2.0000      -0.459153       -12.4942
 229   2.0000      -0.458860       -12.4862
 230   2.0000      -0.455739       -12.4013
 231   2.0000      -0.454801       -12.3758
 232   2.0000      -0.454252       -12.3608
 233   2.0000      -0.451489       -12.2856
 234   2.0000      -0.450972       -12.2716
 235   2.0000      -0.449121       -12.2212
 236   2.0000      -0.447319       -12.1722
 237   2.0000      -0.447224       -12.1696
 238   2.0000      -0.445110       -12.1121
 239   2.0000      -0.444927       -12.1071
 240   2.0000      -0.444144       -12.0858
 241   2.0000      -0.442938       -12.0529
 242   2.0000      -0.441379       -12.0105
 243   2.0000      -0.441244       -12.0069
 244   2.0000      -0.439549       -11.9607
 245   2.0000      -0.437611       -11.9080
 246   2.0000      -0.435353       -11.8466
 247   2.0000      -0.433471       -11.7953
 248   2.0000      -0.432112       -11.7584
 249   2.0000      -0.431732       -11.7480
 250   2.0000      -0.431658       -11.7460
 251   2.0000      -0.429072       -11.6757
 252   2.0000      -0.428450       -11.6587
 253   2.0000      -0.426394       -11.6028
 254   2.0000      -0.424264       -11.5448
 255   2.0000      -0.422182       -11.4882
 256   2.0000      -0.421931       -11.4813
 257   2.0000      -0.417452       -11.3595
 258   2.0000      -0.415871       -11.3164
 259   2.0000      -0.415039       -11.2938
 260   2.0000      -0.412718       -11.2306
 261   2.0000      -0.410338       -11.1659
 262   2.0000      -0.410014       -11.1570
 263   2.0000      -0.407622       -11.0920
 264   2.0000      -0.404753       -11.0139
 265   2.0000      -0.399660       -10.8753
 266   2.0000      -0.398164       -10.8346
 267   2.0000      -0.395663       -10.7665
 268   2.0000      -0.382661       -10.4127
 269   2.0000      -0.382109       -10.3977
 270   2.0000      -0.376862       -10.2549
 271   2.0000      -0.369097       -10.0436
 272   2.0000      -0.361156        -9.8276
 273   2.0000      -0.356738        -9.7073
 274   2.0000      -0.351308        -9.5596
 275   2.0000      -0.346709        -9.4344
 276   2.0000      -0.342839        -9.3291
 277   2.0000      -0.331223        -9.0130
 278   2.0000      -0.329295        -8.9606
 279   2.0000      -0.319478        -8.6934
 280   2.0000      -0.318161        -8.6576
 281   2.0000      -0.311164        -8.4672
 282   2.0000      -0.298427        -8.1206
 283   2.0000      -0.293765        -7.9938
 284   2.0000      -0.286086        -7.7848
 285   2.0000      -0.271061        -7.3759
 286   2.0000      -0.245792        -6.6883
 287   2.0000      -0.215675        -5.8688
 288   0.0000      -0.137534        -3.7425
 289   0.0000      -0.101686        -2.7670
 290   0.0000      -0.086897        -2.3646
 291   0.0000      -0.075236        -2.0473
 292   0.0000      -0.073053        -1.9879

MULLIKEN ATOMIC CHARGES
-----------------------
   0 C :   -0.037007
   1 C :    0.043749
   2 C :    0.047672
   3 C :   -0.035540
   4 C :    0.005405
   5 C :    0.010752
   6 C :    0.310347
   7 C :   -0.356129
   8 C :   -0.190022
   9 N :    0.156000
  10 C :   -0.176017
  11 N :    0.134306
  12 C :   -0.065633
  13 C :    0.231190
  14 C :   -0.332935
  15 C :   -0.208431
  16 N :    0.170710
  17 C :   -0.180103
  18 N :    0.154608
  19 C :    0.000000
  20 C :   -0.098373
  21 C :   -0.016436
  22 C :    0.067416
  23 C :    0.069930
  24 C :   -0.114930
  25 S :    0.148788
  26 C :   -0.086052
  27 C :    0.033915
  28 C :    0.018687
  29 C :   -0.069027
  30 S :    0.150703
  31 C :    0.124121
  32 C :   -0.042488
  33 C :    0.004078
  34 C :    0.014838
  35 C :   -0.030902
  36 C :    0.043486
  37 C :    0.022406
  38 C :   -0.021401
  39 S :    0.066010
  40 C :   -0.028251
  41 C :    0.036063
  42 C :    0.031896
  43 C :   -0.024211
  44 S :    0.078656
  45 C :   -0.024882
  46 C :   -0.024655
  47 C :   -0.066443
  48 C :    0.102502
  49 C :    0.062063
  50 C :   -0.107450
  51 S :    0.118839
  52 C :   -0.116635
  53 C :    0.066725
  54 C :    0.012306
  55 C :   -0.059211
  56 S :    0.132070
  57 C :    0.113311
  58 C :   -0.026219
  59 C :    0.003471
  60 C :    0.020371
  61 C :   -0.068287
  62 C :    0.317703
  63 C :   -0.362285
  64 C :   -0.180370
  65 N :    0.127333
  66 C :   -0.192750
  67 N :    0.148769
  68 C :    0.004293
  69 C :    0.005689
  70 C :   -0.040300
  71 C :    0.046982
  72 C :    0.044366
  73 C :   -0.038785
  74 C :    0.257515
  75 C :   -0.359255
  76 C :   -0.184644
  77 N :    0.143753
  78 C :   -0.224230
  79 N :    0.172741
  80 H :    0.004197
  81 H :    0.002815
  82 H :    0.002798
  83 H :    0.004325
  84 H :    0.019909
  85 H :   -0.002032
  86 H :    0.042460
  87 H :   -0.009419
  88 H :    0.029118
  89 H :   -0.008695
  90 H :   -0.000177
  91 H :    0.000990
  92 H :   -0.000349
  93 H :   -0.005831
  94 H :   -0.004043
  95 H :    0.000794
  96 H :    0.005929
  97 H :   -0.007171
  98 H :    0.037198
  99 H :   -0.003427
 100 H :    0.033305
 101 H :   -0.011384
 102 H :   -0.016006
 103 H :   -0.002343
 104 H :    0.002420
 105 H :   -0.002044
 106 H :   -0.002264
 107 H :    0.002677
Sum of atomic charges:   -0.0000000

LOEWDIN ATOMIC CHARGES
----------------------
   0 C :    0.003978
   1 C :   -0.002504
   2 C :    0.002895
   3 C :   -0.001724
   4 C :   -0.008664
   5 C :   -0.015392
   6 C :    0.080092
   7 C :   -0.142692
   8 C :   -0.019653
   9 N :   -0.052466
  10 C :   -0.017493
  11 N :   -0.061094
  12 C :   -0.077707
  13 C :    0.053675
  14 C :   -0.145469
  15 C :   -0.036386
  16 N :   -0.055417
  17 C :   -0.020433
  18 N :   -0.051744
  19 C :    0.026388
  20 C :   -0.180357
  21 C :    0.038406
  22 C :   -0.028228
  23 C :   -0.050187
  24 C :   -0.125781
  25 S :    0.483824
  26 C :   -0.178149
  27 C :   -0.044441
  28 C :   -0.057657
  29 C :   -0.160953
  30 S :    0.439909
  31 C :   -0.003627
  32 C :   -0.022999
  33 C :   -0.024298
  34 C :   -0.038875
  35 C :   -0.144905
  36 C :   -0.018050
  37 C :   -0.038290
  38 C :   -0.166071
  39 S :    0.410794
  40 C :   -0.179140
  41 C :   -0.025305
  42 C :   -0.030034
  43 C :   -0.144747
  44 S :    0.386953
  45 C :   -0.077307
  46 C :   -0.149458
  47 C :   -0.018507
  48 C :    0.016030
  49 C :   -0.043914
  50 C :   -0.147962
  51 S :    0.467295
  52 C :   -0.202515
  53 C :   -0.025878
  54 C :   -0.054125
  55 C :   -0.153763
  56 S :    0.427784
  57 C :   -0.059671
  58 C :    0.047633
  59 C :   -0.047419
  60 C :    0.054144
  61 C :   -0.086569
  62 C :    0.079574
  63 C :   -0.151358
  64 C :   -0.018087
  65 N :   -0.068721
  66 C :   -0.019844
  67 N :   -0.062611
  68 C :   -0.013425
  69 C :   -0.010330
  70 C :   -0.003025
  71 C :   -0.001931
  72 C :   -0.004561
  73 C :    0.001145
  74 C :    0.071987
  75 C :   -0.152450
  76 C :   -0.021274
  77 N :   -0.062589
  78 C :   -0.026495
  79 N :   -0.056602
  80 H :    0.040941
  81 H :    0.036810
  82 H :    0.036785
  83 H :    0.040190
  84 H :    0.047698
  85 H :    0.043668
  86 H :    0.039828
  87 H :    0.032355
  88 H :    0.024449
  89 H :    0.012636
  90 H :    0.033536
  91 H :    0.042388
  92 H :    0.038650
  93 H :    0.035395
  94 H :    0.036659
  95 H :    0.038499
  96 H :    0.045881
  97 H :    0.041040
  98 H :    0.037169
  99 H :    0.033881
 100 H :    0.027814
 101 H :    0.034517
 102 H :    0.027454
 103 H :    0.041216
 104 H :    0.039465
 105 H :    0.034832
 106 H :    0.034864
 107 H :    0.040189

  Mayer bond orders larger than 0.100000
B(  0-C ,  1-C ) :   1.3634 B(  0-C ,  5-C ) :   1.3879 B(  0-C , 80-H ) :   0.9836
B(  1-C ,  2-C ) :   1.3852 B(  1-C , 81-H ) :   0.9854 B(  2-C ,  3-C ) :   1.3561
B(  2-C , 82-H ) :   0.9868 B(  3-C ,  4-C ) :   1.3903 B(  3-C , 83-H ) :   0.9870
B(  4-C ,  5-C ) :   1.3148 B(  4-C , 13-C ) :   1.0051 B(  5-C ,  6-C ) :   0.9910
B(  6-C ,  7-C ) :   1.6028 B(  6-C , 12-C ) :   1.1029 B(  7-C ,  8-C ) :   1.1532
B(  7-C , 10-C ) :   1.1467 B(  8-C ,  9-N ) :   2.9717 B( 10-C , 11-N ) :   2.9475
B( 12-C , 13-C ) :   1.0578 B( 12-C , 19-C ) :   1.4451 B( 13-C , 14-C ) :   1.6089
B( 14-C , 15-C ) :   1.1546 B( 14-C , 17-C ) :   1.1520 B( 15-C , 16-N ) :   3.0161
B( 17-C , 18-N ) :   2.9868 B( 19-C , 20-C ) :   1.2663 B( 19-C , 84-H ) :   0.9359
B( 20-C , 21-C ) :   1.3739 B( 20-C , 25-S ) :   1.0451 B( 21-C , 22-C ) :   1.3098
B( 21-C , 85-H ) :   0.9800 B( 22-C , 23-C ) :   1.0577 B( 22-C , 31-C ) :   1.2426
B( 23-C , 24-C ) :   1.5959 B( 23-C , 26-C ) :   1.1753 B( 24-C , 25-S ) :   1.1539
B( 24-C , 86-H ) :   0.9421 B( 26-C , 27-C ) :   1.4278 B( 26-C , 30-S ) :   1.0975
B( 27-C , 28-C ) :   1.2180 B( 27-C , 31-C ) :   1.1117 B( 28-C , 29-C ) :   1.5961
B( 28-C , 87-H ) :   0.9941 B( 29-C , 30-S ) :   1.1455 B( 29-C , 88-H ) :   0.9667
B( 31-C , 32-C ) :   1.3122 B( 32-C , 33-C ) :   1.4418 B( 32-C , 89-H ) :   0.9316
B( 33-C , 34-C ) :   1.3076 B( 33-C , 90-H ) :   0.9687 B( 34-C , 35-C ) :   1.4574
B( 34-C , 91-H ) :   0.9621 B( 35-C , 36-C ) :   1.2082 B( 35-C , 39-S ) :   1.0562
B( 36-C , 37-C ) :   1.5237 B( 36-C , 92-H ) :   0.9995 B( 37-C , 38-C ) :   1.2388
B( 37-C , 93-H ) :   0.9952 B( 38-C , 39-S ) :   1.0656 B( 38-C , 40-C ) :   1.4228
B( 40-C , 41-C ) :   1.2349 B( 40-C , 44-S ) :   1.0500 B( 41-C , 42-C ) :   1.5381
B( 41-C , 94-H ) :   0.9941 B( 42-C , 43-C ) :   1.1924 B( 42-C , 95-H ) :   1.0012
B( 43-C , 44-S ) :   1.0581 B( 43-C , 45-C ) :   1.4628 B( 45-C , 46-C ) :   1.2530
B( 45-C , 96-H ) :   0.9745 B( 46-C , 47-C ) :   1.3729 B( 46-C , 51-S ) :   1.0615
B( 47-C , 48-C ) :   1.3347 B( 47-C , 97-H ) :   0.9779 B( 48-C , 49-C ) :   1.0681
B( 48-C , 57-C ) :   1.2325 B( 49-C , 50-C ) :   1.5881 B( 49-C , 52-C ) :   1.1770
B( 50-C , 51-S ) :   1.1468 B( 50-C , 98-H ) :   0.9388 B( 52-C , 53-C ) :   1.4419
B( 52-C , 56-S ) :   1.0834 B( 53-C , 54-C ) :   1.2220 B( 53-C , 57-C ) :   1.0747
B( 54-C , 55-C ) :   1.5891 B( 54-C , 99-H ) :   0.9972 B( 55-C , 56-S ) :   1.1524
B( 55-C ,100-H ) :   0.9638 B( 57-C , 58-C ) :   1.2656 B( 58-C , 59-C ) :   1.4340
B( 58-C ,101-H ) :   0.9728 B( 59-C , 60-C ) :   1.3024 B( 59-C ,102-H ) :   0.9758
B( 60-C , 61-C ) :   1.3901 B( 60-C ,103-H ) :   0.9477 B( 61-C , 62-C ) :   1.1063
B( 61-C , 74-C ) :   1.0805 B( 62-C , 63-C ) :   1.5841 B( 62-C , 68-C ) :   0.9862
B( 63-C , 64-C ) :   1.1501 B( 63-C , 66-C ) :   1.1522 B( 64-C , 65-N ) :   2.9542
B( 66-C , 67-N ) :   2.9715 B( 68-C , 69-C ) :   1.3173 B( 68-C , 73-C ) :   1.3938
B( 69-C , 70-C ) :   1.3915 B( 69-C , 74-C ) :   1.0024 B( 70-C , 71-C ) :   1.3561
B( 70-C ,104-H ) :   0.9845 B( 71-C , 72-C ) :   1.3884 B( 71-C ,105-H ) :   0.9858
B( 72-C , 73-C ) :   1.3597 B( 72-C ,106-H ) :   0.9855 B( 73-C ,107-H ) :   0.9827
B( 74-C , 75-C ) :   1.5844 B( 75-C , 76-C ) :   1.1434 B( 75-C , 78-C ) :   1.1683
B( 76-C , 77-N ) :   2.9809 B( 78-C , 79-N ) :   2.9949

-----------------------------------------------------------------------------
         ABSORPTION SPECTRUM VIA TRANSITION ELECTRIC DIPOLE MOMENTS
-----------------------------------------------------------------------------
State   Energy  Wavelength   fosc         T2         TX        TY        TZ
        (cm-1)    (nm)                  (au**2)     (au)      (au)      (au)
-----------------------------------------------------------------------------
   0    5444.5   1836.7   1.115699279  67.46306   1.02687   7.87656  -2.09007
   1   11899.0    840.4   0.022683735   0.62760   0.08495  -0.68868   0.38222
   2   12613.7    792.8   0.543855973  14.19437  -3.29753  -1.44891  -1.10514
   3   16259.6    615.0   0.034344622   0.69538   0.79901  -0.21482   0.10402
   4   16322.8    612.6   0.068898688   1.38961   0.40920   1.02122   0.42340
   5   17682.4    565.5   0.169767855   3.16075  -0.33804  -1.71874  -0.30398
   6   18181.3    550.0   0.074266702   1.34476  -0.10846   0.12960   1.14726
   7   19026.9    525.6   0.109542544   1.89535   0.43418   0.36584   1.25419
   8   20524.6    487.2   0.061826617   0.99169   0.39393   0.85090  -0.33537
   9   20887.2    478.8   0.057250681   0.90235   0.30766   0.39798   0.80580
  10   21537.0    464.3   0.144374193   2.20688   0.24521   0.73640  -1.26668
  11   22245.0    449.5   0.057391094   0.84935  -0.05698  -0.59116   0.70473
  12   23501.3    425.5   0.035770928   0.50109   0.22329   0.31649  -0.59251
  13   23731.4    421.4   0.084074511   1.16632   0.01527   0.71455  -0.80963
  14   23942.8    417.7   0.325262430   4.47234  -0.19522  -0.27643  -2.08754
  15   24523.9    407.8   0.080957916   1.08679   0.67639   0.75401   0.24649
  16   25418.3    393.4   0.083508702   1.08159   0.23586  -0.72888   0.70335
  17   25940.6    385.5   0.037149746   0.47147   0.12849   0.67437   0.01334
  18   26544.9    376.7   0.108330119   1.34352   0.07386  -0.31960  -1.11172
  19   26810.0    373.0   0.052797640   0.64833  -0.22888   0.61388  -0.46807
  20   27437.6    364.5   0.085537038   1.02632   0.69815   0.66851   0.30333
  21   27960.4    357.6   0.439167632   5.17086   1.03705   0.80420   1.85705
  22   28608.7    349.5   0.033471996   0.38518  -0.07184  -0.06579   0.61293
  23   28687.1    348.6   0.273575825   3.13954  -0.96812  -1.47551  -0.15865
  24   28825.2    346.9   0.005996303   0.06848   0.21491  -0.01695   0.14836
  25   29023.0    344.6   0.084746486   0.96129  -0.61402  -0.69045  -0.32795
  26   29335.5    340.9   0.078965380   0.88617  -0.43109  -0.36416  -0.75347
  27   29722.1    336.4   0.076136589   0.84331   0.48444   0.75790   0.18500
  28   29751.3    336.1   0.096399024   1.06670   0.25378   0.49355   0.87104
  29   30385.6    329.1   0.010004540   0.10839   0.11742   0.10440  -0.28932
  30   30440.2    328.5   0.099825281   1.07961   0.63653  -0.79206   0.21699
  31   30774.3    324.9   0.039256886   0.41996   0.07052   0.52597   0.37193
  32   31332.5    319.2   0.018613903   0.19558  -0.08643  -0.20538  -0.38200
  33   31446.3    318.0   0.302888901   3.17095   1.11727   1.10403  -0.83892
  34   31525.5    317.2   0.693945078   7.24667  -0.50016  -1.10114  -2.40499
  35   31940.4    313.1   0.018554141   0.19124   0.21079   0.13744   0.35765
  36   32142.5    311.1   0.042238065   0.43261   0.21056   0.48651   0.38934
  37   32576.9    307.0   0.031320875   0.31652  -0.11869   0.33928  -0.43281
  38   32943.2    303.6   0.266211336   2.66034   1.33679   0.26506   0.89614
  39   33148.6    301.7   0.036702844   0.36451   0.55651  -0.18391   0.14484
  40   33220.7    301.0   0.073473736   0.72811   0.31528  -0.08735  -0.78809
  41   33302.8    300.3   0.142297601   1.40667  -0.75102   0.58961  -0.70356
  42   33663.4    297.1   0.077424796   0.75718  -0.70994  -0.48034  -0.14976
  43   34099.5    293.3   0.008267308   0.07982   0.01775  -0.06101  -0.27528
  44   34371.7    290.9   0.260256254   2.49273   0.37349  -1.40301   0.62032
  45   34785.5    287.5   0.072978305   0.69067  -0.38144  -0.73366   0.08314
  46   34942.1    286.2   0.037332951   0.35174   0.56523  -0.06425   0.16771
  47   35608.3    280.8   0.022369547   0.20682   0.21560  -0.08287  -0.39174
  48   35629.2    280.7   0.074426157   0.68769  -0.18123   0.36054  -0.72447
  49   35769.6    279.6   0.140261965   1.29093   0.81056   0.79168  -0.08459
  50   36171.4    276.5   0.486978105   4.43220   1.36953   1.57280  -0.28788
  51   36327.9    275.3   0.042441773   0.38462  -0.21656   0.49483   0.30474
  52   36693.2    272.5   0.006113191   0.05485   0.10020   0.11952  -0.17471
  53   36879.7    271.2   0.057225199   0.51083  -0.11673  -0.45067  -0.54231
  54   36910.0    270.9   0.011833174   0.10554  -0.04934   0.08767   0.30891
  55   37082.7    269.7   0.043643518   0.38746   0.37476  -0.47455  -0.14768
  56   37260.3    268.4   0.017537052   0.15495   0.05917   0.38477   0.05828
  57   37596.1    266.0   0.032024860   0.28043   0.01244  -0.52326   0.08042
  58   37820.2    264.4   0.000126357   0.00110   0.03199   0.00047  -0.00874
  59   37843.8    264.2   0.007946198   0.06913   0.09122  -0.23238  -0.08250
  60   38085.0    262.6   0.058293074   0.50389  -0.10868   0.49125   0.50076
  61   38649.7    258.7   0.059424923   0.50617   0.10346  -0.65601   0.25519
  62   38815.6    257.6   0.163687001   1.38830  -0.60061  -0.57089  -0.83764
  63   39108.6    255.7   0.048098790   0.40489  -0.13335   0.59151   0.19295
  64   39204.3    255.1   0.219393372   1.84232   0.16392   1.29504  -0.37190
  65   39262.5    254.7   0.072314504   0.60635  -0.40769   0.65511  -0.10477
  66   39546.5    252.9   0.010463346   0.08710   0.06522   0.17397  -0.22931
  67   39700.6    251.9   0.176628621   1.46467   1.03484   0.32208   0.53855
  68   39974.6    250.2   0.002944146   0.02425   0.00966  -0.12137   0.09707
  69   40074.2    249.5   0.075250402   0.61819   0.19044  -0.62762   0.43360
  70   40306.0    248.1   0.088574173   0.72346   0.45960   0.30952   0.64531

FINAL SINGLE POINT ENERGY     -5354.178498303881

DIPOLE MOMENT
-------------
                                X             Y             Z
Electronic contribution:      1.04821      10.73284     -13.27494
Nuclear contribution   :      0.94737      -7.83960      11.82341
                        -----------------------------------------
Total Dipole Moment    :      1.99558       2.89323      -1.45153
                        -----------------------------------------
Magnitude (a.u.)       :      3.80264
Magnitude (Debye)      :      9.66554

Rotational constants in cm-1:     0.001363     0.000180     0.000170
Rotational constants in MHz :    40.858357     5.392967     5.092615

                             ****ORCA TERMINATED NORMALLY****
TOTAL RUN TIME: 0 days 0 hours 33 minutes 34 seconds 864 msec
