                         Program Version 4.2.0 -  RELEASE  -
|  1> # ORCA input file
|  2> # SCF done       -148.387209323635          0.000755867834
|  3> ! CAM-B3LYP def2-SVP def2/J RIJCOSX Grid4 TightSCF
|  4> %maxcore 5000
|  5> %tddft
|  6>     Mode sTDDFT
|  7>     Ethresh 5.0
|  8>     maxcore 5000
|  9> end
| 10>
| 11> %pal
| 12>   nprocs 6
| 13>   end
| 14> * xyz 0 1
| 15>    C       -3.60796         3.32434        -0.87643
| 16>    C       -4.25029         3.92036        -1.95207
| 17>    C       -5.33228         3.30947        -2.56864
| 18>    C       -5.81032         2.08672        -2.12064
| 19>    C       -5.17616         1.48240        -1.04863
| 20>    C       -4.06679         2.09715        -0.42536
| 21>    C       -3.58738         1.23047         0.64515
| 22>    C       -2.58088         1.53308         1.52780
| 23>    C       -1.86979         2.75096         1.53310
| 24>    N       -1.24766         3.71379         1.59832
| 25>    C       -2.12957         0.70006         2.57040
| 26>    N       -1.71428         0.06974         3.43736
| 27>    C       -4.35950         0.00058         0.56759
| 28>    C       -5.46233         0.24034        -0.34703
| 29>    C       -6.66827        -0.41285        -0.34338
| 30>    C       -7.00927        -1.40634         0.59594
| 31>    N       -7.34674        -2.17735         1.37688
| 32>    C       -7.73752        -0.09671        -1.20440
| 33>    N       -8.63123         0.10359        -1.89668
| 34>    C       -4.00928        -1.17331         1.18881
| 35>    C       -4.36348        -2.49067         0.85027
| 36>    N       -4.05854        -3.53006         1.69234
| 37>    C       -4.38025        -4.71211         1.11433
| 38>    C       -4.87664        -4.43764        -0.16798
| 39>    C       -4.87527        -3.06658        -0.32599
| 40>    C       -4.20666        -5.94705         1.72245
| 41>    C       -4.05788        -7.04585         2.21777
| 42>    C       -3.88603        -8.32507         2.72802
| 43>    N       -3.46554        -8.58315         4.00181
| 44>    C       -3.37640        -9.93206         4.18523
| 45>    C       -3.75313       -10.55021         2.99439
| 46>    C       -4.07385        -9.54811         2.08647
| 47>    C       -2.96994       -10.52622         5.37419
| 48>    C       -2.62116       -11.09987         6.38528
| 49>    C       -2.20812       -11.79910         7.51311
| 50>    N       -2.13236       -11.25475         8.75627
| 51>    C       -1.69898       -12.20335         9.64436
| 52>    C       -1.48348       -13.38560         8.92712
| 53>    C       -1.80295       -13.13458         7.60301
| 54>    C       -1.54031       -11.96608        10.99232
| 55>    C       -1.39377       -11.83703        12.19714
| 56>    C       -1.20142       -11.59118        13.53446
| 57>    C       -0.64012       -12.45608        14.43784
| 58>    C       -0.16187       -12.07482        15.75816
| 59>    C       -0.54900       -10.98515        16.49247
| 60>    C       -1.53085       -10.05442        16.09311
| 61>    N       -2.32382        -9.26788        15.82558
| 62>    C       -0.04429       -10.67118        17.77167
| 63>    N        0.32500       -10.35889        18.81271
| 64>    C        0.80174       -13.08972        16.16209
| 65>    C        0.81685       -14.11798        15.19164
| 66>    C        1.66761       -15.20220        15.32893
| 67>    C        2.50354       -15.25319        16.43462
| 68>    C        2.48542       -14.24778        17.39046
| 69>    C        1.63499       -13.15901        17.26704
| 70>    C       -0.18159       -13.81049        14.17784
| 71>    C       -0.69996       -14.68873        13.26309
| 72>    C       -0.15947       -15.96530        13.00448
| 73>    N        0.25291       -16.99901        12.72226
| 74>    C       -1.90987       -14.49542        12.56614
| 75>    N       -2.93139       -14.45704        12.04355
| 76>    H       -2.76752         3.81390        -0.41285
| 77>    H       -3.89731         4.87381        -2.31437
| 78>    H       -5.81046         3.78932        -3.40885
| 79>    H       -6.64921         1.61838        -2.60965
| 80>    H       -3.28890        -1.10290         1.99364
| 81>    H       -3.70458        -3.41857         2.62914
| 82>    H       -5.19587        -5.17271        -0.87916
| 83>    H       -5.16768        -2.53468        -1.20989
| 84>    H       -3.25287        -7.88560         4.69596
| 85>    H       -3.78705       -11.60837         2.82903
| 86>    H       -4.40467        -9.67311         1.07494
| 87>    H       -2.38510       -10.31038         8.99840
| 88>    H       -1.14573       -14.31114         9.34874
| 89>    H       -1.75577       -13.82286         6.78304
| 90>    H       -1.44704       -10.58749        13.85822
| 91>    H        1.69355       -15.98856        14.59218
| 92>    H        3.17719       -16.08852        16.55007
| 93>    H        3.14383       -14.30933        18.24342
| 94>    H        1.63483       -12.38571        18.01764
| 95> *
| 96>
| 97>                          ****END OF INPUT****

CARTESIAN COORDINATES (ANGSTROEM)
---------------------------------
  C     -3.607960    3.324340   -0.876430
  C     -4.250290    3.920360   -1.952070
  C     -5.332280    3.309470   -2.568640
  C     -5.810320    2.086720   -2.120640
  C     -5.176160    1.482400   -1.048630
  C     -4.066790    2.097150   -0.425360
  C     -3.587380    1.230470    0.645150
  C     -2.580880    1.533080    1.527800
  C     -1.869790    2.750960    1.533100
  N     -1.247660    3.713790    1.598320
  C     -2.129570    0.700060    2.570400
  N     -1.714280    0.069740    3.437360
  C     -4.359500    0.000580    0.567590
  C     -5.462330    0.240340   -0.347030
  C     -6.668270   -0.412850   -0.343380
  C     -7.009270   -1.406340    0.595940
  N     -7.346740   -2.177350    1.376880
  C     -7.737520   -0.096710   -1.204400
  N     -8.631230    0.103590   -1.896680
  C     -4.009280   -1.173310    1.188810
  C     -4.363480   -2.490670    0.850270
  N     -4.058540   -3.530060    1.692340
  C     -4.380250   -4.712110    1.114330
  C     -4.876640   -4.437640   -0.167980
  C     -4.875270   -3.066580   -0.325990
  C     -4.206660   -5.947050    1.722450
  C     -4.057880   -7.045850    2.217770
  C     -3.886030   -8.325070    2.728020
  N     -3.465540   -8.583150    4.001810
  C     -3.376400   -9.932060    4.185230
  C     -3.753130  -10.550210    2.994390
  C     -4.073850   -9.548110    2.086470
  C     -2.969940  -10.526220    5.374190
  C     -2.621160  -11.099870    6.385280
  C     -2.208120  -11.799100    7.513110
  N     -2.132360  -11.254750    8.756270
  C     -1.698980  -12.203350    9.644360
  C     -1.483480  -13.385600    8.927120
  C     -1.802950  -13.134580    7.603010
  C     -1.540310  -11.966080   10.992320
  C     -1.393770  -11.837030   12.197140
  C     -1.201420  -11.591180   13.534460
  C     -0.640120  -12.456080   14.437840
  C     -0.161870  -12.074820   15.758160
  C     -0.549000  -10.985150   16.492470
  C     -1.530850  -10.054420   16.093110
  N     -2.323820   -9.267880   15.825580
  C     -0.044290  -10.671180   17.771670
  N      0.325000  -10.358890   18.812710
  C      0.801740  -13.089720   16.162090
  C      0.816850  -14.117980   15.191640
  C      1.667610  -15.202200   15.328930
  C      2.503540  -15.253190   16.434620
  C      2.485420  -14.247780   17.390460
  C      1.634990  -13.159010   17.267040
  C     -0.181590  -13.810490   14.177840
  C     -0.699960  -14.688730   13.263090
  C     -0.159470  -15.965300   13.004480
  N      0.252910  -16.999010   12.722260
  C     -1.909870  -14.495420   12.566140
  N     -2.931390  -14.457040   12.043550
  H     -2.767520    3.813900   -0.412850
  H     -3.897310    4.873810   -2.314370
  H     -5.810460    3.789320   -3.408850
  H     -6.649210    1.618380   -2.609650
  H     -3.288900   -1.102900    1.993640
  H     -3.704580   -3.418570    2.629140
  H     -5.195870   -5.172710   -0.879160
  H     -5.167680   -2.534680   -1.209890
  H     -3.252870   -7.885600    4.695960
  H     -3.787050  -11.608370    2.829030
  H     -4.404670   -9.673110    1.074940
  H     -2.385100  -10.310380    8.998400
  H     -1.145730  -14.311140    9.348740
  H     -1.755770  -13.822860    6.783040
  H     -1.447040  -10.587490   13.858220
  H      1.693550  -15.988560   14.592180
  H      3.177190  -16.088520   16.550070
  H      3.143830  -14.309330   18.243420
  H      1.634830  -12.385710   18.017640

 Total Charge           Charge          ....    0
 Multiplicity           Mult            ....    1
 Number of Electrons    NEL             ....  396
 Basis Dimension        Dim             ....  949

ORBITAL ENERGIES
----------------

  NO   OCC          E(Eh)            E(eV)
   0   2.0000     -14.493643      -394.3921
   1   2.0000     -14.491171      -394.3248
   2   2.0000     -14.489283      -394.2734
   3   2.0000     -14.425228      -392.5304
   4   2.0000     -14.425000      -392.5242
   5   2.0000     -14.423679      -392.4883
   6   2.0000     -14.422373      -392.4527
   7   2.0000     -14.420913      -392.4130
   8   2.0000     -14.420144      -392.3921
   9   2.0000     -14.418456      -392.3461
  10   2.0000     -14.417902      -392.3311
  11   2.0000     -10.353387      -281.7300
  12   2.0000     -10.352993      -281.7193
  13   2.0000     -10.351872      -281.6888
  14   2.0000     -10.350379      -281.6481
  15   2.0000     -10.349515      -281.6246
  16   2.0000     -10.348574      -281.5990
  17   2.0000     -10.347883      -281.5802
  18   2.0000     -10.347541      -281.5709
  19   2.0000     -10.346338      -281.5382
  20   2.0000     -10.345243      -281.5084
  21   2.0000     -10.339422      -281.3500
  22   2.0000     -10.337438      -281.2960
  23   2.0000     -10.336759      -281.2775
  24   2.0000     -10.335983      -281.2564
  25   2.0000     -10.332068      -281.1499
  26   2.0000     -10.330808      -281.1156
  27   2.0000     -10.328376      -281.0494
  28   2.0000     -10.326922      -281.0098
  29   2.0000     -10.325709      -280.9768
  30   2.0000     -10.324759      -280.9510
  31   2.0000     -10.323460      -280.9156
  32   2.0000     -10.323121      -280.9064
  33   2.0000     -10.321742      -280.8689
  34   2.0000     -10.321640      -280.8661
  35   2.0000     -10.320465      -280.8341
  36   2.0000     -10.315835      -280.7081
  37   2.0000     -10.314593      -280.6743
  38   2.0000     -10.314230      -280.6645
  39   2.0000     -10.312969      -280.6302
  40   2.0000     -10.312365      -280.6137
  41   2.0000     -10.312045      -280.6050
  42   2.0000     -10.306493      -280.4539
  43   2.0000     -10.302721      -280.3513
  44   2.0000     -10.302662      -280.3497
  45   2.0000     -10.302257      -280.3387
  46   2.0000     -10.301576      -280.3201
  47   2.0000     -10.301428      -280.3161
  48   2.0000     -10.300901      -280.3018
  49   2.0000     -10.300844      -280.3002
  50   2.0000     -10.300511      -280.2912
  51   2.0000     -10.300503      -280.2909
  52   2.0000     -10.299739      -280.2701
  53   2.0000     -10.299232      -280.2564
  54   2.0000     -10.298808      -280.2448
  55   2.0000     -10.295220      -280.1472
  56   2.0000     -10.288994      -279.9778
  57   2.0000     -10.288795      -279.9724
  58   2.0000     -10.284138      -279.8456
  59   2.0000     -10.283630      -279.8318
  60   2.0000     -10.282584      -279.8033
  61   2.0000      -1.112930       -30.2844
  62   2.0000      -1.108417       -30.1616
  63   2.0000      -1.105796       -30.0902
  64   2.0000      -1.038233       -28.2518
  65   2.0000      -1.035732       -28.1837
  66   2.0000      -1.019769       -27.7493
  67   2.0000      -1.018712       -27.7206
  68   2.0000      -1.009339       -27.4655
  69   2.0000      -1.007939       -27.4274
  70   2.0000      -1.001728       -27.2584
  71   2.0000      -0.999684       -27.2028
  72   2.0000      -0.998819       -27.1793
  73   2.0000      -0.998756       -27.1775
  74   2.0000      -0.962831       -26.2000
  75   2.0000      -0.960038       -26.1240
  76   2.0000      -0.941964       -25.6321
  77   2.0000      -0.939789       -25.5730
  78   2.0000      -0.923742       -25.1363
  79   2.0000      -0.921079       -25.0638
  80   2.0000      -0.910544       -24.7772
  81   2.0000      -0.903128       -24.5754
  82   2.0000      -0.898529       -24.4502
  83   2.0000      -0.898031       -24.4367
  84   2.0000      -0.895855       -24.3775
  85   2.0000      -0.894421       -24.3384
  86   2.0000      -0.892684       -24.2912
  87   2.0000      -0.875131       -23.8135
  88   2.0000      -0.867957       -23.6183
  89   2.0000      -0.866143       -23.5689
  90   2.0000      -0.855732       -23.2857
  91   2.0000      -0.836090       -22.7512
  92   2.0000      -0.817773       -22.2527
  93   2.0000      -0.797332       -21.6965
  94   2.0000      -0.793623       -21.5956
  95   2.0000      -0.791281       -21.5318
  96   2.0000      -0.784781       -21.3550
  97   2.0000      -0.746529       -20.3141
  98   2.0000      -0.727925       -19.8078
  99   2.0000      -0.720469       -19.6050
 100   2.0000      -0.718741       -19.5579
 101   2.0000      -0.717131       -19.5141
 102   2.0000      -0.713771       -19.4227
 103   2.0000      -0.712823       -19.3969
 104   2.0000      -0.709241       -19.2994
 105   2.0000      -0.707560       -19.2537
 106   2.0000      -0.704033       -19.1577
 107   2.0000      -0.699890       -19.0450
 108   2.0000      -0.692998       -18.8574
 109   2.0000      -0.689261       -18.7557
 110   2.0000      -0.686795       -18.6886
 111   2.0000      -0.671613       -18.2755
 112   2.0000      -0.669244       -18.2111
 113   2.0000      -0.668076       -18.1793
 114   2.0000      -0.665833       -18.1182
 115   2.0000      -0.657255       -17.8848
 116   2.0000      -0.643976       -17.5235
 117   2.0000      -0.622759       -16.9461
 118   2.0000      -0.609186       -16.5768
 119   2.0000      -0.598634       -16.2897
 120   2.0000      -0.589798       -16.0492
 121   2.0000      -0.588471       -16.0131
 122   2.0000      -0.588312       -16.0088
 123   2.0000      -0.585499       -15.9322
 124   2.0000      -0.582817       -15.8593
 125   2.0000      -0.577067       -15.7028
 126   2.0000      -0.554001       -15.0751
 127   2.0000      -0.550595       -14.9825
 128   2.0000      -0.550397       -14.9771
 129   2.0000      -0.548318       -14.9205
 130   2.0000      -0.546947       -14.8832
 131   2.0000      -0.546477       -14.8704
 132   2.0000      -0.544804       -14.8249
 133   2.0000      -0.542142       -14.7524
 134   2.0000      -0.540768       -14.7150
 135   2.0000      -0.540171       -14.6988
 136   2.0000      -0.539582       -14.6828
 137   2.0000      -0.538615       -14.6565
 138   2.0000      -0.526664       -14.3313
 139   2.0000      -0.521131       -14.1807
 140   2.0000      -0.517544       -14.0831
 141   2.0000      -0.512734       -13.9522
 142   2.0000      -0.511843       -13.9280
 143   2.0000      -0.507544       -13.8110
 144   2.0000      -0.506668       -13.7871
 145   2.0000      -0.505363       -13.7516
 146   2.0000      -0.502883       -13.6841
 147   2.0000      -0.501669       -13.6511
 148   2.0000      -0.500244       -13.6123
 149   2.0000      -0.490848       -13.3566
 150   2.0000      -0.486194       -13.2300
 151   2.0000      -0.482867       -13.1395
 152   2.0000      -0.473220       -12.8770
 153   2.0000      -0.466258       -12.6875
 154   2.0000      -0.464137       -12.6298
 155   2.0000      -0.460701       -12.5363
 156   2.0000      -0.459580       -12.5058
 157   2.0000      -0.457076       -12.4377
 158   2.0000      -0.455855       -12.4045
 159   2.0000      -0.454588       -12.3700
 160   2.0000      -0.453853       -12.3500
 161   2.0000      -0.450471       -12.2579
 162   2.0000      -0.450333       -12.2542
 163   2.0000      -0.448603       -12.2071
 164   2.0000      -0.447362       -12.1733
 165   2.0000      -0.447099       -12.1662
 166   2.0000      -0.439645       -11.9633
 167   2.0000      -0.436625       -11.8812
 168   2.0000      -0.434665       -11.8278
 169   2.0000      -0.433353       -11.7921
 170   2.0000      -0.433004       -11.7827
 171   2.0000      -0.431966       -11.7544
 172   2.0000      -0.430487       -11.7141
 173   2.0000      -0.429700       -11.6927
 174   2.0000      -0.426799       -11.6138
 175   2.0000      -0.419851       -11.4247
 176   2.0000      -0.416036       -11.3209
 177   2.0000      -0.414819       -11.2878
 178   2.0000      -0.414595       -11.2817
 179   2.0000      -0.412097       -11.2137
 180   2.0000      -0.401406       -10.9228
 181   2.0000      -0.387266       -10.5381
 182   2.0000      -0.385868       -10.5000
 183   2.0000      -0.383001       -10.4220
 184   2.0000      -0.377783       -10.2800
 185   2.0000      -0.370522       -10.0824
 186   2.0000      -0.365407        -9.9432
 187   2.0000      -0.356772        -9.7083
 188   2.0000      -0.355576        -9.6757
 189   2.0000      -0.352674        -9.5967
 190   2.0000      -0.350213        -9.5298
 191   2.0000      -0.335470        -9.1286
 192   2.0000      -0.334212        -9.0944
 193   2.0000      -0.324197        -8.8218
 194   2.0000      -0.314626        -8.5614
 195   2.0000      -0.301678        -8.2091
 196   2.0000      -0.274510        -7.4698
 197   2.0000      -0.247207        -6.7269
 198   0.0000      -0.104654        -2.8478
 199   0.0000      -0.097592        -2.6556
 200   0.0000      -0.089747        -2.4421
 201   0.0000      -0.088401        -2.4055
 202   0.0000      -0.036172        -0.9843

MULLIKEN ATOMIC CHARGES
-----------------------
   0 C :   -0.034667
   1 C :    0.047317
   2 C :    0.046701
   3 C :   -0.033298
   4 C :    0.002631
   5 C :    0.012021
   6 C :    0.304453
   7 C :   -0.354081
   8 C :   -0.187148
   9 N :    0.155959
  10 C :   -0.173149
  11 N :    0.134780
  12 C :   -0.084823
  13 C :    0.233301
  14 C :   -0.337535
  15 C :   -0.202071
  16 N :    0.172027
  17 C :   -0.179349
  18 N :    0.161850
  19 C :    0.038458
  20 C :    0.053904
  21 N :   -0.035530
  22 C :    0.014328
  23 C :   -0.000367
  24 C :    0.015310
  25 C :    0.019526
  26 C :    0.039744
  27 C :   -0.023815
  28 N :   -0.042363
  29 C :   -0.016458
  30 C :    0.003098
  31 C :    0.009860
  32 C :    0.025109
  33 C :    0.020117
  34 C :   -0.002449
  35 N :   -0.035898
  36 C :   -0.014832
  37 C :    0.025190
  38 C :    0.001501
  39 C :    0.143210
  40 C :   -0.059427
  41 C :   -0.036865
  42 C :   -0.081774
  43 C :    0.290633
  44 C :   -0.340314
  45 C :   -0.191500
  46 N :    0.163421
  47 C :   -0.187092
  48 N :    0.164643
  49 C :    0.007703
  50 C :    0.015397
  51 C :   -0.036639
  52 C :    0.048536
  53 C :    0.046712
  54 C :   -0.033841
  55 C :    0.256786
  56 C :   -0.317098
  57 C :   -0.186917
  58 N :    0.157167
  59 C :   -0.221824
  60 N :    0.186036
  61 H :    0.005824
  62 H :    0.003222
  63 H :    0.004490
  64 H :    0.005575
  65 H :   -0.003536
  66 H :    0.139053
  67 H :   -0.011296
  68 H :    0.004518
  69 H :    0.128275
  70 H :   -0.015879
  71 H :   -0.017369
  72 H :    0.132182
  73 H :   -0.005260
  74 H :   -0.012340
  75 H :    0.051720
  76 H :    0.006773
  77 H :    0.005432
  78 H :    0.005110
  79 H :    0.007199
Sum of atomic charges:   -0.0000000

LOEWDIN ATOMIC CHARGES
----------------------
   0 C :    0.004710
   1 C :    0.000534
   2 C :    0.003460
   3 C :    0.000315
   4 C :   -0.010752
   5 C :   -0.013655
   6 C :    0.080450
   7 C :   -0.143289
   8 C :   -0.020113
   9 N :   -0.050939
  10 C :   -0.017436
  11 N :   -0.059787
  12 C :   -0.070841
  13 C :    0.067032
  14 C :   -0.137398
  15 C :   -0.018261
  16 N :   -0.043348
  17 C :   -0.021913
  18 N :   -0.048038
  19 C :    0.046254
  20 C :   -0.025210
  21 N :    0.120590
  22 C :    0.008987
  23 C :   -0.032773
  24 C :   -0.009629
  25 C :   -0.049610
  26 C :   -0.018184
  27 C :   -0.032741
  28 N :    0.112407
  29 C :   -0.027844
  30 C :   -0.036727
  31 C :   -0.033033
  32 C :   -0.029222
  33 C :   -0.045099
  34 C :   -0.006738
  35 N :    0.117090
  36 C :   -0.039008
  37 C :   -0.004052
  38 C :   -0.039796
  39 C :    0.016390
  40 C :   -0.041588
  41 C :    0.041119
  42 C :   -0.049221
  43 C :    0.076978
  44 C :   -0.131471
  45 C :   -0.022871
  46 N :   -0.043236
  47 C :   -0.019417
  48 N :   -0.044288
  49 C :   -0.014376
  50 C :   -0.009272
  51 C :    0.000925
  52 C :    0.004647
  53 C :    0.001179
  54 C :    0.005241
  55 C :    0.069950
  56 C :   -0.125592
  57 C :   -0.019317
  58 N :   -0.046663
  59 C :   -0.020827
  60 N :   -0.039816
  61 H :    0.041517
  62 H :    0.037325
  63 H :    0.037466
  64 H :    0.040650
  65 H :    0.044343
  66 H :    0.102373
  67 H :    0.036182
  68 H :    0.033643
  69 H :    0.098320
  70 H :    0.033960
  71 H :    0.033662
  72 H :    0.100948
  73 H :    0.037669
  74 H :    0.035259
  75 H :    0.063072
  76 H :    0.041183
  77 H :    0.037964
  78 H :    0.037905
  79 H :    0.041690

  Mayer bond orders larger than 0.100000
B(  0-C ,  1-C ) :   1.3685 B(  0-C ,  5-C ) :   1.3836 B(  0-C , 61-H ) :   0.9836
B(  1-C ,  2-C ) :   1.3818 B(  1-C , 62-H ) :   0.9854 B(  2-C ,  3-C ) :   1.3597
B(  2-C , 63-H ) :   0.9868 B(  3-C ,  4-C ) :   1.3868 B(  3-C , 64-H ) :   0.9874
B(  4-C ,  5-C ) :   1.3139 B(  4-C , 13-C ) :   1.0059 B(  5-C ,  6-C ) :   0.9962
B(  6-C ,  7-C ) :   1.6100 B(  6-C , 12-C ) :   1.0842 B(  7-C ,  8-C ) :   1.1489
B(  7-C , 10-C ) :   1.1453 B(  8-C ,  9-N ) :   2.9731 B( 10-C , 11-N ) :   2.9515
B( 12-C , 13-C ) :   1.0371 B( 12-C , 19-C ) :   1.5581 B( 13-C , 14-C ) :   1.6372
B( 14-C , 15-C ) :   1.1564 B( 14-C , 17-C ) :   1.1401 B( 15-C , 16-N ) :   3.0012
B( 17-C , 18-N ) :   2.9909 B( 19-C , 20-C ) :   1.1670 B( 19-C , 65-H ) :   0.9160
B( 20-C , 21-N ) :   1.1761 B( 20-C , 22-C ) :   0.1136 B( 20-C , 24-C ) :   1.3281
B( 21-N , 22-C ) :   1.2950 B( 21-N , 66-H ) :   0.9331 B( 22-C , 23-C ) :   1.3625
B( 22-C , 25-C ) :   0.8322 B( 23-C , 24-C ) :   1.4016 B( 23-C , 67-H ) :   1.0144
B( 24-C , 68-H ) :   1.0002 B( 25-C , 26-C ) :   2.2409 B( 26-C , 27-C ) :   0.8318
B( 27-C , 28-N ) :   1.2327 B( 27-C , 29-C ) :   0.1358 B( 27-C , 31-C ) :   1.4333
B( 28-N , 29-C ) :   1.2414 B( 28-N , 69-H ) :   0.9399 B( 29-C , 30-C ) :   1.4345
B( 29-C , 32-C ) :   0.8272 B( 30-C , 31-C ) :   1.3285 B( 30-C , 70-H ) :   1.0123
B( 31-C , 71-H ) :   1.0104 B( 32-C , 33-C ) :   2.2663 B( 33-C , 34-C ) :   0.8230
B( 34-C , 35-N ) :   1.2738 B( 34-C , 36-C ) :   0.1293 B( 34-C , 38-C ) :   1.3984
B( 35-N , 36-C ) :   1.2041 B( 35-N , 72-H ) :   0.9382 B( 36-C , 37-C ) :   1.3981
B( 36-C , 39-C ) :   0.8684 B( 37-C , 38-C ) :   1.3582 B( 37-C , 73-H ) :   1.0118
B( 38-C , 74-H ) :   1.0128 B( 39-C , 40-C ) :   2.0574 B( 40-C , 41-C ) :   1.0431
B( 41-C , 42-C ) :   1.5968 B( 41-C , 75-H ) :   0.9330 B( 42-C , 43-C ) :   1.0426
B( 42-C , 55-C ) :   1.0341 B( 43-C , 44-C ) :   1.6430 B( 43-C , 49-C ) :   1.0056
B( 44-C , 45-C ) :   1.1380 B( 44-C , 47-C ) :   1.1460 B( 45-C , 46-N ) :   2.9871
B( 47-C , 48-N ) :   2.9788 B( 49-C , 50-C ) :   1.3089 B( 49-C , 54-C ) :   1.3848
B( 50-C , 51-C ) :   1.3869 B( 50-C , 55-C ) :   1.0167 B( 51-C , 52-C ) :   1.3639
B( 51-C , 76-H ) :   0.9844 B( 52-C , 53-C ) :   1.3784 B( 52-C , 77-H ) :   0.9860
B( 53-C , 54-C ) :   1.3690 B( 53-C , 78-H ) :   0.9858 B( 54-C , 79-H ) :   0.9838
B( 55-C , 56-C ) :   1.6326 B( 56-C , 57-C ) :   1.1354 B( 56-C , 59-C ) :   1.1615
B( 57-C , 58-N ) :   2.9840 B( 59-C , 60-N ) :   2.9928

-----------------------------------------------------------------------------
         ABSORPTION SPECTRUM VIA TRANSITION ELECTRIC DIPOLE MOMENTS
-----------------------------------------------------------------------------
State   Energy  Wavelength   fosc         T2         TX        TY        TZ
        (cm-1)    (nm)                  (au**2)     (au)      (au)      (au)
-----------------------------------------------------------------------------
   0   16709.7    598.5   1.864968861  36.74331   1.24618  -4.31396   4.07187
   1   18938.7    528.0   0.461241771   8.01778  -0.25537  -1.43375  -2.42836
   2   20537.3    486.9   0.227787305   3.65142   1.11417   1.41081   0.64782
   3   21427.3    466.7   0.188169564   2.89106   0.19604   1.03384   1.33560
   4   25353.3    394.4   0.043546832   0.56545  -0.04778   0.17451   0.72988
   5   26211.4    381.5   0.051555152   0.64753   0.25140  -0.53475   0.54623
   6   28136.0    355.4   0.054717788   0.64024  -0.59086  -0.02337  -0.53905
   7   28828.2    346.9   0.066532064   0.75978   0.25075  -0.79266   0.26191
   8   29317.3    341.1   0.204004337   2.29082   1.10130   0.87665   0.55628
   9   29459.2    339.5   0.141345327   1.57956  -0.01871  -0.84782  -0.92759
  10   31578.6    316.7   0.197865192   2.06278  -0.21409  -0.38871   1.36596
  11   31635.9    316.1   0.353888631   3.68266   0.92825   1.59849   0.51562
  12   31841.2    314.1   0.743411485   7.68628  -1.02805   1.54145  -2.06235
  13   33038.7    302.7   0.087720821   0.87409   0.48094  -0.78540   0.16106
  14   33589.6    297.7   0.447998485   4.39084  -0.76381  -1.29790  -1.45702
  15   33632.4    297.3   0.256221992   2.50804  -1.44975   0.63468   0.05873
  16   33703.9    296.7   0.284236580   2.77636   0.74786   1.36390   0.59737
  17   34297.6    291.6   0.104548459   1.00353   0.71834   0.69670  -0.04609
  18   35096.9    284.9   0.544534558   5.10778  -1.19075   1.16097  -1.53037
  19   35308.4    283.2   0.082422522   0.76850   0.46493   0.59757  -0.44188
  20   36912.7    270.9   0.002242238   0.02000  -0.00154  -0.04932  -0.13252
  21   37004.7    270.2   0.047404607   0.42174   0.18699  -0.28395   0.55330
  22   37185.3    268.9   0.047521527   0.42072   0.32918  -0.24736   0.50118
  23   38088.9    262.5   0.154824796   1.33819  -0.26227  -0.99966  -0.51969
  24   38153.7    262.1   0.026858104   0.23175   0.18592   0.00766   0.44398
  25   39662.7    252.1   0.011501605   0.09547  -0.22502   0.19982   0.07004
  26   40061.8    249.6   0.026673510   0.21919  -0.30191   0.35459   0.04800

FINAL SINGLE POINT ENERGY     -2515.446523540909

DIPOLE MOMENT
-------------
                                X             Y             Z
Electronic contribution:     -3.30851       1.16624      14.26546
Nuclear contribution   :      5.05761      -2.09173     -16.66943
                        -----------------------------------------
Total Dipole Moment    :      1.74910      -0.92549      -2.40397
                        -----------------------------------------
Magnitude (a.u.)       :      3.11367
Magnitude (Debye)      :      7.91431

Rotational constants in cm-1:     0.002402     0.000253     0.000236
Rotational constants in MHz :    72.010417     7.582443     7.077753

                             ****ORCA TERMINATED NORMALLY****
TOTAL RUN TIME: 0 days 0 hours 6 minutes 56 seconds 724 msec
