                         Program Version 4.2.0 -  RELEASE  -
|  1> # ORCA input file
|  2> # SCF done       -207.397179339728          0.000716048869
|  3> ! CAM-B3LYP def2-SVP def2/J RIJCOSX Grid4 TightSCF
|  4> %maxcore 5000
|  5> %tddft
|  6>     Mode sTDDFT
|  7>     Ethresh 5.0
|  8>     maxcore 5000
|  9> end
| 10>
| 11> %pal
| 12>   nprocs 6
| 13>   end
| 14> * xyz 0 1
| 15>    C       -0.50185         0.13748         3.66475
| 16>    C        0.15568         1.19050         3.04694
| 17>    C        0.07589         1.38073         1.67399
| 18>    C       -0.67237         0.52631         0.87905
| 19>    C       -1.33525        -0.52819         1.48562
| 20>    C       -1.24802        -0.73082         2.88233
| 21>    C       -2.01218        -1.91858         3.23985
| 22>    C       -2.25446        -2.37025         4.50583
| 23>    C       -1.80499        -1.71695         5.67546
| 24>    N       -1.47473        -1.23517         6.66269
| 25>    C       -2.99872        -3.52382         4.84105
| 26>    N       -3.57506        -4.45127         5.19306
| 27>    C       -2.43511        -2.53631         1.98149
| 28>    C       -2.20616        -1.54785         0.92778
| 29>    C       -2.90601        -1.44664        -0.24246
| 30>    C       -3.95217        -2.31858        -0.61369
| 31>    N       -4.82623        -2.98701        -0.93941
| 32>    C       -2.71888        -0.40910        -1.18096
| 33>    N       -2.59887         0.40150        -1.98349
| 34>    C       -2.85137        -3.82448         1.84740
| 35>    C       -2.86368        -4.61138         0.66305
| 36>    C       -3.65379        -5.73635         0.45540
| 37>    C       -4.62882        -6.11122         1.39815
| 38>    N       -5.40278        -6.37694         2.19946
| 39>    C       -3.38412        -6.37648        -0.77883
| 40>    C       -2.35650        -5.72934        -1.46487
| 41>    S       -1.73121        -4.35428        -0.65236
| 42>    S       -1.91838        -6.43247        -2.98228
| 43>    C       -3.13804        -7.63491        -2.71090
| 44>    C       -3.84485        -7.50469        -1.52067
| 45>    C       -4.81084        -8.53794        -1.38409
| 46>    C       -5.65318        -8.68583        -0.26945
| 47>    N       -6.33477        -8.82462         0.64203
| 48>    C       -4.79889        -9.42190        -2.45686
| 49>    S       -3.60464        -8.98788        -3.66018
| 50>    C       -5.63450       -10.56380        -2.65237
| 51>    C       -5.41365       -11.63126        -3.51615
| 52>    C       -4.24047       -11.76718        -4.27631
| 53>    N       -3.26236       -11.87640        -4.86523
| 54>    C       -6.46057       -12.59131        -3.47382
| 55>    C       -7.44839       -12.21283        -2.56928
| 56>    S       -7.13613       -10.72452        -1.76978
| 57>    S       -8.77010       -13.32179        -2.41001
| 58>    C       -7.99232       -14.32778        -3.58655
| 59>    C       -6.78688       -13.84052        -4.08185
| 60>    C       -6.23566       -14.72732        -5.04603
| 61>    C       -5.06188       -14.46889        -5.77148
| 62>    N       -4.12161       -14.24996        -6.39106
| 63>    C       -7.02374       -15.85680        -5.24587
| 64>    S       -8.46901       -15.83631        -4.25772
| 65>    C       -6.75738       -16.95773        -6.11357
| 66>    C       -7.61727       -17.99772        -6.45162
| 67>    C       -8.92276       -18.13513        -5.95521
| 68>    N       -9.98514       -18.27410        -5.54506
| 69>    C       -7.01581       -18.93773        -7.33152
| 70>    C       -5.69698       -18.59539        -7.60827
| 71>    S       -5.18429       -17.13464        -6.86323
| 72>    S       -4.84317       -19.70989        -8.62445
| 73>    C       -6.28506       -20.66589        -8.69489
| 74>    C       -7.37117       -20.15293        -7.98598
| 75>    C       -8.50566       -20.99389        -8.11028
| 76>    C       -9.80528       -20.69145        -7.67333
| 77>    N      -10.89319       -20.47015        -7.38437
| 78>    C       -8.24122       -22.13194        -8.86645
| 79>    S       -6.61435       -22.14450        -9.49789
| 80>    C       -9.12319       -23.19282        -9.22398
| 81>    C      -10.16292       -23.68159        -8.50132
| 82>    C      -11.24759       -24.49261        -9.06480
| 83>    C      -11.20922       -25.23711       -10.20882
| 84>    C      -10.07668       -25.39334       -11.03808
| 85>    N       -9.19008       -25.56593       -11.74609
| 86>    C      -12.29686       -26.00109       -10.68844
| 87>    N      -13.13846       -26.64314       -11.12992
| 88>    C      -12.37470       -24.35912        -8.15532
| 89>    C      -11.94572       -23.68433        -6.98857
| 90>    C      -12.83710       -23.39219        -5.96979
| 91>    C      -14.15762       -23.78811        -6.11767
| 92>    C      -14.57840       -24.46619        -7.25430
| 93>    C      -13.69661       -24.75727        -8.28415
| 94>    C      -10.52461       -23.41316        -7.10711
| 95>    C       -9.66545       -23.19863        -6.06829
| 96>    C      -10.07695       -23.08763        -4.72114
| 97>    N      -10.34324       -23.00376        -3.60916
| 98>    C       -8.26255       -23.13553        -6.19428
| 99>    N       -7.11601       -23.09898        -6.23831
|100>    H       -0.42242         0.00356         4.73080
|101>    H        0.74209         1.86971         3.64635
|102>    H        0.60381         2.20328         1.21670
|103>    H       -0.72161         0.67653        -0.18728
|104>    H       -3.14789        -4.36457         2.73878
|105>    H       -8.94478       -23.61009       -10.20653
|106>    H      -12.52194       -22.85011        -5.09345
|107>    H      -14.86864       -23.56085        -5.33847
|108>    H      -15.61128       -24.76565        -7.34514
|109>    H      -14.04354       -25.27167        -9.16538
|110> *
|111>
|112>                          ****END OF INPUT****

CARTESIAN COORDINATES (ANGSTROEM)
---------------------------------
  C     -0.501850    0.137480    3.664750
  C      0.155680    1.190500    3.046940
  C      0.075890    1.380730    1.673990
  C     -0.672370    0.526310    0.879050
  C     -1.335250   -0.528190    1.485620
  C     -1.248020   -0.730820    2.882330
  C     -2.012180   -1.918580    3.239850
  C     -2.254460   -2.370250    4.505830
  C     -1.804990   -1.716950    5.675460
  N     -1.474730   -1.235170    6.662690
  C     -2.998720   -3.523820    4.841050
  N     -3.575060   -4.451270    5.193060
  C     -2.435110   -2.536310    1.981490
  C     -2.206160   -1.547850    0.927780
  C     -2.906010   -1.446640   -0.242460
  C     -3.952170   -2.318580   -0.613690
  N     -4.826230   -2.987010   -0.939410
  C     -2.718880   -0.409100   -1.180960
  N     -2.598870    0.401500   -1.983490
  C     -2.851370   -3.824480    1.847400
  C     -2.863680   -4.611380    0.663050
  C     -3.653790   -5.736350    0.455400
  C     -4.628820   -6.111220    1.398150
  N     -5.402780   -6.376940    2.199460
  C     -3.384120   -6.376480   -0.778830
  C     -2.356500   -5.729340   -1.464870
  S     -1.731210   -4.354280   -0.652360
  S     -1.918380   -6.432470   -2.982280
  C     -3.138040   -7.634910   -2.710900
  C     -3.844850   -7.504690   -1.520670
  C     -4.810840   -8.537940   -1.384090
  C     -5.653180   -8.685830   -0.269450
  N     -6.334770   -8.824620    0.642030
  C     -4.798890   -9.421900   -2.456860
  S     -3.604640   -8.987880   -3.660180
  C     -5.634500  -10.563800   -2.652370
  C     -5.413650  -11.631260   -3.516150
  C     -4.240470  -11.767180   -4.276310
  N     -3.262360  -11.876400   -4.865230
  C     -6.460570  -12.591310   -3.473820
  C     -7.448390  -12.212830   -2.569280
  S     -7.136130  -10.724520   -1.769780
  S     -8.770100  -13.321790   -2.410010
  C     -7.992320  -14.327780   -3.586550
  C     -6.786880  -13.840520   -4.081850
  C     -6.235660  -14.727320   -5.046030
  C     -5.061880  -14.468890   -5.771480
  N     -4.121610  -14.249960   -6.391060
  C     -7.023740  -15.856800   -5.245870
  S     -8.469010  -15.836310   -4.257720
  C     -6.757380  -16.957730   -6.113570
  C     -7.617270  -17.997720   -6.451620
  C     -8.922760  -18.135130   -5.955210
  N     -9.985140  -18.274100   -5.545060
  C     -7.015810  -18.937730   -7.331520
  C     -5.696980  -18.595390   -7.608270
  S     -5.184290  -17.134640   -6.863230
  S     -4.843170  -19.709890   -8.624450
  C     -6.285060  -20.665890   -8.694890
  C     -7.371170  -20.152930   -7.985980
  C     -8.505660  -20.993890   -8.110280
  C     -9.805280  -20.691450   -7.673330
  N    -10.893190  -20.470150   -7.384370
  C     -8.241220  -22.131940   -8.866450
  S     -6.614350  -22.144500   -9.497890
  C     -9.123190  -23.192820   -9.223980
  C    -10.162920  -23.681590   -8.501320
  C    -11.247590  -24.492610   -9.064800
  C    -11.209220  -25.237110  -10.208820
  C    -10.076680  -25.393340  -11.038080
  N     -9.190080  -25.565930  -11.746090
  C    -12.296860  -26.001090  -10.688440
  N    -13.138460  -26.643140  -11.129920
  C    -12.374700  -24.359120   -8.155320
  C    -11.945720  -23.684330   -6.988570
  C    -12.837100  -23.392190   -5.969790
  C    -14.157620  -23.788110   -6.117670
  C    -14.578400  -24.466190   -7.254300
  C    -13.696610  -24.757270   -8.284150
  C    -10.524610  -23.413160   -7.107110
  C     -9.665450  -23.198630   -6.068290
  C    -10.076950  -23.087630   -4.721140
  N    -10.343240  -23.003760   -3.609160
  C     -8.262550  -23.135530   -6.194280
  N     -7.116010  -23.098980   -6.238310
  H     -0.422420    0.003560    4.730800
  H      0.742090    1.869710    3.646350
  H      0.603810    2.203280    1.216700
  H     -0.721610    0.676530   -0.187280
  H     -3.147890   -4.364570    2.738780
  H     -8.944780  -23.610090  -10.206530
  H    -12.521940  -22.850110   -5.093450
  H    -14.868640  -23.560850   -5.338470
  H    -15.611280  -24.765650   -7.345140
  H    -14.043540  -25.271670   -9.165380

 Total Charge           Charge          ....    0
 Multiplicity           Mult            ....    1
 Number of Electrons    NEL             ....  624
 Basis Dimension        Dim             .... 1276

ORBITAL ENERGIES
----------------

  NO   OCC          E(Eh)            E(eV)
   0   2.0000     -89.008733     -2422.0508
   1   2.0000     -89.008664     -2422.0489
   2   2.0000     -89.006409     -2421.9875
   3   2.0000     -89.004884     -2421.9460
   4   2.0000     -89.004810     -2421.9440
   5   2.0000     -89.003566     -2421.9102
   6   2.0000     -89.002949     -2421.8934
   7   2.0000     -89.002770     -2421.8885
   8   2.0000     -89.002017     -2421.8680
   9   2.0000     -14.435815      -392.8185
  10   2.0000     -14.434947      -392.7949
  11   2.0000     -14.434239      -392.7756
  12   2.0000     -14.431961      -392.7136
  13   2.0000     -14.431730      -392.7073
  14   2.0000     -14.431400      -392.6983
  15   2.0000     -14.429894      -392.6574
  16   2.0000     -14.429610      -392.6496
  17   2.0000     -14.428058      -392.6074
  18   2.0000     -14.426606      -392.5679
  19   2.0000     -14.426178      -392.5563
  20   2.0000     -14.425018      -392.5247
  21   2.0000     -14.424498      -392.5105
  22   2.0000     -14.422947      -392.4684
  23   2.0000     -10.369136      -282.1585
  24   2.0000     -10.365369      -282.0560
  25   2.0000     -10.364097      -282.0214
  26   2.0000     -10.363653      -282.0093
  27   2.0000     -10.363111      -281.9946
  28   2.0000     -10.361669      -281.9553
  29   2.0000     -10.361580      -281.9529
  30   2.0000     -10.361539      -281.9518
  31   2.0000     -10.361221      -281.9432
  32   2.0000     -10.360711      -281.9293
  33   2.0000     -10.360597      -281.9262
  34   2.0000     -10.359815      -281.9049
  35   2.0000     -10.359654      -281.9005
  36   2.0000     -10.357531      -281.8427
  37   2.0000     -10.356684      -281.8197
  38   2.0000     -10.356503      -281.8148
  39   2.0000     -10.356372      -281.8112
  40   2.0000     -10.354801      -281.7685
  41   2.0000     -10.353677      -281.7379
  42   2.0000     -10.353214      -281.7253
  43   2.0000     -10.353016      -281.7199
  44   2.0000     -10.349408      -281.6217
  45   2.0000     -10.346302      -281.5372
  46   2.0000     -10.345388      -281.5123
  47   2.0000     -10.345237      -281.5082
  48   2.0000     -10.344564      -281.4899
  49   2.0000     -10.344452      -281.4868
  50   2.0000     -10.343696      -281.4663
  51   2.0000     -10.340781      -281.3870
  52   2.0000     -10.340185      -281.3707
  53   2.0000     -10.337081      -281.2863
  54   2.0000     -10.335947      -281.2554
  55   2.0000     -10.335791      -281.2512
  56   2.0000     -10.333128      -281.1787
  57   2.0000     -10.333072      -281.1772
  58   2.0000     -10.332478      -281.1610
  59   2.0000     -10.332163      -281.1524
  60   2.0000     -10.331702      -281.1399
  61   2.0000     -10.330465      -281.1063
  62   2.0000     -10.329927      -281.0916
  63   2.0000     -10.328559      -281.0544
  64   2.0000     -10.328226      -281.0453
  65   2.0000     -10.328020      -281.0397
  66   2.0000     -10.327284      -281.0197
  67   2.0000     -10.327010      -281.0122
  68   2.0000     -10.326543      -280.9995
  69   2.0000     -10.326227      -280.9909
  70   2.0000     -10.325946      -280.9833
  71   2.0000     -10.324020      -280.9309
  72   2.0000     -10.323279      -280.9107
  73   2.0000     -10.322387      -280.8864
  74   2.0000     -10.320933      -280.8469
  75   2.0000     -10.319722      -280.8139
  76   2.0000     -10.319251      -280.8011
  77   2.0000     -10.313708      -280.6503
  78   2.0000     -10.312644      -280.6213
  79   2.0000     -10.311865      -280.6001
  80   2.0000     -10.311022      -280.5772
  81   2.0000     -10.307546      -280.4826
  82   2.0000     -10.305827      -280.4358
  83   2.0000     -10.305321      -280.4220
  84   2.0000     -10.304950      -280.4120
  85   2.0000      -8.103782      -220.5151
  86   2.0000      -8.103383      -220.5043
  87   2.0000      -8.101593      -220.4555
  88   2.0000      -8.100007      -220.4124
  89   2.0000      -8.099459      -220.3975
  90   2.0000      -8.098119      -220.3610
  91   2.0000      -8.097538      -220.3452
  92   2.0000      -8.097272      -220.3380
  93   2.0000      -8.097114      -220.3337
  94   2.0000      -6.073738      -165.2748
  95   2.0000      -6.073015      -165.2551
  96   2.0000      -6.071117      -165.2035
  97   2.0000      -6.069981      -165.1726
  98   2.0000      -6.069431      -165.1576
  99   2.0000      -6.069086      -165.1482
 100   2.0000      -6.068750      -165.1391
 101   2.0000      -6.067758      -165.1121
 102   2.0000      -6.067174      -165.0962
 103   2.0000      -6.067111      -165.0945
 104   2.0000      -6.066894      -165.0886
 105   2.0000      -6.066850      -165.0874
 106   2.0000      -6.065689      -165.0558
 107   2.0000      -6.064939      -165.0354
 108   2.0000      -6.064661      -165.0278
 109   2.0000      -6.064649      -165.0275
 110   2.0000      -6.063315      -164.9912
 111   2.0000      -6.063278      -164.9902
 112   2.0000      -6.062784      -164.9767
 113   2.0000      -6.062720      -164.9750
 114   2.0000      -6.062484      -164.9686
 115   2.0000      -6.061049      -164.9295
 116   2.0000      -6.060821      -164.9233
 117   2.0000      -6.059688      -164.8925
 118   2.0000      -6.059154      -164.8780
 119   2.0000      -6.058874      -164.8704
 120   2.0000      -6.057926      -164.8445
 121   2.0000      -1.066037       -29.0083
 122   2.0000      -1.064123       -28.9563
 123   2.0000      -1.058678       -28.8081
 124   2.0000      -1.051322       -28.6079
 125   2.0000      -1.048138       -28.5213
 126   2.0000      -1.038634       -28.2627
 127   2.0000      -1.031817       -28.0772
 128   2.0000      -1.030068       -28.0296
 129   2.0000      -1.027267       -27.9534
 130   2.0000      -1.020156       -27.7599
 131   2.0000      -1.019840       -27.7513
 132   2.0000      -1.017483       -27.6871
 133   2.0000      -1.015220       -27.6255
 134   2.0000      -1.013257       -27.5721
 135   2.0000      -1.012578       -27.5536
 136   2.0000      -1.010438       -27.4954
 137   2.0000      -1.009896       -27.4807
 138   2.0000      -1.009496       -27.4698
 139   2.0000      -1.006849       -27.3977
 140   2.0000      -1.003923       -27.3181
 141   2.0000      -1.000941       -27.2370
 142   2.0000      -0.999419       -27.1956
 143   2.0000      -0.980875       -26.6910
 144   2.0000      -0.975065       -26.5329
 145   2.0000      -0.968465       -26.3533
 146   2.0000      -0.963125       -26.2080
 147   2.0000      -0.954854       -25.9829
 148   2.0000      -0.953598       -25.9487
 149   2.0000      -0.950805       -25.8727
 150   2.0000      -0.920209       -25.0402
 151   2.0000      -0.919145       -25.0112
 152   2.0000      -0.914620       -24.8881
 153   2.0000      -0.913220       -24.8500
 154   2.0000      -0.910014       -24.7627
 155   2.0000      -0.904602       -24.6155
 156   2.0000      -0.901709       -24.5368
 157   2.0000      -0.893583       -24.3156
 158   2.0000      -0.888669       -24.1819
 159   2.0000      -0.886416       -24.1206
 160   2.0000      -0.878976       -23.9181
 161   2.0000      -0.872936       -23.7538
 162   2.0000      -0.866390       -23.5757
 163   2.0000      -0.860278       -23.4094
 164   2.0000      -0.847062       -23.0497
 165   2.0000      -0.841717       -22.9043
 166   2.0000      -0.828623       -22.5480
 167   2.0000      -0.815612       -22.1939
 168   2.0000      -0.805492       -21.9186
 169   2.0000      -0.801314       -21.8049
 170   2.0000      -0.800279       -21.7767
 171   2.0000      -0.787927       -21.4406
 172   2.0000      -0.765990       -20.8436
 173   2.0000      -0.748572       -20.3697
 174   2.0000      -0.737346       -20.0642
 175   2.0000      -0.735535       -20.0149
 176   2.0000      -0.730811       -19.8864
 177   2.0000      -0.727728       -19.8025
 178   2.0000      -0.725411       -19.7394
 179   2.0000      -0.724587       -19.7170
 180   2.0000      -0.722596       -19.6628
 181   2.0000      -0.718514       -19.5518
 182   2.0000      -0.711904       -19.3719
 183   2.0000      -0.708524       -19.2799
 184   2.0000      -0.699790       -19.0422
 185   2.0000      -0.698074       -18.9955
 186   2.0000      -0.685747       -18.6601
 187   2.0000      -0.682305       -18.5665
 188   2.0000      -0.679217       -18.4824
 189   2.0000      -0.676193       -18.4002
 190   2.0000      -0.673836       -18.3360
 191   2.0000      -0.670706       -18.2508
 192   2.0000      -0.666056       -18.1243
 193   2.0000      -0.662192       -18.0192
 194   2.0000      -0.658315       -17.9137
 195   2.0000      -0.654599       -17.8125
 196   2.0000      -0.643581       -17.5127
 197   2.0000      -0.634064       -17.2538
 198   2.0000      -0.632066       -17.1994
 199   2.0000      -0.607139       -16.5211
 200   2.0000      -0.603172       -16.4131
 201   2.0000      -0.600414       -16.3381
 202   2.0000      -0.596743       -16.2382
 203   2.0000      -0.595148       -16.1948
 204   2.0000      -0.588685       -16.0189
 205   2.0000      -0.584536       -15.9060
 206   2.0000      -0.570085       -15.5128
 207   2.0000      -0.566968       -15.4280
 208   2.0000      -0.564511       -15.3611
 209   2.0000      -0.560932       -15.2637
 210   2.0000      -0.559404       -15.2221
 211   2.0000      -0.557646       -15.1743
 212   2.0000      -0.556869       -15.1532
 213   2.0000      -0.554164       -15.0796
 214   2.0000      -0.553437       -15.0598
 215   2.0000      -0.550540       -14.9810
 216   2.0000      -0.547872       -14.9084
 217   2.0000      -0.544271       -14.8104
 218   2.0000      -0.543297       -14.7839
 219   2.0000      -0.542036       -14.7496
 220   2.0000      -0.541127       -14.7248
 221   2.0000      -0.537927       -14.6377
 222   2.0000      -0.536766       -14.6061
 223   2.0000      -0.531842       -14.4722
 224   2.0000      -0.528593       -14.3837
 225   2.0000      -0.524651       -14.2765
 226   2.0000      -0.522757       -14.2249
 227   2.0000      -0.521062       -14.1788
 228   2.0000      -0.517156       -14.0725
 229   2.0000      -0.515257       -14.0209
 230   2.0000      -0.511261       -13.9121
 231   2.0000      -0.507030       -13.7970
 232   2.0000      -0.505135       -13.7454
 233   2.0000      -0.498978       -13.5779
 234   2.0000      -0.494843       -13.4654
 235   2.0000      -0.492695       -13.4069
 236   2.0000      -0.491227       -13.3670
 237   2.0000      -0.488836       -13.3019
 238   2.0000      -0.485131       -13.2011
 239   2.0000      -0.484442       -13.1823
 240   2.0000      -0.482995       -13.1430
 241   2.0000      -0.481732       -13.1086
 242   2.0000      -0.479817       -13.0565
 243   2.0000      -0.477854       -13.0031
 244   2.0000      -0.475926       -12.9506
 245   2.0000      -0.474075       -12.9002
 246   2.0000      -0.473321       -12.8797
 247   2.0000      -0.471008       -12.8168
 248   2.0000      -0.469845       -12.7851
 249   2.0000      -0.467429       -12.7194
 250   2.0000      -0.466577       -12.6962
 251   2.0000      -0.465220       -12.6593
 252   2.0000      -0.465029       -12.6541
 253   2.0000      -0.463680       -12.6174
 254   2.0000      -0.463097       -12.6015
 255   2.0000      -0.461890       -12.5687
 256   2.0000      -0.460716       -12.5367
 257   2.0000      -0.460423       -12.5287
 258   2.0000      -0.458126       -12.4662
 259   2.0000      -0.457626       -12.4526
 260   2.0000      -0.457299       -12.4437
 261   2.0000      -0.456197       -12.4138
 262   2.0000      -0.455250       -12.3880
 263   2.0000      -0.453678       -12.3452
 264   2.0000      -0.453382       -12.3372
 265   2.0000      -0.453140       -12.3306
 266   2.0000      -0.451129       -12.2758
 267   2.0000      -0.450442       -12.2572
 268   2.0000      -0.447871       -12.1872
 269   2.0000      -0.446218       -12.1422
 270   2.0000      -0.445626       -12.1261
 271   2.0000      -0.444020       -12.0824
 272   2.0000      -0.443484       -12.0678
 273   2.0000      -0.442970       -12.0538
 274   2.0000      -0.441927       -12.0254
 275   2.0000      -0.440866       -11.9966
 276   2.0000      -0.440740       -11.9932
 277   2.0000      -0.438523       -11.9328
 278   2.0000      -0.437863       -11.9149
 279   2.0000      -0.437701       -11.9105
 280   2.0000      -0.434913       -11.8346
 281   2.0000      -0.429850       -11.6968
 282   2.0000      -0.428739       -11.6666
 283   2.0000      -0.428473       -11.6593
 284   2.0000      -0.424980       -11.5643
 285   2.0000      -0.422835       -11.5059
 286   2.0000      -0.420871       -11.4525
 287   2.0000      -0.416455       -11.3323
 288   2.0000      -0.411235       -11.1903
 289   2.0000      -0.406956       -11.0738
 290   2.0000      -0.405135       -11.0243
 291   2.0000      -0.400127       -10.8880
 292   2.0000      -0.398889       -10.8543
 293   2.0000      -0.393974       -10.7206
 294   2.0000      -0.392207       -10.6725
 295   2.0000      -0.389638       -10.6026
 296   2.0000      -0.388333       -10.5671
 297   2.0000      -0.382911       -10.4196
 298   2.0000      -0.374999       -10.2042
 299   2.0000      -0.361407        -9.8344
 300   2.0000      -0.349079        -9.4989
 301   2.0000      -0.347448        -9.4545
 302   2.0000      -0.342131        -9.3099
 303   2.0000      -0.339356        -9.2344
 304   2.0000      -0.331168        -9.0115
 305   2.0000      -0.328957        -8.9514
 306   2.0000      -0.327356        -8.9078
 307   2.0000      -0.323165        -8.7938
 308   2.0000      -0.299195        -8.1415
 309   2.0000      -0.298725        -8.1287
 310   2.0000      -0.289298        -7.8722
 311   2.0000      -0.287078        -7.8118
 312   0.0000      -0.117983        -3.2105
 313   0.0000      -0.112481        -3.0608
 314   0.0000      -0.100096        -2.7238
 315   0.0000      -0.093835        -2.5534
 316   0.0000      -0.079931        -2.1750

MULLIKEN ATOMIC CHARGES
-----------------------
   0 C :   -0.032437
   1 C :    0.048891
   2 C :    0.048522
   3 C :   -0.029068
   4 C :    0.005653
   5 C :    0.016034
   6 C :    0.287156
   7 C :   -0.328388
   8 C :   -0.189150
   9 N :    0.171658
  10 C :   -0.190698
  11 N :    0.182959
  12 C :   -0.052422
  13 C :    0.202413
  14 C :   -0.315898
  15 C :   -0.184049
  16 N :    0.186806
  17 C :   -0.185805
  18 N :    0.176983
  19 C :    0.009713
  20 C :   -0.174988
  21 C :    0.039545
  22 C :   -0.311038
  23 N :    0.252836
  24 C :    0.164778
  25 C :   -0.220370
  26 S :    0.197463
  27 S :    0.219310
  28 C :   -0.223537
  29 C :    0.128326
  30 C :    0.028252
  31 C :   -0.363368
  32 N :    0.244135
  33 C :   -0.129865
  34 S :    0.223211
  35 C :   -0.135596
  36 C :    0.020392
  37 C :   -0.360584
  38 N :    0.236864
  39 C :    0.134524
  40 C :   -0.223779
  41 S :    0.224405
  42 S :    0.216656
  43 C :   -0.216949
  44 C :    0.130263
  45 C :    0.023641
  46 C :   -0.363101
  47 N :    0.233954
  48 C :   -0.129110
  49 S :    0.211892
  50 C :   -0.118655
  51 C :    0.026060
  52 C :   -0.358430
  53 N :    0.231284
  54 C :    0.129041
  55 C :   -0.216907
  56 S :    0.215678
  57 S :    0.217868
  58 C :   -0.209071
  59 C :    0.139497
  60 C :    0.001070
  61 C :   -0.321065
  62 N :    0.242954
  63 C :   -0.176074
  64 S :    0.230486
  65 C :    0.054101
  66 C :   -0.036074
  67 C :    0.277948
  68 C :   -0.333925
  69 C :   -0.179429
  70 N :    0.163196
  71 C :   -0.187685
  72 N :    0.169668
  73 C :    0.020037
  74 C :    0.015397
  75 C :   -0.011070
  76 C :    0.046796
  77 C :    0.050824
  78 C :   -0.034178
  79 C :    0.199807
  80 C :   -0.299989
  81 C :   -0.185819
  82 N :    0.181994
  83 C :   -0.192170
  84 N :    0.178985
  85 H :    0.010778
  86 H :    0.009496
  87 H :    0.008962
  88 H :    0.010477
  89 H :    0.052731
  90 H :    0.025511
  91 H :    0.017155
  92 H :    0.010237
  93 H :    0.007531
  94 H :    0.007943
Sum of atomic charges:   -0.0000000

LOEWDIN ATOMIC CHARGES
----------------------
   0 C :    0.006954
   1 C :    0.006257
   2 C :    0.007605
   3 C :    0.003081
   4 C :   -0.011819
   5 C :   -0.011998
   6 C :    0.072971
   7 C :   -0.118110
   8 C :   -0.018401
   9 N :   -0.035807
  10 C :   -0.028029
  11 N :   -0.019409
  12 C :   -0.042806
  13 C :    0.056065
  14 C :   -0.126774
  15 C :   -0.033812
  16 N :   -0.032938
  17 C :   -0.020520
  18 N :   -0.034000
  19 C :    0.040263
  20 C :   -0.150922
  21 C :   -0.050563
  22 C :   -0.042044
  23 N :    0.001397
  24 C :   -0.058915
  25 C :   -0.312047
  26 S :    0.480268
  27 S :    0.448345
  28 C :   -0.328290
  29 C :   -0.059385
  30 C :   -0.094704
  31 C :   -0.061756
  32 N :   -0.015821
  33 C :   -0.151791
  34 S :    0.509361
  35 C :   -0.155009
  36 C :   -0.096659
  37 C :   -0.061531
  38 N :   -0.022168
  39 C :   -0.062993
  40 C :   -0.327802
  41 S :    0.509143
  42 S :    0.444183
  43 C :   -0.328464
  44 C :   -0.062453
  45 C :   -0.097952
  46 C :   -0.062093
  47 N :   -0.021150
  48 C :   -0.152262
  49 S :    0.505883
  50 C :   -0.150174
  51 C :   -0.098042
  52 C :   -0.061535
  53 N :   -0.021230
  54 C :   -0.061312
  55 C :   -0.327276
  56 S :    0.509020
  57 S :    0.447618
  58 C :   -0.315299
  59 C :   -0.057293
  60 C :   -0.082097
  61 C :   -0.034924
  62 N :   -0.026761
  63 C :   -0.146781
  64 S :    0.499313
  65 C :    0.021813
  66 C :   -0.024040
  67 C :    0.080170
  68 C :   -0.124300
  69 C :   -0.021837
  70 N :   -0.038439
  71 C :   -0.019163
  72 N :   -0.036280
  73 C :   -0.012476
  74 C :   -0.002099
  75 C :    0.015053
  76 C :    0.011160
  77 C :    0.006474
  78 C :    0.006198
  79 C :    0.073018
  80 C :   -0.116734
  81 C :   -0.018067
  82 N :   -0.032267
  83 C :   -0.018876
  84 N :   -0.041675
  85 H :    0.043000
  86 H :    0.039827
  87 H :    0.039534
  88 H :    0.042002
  89 H :    0.058841
  90 H :    0.048714
  91 H :    0.045428
  92 H :    0.040083
  93 H :    0.039166
  94 H :    0.041970

  Mayer bond orders larger than 0.100000
B(  0-C ,  1-C ) :   1.3746 B(  0-C ,  5-C ) :   1.3803 B(  0-C , 85-H ) :   0.9833
B(  1-C ,  2-C ) :   1.3730 B(  1-C , 86-H ) :   0.9863 B(  2-C ,  3-C ) :   1.3694
B(  2-C , 87-H ) :   0.9866 B(  3-C ,  4-C ) :   1.3787 B(  3-C , 88-H ) :   0.9868
B(  4-C ,  5-C ) :   1.3084 B(  4-C , 13-C ) :   1.0179 B(  5-C ,  6-C ) :   1.0027
B(  6-C ,  7-C ) :   1.6675 B(  6-C , 12-C ) :   1.0363 B(  7-C ,  8-C ) :   1.1453
B(  7-C , 10-C ) :   1.1306 B(  8-C ,  9-N ) :   2.9799 B( 10-C , 11-N ) :   2.9747
B( 12-C , 13-C ) :   1.0014 B( 12-C , 19-C ) :   1.6585 B( 13-C , 14-C ) :   1.6686
B( 14-C , 15-C ) :   1.1493 B( 14-C , 17-C ) :   1.1419 B( 15-C , 16-N ) :   3.0052
B( 17-C , 18-N ) :   3.0002 B( 19-C , 20-C ) :   1.1528 B( 19-C , 89-H ) :   0.9243
B( 20-C , 21-C ) :   1.4577 B( 20-C , 26-S ) :   1.1253 B( 21-C , 22-C ) :   1.1845
B( 21-C , 24-C ) :   1.2731 B( 22-C , 23-N ) :   2.9855 B( 24-C , 25-C ) :   1.3810
B( 24-C , 29-C ) :   1.0579 B( 25-C , 26-S ) :   1.1131 B( 25-C , 27-S ) :   1.1023
B( 27-S , 28-C ) :   1.0806 B( 28-C , 29-C ) :   1.4129 B( 28-C , 34-S ) :   1.1043
B( 29-C , 30-C ) :   1.2737 B( 30-C , 31-C ) :   1.1481 B( 30-C , 33-C ) :   1.4741
B( 31-C , 32-N ) :   2.9735 B( 33-C , 34-S ) :   1.1581 B( 33-C , 35-C ) :   1.1981
B( 35-C , 36-C ) :   1.4730 B( 35-C , 41-S ) :   1.1590 B( 36-C , 37-C ) :   1.1443
B( 36-C , 39-C ) :   1.2702 B( 37-C , 38-N ) :   2.9743 B( 39-C , 40-C ) :   1.4061
B( 39-C , 44-C ) :   1.0642 B( 40-C , 41-S ) :   1.1028 B( 40-C , 42-S ) :   1.0898
B( 42-S , 43-C ) :   1.0874 B( 43-C , 44-C ) :   1.4122 B( 43-C , 49-S ) :   1.0961
B( 44-C , 45-C ) :   1.2709 B( 45-C , 46-C ) :   1.1436 B( 45-C , 48-C ) :   1.4682
B( 46-C , 47-N ) :   2.9651 B( 48-C , 49-S ) :   1.1541 B( 48-C , 50-C ) :   1.2176
B( 50-C , 51-C ) :   1.4674 B( 50-C , 56-S ) :   1.1548 B( 51-C , 52-C ) :   1.1444
B( 51-C , 54-C ) :   1.2703 B( 52-C , 53-N ) :   2.9609 B( 54-C , 55-C ) :   1.4131
B( 54-C , 59-C ) :   1.0733 B( 55-C , 56-S ) :   1.0977 B( 55-C , 57-S ) :   1.0861
B( 57-S , 58-C ) :   1.0943 B( 58-C , 59-C ) :   1.3939 B( 58-C , 64-S ) :   1.1115
B( 59-C , 60-C ) :   1.2825 B( 60-C , 61-C ) :   1.1848 B( 60-C , 63-C ) :   1.4607
B( 61-C , 62-N ) :   2.9780 B( 63-C , 64-S ) :   1.1543 B( 63-C , 65-C ) :   1.1229
B( 65-C , 66-C ) :   1.7154 B( 65-C , 90-H ) :   0.9090 B( 66-C , 67-C ) :   1.0311
B( 66-C , 79-C ) :   0.9864 B( 67-C , 68-C ) :   1.6662 B( 67-C , 73-C ) :   1.0092
B( 68-C , 69-C ) :   1.1309 B( 68-C , 71-C ) :   1.1410 B( 69-C , 70-N ) :   2.9820
B( 71-C , 72-N ) :   2.9865 B( 73-C , 74-C ) :   1.3050 B( 73-C , 78-C ) :   1.3748
B( 74-C , 75-C ) :   1.3867 B( 74-C , 79-C ) :   1.0179 B( 75-C , 76-C ) :   1.3683
B( 75-C , 91-H ) :   0.9851 B( 76-C , 77-C ) :   1.3719 B( 76-C , 92-H ) :   0.9861
B( 77-C , 78-C ) :   1.3765 B( 77-C , 93-H ) :   0.9856 B( 78-C , 94-H ) :   0.9844
B( 79-C , 80-C ) :   1.6800 B( 80-C , 81-C ) :   1.1376 B( 80-C , 83-C ) :   1.1656
B( 81-C , 82-N ) :   3.0076 B( 83-C , 84-N ) :   3.0020

-----------------------------------------------------------------------------
         ABSORPTION SPECTRUM VIA TRANSITION ELECTRIC DIPOLE MOMENTS
-----------------------------------------------------------------------------
State   Energy  Wavelength   fosc         T2         TX        TY        TZ
        (cm-1)    (nm)                  (au**2)     (au)      (au)      (au)
-----------------------------------------------------------------------------
   0   21207.8    471.5   0.612544923   9.50861   0.35932   2.73326   1.38159
   1   22297.9    448.5   0.473653783   6.99315  -1.33171  -2.28126  -0.12468
   2   23187.2    431.3   0.095709156   1.35888  -0.53094  -0.97145  -0.36507
   3   23876.9    418.8   0.013656486   0.18829   0.38025   0.09857  -0.18436
   4   25931.5    385.6   0.246900634   3.13451   0.25224   0.27231   1.73111
   5   26513.1    377.2   0.098873716   1.22771   0.85342   0.61731  -0.34396
   6   26990.8    370.5   1.664661827  20.30420   1.57901   3.52324   2.32329
   7   27353.8    365.6   0.039177576   0.47151  -0.42099  -0.53117  -0.11019
   8   27963.9    357.6   0.266231024   3.13427  -0.38706   1.58929   0.67720
   9   29075.9    343.9   0.006472065   0.07328  -0.17159  -0.19314  -0.08083
  10   29340.2    340.8   0.080025766   0.89793  -0.88547  -0.31181  -0.12899
  11   29583.6    338.0   0.135918182   1.51252  -0.95684  -0.26012   0.72754
  12   29802.1    335.5   0.012315502   0.13604  -0.27901   0.03544   0.23863
  13   29907.7    334.4   0.011772199   0.12958  -0.19710  -0.08347  -0.28943
  14   30359.4    329.4   0.007756388   0.08411   0.14578  -0.17407  -0.18043
  15   30464.7    328.2   0.001013173   0.01095  -0.08237  -0.06329  -0.01259
  16   30797.2    324.7   0.009801704   0.10478  -0.07462   0.28150   0.14131
  17   30824.6    324.4   0.045918928   0.49042  -0.49046  -0.48642   0.11519
  18   31411.2    318.4   0.022242021   0.23311  -0.31799  -0.28871  -0.22056
  19   31882.8    313.6   0.026451863   0.27313   0.22497   0.42065   0.21348
  20   32212.7    310.4   0.058511248   0.59798   0.72411   0.20390   0.17908
  21   32633.7    306.4   0.598108261   6.03378  -0.95497  -0.92302  -2.06636
  22   32801.7    304.9   0.013011600   0.13059   0.31419  -0.17683   0.02457
  23   33066.9    302.4   0.661628252   6.58713  -0.37586   0.52521  -2.48395
  24   34294.0    291.6   0.000013105   0.00013  -0.00344   0.00687   0.00817
  25   34337.4    291.2   0.000433230   0.00415   0.01118  -0.03556   0.05257
  26   34842.5    287.0   0.192609256   1.81988  -0.80103  -1.06556   0.20692
  27   34947.7    286.1   0.263215067   2.47952  -1.38096   0.26379   0.70913
  28   35328.0    283.1   0.000246675   0.00230  -0.04436  -0.00930  -0.01562
  29   35417.8    282.3   0.000208727   0.00194   0.04010  -0.00388  -0.01782
  30   36253.0    275.8   0.144254771   1.30997   0.66604   0.92800  -0.07205
  31   36739.5    272.2   0.003638938   0.03261   0.09213  -0.12216  -0.09590
  32   36834.6    271.5   0.018817743   0.16818  -0.35772  -0.02637  -0.19881
  33   36969.4    270.5   0.047465252   0.42268  -0.44900   0.06946   0.46503
  34   37254.6    268.4   0.038698106   0.34197  -0.52857  -0.25003  -0.00794
  35   37362.4    267.6   0.041695847   0.36740   0.27431   0.53925   0.03695
  36   38062.8    262.7   0.010198274   0.08821  -0.12851  -0.26640  -0.02695
  37   38697.5    258.4   0.042172376   0.35877  -0.55575  -0.15172   0.16399
  38   38782.7    257.8   0.000049430   0.00042  -0.00805  -0.01857  -0.00315
  39   39197.0    255.1   0.000176244   0.00148   0.01568   0.03331   0.01116
  40   39372.6    254.0   0.001253891   0.01048   0.08089   0.04320  -0.04555
  41   39508.2    253.1   0.390090900   3.25053   1.36381   0.07741  -1.17667
  42   39679.6    252.0   0.191375108   1.58779   0.73178   1.00775   0.19165
  43   39859.3    250.9   0.000003724   0.00003  -0.00088  -0.00482   0.00260
  44   40003.2    250.0   0.000169698   0.00140   0.02888   0.02365   0.00186
  45   40250.6    248.4   0.080980562   0.66235  -0.67459  -0.41971   0.17639

FINAL SINGLE POINT ENERGY     -6713.450662231893

DIPOLE MOMENT
-------------
                                X             Y             Z
Electronic contribution:      9.29145      -8.42751     -12.48802
Nuclear contribution   :     -7.46781      10.20127      11.12037
                        -----------------------------------------
Total Dipole Moment    :      1.82364       1.77376      -1.36765
                        -----------------------------------------
Magnitude (a.u.)       :      2.88831
Magnitude (Debye)      :      7.34151

Rotational constants in cm-1:     0.002338     0.000138     0.000134
Rotational constants in MHz :    70.089749     4.149823     4.023936

                             ****ORCA TERMINATED NORMALLY****
TOTAL RUN TIME: 0 days 0 hours 10 minutes 54 seconds 89 msec
