                         Program Version 4.2.0 -  RELEASE  -
|  1> # ORCA input file
|  2> # SCF done       -194.642588797740          0.000591097218
|  3> ! CAM-B3LYP def2-SVP def2/J RIJCOSX Grid4 TightSCF
|  4> %maxcore 5000
|  5> %tddft
|  6>     Mode sTDDFT
|  7>     Ethresh 5.0
|  8>     maxcore 5000
|  9> end
| 10>
| 11> %pal
| 12>   nprocs 6
| 13>   end
| 14> * xyz 0 1
| 15>    C       -0.34642         0.36459        -4.96873
| 16>    C       -0.41946         0.18671        -6.34264
| 17>    C       -1.30533        -0.72266        -6.90195
| 18>    C       -2.15282        -1.47516        -6.10235
| 19>    C       -2.08813        -1.30554        -4.73013
| 20>    C       -1.17902        -0.38836        -4.15625
| 21>    C       -1.31007        -0.43890        -2.70428
| 22>    C       -0.65676         0.37227        -1.81189
| 23>    C        0.23533         1.39986        -2.18208
| 24>    N        0.97052         2.25217        -2.40900
| 25>    C       -0.80077         0.32863        -0.41048
| 26>    N       -0.86704         0.35216         0.73639
| 27>    C       -2.23326        -1.52166        -2.40461
| 28>    C       -2.86100        -1.91155        -3.65771
| 29>    C       -4.10829        -2.46476        -3.79145
| 30>    C       -4.96372        -2.72830        -2.70177
| 31>    N       -5.70649        -2.89920        -1.84300
| 32>    C       -4.71891        -2.73746        -5.03119
| 33>    N       -5.25795        -2.99384        -6.01187
| 34>    C       -2.39329        -2.10015        -1.17060
| 35>    C       -2.86815        -3.38993        -0.87073
| 36>    C       -3.30079        -3.80461         0.38366
| 37>    C       -3.65585        -5.14379         0.39327
| 38>    C       -3.44385        -5.79857        -0.84795
| 39>    S       -2.83583        -4.71970        -2.03790
| 40>    C       -3.82219        -7.12469        -0.67485
| 41>    C       -4.27076        -7.25248         0.66268
| 42>    N       -4.15315        -6.04654         1.29627
| 43>    C       -4.70526        -8.53483         0.98932
| 44>    C       -4.59174        -9.40270        -0.08284
| 45>    S       -3.93386        -8.62258        -1.51766
| 46>    C       -4.92997       -10.77831        -0.16759
| 47>    C       -5.53801       -11.48425         0.81725
| 48>    C       -5.88623       -12.85721         0.75120
| 49>    C       -5.62799       -13.79101        -0.23547
| 50>    C       -6.15336       -15.04270         0.08690
| 51>    C       -6.82986       -15.07071         1.32910
| 52>    S       -6.79351       -13.53534         2.10258
| 53>    C       -7.30282       -16.36966         1.49921
| 54>    C       -6.89671       -17.10227         0.36091
| 55>    N       -6.18892       -16.28840        -0.48441
| 56>    C       -5.65502       -16.65237        -1.76684
| 57>    C       -7.30383       -18.43806         0.38390
| 58>    C       -8.02420       -18.73020         1.52603
| 59>    S       -8.20113       -17.34639         2.59685
| 60>    C       -8.60724       -19.97383         1.88961
| 61>    C       -8.44560       -21.19621         1.26399
| 62>    C       -9.17921       -22.19740         1.90075
| 63>    C       -9.91416       -21.73907         3.01762
| 64>    S       -9.67799       -20.05239         3.27994
| 65>    C      -10.59390       -22.83868         3.53446
| 66>    C      -10.25088       -23.95189         2.72386
| 67>    N       -9.38912       -23.54044         1.74021
| 68>    C      -10.85682       -25.13770         3.11336
| 69>    C      -11.68410       -24.95237         4.21327
| 70>    S      -11.69453       -23.27885         4.77579
| 71>    C      -12.51540       -25.88213         4.86463
| 72>    C      -12.50811       -27.23189         4.66102
| 73>    C      -13.37047       -28.14269         5.30647
| 74>    C      -14.62668       -27.89614         5.80481
| 75>    C      -15.28058       -28.69151         6.83307
| 76>    C      -14.90450       -29.92383         7.30317
| 77>    C      -13.80877       -30.68451         6.84658
| 78>    N      -12.93922       -31.36764         6.53480
| 79>    C      -15.59621       -30.63223         8.30788
| 80>    N      -16.10718       -31.26808         9.11601
| 81>    C      -16.41997       -27.91568         7.30884
| 82>    C      -16.54312       -26.75333         6.51539
| 83>    C      -17.53190       -25.81977         6.77741
| 84>    C      -18.40314       -26.05564         7.83024
| 85>    C      -18.29371       -27.20343         8.60160
| 86>    C      -17.30398       -28.14261         8.35175
| 87>    C      -15.52269       -26.79525         5.47837
| 88>    C      -15.58639       -26.11147         4.29123
| 89>    C      -16.55397       -25.12904         3.99980
| 90>    N      -17.30260       -24.30952         3.70601
| 91>    C      -14.75680       -26.35023         3.17714
| 92>    N      -14.15817       -26.51551         2.21120
| 93>    H        0.35059         1.07386        -4.55387
| 94>    H        0.22790         0.76517        -6.98400
| 95>    H       -1.33730        -0.84858        -7.97344
| 96>    H       -2.83440        -2.18371        -6.54464
| 97>    H       -2.05016        -1.54412        -0.30760
| 98>    H       -3.37853        -3.12960         1.21622
| 99>    H       -4.42707        -5.84366         2.24191
|100>    H       -5.07951        -8.82702         1.95223
|101>    H       -4.68709       -11.26294        -1.10230
|102>    H       -5.80747       -10.98488         1.73707
|103>    H       -5.08456       -13.56267        -1.13326
|104>    H       -5.35323       -17.69904        -1.75110
|105>    H       -4.78400       -16.03593        -1.98514
|106>    H       -6.39613       -16.51019        -2.55943
|107>    H       -7.10792       -19.15821        -0.38832
|108>    H       -7.82184       -21.34315         0.40252
|109>    H       -9.00560       -24.11877         1.01320
|110>    H      -10.74490       -26.08325         2.61752
|111>    H      -13.18825       -25.47005         5.60707
|112>    H      -11.73268       -27.66160         4.04346
|113>    H      -12.96133       -29.13165         5.46472
|114>    H      -17.62148       -24.92078         6.18948
|115>    H      -19.17509       -25.33417         8.05041
|116>    H      -18.98547       -27.36961         9.41328
|117>    H      -17.23197       -29.02457         8.96630
|118> *
|119>
|120>                          ****END OF INPUT****

CARTESIAN COORDINATES (ANGSTROEM)
---------------------------------
  C     -0.346420    0.364590   -4.968730
  C     -0.419460    0.186710   -6.342640
  C     -1.305330   -0.722660   -6.901950
  C     -2.152820   -1.475160   -6.102350
  C     -2.088130   -1.305540   -4.730130
  C     -1.179020   -0.388360   -4.156250
  C     -1.310070   -0.438900   -2.704280
  C     -0.656760    0.372270   -1.811890
  C      0.235330    1.399860   -2.182080
  N      0.970520    2.252170   -2.409000
  C     -0.800770    0.328630   -0.410480
  N     -0.867040    0.352160    0.736390
  C     -2.233260   -1.521660   -2.404610
  C     -2.861000   -1.911550   -3.657710
  C     -4.108290   -2.464760   -3.791450
  C     -4.963720   -2.728300   -2.701770
  N     -5.706490   -2.899200   -1.843000
  C     -4.718910   -2.737460   -5.031190
  N     -5.257950   -2.993840   -6.011870
  C     -2.393290   -2.100150   -1.170600
  C     -2.868150   -3.389930   -0.870730
  C     -3.300790   -3.804610    0.383660
  C     -3.655850   -5.143790    0.393270
  C     -3.443850   -5.798570   -0.847950
  S     -2.835830   -4.719700   -2.037900
  C     -3.822190   -7.124690   -0.674850
  C     -4.270760   -7.252480    0.662680
  N     -4.153150   -6.046540    1.296270
  C     -4.705260   -8.534830    0.989320
  C     -4.591740   -9.402700   -0.082840
  S     -3.933860   -8.622580   -1.517660
  C     -4.929970  -10.778310   -0.167590
  C     -5.538010  -11.484250    0.817250
  C     -5.886230  -12.857210    0.751200
  C     -5.627990  -13.791010   -0.235470
  C     -6.153360  -15.042700    0.086900
  C     -6.829860  -15.070710    1.329100
  S     -6.793510  -13.535340    2.102580
  C     -7.302820  -16.369660    1.499210
  C     -6.896710  -17.102270    0.360910
  N     -6.188920  -16.288400   -0.484410
  C     -5.655020  -16.652370   -1.766840
  C     -7.303830  -18.438060    0.383900
  C     -8.024200  -18.730200    1.526030
  S     -8.201130  -17.346390    2.596850
  C     -8.607240  -19.973830    1.889610
  C     -8.445600  -21.196210    1.263990
  C     -9.179210  -22.197400    1.900750
  C     -9.914160  -21.739070    3.017620
  S     -9.677990  -20.052390    3.279940
  C    -10.593900  -22.838680    3.534460
  C    -10.250880  -23.951890    2.723860
  N     -9.389120  -23.540440    1.740210
  C    -10.856820  -25.137700    3.113360
  C    -11.684100  -24.952370    4.213270
  S    -11.694530  -23.278850    4.775790
  C    -12.515400  -25.882130    4.864630
  C    -12.508110  -27.231890    4.661020
  C    -13.370470  -28.142690    5.306470
  C    -14.626680  -27.896140    5.804810
  C    -15.280580  -28.691510    6.833070
  C    -14.904500  -29.923830    7.303170
  C    -13.808770  -30.684510    6.846580
  N    -12.939220  -31.367640    6.534800
  C    -15.596210  -30.632230    8.307880
  N    -16.107180  -31.268080    9.116010
  C    -16.419970  -27.915680    7.308840
  C    -16.543120  -26.753330    6.515390
  C    -17.531900  -25.819770    6.777410
  C    -18.403140  -26.055640    7.830240
  C    -18.293710  -27.203430    8.601600
  C    -17.303980  -28.142610    8.351750
  C    -15.522690  -26.795250    5.478370
  C    -15.586390  -26.111470    4.291230
  C    -16.553970  -25.129040    3.999800
  N    -17.302600  -24.309520    3.706010
  C    -14.756800  -26.350230    3.177140
  N    -14.158170  -26.515510    2.211200
  H      0.350590    1.073860   -4.553870
  H      0.227900    0.765170   -6.984000
  H     -1.337300   -0.848580   -7.973440
  H     -2.834400   -2.183710   -6.544640
  H     -2.050160   -1.544120   -0.307600
  H     -3.378530   -3.129600    1.216220
  H     -4.427070   -5.843660    2.241910
  H     -5.079510   -8.827020    1.952230
  H     -4.687090  -11.262940   -1.102300
  H     -5.807470  -10.984880    1.737070
  H     -5.084560  -13.562670   -1.133260
  H     -5.353230  -17.699040   -1.751100
  H     -4.784000  -16.035930   -1.985140
  H     -6.396130  -16.510190   -2.559430
  H     -7.107920  -19.158210   -0.388320
  H     -7.821840  -21.343150    0.402520
  H     -9.005600  -24.118770    1.013200
  H    -10.744900  -26.083250    2.617520
  H    -13.188250  -25.470050    5.607070
  H    -11.732680  -27.661600    4.043460
  H    -12.961330  -29.131650    5.464720
  H    -17.621480  -24.920780    6.189480
  H    -19.175090  -25.334170    8.050410
  H    -18.985470  -27.369610    9.413280
  H    -17.231970  -29.024570    8.966300

 Total Charge           Charge          ....    0
 Multiplicity           Mult            ....    1
 Number of Electrons    NEL             ....  564
 Basis Dimension        Dim             .... 1241

ORBITAL ENERGIES
----------------

  NO   OCC          E(Eh)            E(eV)
   0   2.0000     -88.970661     -2421.0148
   1   2.0000     -88.970463     -2421.0094
   2   2.0000     -88.969785     -2420.9909
   3   2.0000     -88.968732     -2420.9623
   4   2.0000     -88.966833     -2420.9106
   5   2.0000     -88.964014     -2420.8339
   6   2.0000     -14.481202      -394.0535
   7   2.0000     -14.480249      -394.0276
   8   2.0000     -14.476846      -393.9350
   9   2.0000     -14.416452      -392.2916
  10   2.0000     -14.415764      -392.2729
  11   2.0000     -14.414253      -392.2318
  12   2.0000     -14.414075      -392.2269
  13   2.0000     -14.413785      -392.2190
  14   2.0000     -14.412673      -392.1888
  15   2.0000     -14.411958      -392.1693
  16   2.0000     -14.411211      -392.1490
  17   2.0000     -10.342192      -281.4254
  18   2.0000     -10.341872      -281.4166
  19   2.0000     -10.341591      -281.4090
  20   2.0000     -10.341081      -281.3951
  21   2.0000     -10.340954      -281.3917
  22   2.0000     -10.340862      -281.3892
  23   2.0000     -10.340270      -281.3731
  24   2.0000     -10.338340      -281.3205
  25   2.0000     -10.332949      -281.1738
  26   2.0000     -10.332481      -281.1611
  27   2.0000     -10.330124      -281.0970
  28   2.0000     -10.327268      -281.0192
  29   2.0000     -10.327176      -281.0167
  30   2.0000     -10.326573      -281.0003
  31   2.0000     -10.323014      -280.9035
  32   2.0000     -10.322339      -280.8851
  33   2.0000     -10.320150      -280.8256
  34   2.0000     -10.319468      -280.8070
  35   2.0000     -10.319362      -280.8041
  36   2.0000     -10.318814      -280.7892
  37   2.0000     -10.318703      -280.7862
  38   2.0000     -10.318483      -280.7802
  39   2.0000     -10.318293      -280.7750
  40   2.0000     -10.317008      -280.7401
  41   2.0000     -10.316975      -280.7392
  42   2.0000     -10.316732      -280.7325
  43   2.0000     -10.316643      -280.7301
  44   2.0000     -10.316116      -280.7158
  45   2.0000     -10.315954      -280.7114
  46   2.0000     -10.315696      -280.7044
  47   2.0000     -10.315366      -280.6954
  48   2.0000     -10.313890      -280.6552
  49   2.0000     -10.313796      -280.6526
  50   2.0000     -10.313235      -280.6374
  51   2.0000     -10.308585      -280.5108
  52   2.0000     -10.308256      -280.5019
  53   2.0000     -10.307625      -280.4847
  54   2.0000     -10.307366      -280.4777
  55   2.0000     -10.307069      -280.4696
  56   2.0000     -10.306939      -280.4661
  57   2.0000     -10.306754      -280.4610
  58   2.0000     -10.305592      -280.4294
  59   2.0000     -10.305250      -280.4201
  60   2.0000     -10.303854      -280.3821
  61   2.0000     -10.303521      -280.3731
  62   2.0000     -10.301171      -280.3091
  63   2.0000     -10.299356      -280.2597
  64   2.0000     -10.296005      -280.1685
  65   2.0000     -10.295366      -280.1511
  66   2.0000     -10.295011      -280.1415
  67   2.0000     -10.294491      -280.1273
  68   2.0000     -10.294455      -280.1264
  69   2.0000     -10.294404      -280.1250
  70   2.0000     -10.294256      -280.1209
  71   2.0000     -10.294230      -280.1203
  72   2.0000     -10.294191      -280.1192
  73   2.0000     -10.293751      -280.1072
  74   2.0000     -10.292683      -280.0781
  75   2.0000     -10.291738      -280.0524
  76   2.0000     -10.291509      -280.0462
  77   2.0000     -10.290184      -280.0101
  78   2.0000      -8.065471      -219.4726
  79   2.0000      -8.065028      -219.4606
  80   2.0000      -8.064735      -219.4526
  81   2.0000      -8.063767      -219.4263
  82   2.0000      -8.061662      -219.3690
  83   2.0000      -8.059028      -219.2973
  84   2.0000      -6.035050      -164.2220
  85   2.0000      -6.034797      -164.2152
  86   2.0000      -6.034514      -164.2075
  87   2.0000      -6.033412      -164.1775
  88   2.0000      -6.031417      -164.1232
  89   2.0000      -6.031046      -164.1131
  90   2.0000      -6.030664      -164.1027
  91   2.0000      -6.030337      -164.0938
  92   2.0000      -6.029378      -164.0677
  93   2.0000      -6.028635      -164.0475
  94   2.0000      -6.027276      -164.0105
  95   2.0000      -6.026934      -164.0012
  96   2.0000      -6.026276      -163.9833
  97   2.0000      -6.025971      -163.9750
  98   2.0000      -6.025125      -163.9520
  99   2.0000      -6.024641      -163.9388
 100   2.0000      -6.022979      -163.8936
 101   2.0000      -6.020464      -163.8251
 102   2.0000      -1.103535       -30.0287
 103   2.0000      -1.102755       -30.0075
 104   2.0000      -1.101266       -29.9670
 105   2.0000      -1.029305       -28.0088
 106   2.0000      -1.029208       -28.0062
 107   2.0000      -1.011787       -27.5321
 108   2.0000      -1.011183       -27.5157
 109   2.0000      -1.001341       -27.2479
 110   2.0000      -1.000249       -27.2182
 111   2.0000      -0.998640       -27.1744
 112   2.0000      -0.994226       -27.0543
 113   2.0000      -0.992955       -27.0197
 114   2.0000      -0.992479       -27.0067
 115   2.0000      -0.992276       -27.0012
 116   2.0000      -0.988571       -26.9004
 117   2.0000      -0.987185       -26.8627
 118   2.0000      -0.984895       -26.8004
 119   2.0000      -0.981731       -26.7143
 120   2.0000      -0.971329       -26.4312
 121   2.0000      -0.954895       -25.9840
 122   2.0000      -0.951337       -25.8872
 123   2.0000      -0.933306       -25.3966
 124   2.0000      -0.932318       -25.3697
 125   2.0000      -0.922099       -25.0916
 126   2.0000      -0.916445       -24.9377
 127   2.0000      -0.902561       -24.5599
 128   2.0000      -0.892859       -24.2959
 129   2.0000      -0.888198       -24.1691
 130   2.0000      -0.885997       -24.1092
 131   2.0000      -0.881144       -23.9771
 132   2.0000      -0.865017       -23.5383
 133   2.0000      -0.860897       -23.4262
 134   2.0000      -0.859700       -23.3936
 135   2.0000      -0.857632       -23.3374
 136   2.0000      -0.854394       -23.2492
 137   2.0000      -0.851726       -23.1766
 138   2.0000      -0.847504       -23.0618
 139   2.0000      -0.843886       -22.9633
 140   2.0000      -0.831624       -22.6296
 141   2.0000      -0.830000       -22.5855
 142   2.0000      -0.821718       -22.3601
 143   2.0000      -0.812822       -22.1180
 144   2.0000      -0.798366       -21.7246
 145   2.0000      -0.791121       -21.5275
 146   2.0000      -0.785504       -21.3746
 147   2.0000      -0.783848       -21.3296
 148   2.0000      -0.771072       -20.9819
 149   2.0000      -0.758280       -20.6338
 150   2.0000      -0.743443       -20.2301
 151   2.0000      -0.731934       -19.9169
 152   2.0000      -0.714406       -19.4400
 153   2.0000      -0.711268       -19.3546
 154   2.0000      -0.709799       -19.3146
 155   2.0000      -0.708375       -19.2759
 156   2.0000      -0.707244       -19.2451
 157   2.0000      -0.701210       -19.0809
 158   2.0000      -0.695585       -18.9278
 159   2.0000      -0.691824       -18.8255
 160   2.0000      -0.677342       -18.4314
 161   2.0000      -0.669606       -18.2209
 162   2.0000      -0.667125       -18.1534
 163   2.0000      -0.660621       -17.9764
 164   2.0000      -0.659252       -17.9392
 165   2.0000      -0.658806       -17.9270
 166   2.0000      -0.655912       -17.8483
 167   2.0000      -0.654402       -17.8072
 168   2.0000      -0.652346       -17.7512
 169   2.0000      -0.648946       -17.6587
 170   2.0000      -0.647861       -17.6292
 171   2.0000      -0.638259       -17.3679
 172   2.0000      -0.630096       -17.1458
 173   2.0000      -0.625614       -17.0238
 174   2.0000      -0.623624       -16.9697
 175   2.0000      -0.618979       -16.8433
 176   2.0000      -0.613816       -16.7028
 177   2.0000      -0.605951       -16.4888
 178   2.0000      -0.598366       -16.2824
 179   2.0000      -0.594230       -16.1698
 180   2.0000      -0.587456       -15.9855
 181   2.0000      -0.582425       -15.8486
 182   2.0000      -0.579830       -15.7780
 183   2.0000      -0.578707       -15.7474
 184   2.0000      -0.576345       -15.6831
 185   2.0000      -0.575313       -15.6551
 186   2.0000      -0.570973       -15.5370
 187   2.0000      -0.561012       -15.2659
 188   2.0000      -0.554026       -15.0758
 189   2.0000      -0.551908       -15.0182
 190   2.0000      -0.551454       -15.0058
 191   2.0000      -0.550782       -14.9875
 192   2.0000      -0.544468       -14.8157
 193   2.0000      -0.542633       -14.7658
 194   2.0000      -0.537632       -14.6297
 195   2.0000      -0.537229       -14.6187
 196   2.0000      -0.532855       -14.4997
 197   2.0000      -0.532260       -14.4835
 198   2.0000      -0.530918       -14.4470
 199   2.0000      -0.526436       -14.3250
 200   2.0000      -0.522976       -14.2309
 201   2.0000      -0.519000       -14.1227
 202   2.0000      -0.515326       -14.0227
 203   2.0000      -0.511347       -13.9145
 204   2.0000      -0.508022       -13.8240
 205   2.0000      -0.506360       -13.7787
 206   2.0000      -0.502382       -13.6705
 207   2.0000      -0.502183       -13.6651
 208   2.0000      -0.500217       -13.6116
 209   2.0000      -0.499248       -13.5852
 210   2.0000      -0.496660       -13.5148
 211   2.0000      -0.495874       -13.4934
 212   2.0000      -0.490828       -13.3561
 213   2.0000      -0.487745       -13.2722
 214   2.0000      -0.485773       -13.2185
 215   2.0000      -0.484048       -13.1716
 216   2.0000      -0.482054       -13.1173
 217   2.0000      -0.480431       -13.0732
 218   2.0000      -0.474462       -12.9108
 219   2.0000      -0.471339       -12.8258
 220   2.0000      -0.468520       -12.7491
 221   2.0000      -0.467312       -12.7162
 222   2.0000      -0.463806       -12.6208
 223   2.0000      -0.463036       -12.5999
 224   2.0000      -0.461644       -12.5620
 225   2.0000      -0.459744       -12.5103
 226   2.0000      -0.457348       -12.4451
 227   2.0000      -0.453951       -12.3526
 228   2.0000      -0.453182       -12.3317
 229   2.0000      -0.452527       -12.3139
 230   2.0000      -0.449703       -12.2371
 231   2.0000      -0.448383       -12.2011
 232   2.0000      -0.447987       -12.1903
 233   2.0000      -0.447554       -12.1786
 234   2.0000      -0.447176       -12.1683
 235   2.0000      -0.445973       -12.1355
 236   2.0000      -0.442560       -12.0427
 237   2.0000      -0.442127       -12.0309
 238   2.0000      -0.440926       -11.9982
 239   2.0000      -0.440264       -11.9802
 240   2.0000      -0.438399       -11.9294
 241   2.0000      -0.437963       -11.9176
 242   2.0000      -0.434324       -11.8186
 243   2.0000      -0.432179       -11.7602
 244   2.0000      -0.430222       -11.7069
 245   2.0000      -0.429322       -11.6824
 246   2.0000      -0.427401       -11.6302
 247   2.0000      -0.425898       -11.5893
 248   2.0000      -0.425876       -11.5887
 249   2.0000      -0.424502       -11.5513
 250   2.0000      -0.423392       -11.5211
 251   2.0000      -0.421470       -11.4688
 252   2.0000      -0.419832       -11.4242
 253   2.0000      -0.419301       -11.4098
 254   2.0000      -0.416480       -11.3330
 255   2.0000      -0.412486       -11.2243
 256   2.0000      -0.408310       -11.1107
 257   2.0000      -0.408022       -11.1028
 258   2.0000      -0.405357       -11.0303
 259   2.0000      -0.405281       -11.0283
 260   2.0000      -0.398722       -10.8498
 261   2.0000      -0.392625       -10.6839
 262   2.0000      -0.379809       -10.3351
 263   2.0000      -0.379005       -10.3133
 264   2.0000      -0.377763       -10.2794
 265   2.0000      -0.367997       -10.0137
 266   2.0000      -0.351602        -9.5676
 267   2.0000      -0.345227        -9.3941
 268   2.0000      -0.343406        -9.3446
 269   2.0000      -0.338123        -9.2008
 270   2.0000      -0.332899        -9.0586
 271   2.0000      -0.328790        -8.9468
 272   2.0000      -0.327470        -8.9109
 273   2.0000      -0.319376        -8.6907
 274   2.0000      -0.304848        -8.2953
 275   2.0000      -0.297681        -8.1003
 276   2.0000      -0.294715        -8.0196
 277   2.0000      -0.290879        -7.9152
 278   2.0000      -0.283177        -7.7056
 279   2.0000      -0.271176        -7.3791
 280   2.0000      -0.248548        -6.7633
 281   2.0000      -0.224418        -6.1067
 282   0.0000      -0.103201        -2.8082
 283   0.0000      -0.097042        -2.6407
 284   0.0000      -0.082419        -2.2427
 285   0.0000      -0.080931        -2.2023
 286   0.0000      -0.058047        -1.5795

MULLIKEN ATOMIC CHARGES
-----------------------
   0 C :   -0.033776
   1 C :    0.044299
   2 C :    0.045494
   3 C :   -0.032778
   4 C :    0.004210
   5 C :    0.010755
   6 C :    0.305998
   7 C :   -0.353105
   8 C :   -0.187479
   9 N :    0.150970
  10 C :   -0.177545
  11 N :    0.140500
  12 C :   -0.079241
  13 C :    0.212476
  14 C :   -0.323295
  15 C :   -0.197709
  16 N :    0.171903
  17 C :   -0.180284
  18 N :    0.155281
  19 C :    0.040267
  20 C :   -0.123338
  21 C :   -0.031722
  22 C :    0.153975
  23 C :   -0.101395
  24 S :    0.161762
  25 C :   -0.120094
  26 C :    0.127816
  27 N :   -0.012980
  28 C :   -0.073726
  29 C :   -0.066736
  30 S :    0.149081
  31 C :    0.036867
  32 C :    0.057269
  33 C :   -0.083611
  34 C :   -0.074527
  35 C :    0.147293
  36 C :   -0.119071
  37 S :    0.138271
  38 C :   -0.120488
  39 C :    0.161754
  40 N :   -0.170006
  41 C :    0.125913
  42 C :   -0.104485
  43 C :   -0.051845
  44 S :    0.143019
  45 C :   -0.039089
  46 C :   -0.098546
  47 C :    0.140222
  48 C :   -0.125683
  49 S :    0.150311
  50 C :   -0.106136
  51 C :    0.115664
  52 N :   -0.015887
  53 C :   -0.025073
  54 C :   -0.111096
  55 S :    0.157367
  56 C :    0.085154
  57 C :   -0.027351
  58 C :    0.041577
  59 C :   -0.076085
  60 C :    0.305758
  61 C :   -0.355389
  62 C :   -0.184105
  63 N :    0.150434
  64 C :   -0.187393
  65 N :    0.153626
  66 C :    0.017231
  67 C :   -0.005957
  68 C :   -0.029675
  69 C :    0.044255
  70 C :    0.045031
  71 C :   -0.035706
  72 C :    0.224488
  73 C :   -0.343257
  74 C :   -0.184873
  75 N :    0.155311
  76 C :   -0.188416
  77 N :    0.168693
  78 H :    0.004103
  79 H :    0.001455
  80 H :    0.003016
  81 H :    0.004601
  82 H :    0.019869
  83 H :    0.000156
  84 H :    0.131076
  85 H :   -0.023881
  86 H :   -0.019845
  87 H :   -0.017245
  88 H :   -0.026389
  89 H :    0.038383
  90 H :    0.040475
  91 H :    0.045721
  92 H :   -0.028841
  93 H :   -0.028156
  94 H :    0.129039
  95 H :   -0.008572
  96 H :    0.012648
  97 H :    0.002885
  98 H :    0.022919
  99 H :    0.004499
 100 H :    0.002948
 101 H :    0.002681
 102 H :    0.005112
Sum of atomic charges:    0.0000000

LOEWDIN ATOMIC CHARGES
----------------------
   0 C :    0.003684
   1 C :   -0.001908
   2 C :    0.001663
   3 C :   -0.000752
   4 C :   -0.009293
   5 C :   -0.013721
   6 C :    0.080015
   7 C :   -0.143359
   8 C :   -0.019318
   9 N :   -0.054605
  10 C :   -0.019256
  11 N :   -0.056034
  12 C :   -0.079532
  13 C :    0.058214
  14 C :   -0.140244
  15 C :   -0.031836
  16 N :   -0.050834
  17 C :   -0.019648
  18 N :   -0.051961
  19 C :    0.042933
  20 C :   -0.177576
  21 C :   -0.010561
  22 C :   -0.019099
  23 C :   -0.185964
  24 S :    0.443805
  25 C :   -0.230647
  26 C :    0.008375
  27 N :    0.064940
  28 C :   -0.084539
  29 C :   -0.136149
  30 S :    0.421746
  31 C :   -0.052884
  32 C :   -0.025618
  33 C :   -0.162239
  34 C :   -0.070819
  35 C :   -0.014084
  36 C :   -0.220902
  37 S :    0.416747
  38 C :   -0.221512
  39 C :   -0.014745
  40 N :    0.025504
  41 C :    0.040073
  42 C :   -0.071970
  43 C :   -0.178421
  44 S :    0.414121
  45 C :   -0.158785
  46 C :   -0.082909
  47 C :    0.000522
  48 C :   -0.230669
  49 S :    0.418528
  50 C :   -0.200813
  51 C :   -0.015607
  52 N :    0.061501
  53 C :   -0.032244
  54 C :   -0.175384
  55 S :    0.428719
  56 C :    0.022487
  57 C :   -0.050860
  58 C :    0.061106
  59 C :   -0.072950
  60 C :    0.077911
  61 C :   -0.140468
  62 C :   -0.021380
  63 N :   -0.051303
  64 C :   -0.018957
  65 N :   -0.053590
  66 C :   -0.012873
  67 C :   -0.011741
  68 C :    0.000096
  69 C :    0.001593
  70 C :   -0.000202
  71 C :    0.003415
  72 C :    0.065435
  73 C :   -0.140907
  74 C :   -0.021296
  75 N :   -0.054342
  76 C :   -0.014378
  77 N :   -0.051584
  78 H :    0.040944
  79 H :    0.036366
  80 H :    0.036557
  81 H :    0.040184
  82 H :    0.050617
  83 H :    0.042602
  84 H :    0.097043
  85 H :    0.030345
  86 H :    0.026415
  87 H :    0.027678
  88 H :    0.028617
  89 H :    0.033863
  90 H :    0.034862
  91 H :    0.030057
  92 H :    0.028302
  93 H :    0.029505
  94 H :    0.095624
  95 H :    0.037874
  96 H :    0.034608
  97 H :    0.035690
  98 H :    0.047275
  99 H :    0.040320
 100 H :    0.036791
 101 H :    0.036845
 102 H :    0.041154

  Mayer bond orders larger than 0.100000
B(  0-C ,  1-C ) :   1.3698 B(  0-C ,  5-C ) :   1.3860 B(  0-C , 78-H ) :   0.9831
B(  1-C ,  2-C ) :   1.3814 B(  1-C , 79-H ) :   0.9856 B(  2-C ,  3-C ) :   1.3613
B(  2-C , 80-H ) :   0.9860 B(  3-C ,  4-C ) :   1.3867 B(  3-C , 81-H ) :   0.9871
B(  4-C ,  5-C ) :   1.3160 B(  4-C , 13-C ) :   1.0093 B(  5-C ,  6-C ) :   0.9962
B(  6-C ,  7-C ) :   1.6149 B(  6-C , 12-C ) :   1.0842 B(  7-C ,  8-C ) :   1.1488
B(  7-C , 10-C ) :   1.1419 B(  8-C ,  9-N ) :   2.9728 B( 10-C , 11-N ) :   2.9570
B( 12-C , 13-C ) :   1.0399 B( 12-C , 19-C ) :   1.5117 B( 13-C , 14-C ) :   1.6379
B( 14-C , 15-C ) :   1.1495 B( 14-C , 17-C ) :   1.1470 B( 15-C , 16-N ) :   3.0176
B( 17-C , 18-N ) :   2.9923 B( 19-C , 20-C ) :   1.2441 B( 19-C , 82-H ) :   0.9324
B( 20-C , 21-C ) :   1.3500 B( 20-C , 24-S ) :   1.0718 B( 21-C , 22-C ) :   1.2727
B( 21-C , 83-H ) :   1.0219 B( 22-C , 23-C ) :   1.3371 B( 22-C , 27-N ) :   1.1447
B( 23-C , 24-S ) :   1.0584 B( 23-C , 25-C ) :   1.4340 B( 25-C , 26-C ) :   1.3684
B( 25-C , 30-S ) :   1.0232 B( 26-C , 27-N ) :   1.1865 B( 26-C , 28-C ) :   1.2361
B( 27-N , 84-H ) :   0.9333 B( 28-C , 29-C ) :   1.4698 B( 28-C , 85-H ) :   1.0088
B( 29-C , 30-S ) :   1.1035 B( 29-C , 31-C ) :   1.1357 B( 31-C , 32-C ) :   1.6923
B( 31-C , 86-H ) :   0.9590 B( 32-C , 33-C ) :   1.1417 B( 32-C , 87-H ) :   0.9565
B( 33-C , 34-C ) :   1.4722 B( 33-C , 37-S ) :   1.0898 B( 34-C , 35-C ) :   1.2409
B( 34-C , 88-H ) :   1.0044 B( 35-C , 36-C ) :   1.3852 B( 35-C , 40-N ) :   1.1439
B( 36-C , 37-S ) :   1.0381 B( 36-C , 38-C ) :   1.3969 B( 38-C , 39-C ) :   1.3927
B( 38-C , 44-S ) :   1.0369 B( 39-C , 40-N ) :   1.1473 B( 39-C , 42-C ) :   1.2259
B( 40-N , 41-C ) :   0.9700 B( 41-C , 89-H ) :   0.9717 B( 41-C , 90-H ) :   0.9718
B( 41-C , 91-H ) :   0.9736 B( 42-C , 43-C ) :   1.4990 B( 42-C , 92-H ) :   1.0089
B( 43-C , 44-S ) :   1.0906 B( 43-C , 45-C ) :   1.1374 B( 45-C , 46-C ) :   1.4964
B( 45-C , 49-S ) :   1.1008 B( 46-C , 47-C ) :   1.2196 B( 46-C , 93-H ) :   1.0134
B( 47-C , 48-C ) :   1.3912 B( 47-C , 52-N ) :   1.1740 B( 48-C , 49-S ) :   1.0287
B( 48-C , 50-C ) :   1.4067 B( 50-C , 51-C ) :   1.3535 B( 50-C , 55-S ) :   1.0635
B( 51-C , 52-N ) :   1.1520 B( 51-C , 53-C ) :   1.2877 B( 52-N , 94-H ) :   0.9339
B( 53-C , 54-C ) :   1.4111 B( 53-C , 95-H ) :   1.0052 B( 54-C , 55-S ) :   1.0690
B( 54-C , 56-C ) :   1.2217 B( 56-C , 57-C ) :   1.5774 B( 56-C , 96-H ) :   0.9522
B( 57-C , 58-C ) :   1.2343 B( 57-C , 97-H ) :   0.9552 B( 58-C , 59-C ) :   1.5390
B( 58-C , 98-H ) :   0.9248 B( 59-C , 60-C ) :   1.0794 B( 59-C , 72-C ) :   1.0363
B( 60-C , 61-C ) :   1.6179 B( 60-C , 66-C ) :   0.9926 B( 61-C , 62-C ) :   1.1408
B( 61-C , 64-C ) :   1.1496 B( 62-C , 63-N ) :   2.9659 B( 64-C , 65-N ) :   2.9727
B( 66-C , 67-C ) :   1.3146 B( 66-C , 71-C ) :   1.3809 B( 67-C , 68-C ) :   1.3854
B( 67-C , 72-C ) :   1.0031 B( 68-C , 69-C ) :   1.3642 B( 68-C , 99-H ) :   0.9864
B( 69-C , 70-C ) :   1.3776 B( 69-C ,100-H ) :   0.9869 B( 70-C , 71-C ) :   1.3696
B( 70-C ,101-H ) :   0.9866 B( 71-C ,102-H ) :   0.9834 B( 72-C , 73-C ) :   1.6350
B( 73-C , 74-C ) :   1.1415 B( 73-C , 76-C ) :   1.1569 B( 74-C , 75-N ) :   2.9911
B( 76-C , 77-N ) :   3.0013

-----------------------------------------------------------------------------
         ABSORPTION SPECTRUM VIA TRANSITION ELECTRIC DIPOLE MOMENTS
-----------------------------------------------------------------------------
State   Energy  Wavelength   fosc         T2         TX        TY        TZ
        (cm-1)    (nm)                  (au**2)     (au)      (au)      (au)
-----------------------------------------------------------------------------
   0   13318.1    750.9   2.939748207  72.66830   4.07197   7.00844  -2.63991
   1   15431.9    648.0   0.471478623  10.05814  -0.32756   3.03835  -0.84809
   2   19110.2    523.3   0.282234320   4.86205  -0.53125  -1.96206   0.85450
   3   19546.8    511.6   0.164163142   2.76488   0.99604   1.20208   0.57254
   4   21200.2    471.7   0.031381775   0.48732  -0.28988   0.63430   0.03078
   5   21357.7    468.2   0.047256960   0.72843   0.35581   0.73011   0.26223
   6   24084.3    415.2   0.397467034   5.43303   0.61879   2.24290   0.13969
   7   24773.6    403.7   0.178441190   2.37127  -0.68806  -1.20748   0.66320
   8   25496.8    392.2   0.057583691   0.74352  -0.30230  -0.00567   0.80752
   9   26095.6    383.2   0.118684989   1.49728   0.57292   0.79570  -0.73206
  10   26463.4    377.9   0.127983678   1.59215   0.15316  -1.05198   0.67973
  11   26616.3    375.7   0.081907170   1.01309   0.64028   0.55508   0.54316
  12   27227.4    367.3   0.067663336   0.81813   0.49617   0.75553   0.03348
  13   28259.7    353.9   0.060229869   0.70165  -0.44358   0.31988   0.63448
  14   28592.3    349.7   0.037177410   0.42806   0.43706   0.12904  -0.46945
  15   28935.6    345.6   0.121381640   1.38101  -0.38696  -0.12844   1.10216
  16   29733.8    336.3   0.034599977   0.38309  -0.53569  -0.14255  -0.27533
  17   30117.7    332.0   0.125901212   1.37621   0.68957   0.93832   0.14232
  18   30651.5    326.2   0.120390390   1.29305   0.20530  -0.95350   0.58459
  19   30710.1    325.6   0.038775740   0.41568   0.25524  -0.47014   0.35985
  20   30919.5    323.4   0.005293619   0.05636  -0.08312   0.13372  -0.17769
  21   31647.7    316.0   0.116513031   1.21202  -0.80572  -0.49252  -0.56590
  22   32408.5    308.6   0.096314777   0.97838   0.21804  -0.70046   0.66347
  23   32948.9    303.5   0.133988461   1.33876   0.05080   0.58295  -0.99818
  24   33269.6    300.6   0.096244022   0.95236   0.14113   0.71820  -0.64547
  25   33349.0    299.9   0.252274438   2.49038  -1.18121  -0.65282  -0.81790
  26   33716.0    296.6   0.201439265   1.96690  -1.20595  -0.71589  -0.01002
  27   33848.6    295.4   0.065806403   0.64003  -0.18648  -0.69687  -0.34587
  28   34043.8    293.7   0.060792757   0.58788  -0.12925  -0.13316  -0.74394
  29   34112.6    293.1   0.288966514   2.78874  -0.08170   1.42337  -0.86953
  30   34625.6    288.8   0.204485515   1.94420  -0.74230  -0.10928   1.17527
  31   34962.6    286.0   0.082132526   0.77337  -0.60014   0.40247  -0.50121
  32   35037.1    285.4   0.169858209   1.59600  -0.73618  -0.01132   1.02661
  33   35183.4    284.2   0.074094530   0.69330  -0.60579   0.52849   0.21684
  34   35637.5    280.6   0.244721438   2.26069  -0.69017   0.32560   1.29550
  35   35776.5    279.5   0.025435478   0.23405   0.40213  -0.13217  -0.23427
  36   36203.7    276.2   0.030017361   0.27296  -0.25119  -0.05239  -0.45510
  37   36462.9    274.3   0.001168467   0.01055  -0.06162  -0.06140   0.05462
  38   37104.5    269.5   0.000498731   0.00443   0.03206   0.02333   0.05341
  39   37201.3    268.8   0.001502997   0.01330  -0.07477   0.05102  -0.07147
  40   37274.9    268.3   0.021321475   0.18831  -0.17041  -0.26739   0.29627
  41   37445.6    267.1   0.005364211   0.04716   0.02667   0.20495  -0.06668
  42   37563.1    266.2   0.110469146   0.96818   0.36689   0.50456  -0.76091
  43   37633.4    265.7   0.040768442   0.35664   0.32710  -0.26924  -0.42089
  44   38096.7    262.5   0.005319475   0.04597   0.06804  -0.19604  -0.05390
  45   38384.5    260.5   0.049341010   0.42318  -0.21051   0.34878   0.50717
  46   38424.9    260.2   0.092861801   0.79561  -0.51460   0.44044   0.58035
  47   38882.7    257.2   0.025322909   0.21440   0.04756   0.12265   0.44396
  48   39502.2    253.2   0.143698647   1.19759  -0.25193   0.55006   0.91189
  49   39902.0    250.6   0.109353557   0.90222   0.69042  -0.52302  -0.38987

FINAL SINGLE POINT ENERGY     -5326.236299009745

DIPOLE MOMENT
-------------
                                X             Y             Z
Electronic contribution:      0.47054      13.22191       8.26260
Nuclear contribution   :      1.73631     -14.15225      -9.22618
                        -----------------------------------------
Total Dipole Moment    :      2.20685      -0.93034      -0.96358
                        -----------------------------------------
Magnitude (a.u.)       :      2.58151
Magnitude (Debye)      :      6.56169

Rotational constants in cm-1:     0.002889     0.000102     0.000101
Rotational constants in MHz :    86.607393     3.048545     3.026086

                             ****ORCA TERMINATED NORMALLY****
TOTAL RUN TIME: 0 days 0 hours 11 minutes 51 seconds 354 msec
