                         Program Version 4.2.0 -  RELEASE  -
|  1> # ORCA input file
|  2> # SCF done       -201.750265986521          0.000916201182
|  3> ! CAM-B3LYP def2-SVP def2/J RIJCOSX Grid4 TightSCF
|  4> %maxcore 5000
|  5> %tddft
|  6>     Mode sTDDFT
|  7>     Ethresh 5.0
|  8>     maxcore 5000
|  9> end
| 10>
| 11> %pal
| 12>   nprocs 6
| 13>   end
| 14> * xyz 0 1
| 15>    C       -7.51236        -0.32774        -6.61773
| 16>    C       -6.57086         0.59903        -7.03890
| 17>    C       -5.22970         0.46378        -6.70393
| 18>    C       -4.78756        -0.60893        -5.94479
| 19>    C       -5.71778        -1.54391        -5.52181
| 20>    C       -7.08677        -1.40228        -5.85155
| 21>    C       -7.83307        -2.50044        -5.26031
| 22>    C       -9.13595        -2.82890        -5.49782
| 23>    C       -9.98304        -2.11097        -6.37228
| 24>    N      -10.71740        -1.57294        -7.06946
| 25>    C       -9.79235        -3.95501        -4.95283
| 26>    N      -10.36661        -4.86248        -4.54863
| 27>    C       -6.89836        -3.20126        -4.37232
| 28>    C       -5.55109        -2.76081        -4.74952
| 29>    C       -4.39682        -3.47612        -4.60847
| 30>    C       -4.33141        -4.77249        -4.05751
| 31>    N       -4.23799        -5.84221        -3.65117
| 32>    C       -3.13831        -3.03254        -5.07479
| 33>    N       -2.09415        -2.72520        -5.43415
| 34>    C       -7.27237        -3.95432        -3.31338
| 35>    C       -6.46143        -4.44298        -2.23722
| 36>    S       -6.75252        -6.06525        -1.70401
| 37>    C       -5.49630        -5.98186        -0.50446
| 38>    C       -4.92727        -4.71566        -0.48177
| 39>    C       -5.47290        -3.84721        -1.46396
| 40>    N       -5.07452        -2.48501        -1.53492
| 41>    O       -5.58850        -1.77825        -2.38641
| 42>    O       -4.24781        -2.10313        -0.73624
| 43>    C       -3.90441        -4.38118         0.42731
| 44>    N       -3.07809        -4.20962         1.20275
| 45>    C       -5.11023        -7.09562         0.28379
| 46>    C       -5.65715        -8.32697         0.14163
| 47>    C       -5.25827        -9.49259         0.84148
| 48>    C       -4.28560        -9.65083         1.81839
| 49>    C       -4.15731       -10.97932         2.21297
| 50>    C       -5.04040       -11.84359         1.53312
| 51>    S       -6.02933       -11.01582         0.42279
| 52>    C       -4.81491       -13.17212         1.96876
| 53>    C       -3.78022       -13.14498         2.92970
| 54>    C       -3.34364       -11.77019         3.12320
| 55>    C       -2.37794       -11.32458         3.97558
| 56>    C       -1.65387       -12.20867         4.80405
| 57>    N       -1.07030       -12.93515         5.47148
| 58>    C       -2.04483        -9.95700         4.08354
| 59>    N       -1.77674        -8.84669         4.17604
| 60>    C       -3.46628       -14.40853         3.39688
| 61>    C       -4.24700       -15.40431         2.80563
| 62>    S       -5.40311       -14.73860         1.65708
| 63>    C       -4.08432       -16.77948         3.09772
| 64>    S       -2.84988       -17.21447         4.24819
| 65>    C       -3.16278       -18.92183         4.09748
| 66>    C       -4.18902       -19.14483         3.19142
| 67>    C       -4.70459       -17.94317         2.62857
| 68>    N       -5.74298       -18.00234         1.68458
| 69>    O       -6.21146       -16.94639         1.27167
| 70>    O       -6.12709       -19.09368         1.32185
| 71>    C       -4.68269       -20.42490         2.86708
| 72>    N       -5.01372       -21.50596         2.67013
| 73>    C       -2.39275       -19.81305         4.89080
| 74>    C       -2.55253       -21.15826         4.93741
| 75>    C       -1.78123       -22.00095         5.77686
| 76>    C       -2.10593       -23.29218         6.06866
| 77>    C       -1.19225       -24.30206         6.59914
| 78>    C       -0.01783       -24.07845         7.26178
| 79>    C        0.49039       -22.80345         7.59317
| 80>    N        0.94958       -21.79679         7.89764
| 81>    C        0.82628       -25.10313         7.74359
| 82>    N        1.55568       -25.88698         8.15519
| 83>    C       -1.77826       -25.59695         6.28411
| 84>    C       -3.07079       -25.39837         5.74418
| 85>    C       -3.83812       -26.47625         5.33447
| 86>    C       -3.31234       -27.75220         5.47216
| 87>    C       -2.04927       -27.95036         6.01309
| 88>    C       -1.26983       -26.87935         6.42348
| 89>    C       -3.36105       -23.97317         5.75540
| 90>    C       -4.60425       -23.40536         5.72122
| 91>    C       -5.79076       -24.13926         5.49473
| 92>    N       -6.77964       -24.69484         5.32814
| 93>    C       -4.87798       -22.05826         6.04679
| 94>    N       -5.16104       -20.99204         6.36294
| 95>    H       -8.55099        -0.20120        -6.87643
| 96>    H       -6.88986         1.44289        -7.63117
| 97>    H       -4.51966         1.20579        -7.03512
| 98>    H       -3.74701        -0.69695        -5.67803
| 99>    H       -8.31241        -4.24680        -3.24060
|100>    H       -4.31406        -6.91562         0.99216
|101>    H       -6.44804        -8.46279        -0.58645
|102>    H       -3.70451        -8.83600         2.20916
|103>    H       -2.70644       -14.62248         4.12768
|104>    H       -1.66360       -19.34559         5.54061
|105>    H       -3.28246       -21.62639         4.29630
|106>    H       -0.84974       -21.59823         6.14967
|107>    H       -4.81608       -26.33327         4.90463
|108>    H       -3.89539       -28.60179         5.15171
|109>    H       -1.66239       -28.95286         6.11249
|110>    H       -0.28826       -27.05090         6.83388
|111> *
|112>
|113>                          ****END OF INPUT****

CARTESIAN COORDINATES (ANGSTROEM)
---------------------------------
  C     -7.512360   -0.327740   -6.617730
  C     -6.570860    0.599030   -7.038900
  C     -5.229700    0.463780   -6.703930
  C     -4.787560   -0.608930   -5.944790
  C     -5.717780   -1.543910   -5.521810
  C     -7.086770   -1.402280   -5.851550
  C     -7.833070   -2.500440   -5.260310
  C     -9.135950   -2.828900   -5.497820
  C     -9.983040   -2.110970   -6.372280
  N    -10.717400   -1.572940   -7.069460
  C     -9.792350   -3.955010   -4.952830
  N    -10.366610   -4.862480   -4.548630
  C     -6.898360   -3.201260   -4.372320
  C     -5.551090   -2.760810   -4.749520
  C     -4.396820   -3.476120   -4.608470
  C     -4.331410   -4.772490   -4.057510
  N     -4.237990   -5.842210   -3.651170
  C     -3.138310   -3.032540   -5.074790
  N     -2.094150   -2.725200   -5.434150
  C     -7.272370   -3.954320   -3.313380
  C     -6.461430   -4.442980   -2.237220
  S     -6.752520   -6.065250   -1.704010
  C     -5.496300   -5.981860   -0.504460
  C     -4.927270   -4.715660   -0.481770
  C     -5.472900   -3.847210   -1.463960
  N     -5.074520   -2.485010   -1.534920
  O     -5.588500   -1.778250   -2.386410
  O     -4.247810   -2.103130   -0.736240
  C     -3.904410   -4.381180    0.427310
  N     -3.078090   -4.209620    1.202750
  C     -5.110230   -7.095620    0.283790
  C     -5.657150   -8.326970    0.141630
  C     -5.258270   -9.492590    0.841480
  C     -4.285600   -9.650830    1.818390
  C     -4.157310  -10.979320    2.212970
  C     -5.040400  -11.843590    1.533120
  S     -6.029330  -11.015820    0.422790
  C     -4.814910  -13.172120    1.968760
  C     -3.780220  -13.144980    2.929700
  C     -3.343640  -11.770190    3.123200
  C     -2.377940  -11.324580    3.975580
  C     -1.653870  -12.208670    4.804050
  N     -1.070300  -12.935150    5.471480
  C     -2.044830   -9.957000    4.083540
  N     -1.776740   -8.846690    4.176040
  C     -3.466280  -14.408530    3.396880
  C     -4.247000  -15.404310    2.805630
  S     -5.403110  -14.738600    1.657080
  C     -4.084320  -16.779480    3.097720
  S     -2.849880  -17.214470    4.248190
  C     -3.162780  -18.921830    4.097480
  C     -4.189020  -19.144830    3.191420
  C     -4.704590  -17.943170    2.628570
  N     -5.742980  -18.002340    1.684580
  O     -6.211460  -16.946390    1.271670
  O     -6.127090  -19.093680    1.321850
  C     -4.682690  -20.424900    2.867080
  N     -5.013720  -21.505960    2.670130
  C     -2.392750  -19.813050    4.890800
  C     -2.552530  -21.158260    4.937410
  C     -1.781230  -22.000950    5.776860
  C     -2.105930  -23.292180    6.068660
  C     -1.192250  -24.302060    6.599140
  C     -0.017830  -24.078450    7.261780
  C      0.490390  -22.803450    7.593170
  N      0.949580  -21.796790    7.897640
  C      0.826280  -25.103130    7.743590
  N      1.555680  -25.886980    8.155190
  C     -1.778260  -25.596950    6.284110
  C     -3.070790  -25.398370    5.744180
  C     -3.838120  -26.476250    5.334470
  C     -3.312340  -27.752200    5.472160
  C     -2.049270  -27.950360    6.013090
  C     -1.269830  -26.879350    6.423480
  C     -3.361050  -23.973170    5.755400
  C     -4.604250  -23.405360    5.721220
  C     -5.790760  -24.139260    5.494730
  N     -6.779640  -24.694840    5.328140
  C     -4.877980  -22.058260    6.046790
  N     -5.161040  -20.992040    6.362940
  H     -8.550990   -0.201200   -6.876430
  H     -6.889860    1.442890   -7.631170
  H     -4.519660    1.205790   -7.035120
  H     -3.747010   -0.696950   -5.678030
  H     -8.312410   -4.246800   -3.240600
  H     -4.314060   -6.915620    0.992160
  H     -6.448040   -8.462790   -0.586450
  H     -3.704510   -8.836000    2.209160
  H     -2.706440  -14.622480    4.127680
  H     -1.663600  -19.345590    5.540610
  H     -3.282460  -21.626390    4.296300
  H     -0.849740  -21.598230    6.149670
  H     -4.816080  -26.333270    4.904630
  H     -3.895390  -28.601790    5.151710
  H     -1.662390  -28.952860    6.112490
  H     -0.288260  -27.050900    6.833880

 Total Charge           Charge          ....    0
 Multiplicity           Mult            ....    1
 Number of Electrons    NEL             ....  558
 Basis Dimension        Dim             .... 1216

ORBITAL ENERGIES
----------------

  NO   OCC          E(Eh)            E(eV)
   0   2.0000     -89.012825     -2422.1621
   1   2.0000     -89.011832     -2422.1351
   2   2.0000     -89.009452     -2422.0703
   3   2.0000     -89.008675     -2422.0492
   4   2.0000     -19.271406      -524.4016
   5   2.0000     -19.268884      -524.3330
   6   2.0000     -19.268803      -524.3308
   7   2.0000     -19.268584      -524.3248
   8   2.0000     -14.679689      -399.4546
   9   2.0000     -14.677921      -399.4065
  10   2.0000     -14.444704      -393.0604
  11   2.0000     -14.442219      -392.9928
  12   2.0000     -14.441281      -392.9672
  13   2.0000     -14.439233      -392.9115
  14   2.0000     -14.437019      -392.8512
  15   2.0000     -14.435076      -392.7984
  16   2.0000     -14.432913      -392.7395
  17   2.0000     -14.429937      -392.6586
  18   2.0000     -14.428952      -392.6318
  19   2.0000     -14.427270      -392.5860
  20   2.0000     -14.425471      -392.5370
  21   2.0000     -14.416819      -392.3016
  22   2.0000     -10.380722      -282.4738
  23   2.0000     -10.380391      -282.4648
  24   2.0000     -10.372823      -282.2589
  25   2.0000     -10.372141      -282.2403
  26   2.0000     -10.371778      -282.2304
  27   2.0000     -10.369911      -282.1796
  28   2.0000     -10.369368      -282.1648
  29   2.0000     -10.367883      -282.1244
  30   2.0000     -10.367847      -282.1234
  31   2.0000     -10.367417      -282.1118
  32   2.0000     -10.363881      -282.0155
  33   2.0000     -10.362854      -281.9876
  34   2.0000     -10.362366      -281.9743
  35   2.0000     -10.362090      -281.9668
  36   2.0000     -10.358905      -281.8801
  37   2.0000     -10.356055      -281.8026
  38   2.0000     -10.355691      -281.7927
  39   2.0000     -10.352316      -281.7008
  40   2.0000     -10.351182      -281.6700
  41   2.0000     -10.350569      -281.6533
  42   2.0000     -10.350031      -281.6387
  43   2.0000     -10.349051      -281.6120
  44   2.0000     -10.346253      -281.5359
  45   2.0000     -10.344641      -281.4920
  46   2.0000     -10.344309      -281.4830
  47   2.0000     -10.342680      -281.4386
  48   2.0000     -10.341650      -281.4106
  49   2.0000     -10.341344      -281.4023
  50   2.0000     -10.338408      -281.3224
  51   2.0000     -10.336153      -281.2610
  52   2.0000     -10.334521      -281.2166
  53   2.0000     -10.334082      -281.2047
  54   2.0000     -10.333349      -281.1847
  55   2.0000     -10.331765      -281.1416
  56   2.0000     -10.331280      -281.1284
  57   2.0000     -10.330897      -281.1180
  58   2.0000     -10.330836      -281.1163
  59   2.0000     -10.330271      -281.1010
  60   2.0000     -10.329496      -281.0799
  61   2.0000     -10.328418      -281.0505
  62   2.0000     -10.328276      -281.0467
  63   2.0000     -10.328256      -281.0461
  64   2.0000     -10.324827      -280.9528
  65   2.0000     -10.322235      -280.8823
  66   2.0000     -10.321755      -280.8692
  67   2.0000     -10.321531      -280.8631
  68   2.0000     -10.321411      -280.8599
  69   2.0000     -10.320664      -280.8395
  70   2.0000     -10.319938      -280.8198
  71   2.0000     -10.316877      -280.7365
  72   2.0000     -10.315500      -280.6990
  73   2.0000     -10.314528      -280.6726
  74   2.0000     -10.313463      -280.6436
  75   2.0000     -10.313044      -280.6322
  76   2.0000     -10.308943      -280.5206
  77   2.0000     -10.307994      -280.4948
  78   2.0000     -10.307175      -280.4725
  79   2.0000     -10.306482      -280.4536
  80   2.0000      -8.107886      -220.6268
  81   2.0000      -8.107211      -220.6084
  82   2.0000      -8.103477      -220.5068
  83   2.0000      -8.101530      -220.4538
  84   2.0000      -6.077148      -165.3676
  85   2.0000      -6.076631      -165.3535
  86   2.0000      -6.072950      -165.2534
  87   2.0000      -6.072598      -165.2438
  88   2.0000      -6.072331      -165.2365
  89   2.0000      -6.071072      -165.2023
  90   2.0000      -6.070043      -165.1743
  91   2.0000      -6.069059      -165.1475
  92   2.0000      -6.068418      -165.1300
  93   2.0000      -6.066268      -165.0716
  94   2.0000      -6.066061      -165.0659
  95   2.0000      -6.063963      -165.0088
  96   2.0000      -1.351959       -36.7887
  97   2.0000      -1.350002       -36.7354
  98   2.0000      -1.170122       -31.8406
  99   2.0000      -1.167881       -31.7797
 100   2.0000      -1.063960       -28.9518
 101   2.0000      -1.058885       -28.8137
 102   2.0000      -1.053443       -28.6657
 103   2.0000      -1.049530       -28.5592
 104   2.0000      -1.046008       -28.4633
 105   2.0000      -1.035807       -28.1857
 106   2.0000      -1.035080       -28.1660
 107   2.0000      -1.027193       -27.9513
 108   2.0000      -1.024996       -27.8916
 109   2.0000      -1.021278       -27.7904
 110   2.0000      -1.017442       -27.6860
 111   2.0000      -1.016965       -27.6730
 112   2.0000      -1.016092       -27.6493
 113   2.0000      -1.014853       -27.6156
 114   2.0000      -1.009457       -27.4687
 115   2.0000      -1.007547       -27.4167
 116   2.0000      -1.005879       -27.3713
 117   2.0000      -0.999464       -27.1968
 118   2.0000      -0.978793       -26.6343
 119   2.0000      -0.975999       -26.5583
 120   2.0000      -0.971227       -26.4284
 121   2.0000      -0.959280       -26.1033
 122   2.0000      -0.956852       -26.0373
 123   2.0000      -0.956260       -26.0211
 124   2.0000      -0.950238       -25.8573
 125   2.0000      -0.939868       -25.5751
 126   2.0000      -0.935472       -25.4555
 127   2.0000      -0.930286       -25.3144
 128   2.0000      -0.914714       -24.8906
 129   2.0000      -0.911333       -24.7986
 130   2.0000      -0.904053       -24.6005
 131   2.0000      -0.901409       -24.5286
 132   2.0000      -0.884782       -24.0762
 133   2.0000      -0.881266       -23.9805
 134   2.0000      -0.877279       -23.8720
 135   2.0000      -0.875569       -23.8254
 136   2.0000      -0.874303       -23.7910
 137   2.0000      -0.868000       -23.6195
 138   2.0000      -0.839174       -22.8351
 139   2.0000      -0.826411       -22.4878
 140   2.0000      -0.820641       -22.3308
 141   2.0000      -0.809328       -22.0229
 142   2.0000      -0.808205       -21.9924
 143   2.0000      -0.800571       -21.7847
 144   2.0000      -0.792293       -21.5594
 145   2.0000      -0.779843       -21.2206
 146   2.0000      -0.766620       -20.8608
 147   2.0000      -0.751189       -20.4409
 148   2.0000      -0.743275       -20.2255
 149   2.0000      -0.734698       -19.9922
 150   2.0000      -0.732394       -19.9294
 151   2.0000      -0.730564       -19.8797
 152   2.0000      -0.725906       -19.7529
 153   2.0000      -0.724177       -19.7059
 154   2.0000      -0.717508       -19.5244
 155   2.0000      -0.706982       -19.2380
 156   2.0000      -0.702545       -19.1172
 157   2.0000      -0.696743       -18.9593
 158   2.0000      -0.693856       -18.8808
 159   2.0000      -0.687583       -18.7101
 160   2.0000      -0.683961       -18.6115
 161   2.0000      -0.678290       -18.4572
 162   2.0000      -0.676632       -18.4121
 163   2.0000      -0.673628       -18.3304
 164   2.0000      -0.669143       -18.2083
 165   2.0000      -0.667147       -18.1540
 166   2.0000      -0.662452       -18.0262
 167   2.0000      -0.661367       -17.9967
 168   2.0000      -0.659271       -17.9397
 169   2.0000      -0.649170       -17.6648
 170   2.0000      -0.645901       -17.5759
 171   2.0000      -0.640463       -17.4279
 172   2.0000      -0.636990       -17.3334
 173   2.0000      -0.630928       -17.1684
 174   2.0000      -0.622023       -16.9261
 175   2.0000      -0.616911       -16.7870
 176   2.0000      -0.612149       -16.6574
 177   2.0000      -0.610468       -16.6117
 178   2.0000      -0.605523       -16.4771
 179   2.0000      -0.603221       -16.4145
 180   2.0000      -0.596371       -16.2281
 181   2.0000      -0.594635       -16.1808
 182   2.0000      -0.585558       -15.9338
 183   2.0000      -0.581592       -15.8259
 184   2.0000      -0.572275       -15.5724
 185   2.0000      -0.569306       -15.4916
 186   2.0000      -0.565429       -15.3861
 187   2.0000      -0.562382       -15.3032
 188   2.0000      -0.557624       -15.1737
 189   2.0000      -0.554443       -15.0872
 190   2.0000      -0.552632       -15.0379
 191   2.0000      -0.550294       -14.9743
 192   2.0000      -0.548892       -14.9361
 193   2.0000      -0.545694       -14.8491
 194   2.0000      -0.544208       -14.8087
 195   2.0000      -0.542610       -14.7652
 196   2.0000      -0.541225       -14.7275
 197   2.0000      -0.533419       -14.5151
 198   2.0000      -0.530041       -14.4231
 199   2.0000      -0.525958       -14.3120
 200   2.0000      -0.523046       -14.2328
 201   2.0000      -0.522640       -14.2218
 202   2.0000      -0.519703       -14.1418
 203   2.0000      -0.517976       -14.0948
 204   2.0000      -0.515375       -14.0241
 205   2.0000      -0.512894       -13.9566
 206   2.0000      -0.508310       -13.8318
 207   2.0000      -0.507591       -13.8122
 208   2.0000      -0.504219       -13.7205
 209   2.0000      -0.500744       -13.6259
 210   2.0000      -0.498295       -13.5593
 211   2.0000      -0.496333       -13.5059
 212   2.0000      -0.488254       -13.2861
 213   2.0000      -0.482302       -13.1241
 214   2.0000      -0.482021       -13.1165
 215   2.0000      -0.477959       -13.0059
 216   2.0000      -0.474395       -12.9089
 217   2.0000      -0.473949       -12.8968
 218   2.0000      -0.473042       -12.8721
 219   2.0000      -0.471313       -12.8251
 220   2.0000      -0.470901       -12.8139
 221   2.0000      -0.470147       -12.7934
 222   2.0000      -0.469215       -12.7680
 223   2.0000      -0.467756       -12.7283
 224   2.0000      -0.465972       -12.6797
 225   2.0000      -0.464714       -12.6455
 226   2.0000      -0.464249       -12.6329
 227   2.0000      -0.463747       -12.6192
 228   2.0000      -0.462399       -12.5825
 229   2.0000      -0.461422       -12.5559
 230   2.0000      -0.460095       -12.5198
 231   2.0000      -0.457415       -12.4469
 232   2.0000      -0.456963       -12.4346
 233   2.0000      -0.454529       -12.3684
 234   2.0000      -0.453565       -12.3421
 235   2.0000      -0.453465       -12.3394
 236   2.0000      -0.453314       -12.3353
 237   2.0000      -0.452068       -12.3014
 238   2.0000      -0.449753       -12.2384
 239   2.0000      -0.448618       -12.2075
 240   2.0000      -0.446948       -12.1621
 241   2.0000      -0.445783       -12.1304
 242   2.0000      -0.443944       -12.0803
 243   2.0000      -0.442910       -12.0522
 244   2.0000      -0.440712       -11.9924
 245   2.0000      -0.439813       -11.9679
 246   2.0000      -0.438370       -11.9286
 247   2.0000      -0.436970       -11.8906
 248   2.0000      -0.435444       -11.8490
 249   2.0000      -0.433953       -11.8084
 250   2.0000      -0.432664       -11.7734
 251   2.0000      -0.431565       -11.7435
 252   2.0000      -0.428822       -11.6688
 253   2.0000      -0.424432       -11.5494
 254   2.0000      -0.421648       -11.4736
 255   2.0000      -0.419950       -11.4274
 256   2.0000      -0.418155       -11.3786
 257   2.0000      -0.415295       -11.3008
 258   2.0000      -0.410100       -11.1594
 259   2.0000      -0.408343       -11.1116
 260   2.0000      -0.404353       -11.0030
 261   2.0000      -0.396936       -10.8012
 262   2.0000      -0.394575       -10.7369
 263   2.0000      -0.393206       -10.6997
 264   2.0000      -0.385756       -10.4970
 265   2.0000      -0.381071       -10.3695
 266   2.0000      -0.380451       -10.3526
 267   2.0000      -0.373172       -10.1545
 268   2.0000      -0.369824       -10.0634
 269   2.0000      -0.365691        -9.9510
 270   2.0000      -0.359620        -9.7858
 271   2.0000      -0.347865        -9.4659
 272   2.0000      -0.342861        -9.3297
 273   2.0000      -0.339276        -9.2322
 274   2.0000      -0.337789        -9.1917
 275   2.0000      -0.326404        -8.8819
 276   2.0000      -0.317983        -8.6528
 277   2.0000      -0.299725        -8.1559
 278   2.0000      -0.269239        -7.3264
 279   0.0000      -0.129171        -3.5149
 280   0.0000      -0.121899        -3.3170
 281   0.0000      -0.115806        -3.1512
 282   0.0000      -0.101593        -2.7645
 283   0.0000      -0.095152        -2.5892

MULLIKEN ATOMIC CHARGES
-----------------------
   0 C :   -0.033891
   1 C :    0.052222
   2 C :    0.049102
   3 C :   -0.021688
   4 C :    0.015343
   5 C :    0.025503
   6 C :    0.268256
   7 C :   -0.330454
   8 C :   -0.186892
   9 N :    0.172783
  10 C :   -0.183463
  11 N :    0.168857
  12 C :   -0.001216
  13 C :    0.257420
  14 C :   -0.347187
  15 C :   -0.179434
  16 N :    0.173214
  17 C :   -0.180769
  18 N :    0.183335
  19 C :    0.032590
  20 C :   -0.247375
  21 S :    0.217962
  22 C :   -0.035445
  23 C :   -0.088599
  24 C :    0.268104
  25 N :    0.262576
  26 O :   -0.249001
  27 O :   -0.196109
  28 C :   -0.222364
  29 N :    0.174126
  30 C :   -0.004835
  31 C :    0.053132
  32 C :   -0.085700
  33 C :   -0.019712
  34 C :    0.007456
  35 C :   -0.102889
  36 S :    0.213932
  37 C :   -0.071374
  38 C :    0.043171
  39 C :    0.301292
  40 C :   -0.287843
  41 C :   -0.188076
  42 N :    0.177699
  43 C :   -0.188463
  44 N :    0.186387
  45 C :   -0.087200
  46 C :   -0.057364
  47 S :    0.258262
  48 C :   -0.155166
  49 S :    0.186861
  50 C :   -0.063025
  51 C :   -0.072336
  52 C :    0.193583
  53 N :    0.290895
  54 O :   -0.277243
  55 O :   -0.202717
  56 C :   -0.196488
  57 N :    0.150562
  58 C :    0.066487
  59 C :   -0.017645
  60 C :    0.023790
  61 C :   -0.045562
  62 C :    0.293298
  63 C :   -0.332198
  64 C :   -0.184166
  65 N :    0.163120
  66 C :   -0.189085
  67 N :    0.166833
  68 C :    0.012811
  69 C :    0.008550
  70 C :   -0.026508
  71 C :    0.050257
  72 C :    0.046351
  73 C :   -0.029349
  74 C :    0.228989
  75 C :   -0.300525
  76 C :   -0.178607
  77 N :    0.172340
  78 C :   -0.200203
  79 N :    0.174575
  80 H :    0.009720
  81 H :    0.010230
  82 H :    0.012216
  83 H :    0.014488
  84 H :    0.037531
  85 H :    0.030715
  86 H :    0.001331
  87 H :    0.019476
  88 H :    0.028572
  89 H :    0.010915
  90 H :    0.044609
  91 H :    0.021069
  92 H :    0.012216
  93 H :    0.008652
  94 H :    0.007198
  95 H :    0.007206
Sum of atomic charges:   -0.0000000

LOEWDIN ATOMIC CHARGES
----------------------
   0 C :    0.007953
   1 C :    0.008965
   2 C :    0.012317
   3 C :    0.011929
   4 C :   -0.002454
   5 C :   -0.009865
   6 C :    0.079314
   7 C :   -0.120284
   8 C :   -0.019620
   9 N :   -0.032092
  10 C :   -0.021761
  11 N :   -0.036326
  12 C :   -0.007590
  13 C :    0.076350
  14 C :   -0.124700
  15 C :   -0.021559
  16 N :   -0.047544
  17 C :   -0.020698
  18 N :   -0.028508
  19 C :    0.012242
  20 C :   -0.149277
  21 S :    0.524499
  22 C :   -0.112756
  23 C :   -0.089848
  24 C :   -0.045062
  25 N :    0.286540
  26 O :   -0.202356
  27 O :   -0.153569
  28 C :   -0.043642
  29 N :   -0.030958
  30 C :   -0.033528
  31 C :   -0.018977
  32 C :   -0.164258
  33 C :   -0.012561
  34 C :   -0.057741
  35 C :   -0.180743
  36 S :    0.496695
  37 C :   -0.178397
  38 C :   -0.067393
  39 C :    0.076699
  40 C :   -0.094891
  41 C :   -0.015748
  42 N :   -0.027562
  43 C :   -0.020119
  44 N :   -0.018642
  45 C :   -0.016407
  46 C :   -0.205830
  47 S :    0.551767
  48 C :   -0.129417
  49 S :    0.507695
  50 C :   -0.131765
  51 C :   -0.079154
  52 C :   -0.069832
  53 N :    0.291295
  54 O :   -0.235400
  55 O :   -0.156214
  56 C :   -0.027709
  57 N :   -0.042504
  58 C :   -0.006654
  59 C :   -0.001376
  60 C :    0.051482
  61 C :   -0.034677
  62 C :    0.076658
  63 C :   -0.124031
  64 C :   -0.020978
  65 N :   -0.039797
  66 C :   -0.019356
  67 N :   -0.037609
  68 C :   -0.014660
  69 C :   -0.008404
  70 C :    0.005615
  71 C :    0.008856
  72 C :    0.004121
  73 C :    0.006711
  74 C :    0.067099
  75 C :   -0.110656
  76 C :   -0.015453
  77 N :   -0.030618
  78 C :   -0.018139
  79 N :   -0.041373
  80 H :    0.042751
  81 H :    0.040363
  82 H :    0.041012
  83 H :    0.044519
  84 H :    0.050889
  85 H :    0.048296
  86 H :    0.026531
  87 H :    0.044991
  88 H :    0.034041
  89 H :    0.040993
  90 H :    0.038764
  91 H :    0.047297
  92 H :    0.043282
  93 H :    0.039511
  94 H :    0.038968
  95 H :    0.042029

  Mayer bond orders larger than 0.100000
B(  0-C ,  1-C ) :   1.3775 B(  0-C ,  5-C ) :   1.3738 B(  0-C , 80-H ) :   0.9852
B(  1-C ,  2-C ) :   1.3683 B(  1-C , 81-H ) :   0.9859 B(  2-C ,  3-C ) :   1.3711
B(  2-C , 82-H ) :   0.9861 B(  3-C ,  4-C ) :   1.3789 B(  3-C , 83-H ) :   0.9879
B(  4-C ,  5-C ) :   1.3019 B(  4-C , 13-C ) :   1.0220 B(  5-C ,  6-C ) :   1.0120
B(  6-C ,  7-C ) :   1.6711 B(  6-C , 12-C ) :   1.0285 B(  7-C ,  8-C ) :   1.1391
B(  7-C , 10-C ) :   1.1332 B(  8-C ,  9-N ) :   2.9879 B( 10-C , 11-N ) :   2.9889
B( 12-C , 13-C ) :   0.9698 B( 12-C , 19-C ) :   1.7732 B( 13-C , 14-C ) :   1.6873
B( 14-C , 15-C ) :   1.1598 B( 14-C , 17-C ) :   1.1339 B( 15-C , 16-N ) :   2.9962
B( 17-C , 18-N ) :   3.0047 B( 19-C , 20-C ) :   1.0522 B( 19-C , 84-H ) :   0.9075
B( 20-C , 21-S ) :   1.1913 B( 20-C , 24-C ) :   1.4524 B( 21-S , 22-C ) :   1.0975
B( 22-C , 23-C ) :   1.4964 B( 22-C , 30-C ) :   1.1979 B( 23-C , 24-C ) :   1.2457
B( 23-C , 28-C ) :   1.1264 B( 24-C , 25-N ) :   0.9317 B( 25-N , 26-O ) :   1.4806
B( 25-N , 27-O ) :   1.5475 B( 26-O , 27-O ) :   0.2660 B( 28-C , 29-N ) :   2.9974
B( 30-C , 31-C ) :   1.6489 B( 30-C , 85-H ) :   0.9626 B( 31-C , 32-C ) :   1.1342
B( 31-C , 86-H ) :   0.9587 B( 32-C , 33-C ) :   1.4417 B( 32-C , 36-S ) :   1.1085
B( 33-C , 34-C ) :   1.3159 B( 33-C , 87-H ) :   0.9899 B( 34-C , 35-C ) :   1.4183
B( 34-C , 39-C ) :   0.9962 B( 35-C , 36-S ) :   1.1361 B( 35-C , 37-C ) :   1.1940
B( 37-C , 38-C ) :   1.3865 B( 37-C , 47-S ) :   1.1215 B( 38-C , 39-C ) :   0.9902
B( 38-C , 45-C ) :   1.3638 B( 39-C , 40-C ) :   1.7192 B( 40-C , 41-C ) :   1.1366
B( 40-C , 43-C ) :   1.1312 B( 41-C , 42-N ) :   2.9850 B( 43-C , 44-N ) :   2.9916
B( 45-C , 46-C ) :   1.3638 B( 45-C , 88-H ) :   0.9780 B( 46-C , 47-S ) :   1.0953
B( 46-C , 48-C ) :   1.2307 B( 48-C , 49-S ) :   1.1825 B( 48-C , 52-C ) :   1.4108
B( 49-S , 50-C ) :   1.0819 B( 50-C , 51-C ) :   1.5277 B( 50-C , 58-C ) :   1.1343
B( 51-C , 52-C ) :   1.2417 B( 51-C , 56-C ) :   1.1407 B( 52-C , 53-N ) :   0.9790
B( 53-N , 54-O ) :   1.4125 B( 53-N , 55-O ) :   1.5440 B( 54-O , 55-O ) :   0.2499
B( 56-C , 57-N ) :   2.9148 B( 58-C , 59-C ) :   1.6797 B( 58-C , 89-H ) :   0.9532
B( 59-C , 60-C ) :   1.1288 B( 59-C , 90-H ) :   0.9388 B( 60-C , 61-C ) :   1.6143
B( 60-C , 91-H ) :   0.9542 B( 61-C , 62-C ) :   1.0301 B( 61-C , 74-C ) :   1.0091
B( 62-C , 63-C ) :   1.6571 B( 62-C , 68-C ) :   1.0075 B( 63-C , 64-C ) :   1.1340
B( 63-C , 66-C ) :   1.1428 B( 64-C , 65-N ) :   2.9812 B( 66-C , 67-N ) :   2.9815
B( 68-C , 69-C ) :   1.3051 B( 68-C , 73-C ) :   1.3799 B( 69-C , 70-C ) :   1.3849
B( 69-C , 74-C ) :   1.0129 B( 70-C , 71-C ) :   1.3669 B( 70-C , 92-H ) :   0.9858
B( 71-C , 72-C ) :   1.3735 B( 71-C , 93-H ) :   0.9868 B( 72-C , 73-C ) :   1.3735
B( 72-C , 94-H ) :   0.9865 B( 73-C , 95-H ) :   0.9839 B( 74-C , 75-C ) :   1.6668
B( 75-C , 76-C ) :   1.1396 B( 75-C , 78-C ) :   1.1554 B( 76-C , 77-N ) :   2.9961
B( 78-C , 79-N ) :   2.9948

-----------------------------------------------------------------------------
         ABSORPTION SPECTRUM VIA TRANSITION ELECTRIC DIPOLE MOMENTS
-----------------------------------------------------------------------------
State   Energy  Wavelength   fosc         T2         TX        TY        TZ
        (cm-1)    (nm)                  (au**2)     (au)      (au)      (au)
-----------------------------------------------------------------------------
   0   14073.6    710.5   0.510792544  11.94852   0.50851  -3.16194   1.30081
   1   17417.2    574.1   0.934723003  17.66767  -0.84791   3.39388  -2.33029
   2   19057.6    524.7   0.714631451  12.34498   0.48312  -3.37241   0.85930
   3   22231.6    449.8   0.417201640   6.17805  -0.16759  -2.47375  -0.17473
   4   24046.2    415.9   0.011242812   0.15392   0.16953  -0.35380  -0.00205
   5   24684.8    405.1   0.047260418   0.63030   0.62782  -0.30729   0.37644
   6   24803.6    403.2   0.059524935   0.79006  -0.38446  -0.25523  -0.75968
   7   25044.1    399.3   0.137716259   1.81032  -1.25825   0.07279  -0.47100
   8   25484.1    392.4   0.007841053   0.10129   0.05423  -0.06081  -0.30766
   9   27402.3    364.9   0.118088738   1.41872  -0.16205   1.01292  -0.60535
  10   27631.8    361.9   0.208846876   2.48825   0.29610  -1.04430   1.14456
  11   28433.4    351.7   0.352080787   4.07651   0.36098  -1.79039   0.86063
  12   29058.9    344.1   0.065924583   0.74687  -0.27439   0.63212  -0.52154
  13   29819.6    335.3   0.039098216   0.43165  -0.18471   0.51413  -0.36496
  14   30321.0    329.8   0.052774637   0.57300  -0.55615   0.41820  -0.29800
  15   30681.0    325.9   0.040079735   0.43006   0.10717   0.59546   0.25300
  16   30924.3    323.4   0.037259286   0.39665  -0.05841   0.61631   0.11580
  17   31394.6    318.5   0.341605152   3.58216   1.29413   0.74863   1.16058
  18   31759.6    314.9   0.415135482   4.30319   2.02698  -0.26930   0.34930
  19   32062.5    311.9   0.070907338   0.72806  -0.84754   0.09175   0.03643
  20   32351.1    309.1   0.420998950   4.28418  -1.96278  -0.00278  -0.65702
  21   32932.7    303.7   0.012177623   0.12173  -0.10517   0.32924   0.04771
  22   33186.4    301.3   0.040384772   0.40062  -0.26284  -0.29315  -0.49558
  23   33367.6    299.7   0.082616711   0.81511   0.68321  -0.52845   0.26282
  24   33682.5    296.9   0.005843332   0.05711  -0.01837  -0.17833   0.15804
  25   33778.9    296.0   0.134368329   1.30956  -0.07358   1.11263   0.25731
  26   33940.9    294.6   0.075957561   0.73676   0.51770   0.25937   0.63362
  27   33963.2    294.4   0.278781048   2.70228  -1.58751  -0.07882  -0.41938
  28   34170.4    292.7   0.227459988   2.19144   0.21710  -1.25084   0.76139
  29   34607.7    289.0   0.170644381   1.62328  -1.03577  -0.74138  -0.02866
  30   34768.7    287.6   0.183598353   1.73843  -0.83386   0.83645  -0.58605
  31   34913.3    286.4   0.114181948   1.07667  -1.00725   0.16255  -0.18891
  32   35273.6    283.5   0.010218193   0.09537  -0.11853   0.15218   0.24116
  33   35651.8    280.5   0.426115021   3.93479  -0.75451  -1.72671  -0.61965
  34   35924.0    278.4   0.035374855   0.32418   0.24423   0.50205   0.11169
  35   36334.7    275.2   0.177603165   1.60918  -0.43285  -1.05519   0.55534
  36   36469.0    274.2   0.196579588   1.77456   0.16579  -1.27925   0.33254
  37   37391.3    267.4   0.048828123   0.42991   0.54094   0.37047  -0.00667
  38   37693.3    265.3   0.015179652   0.13258   0.35622   0.05987   0.04582
  39   37915.5    263.7   0.163388767   1.41867  -0.01540   0.97491  -0.68408
  40   38086.6    262.6   0.042562845   0.36790  -0.11887  -0.02898  -0.59408
  41   38153.4    262.1   0.004363558   0.03765  -0.16201   0.10654   0.00727
  42   38268.3    261.3   0.145169785   1.24886  -0.44826  -0.92552   0.43741
  43   38291.3    261.2   0.025929800   0.22293  -0.23613  -0.40480  -0.05755
  44   38600.5    259.1   0.021438214   0.18284  -0.36236   0.20742  -0.09225
  45   38898.6    257.1   0.113941967   0.96433   0.97681  -0.10005  -0.01260
  46   39118.4    255.6   0.058963274   0.49622  -0.23552   0.50279  -0.43354
  47   39245.1    254.8   0.160504091   1.34641  -0.02015  -1.08944  -0.39891
  48   39615.5    252.4   0.014563702   0.12103  -0.16667   0.19546  -0.23461
  49   39768.6    251.5   0.014694114   0.12164   0.20129  -0.26588   0.10212
  50   39900.7    250.6   0.033616550   0.27736   0.27604  -0.21106   0.39575
  51   39941.7    250.4   0.042279680   0.34848   0.32896  -0.44635   0.20258
  52   40320.8    248.0   0.007249617   0.05919  -0.14390  -0.18526  -0.06450

FINAL SINGLE POINT ENERGY     -4874.827383289798

DIPOLE MOMENT
-------------
                                X             Y             Z
Electronic contribution:     -6.34185      12.40795       1.12332
Nuclear contribution   :      5.55541     -12.37090      -3.05445
                        -----------------------------------------
Total Dipole Moment    :     -0.78644       0.03706      -1.93113
                        -----------------------------------------
Magnitude (a.u.)       :      2.08546
Magnitude (Debye)      :      5.30081

Rotational constants in cm-1:     0.002304     0.000161     0.000155
Rotational constants in MHz :    69.062664     4.829235     4.641342

                             ****ORCA TERMINATED NORMALLY****
TOTAL RUN TIME: 0 days 0 hours 10 minutes 33 seconds 321 msec
