                         Program Version 4.2.0 -  RELEASE  -
|  1> # ORCA input file
|  2> # SCF done       -156.974978023073          0.000732735688
|  3> ! CAM-B3LYP def2-SVP def2/J RIJCOSX Grid4 TightSCF
|  4> %maxcore 5000
|  5> %tddft
|  6>     Mode sTDDFT
|  7>     Ethresh 5.0
|  8>     maxcore 5000
|  9> end
| 10>
| 11> %pal
| 12>   nprocs 6
| 13>   end
| 14> * xyz 0 1
| 15>    C       -1.85862         2.30031         3.32576
| 16>    C       -1.97463         2.41806         4.70255
| 17>    C       -2.97685         1.75484         5.39759
| 18>    C       -3.89769         0.95813         4.73438
| 19>    C       -3.79184         0.83186         3.35868
| 20>    C       -2.76703         1.50093         2.64884
| 21>    C       -2.87915         1.17629         1.23361
| 22>    C       -2.16352         1.73464         0.21289
| 23>    C       -1.18373         2.73646         0.39312
| 24>    N       -0.37885         3.55000         0.47141
| 25>    C       -2.32052         1.43110        -1.15844
| 26>    N       -2.38942         1.24229        -2.28797
| 27>    C       -3.90483         0.13906         1.12635
| 28>    C       -4.61115         0.10375         2.40480
| 29>    C       -5.89689        -0.32238         2.59533
| 30>    C       -6.75407        -0.73316         1.55039
| 31>    N       -7.50989        -0.99384         0.72742
| 32>    C       -6.55297        -0.28960         3.84496
| 33>    N       -7.11626        -0.29318         4.84386
| 34>    C       -4.06086        -0.71020         0.07491
| 35>    C       -4.76820        -1.94196         0.08515
| 36>    C       -4.94356        -2.87340         1.21246
| 37>    N       -5.57420        -3.96623         0.90763
| 38>    C       -5.88999        -3.85834        -0.41485
| 39>    C       -5.35832        -2.60370        -0.96647
| 40>    C       -5.67716        -2.49175        -2.36742
| 41>    S       -5.26954        -1.26290        -3.37558
| 42>    C       -6.40246        -3.70480        -2.65571
| 43>    C       -6.52515        -4.52466        -1.43038
| 44>    N       -7.21159        -5.67340        -1.68612
| 45>    C       -7.51165        -5.63272        -2.94997
| 46>    C       -7.03650        -4.42565        -3.63674
| 47>    C       -7.22134        -4.16659        -5.02154
| 48>    O       -6.75236        -3.00966        -5.56734
| 49>    C       -7.06436        -3.09359        -6.87442
| 50>    C       -7.73432        -4.34103        -7.07413
| 51>    N       -7.80301        -4.96868        -5.86582
| 52>    C       -8.18159        -4.74528        -8.32365
| 53>    C       -7.92395        -3.84878        -9.34623
| 54>    C       -7.25631        -2.60482        -9.11730
| 55>    C       -6.80558        -2.18501        -7.88156
| 56>    O       -7.16019        -1.97668       -10.30594
| 57>    C       -7.74651        -2.82767       -11.20248
| 58>    N       -8.20416        -3.92574       -10.68163
| 59>    C       -7.78591        -2.44835       -12.57924
| 60>    C       -8.30376        -3.26689       -13.51836
| 61>    C       -8.36822        -2.98991       -14.91545
| 62>    C       -7.97791        -1.86512       -15.62165
| 63>    F       -7.45271        -0.77558       -15.05453
| 64>    C       -8.18468        -1.96695       -17.00580
| 65>    F       -7.87642        -0.99806       -17.86662
| 66>    C       -8.73608        -3.17473       -17.38269
| 67>    S       -9.00342        -4.18324       -16.00977
| 68>    C       -9.06343        -3.62382       -18.69830
| 69>    N       -9.56345        -4.78451       -19.00522
| 70>    C       -9.69971        -4.77099       -20.36559
| 71>    C       -9.25645        -3.55115       -20.82387
| 72>    O       -8.85586        -2.82865       -19.77568
| 73>    C      -10.23102        -5.90707       -21.11117
| 74>    O      -10.36414        -5.93782       -22.30617
| 75>    H       -1.07089         2.81813         2.80383
| 76>    H       -1.26995         3.03353         5.24027
| 77>    H       -3.04141         1.85772         6.46978
| 78>    H       -4.66772         0.44195         5.28451
| 79>    H       -3.56372        -0.47967        -0.85909
| 80>    H       -4.54476        -2.73446         2.20277
| 81>    H       -8.05959        -6.42327        -3.42959
| 82>    H       -8.68317        -5.68247        -8.48471
| 83>    H       -6.29986        -1.24968        -7.71725
| 84>    H       -7.36654        -1.48166       -12.81030
| 85>    H       -8.69808        -4.22257       -13.20331
| 86>    H       -9.18784        -3.12736       -21.80465
| 87>    H      -10.50765        -6.75333       -20.45904
| 88> *
| 89>
| 90>                          ****END OF INPUT****

CARTESIAN COORDINATES (ANGSTROEM)
---------------------------------
  C     -1.858620    2.300310    3.325760
  C     -1.974630    2.418060    4.702550
  C     -2.976850    1.754840    5.397590
  C     -3.897690    0.958130    4.734380
  C     -3.791840    0.831860    3.358680
  C     -2.767030    1.500930    2.648840
  C     -2.879150    1.176290    1.233610
  C     -2.163520    1.734640    0.212890
  C     -1.183730    2.736460    0.393120
  N     -0.378850    3.550000    0.471410
  C     -2.320520    1.431100   -1.158440
  N     -2.389420    1.242290   -2.287970
  C     -3.904830    0.139060    1.126350
  C     -4.611150    0.103750    2.404800
  C     -5.896890   -0.322380    2.595330
  C     -6.754070   -0.733160    1.550390
  N     -7.509890   -0.993840    0.727420
  C     -6.552970   -0.289600    3.844960
  N     -7.116260   -0.293180    4.843860
  C     -4.060860   -0.710200    0.074910
  C     -4.768200   -1.941960    0.085150
  C     -4.943560   -2.873400    1.212460
  N     -5.574200   -3.966230    0.907630
  C     -5.889990   -3.858340   -0.414850
  C     -5.358320   -2.603700   -0.966470
  C     -5.677160   -2.491750   -2.367420
  S     -5.269540   -1.262900   -3.375580
  C     -6.402460   -3.704800   -2.655710
  C     -6.525150   -4.524660   -1.430380
  N     -7.211590   -5.673400   -1.686120
  C     -7.511650   -5.632720   -2.949970
  C     -7.036500   -4.425650   -3.636740
  C     -7.221340   -4.166590   -5.021540
  O     -6.752360   -3.009660   -5.567340
  C     -7.064360   -3.093590   -6.874420
  C     -7.734320   -4.341030   -7.074130
  N     -7.803010   -4.968680   -5.865820
  C     -8.181590   -4.745280   -8.323650
  C     -7.923950   -3.848780   -9.346230
  C     -7.256310   -2.604820   -9.117300
  C     -6.805580   -2.185010   -7.881560
  O     -7.160190   -1.976680  -10.305940
  C     -7.746510   -2.827670  -11.202480
  N     -8.204160   -3.925740  -10.681630
  C     -7.785910   -2.448350  -12.579240
  C     -8.303760   -3.266890  -13.518360
  C     -8.368220   -2.989910  -14.915450
  C     -7.977910   -1.865120  -15.621650
  F     -7.452710   -0.775580  -15.054530
  C     -8.184680   -1.966950  -17.005800
  F     -7.876420   -0.998060  -17.866620
  C     -8.736080   -3.174730  -17.382690
  S     -9.003420   -4.183240  -16.009770
  C     -9.063430   -3.623820  -18.698300
  N     -9.563450   -4.784510  -19.005220
  C     -9.699710   -4.770990  -20.365590
  C     -9.256450   -3.551150  -20.823870
  O     -8.855860   -2.828650  -19.775680
  C    -10.231020   -5.907070  -21.111170
  O    -10.364140   -5.937820  -22.306170
  H     -1.070890    2.818130    2.803830
  H     -1.269950    3.033530    5.240270
  H     -3.041410    1.857720    6.469780
  H     -4.667720    0.441950    5.284510
  H     -3.563720   -0.479670   -0.859090
  H     -4.544760   -2.734460    2.202770
  H     -8.059590   -6.423270   -3.429590
  H     -8.683170   -5.682470   -8.484710
  H     -6.299860   -1.249680   -7.717250
  H     -7.366540   -1.481660  -12.810300
  H     -8.698080   -4.222570  -13.203310
  H     -9.187840   -3.127360  -21.804650
  H    -10.507650   -6.753330  -20.459040

 Total Charge           Charge          ....    0
 Multiplicity           Mult            ....    1
 Number of Electrons    NEL             ....  416
 Basis Dimension        Dim             ....  913

ORBITAL ENERGIES
----------------

  NO   OCC          E(Eh)            E(eV)
   0   2.0000     -88.989091     -2421.5163
   1   2.0000     -88.915756     -2419.5207
   2   2.0000     -24.813767      -675.2169
   3   2.0000     -24.811340      -675.1509
   4   2.0000     -19.327956      -525.9404
   5   2.0000     -19.306312      -525.3515
   6   2.0000     -19.304314      -525.2971
   7   2.0000     -19.217464      -522.9338
   8   2.0000     -14.433635      -392.7592
   9   2.0000     -14.432244      -392.7213
  10   2.0000     -14.431209      -392.6932
  11   2.0000     -14.431002      -392.6875
  12   2.0000     -14.430326      -392.6691
  13   2.0000     -14.428192      -392.6111
  14   2.0000     -14.427961      -392.6048
  15   2.0000     -14.423006      -392.4699
  16   2.0000     -14.411954      -392.1692
  17   2.0000     -10.391012      -282.7538
  18   2.0000     -10.390055      -282.7278
  19   2.0000     -10.385190      -282.5954
  20   2.0000     -10.384854      -282.5862
  21   2.0000     -10.376652      -282.3631
  22   2.0000     -10.367835      -282.1231
  23   2.0000     -10.364741      -282.0389
  24   2.0000     -10.362519      -281.9785
  25   2.0000     -10.360872      -281.9336
  26   2.0000     -10.359980      -281.9094
  27   2.0000     -10.357243      -281.8349
  28   2.0000     -10.354828      -281.7692
  29   2.0000     -10.351474      -281.6779
  30   2.0000     -10.349918      -281.6356
  31   2.0000     -10.349363      -281.6205
  32   2.0000     -10.349171      -281.6153
  33   2.0000     -10.349063      -281.6123
  34   2.0000     -10.346213      -281.5348
  35   2.0000     -10.337803      -281.3059
  36   2.0000     -10.336646      -281.2744
  37   2.0000     -10.335647      -281.2473
  38   2.0000     -10.334788      -281.2239
  39   2.0000     -10.333448      -281.1874
  40   2.0000     -10.332903      -281.1726
  41   2.0000     -10.332835      -281.1707
  42   2.0000     -10.331431      -281.1325
  43   2.0000     -10.325366      -280.9675
  44   2.0000     -10.325056      -280.9591
  45   2.0000     -10.323406      -280.9142
  46   2.0000     -10.323035      -280.9041
  47   2.0000     -10.319338      -280.8035
  48   2.0000     -10.316801      -280.7344
  49   2.0000     -10.314231      -280.6645
  50   2.0000     -10.314013      -280.6586
  51   2.0000     -10.312786      -280.6252
  52   2.0000     -10.312625      -280.6208
  53   2.0000     -10.312474      -280.6167
  54   2.0000     -10.311885      -280.6007
  55   2.0000     -10.310695      -280.5683
  56   2.0000     -10.310083      -280.5516
  57   2.0000     -10.299916      -280.2750
  58   2.0000     -10.298037      -280.2238
  59   2.0000     -10.288175      -279.9555
  60   2.0000      -8.084113      -219.9799
  61   2.0000      -8.011248      -217.9971
  62   2.0000      -6.053583      -164.7264
  63   2.0000      -6.049634      -164.6189
  64   2.0000      -6.045584      -164.5087
  65   2.0000      -5.980552      -162.7391
  66   2.0000      -5.979798      -162.7186
  67   2.0000      -5.969946      -162.4505
  68   2.0000      -1.332981       -36.2722
  69   2.0000      -1.321293       -35.9542
  70   2.0000      -1.258280       -34.2395
  71   2.0000      -1.238780       -33.7089
  72   2.0000      -1.233968       -33.5780
  73   2.0000      -1.131415       -30.7874
  74   2.0000      -1.099969       -29.9317
  75   2.0000      -1.080765       -29.4091
  76   2.0000      -1.048769       -28.5384
  77   2.0000      -1.039546       -28.2875
  78   2.0000      -1.033524       -28.1236
  79   2.0000      -1.029065       -28.0023
  80   2.0000      -1.025457       -27.9041
  81   2.0000      -1.018614       -27.7179
  82   2.0000      -1.018362       -27.7110
  83   2.0000      -1.011110       -27.5137
  84   2.0000      -1.008843       -27.4520
  85   2.0000      -0.979750       -26.6603
  86   2.0000      -0.972327       -26.4584
  87   2.0000      -0.964354       -26.2414
  88   2.0000      -0.953240       -25.9390
  89   2.0000      -0.929504       -25.2931
  90   2.0000      -0.928121       -25.2555
  91   2.0000      -0.910694       -24.7813
  92   2.0000      -0.906427       -24.6651
  93   2.0000      -0.898254       -24.4427
  94   2.0000      -0.877883       -23.8884
  95   2.0000      -0.873165       -23.7600
  96   2.0000      -0.862894       -23.4805
  97   2.0000      -0.859261       -23.3817
  98   2.0000      -0.855238       -23.2722
  99   2.0000      -0.849672       -23.1207
 100   2.0000      -0.825131       -22.4530
 101   2.0000      -0.807934       -21.9850
 102   2.0000      -0.803758       -21.8714
 103   2.0000      -0.794994       -21.6329
 104   2.0000      -0.783374       -21.3167
 105   2.0000      -0.772192       -21.0124
 106   2.0000      -0.753474       -20.5031
 107   2.0000      -0.738790       -20.1035
 108   2.0000      -0.732859       -19.9421
 109   2.0000      -0.729311       -19.8456
 110   2.0000      -0.727061       -19.7843
 111   2.0000      -0.722223       -19.6527
 112   2.0000      -0.714853       -19.4521
 113   2.0000      -0.711867       -19.3709
 114   2.0000      -0.707734       -19.2584
 115   2.0000      -0.705026       -19.1847
 116   2.0000      -0.695460       -18.9244
 117   2.0000      -0.682527       -18.5725
 118   2.0000      -0.679988       -18.5034
 119   2.0000      -0.677941       -18.4477
 120   2.0000      -0.664633       -18.0856
 121   2.0000      -0.656388       -17.8612
 122   2.0000      -0.654511       -17.8102
 123   2.0000      -0.650839       -17.7102
 124   2.0000      -0.648820       -17.6553
 125   2.0000      -0.644037       -17.5251
 126   2.0000      -0.619615       -16.8606
 127   2.0000      -0.615383       -16.7454
 128   2.0000      -0.606710       -16.5094
 129   2.0000      -0.605566       -16.4783
 130   2.0000      -0.600413       -16.3381
 131   2.0000      -0.599103       -16.3024
 132   2.0000      -0.592122       -16.1125
 133   2.0000      -0.590725       -16.0745
 134   2.0000      -0.587715       -15.9925
 135   2.0000      -0.586195       -15.9512
 136   2.0000      -0.579631       -15.7726
 137   2.0000      -0.578128       -15.7317
 138   2.0000      -0.576958       -15.6998
 139   2.0000      -0.569927       -15.5085
 140   2.0000      -0.568604       -15.4725
 141   2.0000      -0.562054       -15.2943
 142   2.0000      -0.560127       -15.2418
 143   2.0000      -0.559256       -15.2181
 144   2.0000      -0.555705       -15.1215
 145   2.0000      -0.553725       -15.0676
 146   2.0000      -0.549815       -14.9612
 147   2.0000      -0.548055       -14.9133
 148   2.0000      -0.546224       -14.8635
 149   2.0000      -0.533904       -14.5283
 150   2.0000      -0.531806       -14.4712
 151   2.0000      -0.526686       -14.3319
 152   2.0000      -0.521043       -14.1783
 153   2.0000      -0.516805       -14.0630
 154   2.0000      -0.516375       -14.0513
 155   2.0000      -0.507632       -13.8134
 156   2.0000      -0.505836       -13.7645
 157   2.0000      -0.503931       -13.7127
 158   2.0000      -0.503241       -13.6939
 159   2.0000      -0.501367       -13.6429
 160   2.0000      -0.494041       -13.4435
 161   2.0000      -0.490923       -13.3587
 162   2.0000      -0.488744       -13.2994
 163   2.0000      -0.486995       -13.2518
 164   2.0000      -0.486219       -13.2307
 165   2.0000      -0.485063       -13.1992
 166   2.0000      -0.475999       -12.9526
 167   2.0000      -0.470300       -12.7975
 168   2.0000      -0.469763       -12.7829
 169   2.0000      -0.464926       -12.6513
 170   2.0000      -0.461948       -12.5702
 171   2.0000      -0.459249       -12.4968
 172   2.0000      -0.456930       -12.4337
 173   2.0000      -0.456048       -12.4097
 174   2.0000      -0.454103       -12.3568
 175   2.0000      -0.451579       -12.2881
 176   2.0000      -0.450880       -12.2691
 177   2.0000      -0.444484       -12.0950
 178   2.0000      -0.443816       -12.0768
 179   2.0000      -0.441837       -12.0230
 180   2.0000      -0.441220       -12.0062
 181   2.0000      -0.440047       -11.9743
 182   2.0000      -0.438513       -11.9325
 183   2.0000      -0.435437       -11.8488
 184   2.0000      -0.426942       -11.6177
 185   2.0000      -0.426545       -11.6069
 186   2.0000      -0.422652       -11.5009
 187   2.0000      -0.421135       -11.4597
 188   2.0000      -0.399351       -10.8669
 189   2.0000      -0.397643       -10.8204
 190   2.0000      -0.392071       -10.6688
 191   2.0000      -0.388270       -10.5654
 192   2.0000      -0.381808       -10.3895
 193   2.0000      -0.372765       -10.1434
 194   2.0000      -0.368425       -10.0253
 195   2.0000      -0.366750        -9.9798
 196   2.0000      -0.365648        -9.9498
 197   2.0000      -0.350003        -9.5241
 198   2.0000      -0.345850        -9.4111
 199   2.0000      -0.338569        -9.2129
 200   2.0000      -0.337943        -9.1959
 201   2.0000      -0.336364        -9.1529
 202   2.0000      -0.325784        -8.8650
 203   2.0000      -0.311071        -8.4647
 204   2.0000      -0.308322        -8.3899
 205   2.0000      -0.297290        -8.0897
 206   2.0000      -0.293828        -7.9955
 207   2.0000      -0.269707        -7.3391
 208   0.0000      -0.132273        -3.5993
 209   0.0000      -0.111008        -3.0207
 210   0.0000      -0.098329        -2.6757
 211   0.0000      -0.076529        -2.0825
 212   0.0000      -0.070072        -1.9068

MULLIKEN ATOMIC CHARGES
-----------------------
   0 C :   -0.032424
   1 C :    0.048799
   2 C :    0.047885
   3 C :   -0.032315
   4 C :    0.011891
   5 C :    0.017892
   6 C :    0.287131
   7 C :   -0.327358
   8 C :   -0.190266
   9 N :    0.168849
  10 C :   -0.190949
  11 N :    0.179815
  12 C :   -0.064894
  13 C :    0.221622
  14 C :   -0.341135
  15 C :   -0.178343
  16 N :    0.185446
  17 C :   -0.180056
  18 N :    0.173809
  19 C :    0.029710
  20 C :   -0.088667
  21 C :    0.068203
  22 N :   -0.009264
  23 C :    0.030069
  24 C :    0.061273
  25 C :   -0.025868
  26 S :   -0.053060
  27 C :    0.024888
  28 C :    0.009755
  29 N :   -0.022367
  30 C :    0.091449
  31 C :   -0.028788
  32 C :    0.056028
  33 O :   -0.169982
  34 C :    0.220612
  35 C :    0.022796
  36 N :   -0.044429
  37 C :   -0.081856
  38 C :    0.021726
  39 C :    0.213981
  40 C :   -0.153188
  41 O :   -0.197537
  42 C :    0.110678
  43 N :   -0.055469
  44 C :   -0.020859
  45 C :    0.081390
  46 C :   -0.151627
  47 C :    0.210896
  48 F :   -0.167036
  49 C :    0.226899
  50 F :   -0.154061
  51 C :   -0.220231
  52 S :    0.240767
  53 C :    0.116700
  54 N :   -0.079840
  55 C :   -0.053980
  56 C :    0.135438
  57 O :   -0.156656
  58 C :    0.172782
  59 O :   -0.172959
  60 H :    0.009257
  61 H :    0.008998
  62 H :    0.010680
  63 H :    0.009397
  64 H :    0.033562
  65 H :    0.022869
  66 H :    0.027481
  67 H :   -0.022102
  68 H :   -0.005665
  69 H :    0.016157
  70 H :    0.015293
  71 H :    0.039510
  72 H :   -0.009156
Sum of atomic charges:   -0.0000000

LOEWDIN ATOMIC CHARGES
----------------------
   0 C :    0.006853
   1 C :    0.006177
   2 C :    0.007341
   3 C :    0.003922
   4 C :   -0.012355
   5 C :   -0.012319
   6 C :    0.073728
   7 C :   -0.117754
   8 C :   -0.018409
   9 N :   -0.036954
  10 C :   -0.026420
  11 N :   -0.025768
  12 C :   -0.039542
  13 C :    0.064813
  14 C :   -0.121011
  15 C :   -0.022006
  16 N :   -0.030764
  17 C :   -0.019734
  18 N :   -0.032375
  19 C :    0.066439
  20 C :   -0.064672
  21 C :    0.087545
  22 N :   -0.069494
  23 C :    0.040142
  24 C :    0.011267
  25 C :   -0.153694
  26 S :    0.116210
  27 C :   -0.014601
  28 C :    0.053319
  29 N :   -0.076671
  30 C :    0.120016
  31 C :   -0.057266
  32 C :    0.053601
  33 O :    0.011863
  34 C :    0.040120
  35 C :   -0.038290
  36 N :   -0.091675
  37 C :   -0.015938
  38 C :   -0.033359
  39 C :    0.040427
  40 C :   -0.058659
  41 O :   -0.006316
  42 C :    0.063499
  43 N :   -0.107036
  44 C :   -0.041183
  45 C :    0.004453
  46 C :   -0.198178
  47 C :    0.029548
  48 F :   -0.039385
  49 C :    0.036230
  50 F :   -0.036097
  51 C :   -0.231523
  52 S :    0.509849
  53 C :    0.026083
  54 N :   -0.100180
  55 C :   -0.105888
  56 C :    0.076083
  57 O :    0.037982
  58 C :    0.104964
  59 O :   -0.128332
  60 H :    0.042607
  61 H :    0.039642
  62 H :    0.039898
  63 H :    0.042163
  64 H :    0.050712
  65 H :    0.027009
  66 H :    0.035675
  67 H :    0.043478
  68 H :    0.047675
  69 H :    0.038930
  70 H :    0.042244
  71 H :    0.038366
  72 H :    0.002971

  Mayer bond orders larger than 0.100000
B(  0-C ,  1-C ) :   1.3739 B(  0-C ,  5-C ) :   1.3808 B(  0-C , 60-H ) :   0.9840
B(  1-C ,  2-C ) :   1.3735 B(  1-C , 61-H ) :   0.9862 B(  2-C ,  3-C ) :   1.3688
B(  2-C , 62-H ) :   0.9860 B(  3-C ,  4-C ) :   1.3795 B(  3-C , 63-H ) :   0.9877
B(  4-C ,  5-C ) :   1.3067 B(  4-C , 13-C ) :   1.0178 B(  5-C ,  6-C ) :   1.0042
B(  6-C ,  7-C ) :   1.6673 B(  6-C , 12-C ) :   1.0256 B(  7-C ,  8-C ) :   1.1449
B(  7-C , 10-C ) :   1.1319 B(  8-C ,  9-N ) :   2.9817 B( 10-C , 11-N ) :   2.9872
B( 12-C , 13-C ) :   1.0055 B( 12-C , 19-C ) :   1.6651 B( 13-C , 14-C ) :   1.6556
B( 14-C , 15-C ) :   1.1452 B( 14-C , 17-C ) :   1.1419 B( 15-C , 16-N ) :   3.0046
B( 17-C , 18-N ) :   2.9947 B( 19-C , 20-C ) :   1.0748 B( 19-C , 64-H ) :   0.9337
B( 20-C , 21-C ) :   1.0004 B( 20-C , 24-C ) :   1.5399 B( 21-C , 22-N ) :   1.7451
B( 21-C , 65-H ) :   0.9865 B( 22-N , 23-C ) :   1.2563 B( 23-C , 24-C ) :   1.0759
B( 23-C , 28-C ) :   1.4990 B( 24-C , 25-C ) :   1.0107 B( 25-C , 26-S ) :   1.7453
B( 25-C , 27-C ) :   1.0076 B( 27-C , 28-C ) :   1.0611 B( 27-C , 31-C ) :   1.5560
B( 28-C , 29-N ) :   1.2716 B( 29-N , 30-C ) :   1.7134 B( 30-C , 31-C ) :   1.0318
B( 30-C , 66-H ) :   0.9931 B( 31-C , 32-C ) :   1.0214 B( 32-C , 33-O ) :   1.1970
B( 32-C , 36-N ) :   1.7763 B( 33-O , 34-C ) :   1.1147 B( 34-C , 35-C ) :   1.2352
B( 34-C , 40-C ) :   1.3131 B( 35-C , 36-N ) :   1.2945 B( 35-C , 37-C ) :   1.2680
B( 37-C , 38-C ) :   1.2993 B( 37-C , 40-C ) :   0.1478 B( 37-C , 67-H ) :   1.0493
B( 38-C , 39-C ) :   1.2383 B( 38-C , 43-N ) :   1.2926 B( 39-C , 40-C ) :   1.3166
B( 39-C , 41-O ) :   1.1156 B( 40-C , 68-H ) :   1.0468 B( 41-O , 42-C ) :   1.1251
B( 42-C , 43-N ) :   1.7490 B( 42-C , 44-C ) :   1.0997 B( 44-C , 45-C ) :   1.7170
B( 44-C , 69-H ) :   0.9558 B( 45-C , 46-C ) :   1.1064 B( 45-C , 70-H ) :   0.9594
B( 46-C , 47-C ) :   1.4515 B( 46-C , 51-C ) :   0.1462 B( 46-C , 52-S ) :   1.1057
B( 47-C , 48-F ) :   1.1358 B( 47-C , 49-C ) :   1.2214 B( 49-C , 50-F ) :   1.2042
B( 49-C , 51-C ) :   1.4519 B( 51-C , 52-S ) :   1.1388 B( 51-C , 53-C ) :   1.0680
B( 53-C , 54-N ) :   1.7880 B( 53-C , 57-O ) :   1.2132 B( 54-N , 55-C ) :   1.3052
B( 55-C , 56-C ) :   1.5095 B( 55-C , 58-C ) :   0.9689 B( 56-C , 57-O ) :   1.1676
B( 56-C , 71-H ) :   0.9924 B( 58-C , 59-O ) :   2.2071 B( 58-C , 72-H ) :   0.9517

-----------------------------------------------------------------------------
         ABSORPTION SPECTRUM VIA TRANSITION ELECTRIC DIPOLE MOMENTS
-----------------------------------------------------------------------------
State   Energy  Wavelength   fosc         T2         TX        TY        TZ
        (cm-1)    (nm)                  (au**2)     (au)      (au)      (au)
-----------------------------------------------------------------------------
   0   14208.7    703.8   0.000378426   0.00877  -0.04438  -0.04609  -0.06837
   1   16198.4    617.3   0.297354118   6.04333   0.74328   0.62523   2.25831
   2   16312.9    613.0   0.000422497   0.00853  -0.00859  -0.05010  -0.07709
   3   19767.7    505.9   0.032313815   0.53816   0.23628   0.63555  -0.28001
   4   21025.1    475.6   0.309526416   4.84658   0.58295   0.35866   2.09239
   5   22076.4    453.0   0.194761404   2.90435  -0.24369   0.30495  -1.65891
   6   22945.7    435.8   0.578610526   8.30159  -0.90599  -1.31509  -2.39819
   7   24048.8    415.8   0.053621163   0.73404  -0.17712   0.70751   0.44955
   8   25119.8    398.1   0.036288259   0.47558  -0.37149  -0.11859  -0.56878
   9   25559.5    391.2   0.184316154   2.37403   0.58416   0.43335   1.35830
  10   26163.0    382.2   0.027315067   0.34371  -0.35655  -0.41813  -0.20431
  11   26474.7    377.7   0.602123747   7.48739   0.07231   0.34156   2.71395
  12   27022.0    370.1   0.226531979   2.75986   1.13179   0.85912   0.86072
  13   27324.3    366.0   0.022085318   0.26609   0.27524   0.31471   0.30214
  14   27855.5    359.0   0.813963585   9.61989   0.44274  -0.20939   3.06268
  15   28103.4    355.8   0.005436812   0.06369   0.14472  -0.01080   0.20646
  16   28584.9    349.8   0.118485062   1.36459   0.72895   0.89842   0.16147
  17   28955.8    345.4   0.066326410   0.75410  -0.34935  -0.05946   0.79279
  18   29165.4    342.9   0.027920514   0.31516  -0.26728  -0.20054  -0.45112
  19   30348.8    329.5   0.098148762   1.06468   0.48228   0.68908   0.59770
  20   30662.0    326.1   0.026673514   0.28639  -0.46332  -0.25828   0.07080
  21   31312.3    319.4   0.018550143   0.19503  -0.23015  -0.30281  -0.22443
  22   32091.5    311.6   0.062971172   0.64599  -0.13292   0.63641   0.47255
  23   32502.2    307.7   0.314080129   3.18129   1.34447   0.64850  -0.97629
  24   32685.7    305.9   0.193182177   1.94574  -0.98317  -0.82434   0.54735
  25   33209.2    301.1   0.045379665   0.44986  -0.40865  -0.13460   0.51454
  26   33356.4    299.8   0.005023633   0.04958  -0.18824  -0.09353   0.07348
  27   33951.9    294.5   0.009099733   0.08823  -0.02255  -0.09589   0.28023
  28   33987.3    294.2   0.123408810   1.19538  -0.12862  -0.19521   1.06805
  29   34377.1    290.9   0.000001827   0.00002   0.00125  -0.00394   0.00061
  30   34511.5    289.8   0.006043361   0.05765  -0.02573   0.12289   0.20466
  31   34629.6    288.8   0.235210435   2.23607  -0.79086  -0.57628  -1.13071
  32   34729.1    287.9   0.143190408   1.35736  -0.65925  -0.43472  -0.85661
  33   35417.1    282.3   0.029821450   0.27720   0.31680  -0.32083   0.27186
  34   35861.4    278.9   0.003351802   0.03077  -0.04069  -0.01925  -0.16954
  35   36184.5    276.4   0.146604588   1.33383   0.08434  -0.03767   1.15122
  36   36380.4    274.9   0.130082479   1.17714  -0.44544  -0.75520  -0.63905
  37   37271.3    268.3   0.000673612   0.00595  -0.02790  -0.05449  -0.04693
  38   37429.7    267.2   0.020745239   0.18246   0.08205   0.09712   0.40780
  39   38403.0    260.4   0.000373420   0.00320  -0.03433  -0.04497  -0.00016
  40   38766.7    258.0   0.181916248   1.54486   0.47351   0.43585   1.06333
  41   38884.9    257.2   0.000732648   0.00620   0.02467  -0.04428   0.06027
  42   39093.0    255.8   0.097084298   0.81757  -0.30321  -0.81950   0.23249
  43   39468.6    253.4   0.061373845   0.51193   0.37270   0.39297   0.46754
  44   39764.0    251.5   0.000001678   0.00001   0.00310   0.00039   0.00203
  45   40043.5    249.7   0.178211641   1.46514   0.50670   0.98431   0.48942
  46   40134.5    249.2   0.038112722   0.31263   0.00937  -0.25017   0.49995

FINAL SINGLE POINT ENERGY     -3432.434719365885

DIPOLE MOMENT
-------------
                                X             Y             Z
Electronic contribution:     -6.87599       0.39572     -32.98588
Nuclear contribution   :      8.03668       0.11491      33.95298
                        -----------------------------------------
Total Dipole Moment    :      1.16070       0.51063       0.96710
                        -----------------------------------------
Magnitude (a.u.)       :      1.59476
Magnitude (Debye)      :      4.05355

Rotational constants in cm-1:     0.003674     0.000274     0.000259
Rotational constants in MHz :   110.144143     8.222850     7.768820

                             ****ORCA TERMINATED NORMALLY****
TOTAL RUN TIME: 0 days 0 hours 6 minutes 6 seconds 713 msec
