                         Program Version 4.2.0 -  RELEASE  -
|  1> # ORCA input file
|  2> # SCF done       -178.490906029255          0.000976349066
|  3> ! CAM-B3LYP def2-SVP def2/J RIJCOSX Grid4 TightSCF
|  4> %maxcore 5000
|  5> %tddft
|  6>     Mode sTDDFT
|  7>     Ethresh 5.0
|  8>     maxcore 5000
|  9> end
| 10>
| 11> %pal
| 12>   nprocs 6
| 13>   end
| 14> * xyz 0 1
| 15>    C      -12.23510        -1.44420         2.61517
| 16>    C      -13.27835        -2.23855         3.06885
| 17>    C      -13.06012        -3.54872         3.46961
| 18>    C      -11.78876        -4.10290         3.43430
| 19>    C      -10.74152        -3.32175         2.97756
| 20>    C      -10.96199        -1.98799         2.56277
| 21>    C       -9.69460        -1.41511         2.12384
| 22>    C       -9.47346        -0.10347         1.78661
| 23>    C      -10.46753         0.89606         1.79589
| 24>    N      -11.22826         1.75583         1.77924
| 25>    C       -8.21728         0.43086         1.43996
| 26>    N       -7.21303         0.91744         1.16255
| 27>    C       -8.72576        -2.49772         2.13106
| 28>    C       -9.32006        -3.60438         2.86114
| 29>    C       -8.62259        -4.55899         3.55598
| 30>    C       -7.21914        -4.51008         3.67919
| 31>    N       -6.08522        -4.42259         3.83845
| 32>    C       -9.22565        -5.60020         4.28563
| 33>    N       -9.67924        -6.47821         4.86959
| 34>    C       -7.53863        -2.48001         1.44292
| 35>    C       -6.77817        -3.57348         0.99065
| 36>    C       -5.49058        -3.51296         0.43527
| 37>    O       -4.64066        -2.46769         0.46504
| 38>    C       -4.67887        -1.53212         1.53379
| 39>    C       -5.10986        -4.72747        -0.18171
| 40>    O       -3.98663        -5.04595        -0.86016
| 41>    C       -2.84480        -4.21866        -0.75165
| 42>    C       -6.08405        -5.71405        -0.07137
| 43>    S       -7.46964        -5.17444         0.80243
| 44>    C       -5.98355        -7.02892        -0.56064
| 45>    C       -6.92014        -8.03604        -0.32720
| 46>    O       -8.01332        -7.76667         0.43721
| 47>    C       -9.26799        -8.20199        -0.06498
| 48>    C       -6.54021        -9.25540        -0.91024
| 49>    O       -7.20804       -10.45068        -0.85028
| 50>    C       -7.25556       -11.03138         0.44907
| 51>    C       -5.33866        -9.15698        -1.60892
| 52>    S       -4.64500        -7.57466        -1.51659
| 53>    C       -4.71586       -10.22966        -2.27288
| 54>    C       -3.47415       -10.19885        -2.89489
| 55>    O       -2.83626        -9.01014        -2.92883
| 56>    C       -1.46658        -8.95250        -3.27566
| 57>    C       -3.09294       -11.45797        -3.42329
| 58>    O       -1.89025       -11.59049        -4.01492
| 59>    C       -1.26212       -12.85396        -4.14077
| 60>    C       -4.05710       -12.44723        -3.19236
| 61>    S       -5.43403       -11.79652        -2.31812
| 62>    C       -4.08411       -13.76822        -3.68378
| 63>    C       -4.83108       -14.81562        -3.20600
| 64>    C       -5.20665       -15.98479        -3.98421
| 65>    C       -4.63515       -16.42514        -5.15108
| 66>    C       -3.52057       -15.82777        -5.77185
| 67>    N       -2.60540       -15.38586        -6.30927
| 68>    C       -5.05742       -17.56965        -5.85830
| 69>    N       -5.34973       -18.48748        -6.48271
| 70>    C       -6.31186       -16.62027        -3.27642
| 71>    C       -6.50359       -15.95950        -2.04118
| 72>    C       -7.50165       -16.36203        -1.17050
| 73>    C       -8.31260       -17.42481        -1.54040
| 74>    C       -8.12307       -18.07888        -2.74923
| 75>    C       -7.12256       -17.68765        -3.62732
| 76>    C       -5.48987       -14.92591        -1.91520
| 77>    C       -5.04567       -14.37324        -0.74083
| 78>    C       -5.70736       -14.49960         0.49397
| 79>    N       -6.22716       -14.53139         1.51755
| 80>    C       -3.82921       -13.66783        -0.64968
| 81>    N       -2.80969       -13.14818        -0.55100
| 82>    H      -12.42372        -0.42867         2.30761
| 83>    H      -14.27554        -1.82736         3.10770
| 84>    H      -13.88979        -4.14714         3.81396
| 85>    H      -11.62738        -5.12266         3.74510
| 86>    H       -7.20531        -1.51829         1.08327
| 87>    H       -5.21909        -0.62640         1.24875
| 88>    H       -3.63885        -1.27032         1.73422
| 89>    H       -5.12497        -1.96985         2.42850
| 90>    H       -2.07555        -4.72265        -1.33414
| 91>    H       -2.51881        -4.12803         0.28698
| 92>    H       -3.03177        -3.22501        -1.16239
| 93>    H       -9.24070        -9.24175        -0.39342
| 94>    H       -9.57930        -7.57018        -0.90242
| 95>    H       -9.97076        -8.08980         0.75819
| 96>    H       -7.87735       -11.91926         0.35901
| 97>    H       -7.68817       -10.34575         1.18104
| 98>    H       -6.25435       -11.32106         0.78001
| 99>    H       -0.86307        -9.57217        -2.60907
|100>    H       -1.19052        -7.90635        -3.15472
|101>    H       -1.30285        -9.26250        -4.30917
|102>    H       -1.51417       -13.50648        -3.30244
|103>    H       -0.19162       -12.64639        -4.13327
|104>    H       -1.51802       -13.33949        -5.08546
|105>    H       -3.54934       -13.93544        -4.60583
|106>    H       -7.65686       -15.85758        -0.23033
|107>    H       -9.10106       -17.74576        -0.87687
|108>    H       -8.76384       -18.90577        -3.01483
|109>    H       -6.99106       -18.20788        -4.56188
|110> *
|111>
|112>                          ****END OF INPUT****

CARTESIAN COORDINATES (ANGSTROEM)
---------------------------------
  C    -12.235100   -1.444200    2.615170
  C    -13.278350   -2.238550    3.068850
  C    -13.060120   -3.548720    3.469610
  C    -11.788760   -4.102900    3.434300
  C    -10.741520   -3.321750    2.977560
  C    -10.961990   -1.987990    2.562770
  C     -9.694600   -1.415110    2.123840
  C     -9.473460   -0.103470    1.786610
  C    -10.467530    0.896060    1.795890
  N    -11.228260    1.755830    1.779240
  C     -8.217280    0.430860    1.439960
  N     -7.213030    0.917440    1.162550
  C     -8.725760   -2.497720    2.131060
  C     -9.320060   -3.604380    2.861140
  C     -8.622590   -4.558990    3.555980
  C     -7.219140   -4.510080    3.679190
  N     -6.085220   -4.422590    3.838450
  C     -9.225650   -5.600200    4.285630
  N     -9.679240   -6.478210    4.869590
  C     -7.538630   -2.480010    1.442920
  C     -6.778170   -3.573480    0.990650
  C     -5.490580   -3.512960    0.435270
  O     -4.640660   -2.467690    0.465040
  C     -4.678870   -1.532120    1.533790
  C     -5.109860   -4.727470   -0.181710
  O     -3.986630   -5.045950   -0.860160
  C     -2.844800   -4.218660   -0.751650
  C     -6.084050   -5.714050   -0.071370
  S     -7.469640   -5.174440    0.802430
  C     -5.983550   -7.028920   -0.560640
  C     -6.920140   -8.036040   -0.327200
  O     -8.013320   -7.766670    0.437210
  C     -9.267990   -8.201990   -0.064980
  C     -6.540210   -9.255400   -0.910240
  O     -7.208040  -10.450680   -0.850280
  C     -7.255560  -11.031380    0.449070
  C     -5.338660   -9.156980   -1.608920
  S     -4.645000   -7.574660   -1.516590
  C     -4.715860  -10.229660   -2.272880
  C     -3.474150  -10.198850   -2.894890
  O     -2.836260   -9.010140   -2.928830
  C     -1.466580   -8.952500   -3.275660
  C     -3.092940  -11.457970   -3.423290
  O     -1.890250  -11.590490   -4.014920
  C     -1.262120  -12.853960   -4.140770
  C     -4.057100  -12.447230   -3.192360
  S     -5.434030  -11.796520   -2.318120
  C     -4.084110  -13.768220   -3.683780
  C     -4.831080  -14.815620   -3.206000
  C     -5.206650  -15.984790   -3.984210
  C     -4.635150  -16.425140   -5.151080
  C     -3.520570  -15.827770   -5.771850
  N     -2.605400  -15.385860   -6.309270
  C     -5.057420  -17.569650   -5.858300
  N     -5.349730  -18.487480   -6.482710
  C     -6.311860  -16.620270   -3.276420
  C     -6.503590  -15.959500   -2.041180
  C     -7.501650  -16.362030   -1.170500
  C     -8.312600  -17.424810   -1.540400
  C     -8.123070  -18.078880   -2.749230
  C     -7.122560  -17.687650   -3.627320
  C     -5.489870  -14.925910   -1.915200
  C     -5.045670  -14.373240   -0.740830
  C     -5.707360  -14.499600    0.493970
  N     -6.227160  -14.531390    1.517550
  C     -3.829210  -13.667830   -0.649680
  N     -2.809690  -13.148180   -0.551000
  H    -12.423720   -0.428670    2.307610
  H    -14.275540   -1.827360    3.107700
  H    -13.889790   -4.147140    3.813960
  H    -11.627380   -5.122660    3.745100
  H     -7.205310   -1.518290    1.083270
  H     -5.219090   -0.626400    1.248750
  H     -3.638850   -1.270320    1.734220
  H     -5.124970   -1.969850    2.428500
  H     -2.075550   -4.722650   -1.334140
  H     -2.518810   -4.128030    0.286980
  H     -3.031770   -3.225010   -1.162390
  H     -9.240700   -9.241750   -0.393420
  H     -9.579300   -7.570180   -0.902420
  H     -9.970760   -8.089800    0.758190
  H     -7.877350  -11.919260    0.359010
  H     -7.688170  -10.345750    1.181040
  H     -6.254350  -11.321060    0.780010
  H     -0.863070   -9.572170   -2.609070
  H     -1.190520   -7.906350   -3.154720
  H     -1.302850   -9.262500   -4.309170
  H     -1.514170  -13.506480   -3.302440
  H     -0.191620  -12.646390   -4.133270
  H     -1.518020  -13.339490   -5.085460
  H     -3.549340  -13.935440   -4.605830
  H     -7.656860  -15.857580   -0.230330
  H     -9.101060  -17.745760   -0.876870
  H     -8.763840  -18.905770   -3.014830
  H     -6.991060  -18.207880   -4.561880

 Total Charge           Charge          ....    0
 Multiplicity           Mult            ....    1
 Number of Electrons    NEL             ....  480
 Basis Dimension        Dim             .... 1090

ORBITAL ENERGIES
----------------

  NO   OCC          E(Eh)            E(eV)
   0   2.0000     -88.971269     -2421.0313
   1   2.0000     -88.969575     -2420.9852
   2   2.0000     -88.967803     -2420.9370
   3   2.0000     -19.276504      -524.5403
   4   2.0000     -19.272223      -524.4239
   5   2.0000     -19.266788      -524.2760
   6   2.0000     -19.265939      -524.2529
   7   2.0000     -19.264642      -524.2176
   8   2.0000     -19.264040      -524.2012
   9   2.0000     -14.427120      -392.5819
  10   2.0000     -14.423552      -392.4848
  11   2.0000     -14.423344      -392.4792
  12   2.0000     -14.420118      -392.3914
  13   2.0000     -14.418388      -392.3443
  14   2.0000     -14.417289      -392.3144
  15   2.0000     -14.415042      -392.2532
  16   2.0000     -14.414606      -392.2414
  17   2.0000     -10.372788      -282.2579
  18   2.0000     -10.369255      -282.1618
  19   2.0000     -10.351893      -281.6893
  20   2.0000     -10.350267      -281.6451
  21   2.0000     -10.349377      -281.6209
  22   2.0000     -10.348232      -281.5897
  23   2.0000     -10.348124      -281.5868
  24   2.0000     -10.347494      -281.5696
  25   2.0000     -10.347234      -281.5626
  26   2.0000     -10.344806      -281.4965
  27   2.0000     -10.344456      -281.4869
  28   2.0000     -10.344314      -281.4831
  29   2.0000     -10.342895      -281.4445
  30   2.0000     -10.340449      -281.3779
  31   2.0000     -10.334254      -281.2094
  32   2.0000     -10.333149      -281.1793
  33   2.0000     -10.330450      -281.1058
  34   2.0000     -10.329504      -281.0801
  35   2.0000     -10.329087      -281.0687
  36   2.0000     -10.329015      -281.0668
  37   2.0000     -10.328993      -281.0662
  38   2.0000     -10.328246      -281.0459
  39   2.0000     -10.327182      -281.0169
  40   2.0000     -10.327015      -281.0124
  41   2.0000     -10.326922      -281.0098
  42   2.0000     -10.326197      -280.9901
  43   2.0000     -10.324751      -280.9508
  44   2.0000     -10.323130      -280.9067
  45   2.0000     -10.321595      -280.8649
  46   2.0000     -10.319908      -280.8190
  47   2.0000     -10.318188      -280.7722
  48   2.0000     -10.318089      -280.7695
  49   2.0000     -10.317965      -280.7661
  50   2.0000     -10.316859      -280.7360
  51   2.0000     -10.315933      -280.7108
  52   2.0000     -10.313611      -280.6476
  53   2.0000     -10.312251      -280.6106
  54   2.0000     -10.312104      -280.6066
  55   2.0000     -10.311923      -280.6017
  56   2.0000     -10.308903      -280.5195
  57   2.0000     -10.308545      -280.5098
  58   2.0000     -10.306888      -280.4647
  59   2.0000     -10.301165      -280.3090
  60   2.0000     -10.300799      -280.2990
  61   2.0000     -10.300155      -280.2815
  62   2.0000     -10.298825      -280.2453
  63   2.0000     -10.297964      -280.2219
  64   2.0000     -10.297688      -280.2143
  65   2.0000     -10.297115      -280.1988
  66   2.0000     -10.295740      -280.1613
  67   2.0000      -8.064576      -219.4483
  68   2.0000      -8.063375      -219.4156
  69   2.0000      -8.061690      -219.3697
  70   2.0000      -6.034100      -164.1962
  71   2.0000      -6.033132      -164.1699
  72   2.0000      -6.031402      -164.1228
  73   2.0000      -6.029876      -164.0813
  74   2.0000      -6.028954      -164.0562
  75   2.0000      -6.027262      -164.0101
  76   2.0000      -6.026296      -163.9839
  77   2.0000      -6.024576      -163.9370
  78   2.0000      -6.022925      -163.8921
  79   2.0000      -1.184022       -32.2189
  80   2.0000      -1.180398       -32.1203
  81   2.0000      -1.174381       -31.9565
  82   2.0000      -1.163448       -31.6590
  83   2.0000      -1.161080       -31.5946
  84   2.0000      -1.156321       -31.4651
  85   2.0000      -1.036751       -28.2114
  86   2.0000      -1.032706       -28.1014
  87   2.0000      -1.020070       -27.7575
  88   2.0000      -1.015595       -27.6357
  89   2.0000      -1.009687       -27.4750
  90   2.0000      -1.008925       -27.4542
  91   2.0000      -1.004100       -27.3229
  92   2.0000      -1.002492       -27.2792
  93   2.0000      -1.000164       -27.2159
  94   2.0000      -0.998028       -27.1577
  95   2.0000      -0.996414       -27.1138
  96   2.0000      -0.993840       -27.0438
  97   2.0000      -0.982402       -26.7325
  98   2.0000      -0.958428       -26.0802
  99   2.0000      -0.954984       -25.9864
 100   2.0000      -0.939951       -25.5774
 101   2.0000      -0.935701       -25.4617
 102   2.0000      -0.913217       -24.8499
 103   2.0000      -0.903033       -24.5728
 104   2.0000      -0.893790       -24.3213
 105   2.0000      -0.889848       -24.2140
 106   2.0000      -0.881318       -23.9819
 107   2.0000      -0.866541       -23.5798
 108   2.0000      -0.864375       -23.5208
 109   2.0000      -0.862982       -23.4829
 110   2.0000      -0.860608       -23.4183
 111   2.0000      -0.854433       -23.2503
 112   2.0000      -0.842159       -22.9163
 113   2.0000      -0.834411       -22.7055
 114   2.0000      -0.817367       -22.2417
 115   2.0000      -0.813562       -22.1381
 116   2.0000      -0.797324       -21.6963
 117   2.0000      -0.790818       -21.5193
 118   2.0000      -0.786409       -21.3993
 119   2.0000      -0.785346       -21.3704
 120   2.0000      -0.776834       -21.1387
 121   2.0000      -0.774764       -21.0824
 122   2.0000      -0.770906       -20.9774
 123   2.0000      -0.751686       -20.4544
 124   2.0000      -0.732556       -19.9339
 125   2.0000      -0.716114       -19.4864
 126   2.0000      -0.714277       -19.4365
 127   2.0000      -0.712279       -19.3821
 128   2.0000      -0.710121       -19.3234
 129   2.0000      -0.701976       -19.1017
 130   2.0000      -0.689769       -18.7696
 131   2.0000      -0.680015       -18.5042
 132   2.0000      -0.675165       -18.3722
 133   2.0000      -0.667715       -18.1694
 134   2.0000      -0.664625       -18.0854
 135   2.0000      -0.664329       -18.0773
 136   2.0000      -0.660455       -17.9719
 137   2.0000      -0.655356       -17.8331
 138   2.0000      -0.647012       -17.6061
 139   2.0000      -0.642635       -17.4870
 140   2.0000      -0.636727       -17.3262
 141   2.0000      -0.633661       -17.2428
 142   2.0000      -0.624212       -16.9857
 143   2.0000      -0.616110       -16.7652
 144   2.0000      -0.612570       -16.6689
 145   2.0000      -0.597933       -16.2706
 146   2.0000      -0.595395       -16.2015
 147   2.0000      -0.587574       -15.9887
 148   2.0000      -0.585446       -15.9308
 149   2.0000      -0.583886       -15.8884
 150   2.0000      -0.582781       -15.8583
 151   2.0000      -0.581469       -15.8226
 152   2.0000      -0.578910       -15.7530
 153   2.0000      -0.574668       -15.6375
 154   2.0000      -0.572488       -15.5782
 155   2.0000      -0.566993       -15.4287
 156   2.0000      -0.558053       -15.1854
 157   2.0000      -0.557632       -15.1739
 158   2.0000      -0.555541       -15.1170
 159   2.0000      -0.552965       -15.0470
 160   2.0000      -0.545860       -14.8536
 161   2.0000      -0.544399       -14.8139
 162   2.0000      -0.541142       -14.7252
 163   2.0000      -0.540688       -14.7129
 164   2.0000      -0.538211       -14.6455
 165   2.0000      -0.537214       -14.6183
 166   2.0000      -0.536312       -14.5938
 167   2.0000      -0.534135       -14.5345
 168   2.0000      -0.529227       -14.4010
 169   2.0000      -0.527381       -14.3508
 170   2.0000      -0.522070       -14.2062
 171   2.0000      -0.519283       -14.1304
 172   2.0000      -0.517445       -14.0804
 173   2.0000      -0.511978       -13.9316
 174   2.0000      -0.508616       -13.8402
 175   2.0000      -0.507322       -13.8049
 176   2.0000      -0.504632       -13.7317
 177   2.0000      -0.502434       -13.6719
 178   2.0000      -0.500814       -13.6278
 179   2.0000      -0.498128       -13.5548
 180   2.0000      -0.497376       -13.5343
 181   2.0000      -0.484815       -13.1925
 182   2.0000      -0.482796       -13.1376
 183   2.0000      -0.478506       -13.0208
 184   2.0000      -0.477610       -12.9964
 185   2.0000      -0.470908       -12.8140
 186   2.0000      -0.466949       -12.7063
 187   2.0000      -0.463275       -12.6064
 188   2.0000      -0.461037       -12.5455
 189   2.0000      -0.460757       -12.5378
 190   2.0000      -0.458173       -12.4675
 191   2.0000      -0.457348       -12.4451
 192   2.0000      -0.455894       -12.4055
 193   2.0000      -0.453656       -12.3446
 194   2.0000      -0.452865       -12.3231
 195   2.0000      -0.451582       -12.2882
 196   2.0000      -0.450543       -12.2599
 197   2.0000      -0.450209       -12.2508
 198   2.0000      -0.449318       -12.2266
 199   2.0000      -0.446679       -12.1548
 200   2.0000      -0.445938       -12.1346
 201   2.0000      -0.444349       -12.0914
 202   2.0000      -0.443287       -12.0624
 203   2.0000      -0.441405       -12.0113
 204   2.0000      -0.439545       -11.9606
 205   2.0000      -0.436257       -11.8712
 206   2.0000      -0.435531       -11.8514
 207   2.0000      -0.434681       -11.8283
 208   2.0000      -0.431815       -11.7503
 209   2.0000      -0.431600       -11.7444
 210   2.0000      -0.430927       -11.7261
 211   2.0000      -0.428989       -11.6734
 212   2.0000      -0.426177       -11.5969
 213   2.0000      -0.424934       -11.5630
 214   2.0000      -0.421497       -11.4695
 215   2.0000      -0.418169       -11.3790
 216   2.0000      -0.416766       -11.3408
 217   2.0000      -0.413291       -11.2462
 218   2.0000      -0.413205       -11.2439
 219   2.0000      -0.410487       -11.1699
 220   2.0000      -0.409360       -11.1393
 221   2.0000      -0.403703       -10.9853
 222   2.0000      -0.400903       -10.9091
 223   2.0000      -0.398072       -10.8321
 224   2.0000      -0.393701       -10.7132
 225   2.0000      -0.384655       -10.4670
 226   2.0000      -0.380941       -10.3659
 227   2.0000      -0.374153       -10.1812
 228   2.0000      -0.365195        -9.9375
 229   2.0000      -0.357573        -9.7301
 230   2.0000      -0.335913        -9.1407
 231   2.0000      -0.334375        -9.0988
 232   2.0000      -0.330702        -8.9989
 233   2.0000      -0.317441        -8.6380
 234   2.0000      -0.311927        -8.4880
 235   2.0000      -0.303282        -8.2527
 236   2.0000      -0.296988        -8.0815
 237   2.0000      -0.295250        -8.0342
 238   2.0000      -0.279388        -7.6025
 239   2.0000      -0.241651        -6.5757
 240   0.0000      -0.106595        -2.9006
 241   0.0000      -0.088745        -2.4149
 242   0.0000      -0.085643        -2.3305
 243   0.0000      -0.084379        -2.2961
 244   0.0000      -0.031045        -0.8448

MULLIKEN ATOMIC CHARGES
-----------------------
   0 C :   -0.032726
   1 C :    0.044933
   2 C :    0.047885
   3 C :   -0.036333
   4 C :    0.012304
   5 C :    0.006110
   6 C :    0.300116
   7 C :   -0.356660
   8 C :   -0.190123
   9 N :    0.157459
  10 C :   -0.167826
  11 N :    0.135197
  12 C :   -0.079270
  13 C :    0.207771
  14 C :   -0.322890
  15 C :   -0.175178
  16 N :    0.151716
  17 C :   -0.175626
  18 N :    0.154576
  19 C :    0.029138
  20 C :   -0.219408
  21 C :    0.224252
  22 O :   -0.312374
  23 C :    0.148920
  24 C :    0.153882
  25 O :   -0.328410
  26 C :    0.193745
  27 C :   -0.101570
  28 S :    0.166232
  29 C :   -0.107753
  30 C :    0.145559
  31 O :   -0.337742
  32 C :    0.175181
  33 C :    0.096597
  34 O :   -0.355305
  35 C :    0.184755
  36 C :   -0.077189
  37 S :    0.230494
  38 C :   -0.109839
  39 C :    0.145364
  40 O :   -0.325860
  41 C :    0.194955
  42 C :    0.265345
  43 O :   -0.309760
  44 C :    0.151406
  45 C :   -0.260618
  46 S :    0.167610
  47 C :    0.033887
  48 C :   -0.083838
  49 C :    0.300855
  50 C :   -0.356060
  51 C :   -0.169625
  52 N :    0.140329
  53 C :   -0.188013
  54 N :    0.156336
  55 C :    0.006945
  56 C :    0.011513
  57 C :   -0.034234
  58 C :    0.047199
  59 C :    0.045051
  60 C :   -0.031292
  61 C :    0.217069
  62 C :   -0.337901
  63 C :   -0.174768
  64 N :    0.149225
  65 C :   -0.172310
  66 N :    0.156379
  67 H :    0.004547
  68 H :    0.001645
  69 H :    0.001638
  70 H :    0.001523
  71 H :    0.010891
  72 H :    0.056969
  73 H :    0.035881
  74 H :    0.057444
  75 H :    0.031284
  76 H :    0.026598
  77 H :    0.039229
  78 H :    0.039989
  79 H :    0.026886
  80 H :    0.046298
  81 H :    0.044028
  82 H :    0.038280
  83 H :    0.035022
  84 H :    0.029737
  85 H :    0.031446
  86 H :    0.036684
  87 H :    0.055388
  88 H :    0.039778
  89 H :    0.058513
  90 H :    0.010993
  91 H :    0.001572
  92 H :    0.003411
  93 H :    0.003260
  94 H :    0.005277
Sum of atomic charges:   -0.0000000

LOEWDIN ATOMIC CHARGES
----------------------
   0 C :    0.004700
   1 C :   -0.001967
   2 C :    0.001853
   3 C :   -0.002073
   4 C :   -0.008402
   5 C :   -0.014124
   6 C :    0.083881
   7 C :   -0.149176
   8 C :   -0.021056
   9 N :   -0.053999
  10 C :   -0.010134
  11 N :   -0.061696
  12 C :   -0.084606
  13 C :    0.058740
  14 C :   -0.145020
  15 C :   -0.026783
  16 N :   -0.057906
  17 C :   -0.019402
  18 N :   -0.052779
  19 C :    0.039725
  20 C :   -0.229491
  21 C :    0.045575
  22 O :   -0.085399
  23 C :    0.083548
  24 C :   -0.009553
  25 O :   -0.104755
  26 C :    0.083615
  27 C :   -0.167424
  28 S :    0.482218
  29 C :   -0.212144
  30 C :   -0.000843
  31 O :   -0.115118
  32 C :    0.082420
  33 C :   -0.013962
  34 O :   -0.129636
  35 C :    0.081391
  36 C :   -0.204928
  37 S :    0.514516
  38 C :   -0.172170
  39 C :   -0.004478
  40 O :   -0.102522
  41 C :    0.083693
  42 C :    0.048560
  43 O :   -0.080216
  44 C :    0.084551
  45 C :   -0.231484
  46 S :    0.483971
  47 C :    0.038996
  48 C :   -0.082652
  49 C :    0.083456
  50 C :   -0.145701
  51 C :   -0.011469
  52 N :   -0.060224
  53 C :   -0.020768
  54 N :   -0.051180
  55 C :   -0.014035
  56 C :   -0.008762
  57 C :   -0.001473
  58 C :    0.003246
  59 C :   -0.000511
  60 C :    0.005387
  61 C :    0.060057
  62 C :   -0.147936
  63 C :   -0.019029
  64 N :   -0.056058
  65 C :   -0.026854
  66 N :   -0.058721
  67 H :    0.041134
  68 H :    0.036567
  69 H :    0.036355
  70 H :    0.039380
  71 H :    0.045990
  72 H :    0.022922
  73 H :    0.028171
  74 H :    0.028388
  75 H :    0.024900
  76 H :    0.019259
  77 H :    0.019980
  78 H :    0.018322
  79 H :    0.018639
  80 H :    0.030277
  81 H :    0.028139
  82 H :    0.019974
  83 H :    0.019230
  84 H :    0.020266
  85 H :    0.024941
  86 H :    0.019355
  87 H :    0.028007
  88 H :    0.030958
  89 H :    0.023345
  90 H :    0.044949
  91 H :    0.039381
  92 H :    0.037064
  93 H :    0.037199
  94 H :    0.041425

  Mayer bond orders larger than 0.100000
B(  0-C ,  1-C ) :   1.3658 B(  0-C ,  5-C ) :   1.3900 B(  0-C , 67-H ) :   0.9832
B(  1-C ,  2-C ) :   1.3830 B(  1-C , 68-H ) :   0.9858 B(  2-C ,  3-C ) :   1.3584
B(  2-C , 69-H ) :   0.9860 B(  3-C ,  4-C ) :   1.3915 B(  3-C , 70-H ) :   0.9869
B(  4-C ,  5-C ) :   1.3139 B(  4-C , 13-C ) :   1.0142 B(  5-C ,  6-C ) :   0.9965
B(  6-C ,  7-C ) :   1.6116 B(  6-C , 12-C ) :   1.0812 B(  7-C ,  8-C ) :   1.1468
B(  7-C , 10-C ) :   1.1555 B(  8-C ,  9-N ) :   2.9796 B( 10-C , 11-N ) :   2.9390
B( 12-C , 13-C ) :   1.0407 B( 12-C , 19-C ) :   1.5091 B( 13-C , 14-C ) :   1.6288
B( 14-C , 15-C ) :   1.1529 B( 14-C , 17-C ) :   1.1456 B( 15-C , 16-N ) :   2.9886
B( 17-C , 18-N ) :   2.9914 B( 19-C , 20-C ) :   1.2486 B( 19-C , 71-H ) :   0.9323
B( 20-C , 21-C ) :   1.3316 B( 20-C , 27-C ) :   0.1058 B( 20-C , 28-S ) :   1.0280
B( 21-C , 22-O ) :   1.2225 B( 21-C , 24-C ) :   1.2516 B( 22-O , 23-C ) :   0.8982
B( 23-C , 72-H ) :   0.9654 B( 23-C , 73-H ) :   0.9732 B( 23-C , 74-H ) :   0.9609
B( 24-C , 25-O ) :   1.1697 B( 24-C , 27-C ) :   1.4260 B( 25-O , 26-C ) :   0.9253
B( 26-C , 75-H ) :   0.9785 B( 26-C , 76-H ) :   0.9757 B( 26-C , 77-H ) :   0.9745
B( 27-C , 28-S ) :   1.1293 B( 27-C , 29-C ) :   1.2308 B( 29-C , 30-C ) :   1.4162
B( 29-C , 36-C ) :   0.1149 B( 29-C , 37-S ) :   1.0896 B( 30-C , 31-O ) :   1.1434
B( 30-C , 33-C ) :   1.2651 B( 31-O , 32-C ) :   0.9165 B( 32-C , 78-H ) :   0.9686
B( 32-C , 79-H ) :   0.9706 B( 32-C , 80-H ) :   0.9829 B( 33-C , 34-O ) :   1.1254
B( 33-C , 36-C ) :   1.4251 B( 34-O , 35-C ) :   0.8989 B( 35-C , 81-H ) :   0.9817
B( 35-C , 82-H ) :   0.9711 B( 35-C , 83-H ) :   0.9677 B( 36-C , 37-S ) :   1.0980
B( 36-C , 38-C ) :   1.2217 B( 38-C , 39-C ) :   1.4427 B( 38-C , 45-C ) :   0.1100
B( 38-C , 46-S ) :   1.1186 B( 39-C , 40-O ) :   1.1759 B( 39-C , 42-C ) :   1.2356
B( 40-O , 41-C ) :   0.9238 B( 41-C , 84-H ) :   0.9758 B( 41-C , 85-H ) :   0.9785
B( 41-C , 86-H ) :   0.9749 B( 42-C , 43-O ) :   1.2223 B( 42-C , 45-C ) :   1.3296
B( 43-O , 44-C ) :   0.9055 B( 44-C , 87-H ) :   0.9605 B( 44-C , 88-H ) :   0.9729
B( 44-C , 89-H ) :   0.9660 B( 45-C , 46-S ) :   1.0361 B( 45-C , 47-C ) :   1.2262
B( 47-C , 48-C ) :   1.5277 B( 47-C , 90-H ) :   0.9324 B( 48-C , 49-C ) :   1.0707
B( 48-C , 61-C ) :   1.0414 B( 49-C , 50-C ) :   1.6202 B( 49-C , 55-C ) :   0.9999
B( 50-C , 51-C ) :   1.1521 B( 50-C , 53-C ) :   1.1453 B( 51-C , 52-N ) :   2.9515
B( 53-C , 54-N ) :   2.9774 B( 55-C , 56-C ) :   1.3112 B( 55-C , 60-C ) :   1.3851
B( 56-C , 57-C ) :   1.3893 B( 56-C , 61-C ) :   1.0178 B( 57-C , 58-C ) :   1.3590
B( 57-C , 91-H ) :   0.9867 B( 58-C , 59-C ) :   1.3804 B( 58-C , 92-H ) :   0.9869
B( 59-C , 60-C ) :   1.3669 B( 59-C , 93-H ) :   0.9867 B( 60-C , 94-H ) :   0.9841
B( 61-C , 62-C ) :   1.6202 B( 62-C , 63-C ) :   1.1544 B( 62-C , 65-C ) :   1.1596
B( 63-C , 64-N ) :   2.9568 B( 65-C , 66-N ) :   2.9834

-----------------------------------------------------------------------------
         ABSORPTION SPECTRUM VIA TRANSITION ELECTRIC DIPOLE MOMENTS
-----------------------------------------------------------------------------
State   Energy  Wavelength   fosc         T2         TX        TY        TZ
        (cm-1)    (nm)                  (au**2)     (au)      (au)      (au)
-----------------------------------------------------------------------------
   0   13498.5    740.8   1.255677381  30.62443   1.58294  -4.89056  -2.04966
   1   17955.3    556.9   0.157067235   2.87984  -0.82100  -0.31476   1.45145
   2   19138.8    522.5   0.232508958   3.99946   0.23358  -1.86711  -0.67735
   3   19735.6    506.7   0.052748351   0.87990   0.75340  -0.53456   0.16287
   4   22844.9    437.7   0.031091282   0.44805   0.54524   0.36393   0.13535
   5   23920.5    418.1   0.141351254   1.94538  -0.35045  -1.34475   0.11922
   6   24467.2    408.7   0.247578559   3.33123  -1.54620  -0.41058   0.87859
   7   26173.5    382.1   0.078129267   0.98272   0.32255  -0.80925  -0.47307
   8   27306.6    366.2   0.013418961   0.16178  -0.28083   0.21988   0.18592
   9   27649.8    361.7   0.090118603   1.07300  -0.39699   0.13938   0.94656
  10   28026.4    356.8   0.125440056   1.47348   0.22481   0.98180   0.67751
  11   28244.7    354.0   0.017400321   0.20281   0.07973  -0.39611   0.19887
  12   28676.8    348.7   0.141543971   1.62494   0.07200   0.89576  -0.90409
  13   29428.8    339.8   0.096397826   1.07837  -0.46492  -0.92736  -0.04733
  14   29700.4    336.7   0.115468581   1.27990   0.97703  -0.57020  -0.01400
  15   31190.0    320.6   0.156687572   1.65385   0.30480  -1.14321  -0.50401
  16   31562.1    316.8   0.047810224   0.49869  -0.02421   0.57802   0.40497
  17   31722.5    315.2   0.194431932   2.01779   0.00784  -0.49729  -1.33058
  18   32000.5    312.5   0.150780092   1.55118  -0.33320   1.06143  -0.55994
  19   32220.8    310.4   0.007279241   0.07437   0.24616  -0.11091  -0.03843
  20   32628.7    306.5   0.002309961   0.02331  -0.08550   0.08498   0.09368
  21   33385.8    299.5   0.164315192   1.62029  -0.01761   0.94992   0.84713
  22   33506.4    298.5   0.225942960   2.21997  -0.96293   0.09106  -1.13333
  23   33835.1    295.6   0.221284603   2.15308  -0.43207   1.39977   0.08383
  24   34527.7    289.6   0.560129492   5.34068  -1.68836  -0.95488   1.25632
  25   35119.5    284.7   0.095252600   0.89290   0.84536   0.31487   0.28128
  26   35458.5    282.0   0.005906969   0.05484   0.03744   0.06617   0.22150
  27   35699.4    280.1   0.013921789   0.12838   0.20626  -0.09726   0.27637
  28   36110.3    276.9   0.014346212   0.13079  -0.15097  -0.22577   0.23881
  29   36464.9    274.2   0.044695216   0.40352  -0.61109  -0.15348  -0.08084
  30   36794.2    271.8   0.060474232   0.54109   0.64690   0.31391  -0.15516
  31   37019.1    270.1   0.063878895   0.56808   0.61012   0.27556  -0.34626
  32   37235.0    268.6   0.001025557   0.00907  -0.02475  -0.07325   0.05559
  33   37898.9    263.9   0.001192069   0.01036   0.09159   0.04421   0.00351
  34   38460.7    260.0   0.013569313   0.11615   0.32505   0.01626  -0.10114
  35   38702.9    258.4   0.022833753   0.19423  -0.40200   0.07972   0.16207
  36   39676.2    252.0   0.021807132   0.18094  -0.30699  -0.12487   0.26667
  37   39929.0    250.4   0.325240185   2.68158   1.58165   0.16239  -0.39191

FINAL SINGLE POINT ENERGY     -4001.930948518111

DIPOLE MOMENT
-------------
                                X             Y             Z
Electronic contribution:     -6.74297      -1.70589       0.78298
Nuclear contribution   :      6.16786       1.23469      -1.61833
                        -----------------------------------------
Total Dipole Moment    :     -0.57511      -0.47120      -0.83534
                        -----------------------------------------
Magnitude (a.u.)       :      1.11829
Magnitude (Debye)      :      2.84247

Rotational constants in cm-1:     0.002300     0.000451     0.000402
Rotational constants in MHz :    68.966023    13.510419    12.059614

                             ****ORCA TERMINATED NORMALLY****
TOTAL RUN TIME: 0 days 0 hours 10 minutes 20 seconds 92 msec
