                         Program Version 4.2.0 -  RELEASE  -
|  1> # ORCA input file
|  2> # SCF done       -187.069688517601          0.000812347319
|  3> ! CAM-B3LYP def2-SVP def2/J RIJCOSX Grid4 TightSCF
|  4> %maxcore 5000
|  5> %tddft
|  6>     Mode sTDDFT
|  7>     Ethresh 5.0
|  8>     maxcore 5000
|  9> end
| 10>
| 11> %pal
| 12>   nprocs 6
| 13>   end
| 14> * xyz 0 1
| 15>    C      -10.83024        -5.97891        -9.78445
| 16>    C      -11.99054        -6.62653       -10.18086
| 17>    C      -13.23850        -6.14698        -9.80772
| 18>    C      -13.36397        -5.00823        -9.02679
| 19>    C      -12.21282        -4.35552        -8.61542
| 20>    C      -10.94302        -4.84466        -8.99800
| 21>    C       -9.92504        -3.97442        -8.42947
| 22>    C       -8.62924        -3.85354        -8.86037
| 23>    C       -8.04376        -4.69212        -9.82872
| 24>    N       -7.51320        -5.36290       -10.59488
| 25>    C       -7.75248        -2.84623        -8.41114
| 26>    N       -7.00554        -2.03561        -8.09119
| 27>    C      -10.60147        -3.08443        -7.50040
| 28>    C      -12.02680        -3.16128        -7.80470
| 29>    C      -13.00193        -2.27065        -7.44468
| 30>    C      -12.77895        -1.03149        -6.80991
| 31>    N      -12.67837         0.00700        -6.32991
| 32>    C      -14.36961        -2.44482        -7.73548
| 33>    N      -15.49913        -2.53671        -7.92152
| 34>    C      -10.10179        -2.40529        -6.42451
| 35>    C       -8.88644        -2.57745        -5.72653
| 36>    S       -8.41216        -1.27218        -4.65702
| 37>    C       -7.06698        -2.15891        -4.09481
| 38>    C       -6.98804        -3.40081        -4.65586
| 39>    C       -8.01397        -3.64791        -5.59137
| 40>    C       -8.11210        -5.03623        -6.11977
| 41>    C       -7.97473        -5.98619        -4.91000
| 42>    C       -6.59537        -5.85361        -4.25398
| 43>    C       -5.96310        -4.45286        -4.40131
| 44>    C       -9.16206        -5.67306        -4.01738
| 45>    C       -9.07775        -5.06077        -2.83691
| 46>    C      -10.43235        -6.02096        -4.62784
| 47>    C      -11.55397        -5.25965        -4.60826
| 48>    C      -12.78300        -5.52929        -5.28519
| 49>    C      -13.70741        -4.54080        -5.19027
| 50>    C      -13.27710        -3.41737        -4.44243
| 51>    S      -11.65930        -3.68790        -3.81527
| 52>    C      -13.93108        -2.23018        -4.20426
| 53>    C      -15.23683        -1.84135        -4.59519
| 54>    C      -15.54749        -0.56573        -4.25236
| 55>    C      -14.51066         0.13409        -3.57522
| 56>    S      -13.12887        -0.92370        -3.35954
| 57>    C      -14.56486         1.43446        -3.16186
| 58>    C      -13.54783         2.18856        -2.54243
| 59>    S      -11.93362         1.56668        -2.26613
| 60>    C      -11.43090         3.05087        -1.56154
| 61>    C      -12.42822         3.97885        -1.54151
| 62>    C      -13.63107         3.49784        -2.09616
| 63>    C      -14.79519         4.42470        -2.08333
| 64>    C      -14.95833         4.98983        -0.65222
| 65>    C      -13.63534         5.54348        -0.07227
| 66>    C      -12.42027         5.36370        -0.99471
| 67>    C      -16.05335         6.02923        -0.65650
| 68>    C      -17.32130         5.71848        -0.38686
| 69>    C      -15.65954         7.34155        -1.13209
| 70>    C      -16.07597         8.55829        -0.72223
| 71>    C      -15.83657         9.79581        -1.47454
| 72>    C      -14.82671        10.02254        -2.36808
| 73>    C      -13.80107         9.09958        -2.66538
| 74>    N      -12.93566         8.39279        -2.93026
| 75>    C      -14.64983        11.23664        -3.06598
| 76>    N      -14.45856        12.19799        -3.66238
| 77>    C      -16.85649        10.73848        -1.05352
| 78>    C      -17.55694        10.19430         0.05010
| 79>    C      -18.59635        10.89798         0.63923
| 80>    C      -18.92979        12.14082         0.12547
| 81>    C      -18.23858        12.67874        -0.95317
| 82>    C      -17.19827        11.98735        -1.55225
| 83>    C      -16.97412         8.90646         0.38340
| 84>    C      -17.07507         8.26379         1.58414
| 85>    C      -17.91715         8.69194         2.63272
| 86>    N      -18.59634         8.98835         3.50878
| 87>    C      -16.28727         7.15606         1.96435
| 88>    N      -15.63268         6.30395         2.36603
| 89>    H       -9.86532        -6.36214       -10.07552
| 90>    H      -11.91968        -7.51708       -10.78655
| 91>    H      -14.12765        -6.66813       -10.12863
| 92>    H      -14.34041        -4.65043        -8.74465
| 93>    H      -10.75670        -1.67103        -5.97068
| 94>    H       -6.39877        -1.71780        -3.38114
| 95>    H       -7.31099        -5.22845        -6.84103
| 96>    H       -9.07155        -5.21817        -6.60372
| 97>    H       -8.09068        -7.01495        -5.26924
| 98>    H       -5.92173        -6.58166        -4.70904
| 99>    H       -6.68031        -6.11592        -3.19958
|100>    H       -5.28375        -4.46022        -5.25902
|101>    H       -5.37244        -4.20510        -3.51918
|102>    H       -8.14272        -4.75341        -2.40577
|103>    H       -9.95318        -4.87191        -2.24125
|104>    H      -10.45907        -6.92199        -5.22889
|105>    H      -12.92469        -6.44686        -5.82962
|106>    H      -14.67767        -4.56922        -5.65464
|107>    H      -15.89642        -2.50740        -5.12171
|108>    H      -16.48588        -0.08920        -4.47528
|109>    H      -15.49480         1.95719        -3.34688
|110>    H      -10.42384         3.15102        -1.20839
|111>    H      -15.72026         3.93367        -2.38581
|112>    H      -14.60008         5.24268        -2.78328
|113>    H      -15.29365         4.16048        -0.02372
|114>    H      -13.43495         5.03426         0.87064
|115>    H      -13.74308         6.60486         0.15946
|116>    H      -11.50294         5.56496        -0.44184
|117>    H      -12.47557         6.07751        -1.82203
|118>    H      -17.60323         4.72036        -0.10052
|119>    H      -18.11998         6.43750        -0.46716
|120>    H      -14.97094         7.31272        -1.96645
|121>    H      -19.14494        10.48827         1.47183
|122>    H      -19.74030        12.69722         0.57059
|123>    H      -18.51716        13.64917        -1.33436
|124>    H      -16.67576        12.41418        -2.39278
|125> *
|126>
|127>                          ****END OF INPUT****

CARTESIAN COORDINATES (ANGSTROEM)
---------------------------------
  C    -10.830240   -5.978910   -9.784450
  C    -11.990540   -6.626530  -10.180860
  C    -13.238500   -6.146980   -9.807720
  C    -13.363970   -5.008230   -9.026790
  C    -12.212820   -4.355520   -8.615420
  C    -10.943020   -4.844660   -8.998000
  C     -9.925040   -3.974420   -8.429470
  C     -8.629240   -3.853540   -8.860370
  C     -8.043760   -4.692120   -9.828720
  N     -7.513200   -5.362900  -10.594880
  C     -7.752480   -2.846230   -8.411140
  N     -7.005540   -2.035610   -8.091190
  C    -10.601470   -3.084430   -7.500400
  C    -12.026800   -3.161280   -7.804700
  C    -13.001930   -2.270650   -7.444680
  C    -12.778950   -1.031490   -6.809910
  N    -12.678370    0.007000   -6.329910
  C    -14.369610   -2.444820   -7.735480
  N    -15.499130   -2.536710   -7.921520
  C    -10.101790   -2.405290   -6.424510
  C     -8.886440   -2.577450   -5.726530
  S     -8.412160   -1.272180   -4.657020
  C     -7.066980   -2.158910   -4.094810
  C     -6.988040   -3.400810   -4.655860
  C     -8.013970   -3.647910   -5.591370
  C     -8.112100   -5.036230   -6.119770
  C     -7.974730   -5.986190   -4.910000
  C     -6.595370   -5.853610   -4.253980
  C     -5.963100   -4.452860   -4.401310
  C     -9.162060   -5.673060   -4.017380
  C     -9.077750   -5.060770   -2.836910
  C    -10.432350   -6.020960   -4.627840
  C    -11.553970   -5.259650   -4.608260
  C    -12.783000   -5.529290   -5.285190
  C    -13.707410   -4.540800   -5.190270
  C    -13.277100   -3.417370   -4.442430
  S    -11.659300   -3.687900   -3.815270
  C    -13.931080   -2.230180   -4.204260
  C    -15.236830   -1.841350   -4.595190
  C    -15.547490   -0.565730   -4.252360
  C    -14.510660    0.134090   -3.575220
  S    -13.128870   -0.923700   -3.359540
  C    -14.564860    1.434460   -3.161860
  C    -13.547830    2.188560   -2.542430
  S    -11.933620    1.566680   -2.266130
  C    -11.430900    3.050870   -1.561540
  C    -12.428220    3.978850   -1.541510
  C    -13.631070    3.497840   -2.096160
  C    -14.795190    4.424700   -2.083330
  C    -14.958330    4.989830   -0.652220
  C    -13.635340    5.543480   -0.072270
  C    -12.420270    5.363700   -0.994710
  C    -16.053350    6.029230   -0.656500
  C    -17.321300    5.718480   -0.386860
  C    -15.659540    7.341550   -1.132090
  C    -16.075970    8.558290   -0.722230
  C    -15.836570    9.795810   -1.474540
  C    -14.826710   10.022540   -2.368080
  C    -13.801070    9.099580   -2.665380
  N    -12.935660    8.392790   -2.930260
  C    -14.649830   11.236640   -3.065980
  N    -14.458560   12.197990   -3.662380
  C    -16.856490   10.738480   -1.053520
  C    -17.556940   10.194300    0.050100
  C    -18.596350   10.897980    0.639230
  C    -18.929790   12.140820    0.125470
  C    -18.238580   12.678740   -0.953170
  C    -17.198270   11.987350   -1.552250
  C    -16.974120    8.906460    0.383400
  C    -17.075070    8.263790    1.584140
  C    -17.917150    8.691940    2.632720
  N    -18.596340    8.988350    3.508780
  C    -16.287270    7.156060    1.964350
  N    -15.632680    6.303950    2.366030
  H     -9.865320   -6.362140  -10.075520
  H    -11.919680   -7.517080  -10.786550
  H    -14.127650   -6.668130  -10.128630
  H    -14.340410   -4.650430   -8.744650
  H    -10.756700   -1.671030   -5.970680
  H     -6.398770   -1.717800   -3.381140
  H     -7.310990   -5.228450   -6.841030
  H     -9.071550   -5.218170   -6.603720
  H     -8.090680   -7.014950   -5.269240
  H     -5.921730   -6.581660   -4.709040
  H     -6.680310   -6.115920   -3.199580
  H     -5.283750   -4.460220   -5.259020
  H     -5.372440   -4.205100   -3.519180
  H     -8.142720   -4.753410   -2.405770
  H     -9.953180   -4.871910   -2.241250
  H    -10.459070   -6.921990   -5.228890
  H    -12.924690   -6.446860   -5.829620
  H    -14.677670   -4.569220   -5.654640
  H    -15.896420   -2.507400   -5.121710
  H    -16.485880   -0.089200   -4.475280
  H    -15.494800    1.957190   -3.346880
  H    -10.423840    3.151020   -1.208390
  H    -15.720260    3.933670   -2.385810
  H    -14.600080    5.242680   -2.783280
  H    -15.293650    4.160480   -0.023720
  H    -13.434950    5.034260    0.870640
  H    -13.743080    6.604860    0.159460
  H    -11.502940    5.564960   -0.441840
  H    -12.475570    6.077510   -1.822030
  H    -17.603230    4.720360   -0.100520
  H    -18.119980    6.437500   -0.467160
  H    -14.970940    7.312720   -1.966450
  H    -19.144940   10.488270    1.471830
  H    -19.740300   12.697220    0.570590
  H    -18.517160   13.649170   -1.334360
  H    -16.675760   12.414180   -2.392780

 Total Charge           Charge          ....    0
 Multiplicity           Mult            ....    1
 Number of Electrons    NEL             ....  528
 Basis Dimension        Dim             .... 1232

ORBITAL ENERGIES
----------------

  NO   OCC          E(Eh)            E(eV)
   0   2.0000     -88.956306     -2420.6242
   1   2.0000     -88.939971     -2420.1796
   2   2.0000     -88.939612     -2420.1699
   3   2.0000     -88.936638     -2420.0889
   4   2.0000     -14.433972      -392.7684
   5   2.0000     -14.430173      -392.6650
   6   2.0000     -14.429357      -392.6428
   7   2.0000     -14.427195      -392.5839
   8   2.0000     -14.418296      -392.3418
   9   2.0000     -14.415133      -392.2557
  10   2.0000     -14.411770      -392.1642
  11   2.0000     -14.410959      -392.1421
  12   2.0000     -10.361752      -281.9576
  13   2.0000     -10.361617      -281.9539
  14   2.0000     -10.359002      -281.8828
  15   2.0000     -10.357419      -281.8397
  16   2.0000     -10.341492      -281.4063
  17   2.0000     -10.341411      -281.4041
  18   2.0000     -10.339215      -281.3443
  19   2.0000     -10.338638      -281.3286
  20   2.0000     -10.335975      -281.2562
  21   2.0000     -10.331709      -281.1401
  22   2.0000     -10.331314      -281.1293
  23   2.0000     -10.330636      -281.1109
  24   2.0000     -10.329434      -281.0782
  25   2.0000     -10.329087      -281.0687
  26   2.0000     -10.324194      -280.9356
  27   2.0000     -10.323640      -280.9205
  28   2.0000     -10.321809      -280.8707
  29   2.0000     -10.320113      -280.8246
  30   2.0000     -10.317923      -280.7650
  31   2.0000     -10.313338      -280.6402
  32   2.0000     -10.312014      -280.6042
  33   2.0000     -10.311124      -280.5800
  34   2.0000     -10.310899      -280.5738
  35   2.0000     -10.309945      -280.5479
  36   2.0000     -10.309179      -280.5270
  37   2.0000     -10.307379      -280.4781
  38   2.0000     -10.306994      -280.4676
  39   2.0000     -10.306743      -280.4607
  40   2.0000     -10.305712      -280.4327
  41   2.0000     -10.305657      -280.4312
  42   2.0000     -10.305477      -280.4263
  43   2.0000     -10.301792      -280.3260
  44   2.0000     -10.300848      -280.3003
  45   2.0000     -10.300248      -280.2840
  46   2.0000     -10.297034      -280.1965
  47   2.0000     -10.296875      -280.1922
  48   2.0000     -10.296748      -280.1888
  49   2.0000     -10.295893      -280.1655
  50   2.0000     -10.295523      -280.1554
  51   2.0000     -10.289930      -280.0032
  52   2.0000     -10.289192      -279.9832
  53   2.0000     -10.287152      -279.9276
  54   2.0000     -10.286387      -279.9068
  55   2.0000     -10.282427      -279.7991
  56   2.0000     -10.282409      -279.7986
  57   2.0000     -10.282018      -279.7879
  58   2.0000     -10.280650      -279.7507
  59   2.0000     -10.280290      -279.7409
  60   2.0000     -10.278914      -279.7035
  61   2.0000     -10.277902      -279.6759
  62   2.0000     -10.277214      -279.6572
  63   2.0000     -10.277032      -279.6522
  64   2.0000     -10.276718      -279.6437
  65   2.0000     -10.276030      -279.6250
  66   2.0000     -10.275034      -279.5979
  67   2.0000     -10.273076      -279.5446
  68   2.0000     -10.269275      -279.4412
  69   2.0000     -10.264469      -279.3104
  70   2.0000     -10.261348      -279.2255
  71   2.0000     -10.259797      -279.1833
  72   2.0000     -10.259647      -279.1792
  73   2.0000     -10.256906      -279.1046
  74   2.0000      -8.052233      -219.1124
  75   2.0000      -8.035414      -218.6547
  76   2.0000      -8.034646      -218.6338
  77   2.0000      -8.032306      -218.5701
  78   2.0000      -6.021558      -163.8549
  79   2.0000      -6.017184      -163.7359
  80   2.0000      -6.014405      -163.6603
  81   2.0000      -6.004820      -163.3995
  82   2.0000      -6.004537      -163.3918
  83   2.0000      -6.002157      -163.3270
  84   2.0000      -6.000429      -163.2800
  85   2.0000      -6.000379      -163.2786
  86   2.0000      -5.997993      -163.2137
  87   2.0000      -5.997618      -163.2035
  88   2.0000      -5.995461      -163.1448
  89   2.0000      -5.993142      -163.0817
  90   2.0000      -1.046336       -28.4722
  91   2.0000      -1.029709       -28.0198
  92   2.0000      -1.027371       -27.9562
  93   2.0000      -1.016901       -27.6713
  94   2.0000      -1.012234       -27.5443
  95   2.0000      -1.009409       -27.4674
  96   2.0000      -1.006760       -27.3953
  97   2.0000      -1.001357       -27.2483
  98   2.0000      -0.996901       -27.1271
  99   2.0000      -0.993738       -27.0410
 100   2.0000      -0.989576       -26.9277
 101   2.0000      -0.988396       -26.8956
 102   2.0000      -0.978878       -26.6366
 103   2.0000      -0.971056       -26.4238
 104   2.0000      -0.964839       -26.2546
 105   2.0000      -0.953290       -25.9403
 106   2.0000      -0.950657       -25.8687
 107   2.0000      -0.943995       -25.6874
 108   2.0000      -0.938855       -25.5475
 109   2.0000      -0.932345       -25.3704
 110   2.0000      -0.905510       -24.6402
 111   2.0000      -0.901168       -24.5220
 112   2.0000      -0.898115       -24.4390
 113   2.0000      -0.888092       -24.1662
 114   2.0000      -0.886559       -24.1245
 115   2.0000      -0.876868       -23.8608
 116   2.0000      -0.876556       -23.8523
 117   2.0000      -0.862285       -23.4640
 118   2.0000      -0.861617       -23.4458
 119   2.0000      -0.852079       -23.1862
 120   2.0000      -0.848991       -23.1022
 121   2.0000      -0.838187       -22.8082
 122   2.0000      -0.834659       -22.7122
 123   2.0000      -0.818838       -22.2817
 124   2.0000      -0.815015       -22.1777
 125   2.0000      -0.809197       -22.0194
 126   2.0000      -0.807035       -21.9605
 127   2.0000      -0.801994       -21.8234
 128   2.0000      -0.797694       -21.7064
 129   2.0000      -0.791384       -21.5346
 130   2.0000      -0.784399       -21.3446
 131   2.0000      -0.765999       -20.8439
 132   2.0000      -0.758049       -20.6276
 133   2.0000      -0.731305       -19.8998
 134   2.0000      -0.729196       -19.8424
 135   2.0000      -0.725313       -19.7368
 136   2.0000      -0.724282       -19.7087
 137   2.0000      -0.722302       -19.6548
 138   2.0000      -0.713715       -19.4212
 139   2.0000      -0.711856       -19.3706
 140   2.0000      -0.708970       -19.2921
 141   2.0000      -0.700553       -19.0630
 142   2.0000      -0.686555       -18.6821
 143   2.0000      -0.680612       -18.5204
 144   2.0000      -0.677037       -18.4231
 145   2.0000      -0.676429       -18.4066
 146   2.0000      -0.669885       -18.2285
 147   2.0000      -0.663642       -18.0586
 148   2.0000      -0.659998       -17.9595
 149   2.0000      -0.657157       -17.8822
 150   2.0000      -0.652237       -17.7483
 151   2.0000      -0.649139       -17.6640
 152   2.0000      -0.638208       -17.3665
 153   2.0000      -0.626061       -17.0360
 154   2.0000      -0.621742       -16.9185
 155   2.0000      -0.616336       -16.7714
 156   2.0000      -0.613484       -16.6937
 157   2.0000      -0.601816       -16.3762
 158   2.0000      -0.599916       -16.3245
 159   2.0000      -0.597969       -16.2716
 160   2.0000      -0.591197       -16.0873
 161   2.0000      -0.590453       -16.0670
 162   2.0000      -0.583161       -15.8686
 163   2.0000      -0.581863       -15.8333
 164   2.0000      -0.580268       -15.7899
 165   2.0000      -0.576308       -15.6821
 166   2.0000      -0.571899       -15.5622
 167   2.0000      -0.565070       -15.3763
 168   2.0000      -0.563646       -15.3376
 169   2.0000      -0.559840       -15.2340
 170   2.0000      -0.556268       -15.1368
 171   2.0000      -0.547504       -14.8983
 172   2.0000      -0.545814       -14.8524
 173   2.0000      -0.543339       -14.7850
 174   2.0000      -0.541182       -14.7263
 175   2.0000      -0.539320       -14.6757
 176   2.0000      -0.534902       -14.5554
 177   2.0000      -0.532639       -14.4938
 178   2.0000      -0.531217       -14.4552
 179   2.0000      -0.523727       -14.2513
 180   2.0000      -0.520623       -14.1669
 181   2.0000      -0.519777       -14.1438
 182   2.0000      -0.515534       -14.0284
 183   2.0000      -0.514077       -13.9887
 184   2.0000      -0.512087       -13.9346
 185   2.0000      -0.507638       -13.8135
 186   2.0000      -0.504843       -13.7375
 187   2.0000      -0.501159       -13.6372
 188   2.0000      -0.500502       -13.6194
 189   2.0000      -0.496435       -13.5087
 190   2.0000      -0.493034       -13.4161
 191   2.0000      -0.492302       -13.3962
 192   2.0000      -0.488070       -13.2811
 193   2.0000      -0.487060       -13.2536
 194   2.0000      -0.485096       -13.2001
 195   2.0000      -0.482058       -13.1175
 196   2.0000      -0.479086       -13.0366
 197   2.0000      -0.475430       -12.9371
 198   2.0000      -0.473431       -12.8827
 199   2.0000      -0.472812       -12.8659
 200   2.0000      -0.471716       -12.8360
 201   2.0000      -0.469068       -12.7640
 202   2.0000      -0.468165       -12.7394
 203   2.0000      -0.466556       -12.6956
 204   2.0000      -0.465945       -12.6790
 205   2.0000      -0.462427       -12.5833
 206   2.0000      -0.462299       -12.5798
 207   2.0000      -0.460193       -12.5225
 208   2.0000      -0.458892       -12.4871
 209   2.0000      -0.457356       -12.4453
 210   2.0000      -0.455341       -12.3905
 211   2.0000      -0.454166       -12.3585
 212   2.0000      -0.452952       -12.3254
 213   2.0000      -0.451602       -12.2887
 214   2.0000      -0.450113       -12.2482
 215   2.0000      -0.447094       -12.1661
 216   2.0000      -0.445619       -12.1259
 217   2.0000      -0.443719       -12.0742
 218   2.0000      -0.443173       -12.0593
 219   2.0000      -0.442083       -12.0297
 220   2.0000      -0.440220       -11.9790
 221   2.0000      -0.439543       -11.9606
 222   2.0000      -0.438009       -11.9188
 223   2.0000      -0.435500       -11.8506
 224   2.0000      -0.433114       -11.7856
 225   2.0000      -0.431074       -11.7301
 226   2.0000      -0.428103       -11.6493
 227   2.0000      -0.424980       -11.5643
 228   2.0000      -0.424806       -11.5596
 229   2.0000      -0.424029       -11.5384
 230   2.0000      -0.423067       -11.5122
 231   2.0000      -0.421903       -11.4806
 232   2.0000      -0.419324       -11.4104
 233   2.0000      -0.417798       -11.3689
 234   2.0000      -0.413576       -11.2540
 235   2.0000      -0.413170       -11.2429
 236   2.0000      -0.412185       -11.2161
 237   2.0000      -0.408771       -11.1232
 238   2.0000      -0.407056       -11.0765
 239   2.0000      -0.405004       -11.0207
 240   2.0000      -0.397764       -10.8237
 241   2.0000      -0.395616       -10.7653
 242   2.0000      -0.394669       -10.7395
 243   2.0000      -0.391646       -10.6572
 244   2.0000      -0.390517       -10.6265
 245   2.0000      -0.385318       -10.4850
 246   2.0000      -0.378259       -10.2930
 247   2.0000      -0.376454       -10.2438
 248   2.0000      -0.371848       -10.1185
 249   2.0000      -0.364260        -9.9120
 250   2.0000      -0.351295        -9.5592
 251   2.0000      -0.344369        -9.3708
 252   2.0000      -0.335868        -9.1394
 253   2.0000      -0.331138        -9.0107
 254   2.0000      -0.329499        -8.9661
 255   2.0000      -0.323205        -8.7949
 256   2.0000      -0.315706        -8.5908
 257   2.0000      -0.309498        -8.4219
 258   2.0000      -0.309046        -8.4096
 259   2.0000      -0.305430        -8.3112
 260   2.0000      -0.293082        -7.9752
 261   2.0000      -0.276650        -7.5280
 262   2.0000      -0.273258        -7.4357
 263   2.0000      -0.210448        -5.7266
 264   0.0000      -0.096649        -2.6299
 265   0.0000      -0.095743        -2.6053
 266   0.0000      -0.082556        -2.2465
 267   0.0000      -0.080342        -2.1862
 268   0.0000      -0.064248        -1.7483

MULLIKEN ATOMIC CHARGES
-----------------------
   0 C :   -0.041293
   1 C :    0.042701
   2 C :    0.045270
   3 C :   -0.047657
   4 C :    0.029084
   5 C :    0.017229
   6 C :    0.198508
   7 C :   -0.338281
   8 C :   -0.196173
   9 N :    0.164157
  10 C :   -0.204861
  11 N :    0.188505
  12 C :   -0.084997
  13 C :    0.291525
  14 C :   -0.342579
  15 C :   -0.193485
  16 N :    0.176723
  17 C :   -0.193027
  18 N :    0.150010
  19 C :    0.112174
  20 C :   -0.220804
  21 S :    0.158682
  22 C :   -0.097528
  23 C :   -0.101706
  24 C :   -0.026085
  25 C :    0.221093
  26 C :   -0.062043
  27 C :    0.076262
  28 C :    0.176016
  29 C :   -0.056592
  30 C :   -0.019478
  31 C :   -0.037663
  32 C :   -0.015646
  33 C :    0.037603
  34 C :    0.032969
  35 C :   -0.067244
  36 S :    0.057414
  37 C :   -0.058423
  38 C :    0.030502
  39 C :    0.042328
  40 C :   -0.022518
  41 S :    0.068529
  42 C :   -0.014164
  43 C :   -0.126893
  44 S :    0.099660
  45 C :   -0.130035
  46 C :   -0.064554
  47 C :   -0.044916
  48 C :    0.238720
  49 C :   -0.085868
  50 C :    0.049816
  51 C :    0.189770
  52 C :   -0.088687
  53 C :    0.027153
  54 C :    0.013508
  55 C :   -0.035880
  56 C :    0.278131
  57 C :   -0.334912
  58 C :   -0.176172
  59 N :    0.167182
  60 C :   -0.187078
  61 N :    0.166851
  62 C :    0.015747
  63 C :    0.004957
  64 C :   -0.028446
  65 C :    0.047941
  66 C :    0.049994
  67 C :   -0.031272
  68 C :    0.233980
  69 C :   -0.318666
  70 C :   -0.192379
  71 N :    0.170246
  72 C :   -0.174968
  73 N :    0.177220
  74 H :    0.001670
  75 H :    0.002033
  76 H :   -0.000204
  77 H :   -0.002798
  78 H :    0.017971
  79 H :    0.019281
  80 H :    0.021573
  81 H :    0.019041
  82 H :    0.004069
  83 H :   -0.001831
  84 H :    0.008293
  85 H :    0.021293
  86 H :   -0.004810
  87 H :    0.007915
  88 H :    0.026846
  89 H :   -0.014074
  90 H :   -0.016262
  91 H :   -0.007997
  92 H :   -0.007167
  93 H :   -0.013031
  94 H :   -0.021313
  95 H :    0.009098
  96 H :   -0.015785
  97 H :    0.007862
  98 H :    0.002001
  99 H :    0.020211
 100 H :    0.006825
 101 H :   -0.009122
 102 H :    0.014655
 103 H :    0.028970
 104 H :    0.025752
 105 H :    0.027381
 106 H :    0.009575
 107 H :    0.009431
 108 H :    0.008020
 109 H :    0.009444
Sum of atomic charges:   -0.0000000

LOEWDIN ATOMIC CHARGES
----------------------
   0 C :   -0.001370
   1 C :   -0.001801
   2 C :   -0.003433
   3 C :   -0.000754
   4 C :   -0.008593
   5 C :   -0.012391
   6 C :    0.063314
   7 C :   -0.135732
   8 C :   -0.021945
   9 N :   -0.054157
  10 C :   -0.021488
  11 N :   -0.039702
  12 C :   -0.066575
  13 C :    0.080840
  14 C :   -0.133661
  15 C :   -0.027197
  16 N :   -0.044725
  17 C :   -0.009768
  18 N :   -0.064552
  19 C :    0.050187
  20 C :   -0.185742
  21 S :    0.471694
  22 C :   -0.159807
  23 C :   -0.060724
  24 C :   -0.013509
  25 C :   -0.015684
  26 C :   -0.016568
  27 C :   -0.022967
  28 C :   -0.022285
  29 C :   -0.029281
  30 C :   -0.058147
  31 C :   -0.067248
  32 C :   -0.136444
  33 C :   -0.042049
  34 C :   -0.029187
  35 C :   -0.197420
  36 S :    0.384697
  37 C :   -0.172037
  38 C :   -0.043118
  39 C :   -0.016827
  40 C :   -0.153628
  41 S :    0.376065
  42 C :   -0.053965
  43 C :   -0.180289
  44 S :    0.426887
  45 C :   -0.189558
  46 C :   -0.063170
  47 C :   -0.055791
  48 C :   -0.010772
  49 C :   -0.012798
  50 C :   -0.021485
  51 C :   -0.023766
  52 C :   -0.025500
  53 C :   -0.008308
  54 C :    0.075543
  55 C :   -0.045899
  56 C :    0.081669
  57 C :   -0.128817
  58 C :   -0.016402
  59 N :   -0.037579
  60 C :   -0.019844
  61 N :   -0.038751
  62 C :   -0.013699
  63 C :   -0.009434
  64 C :    0.003829
  65 C :    0.008288
  66 C :    0.005462
  67 C :    0.007552
  68 C :    0.069290
  69 C :   -0.119366
  70 C :   -0.019813
  71 N :   -0.038461
  72 C :   -0.014396
  73 N :   -0.032247
  74 H :    0.039686
  75 H :    0.036223
  76 H :    0.035777
  77 H :    0.037811
  78 H :    0.041072
  79 H :    0.026144
  80 H :    0.038347
  81 H :    0.029794
  82 H :    0.030414
  83 H :    0.027980
  84 H :    0.026167
  85 H :    0.039942
  86 H :    0.031385
  87 H :    0.018270
  88 H :    0.017406
  89 H :    0.027490
  90 H :    0.031231
  91 H :    0.032547
  92 H :    0.032558
  93 H :    0.033883
  94 H :    0.035975
  95 H :    0.020901
  96 H :    0.025992
  97 H :    0.032395
  98 H :    0.036730
  99 H :    0.033599
 100 H :    0.020498
 101 H :    0.030947
 102 H :    0.031657
 103 H :    0.030881
 104 H :    0.023489
 105 H :    0.044268
 106 H :    0.042195
 107 H :    0.039592
 108 H :    0.039363
 109 H :    0.042695

  Mayer bond orders larger than 0.100000
B(  0-C ,  1-C ) :   1.3647 B(  0-C ,  5-C ) :   1.3794 B(  0-C , 74-H ) :   0.9898
B(  1-C ,  2-C ) :   1.3743 B(  1-C , 75-H ) :   0.9871 B(  2-C ,  3-C ) :   1.3666
B(  2-C , 76-H ) :   0.9870 B(  3-C ,  4-C ) :   1.3739 B(  3-C , 77-H ) :   0.9881
B(  4-C ,  5-C ) :   1.3170 B(  4-C , 13-C ) :   1.0013 B(  5-C ,  6-C ) :   1.0057
B(  6-C ,  7-C ) :   1.6431 B(  6-C , 12-C ) :   1.0340 B(  7-C ,  8-C ) :   1.1491
B(  7-C , 10-C ) :   1.1586 B(  8-C ,  9-N ) :   2.9940 B( 10-C , 11-N ) :   3.0152
B( 12-C , 13-C ) :   1.0549 B( 12-C , 19-C ) :   1.6096 B( 13-C , 14-C ) :   1.6259
B( 14-C , 15-C ) :   1.1436 B( 14-C , 17-C ) :   1.1633 B( 15-C , 16-N ) :   2.9546
B( 17-C , 18-N ) :   2.9349 B( 19-C , 20-C ) :   1.2061 B( 19-C , 78-H ) :   0.9019
B( 20-C , 21-S ) :   1.1313 B( 20-C , 24-C ) :   1.4274 B( 21-S , 22-C ) :   1.1872
B( 22-C , 23-C ) :   1.5300 B( 22-C , 79-H ) :   0.9700 B( 23-C , 24-C ) :   1.3118
B( 23-C , 28-C ) :   1.0894 B( 24-C , 25-C ) :   1.0890 B( 25-C , 26-C ) :   1.0580
B( 25-C , 80-H ) :   0.8675 B( 25-C , 81-H ) :   0.8850 B( 26-C , 27-C ) :   1.0797
B( 26-C , 29-C ) :   0.9617 B( 26-C , 82-H ) :   0.9059 B( 27-C , 28-C ) :   1.0906
B( 27-C , 83-H ) :   0.9184 B( 27-C , 84-H ) :   0.9263 B( 28-C , 85-H ) :   0.8924
B( 28-C , 86-H ) :   0.9177 B( 29-C , 30-C ) :   1.9594 B( 29-C , 31-C ) :   1.0436
B( 30-C , 87-H ) :   0.9250 B( 30-C , 88-H ) :   0.9359 B( 31-C , 32-C ) :   1.6954
B( 31-C , 89-H ) :   0.9519 B( 32-C , 33-C ) :   1.1063 B( 32-C , 36-S ) :   1.0259
B( 33-C , 34-C ) :   1.6098 B( 33-C , 90-H ) :   0.9967 B( 34-C , 35-C ) :   1.1628
B( 34-C , 91-H ) :   0.9945 B( 35-C , 36-S ) :   1.0253 B( 35-C , 37-C ) :   1.5303
B( 37-C , 38-C ) :   1.1644 B( 37-C , 41-S ) :   1.0598 B( 38-C , 39-C ) :   1.6112
B( 38-C , 92-H ) :   0.9903 B( 39-C , 40-C ) :   1.1256 B( 39-C , 93-H ) :   0.9996
B( 40-C , 41-S ) :   1.0191 B( 40-C , 42-C ) :   1.6101 B( 42-C , 43-C ) :   1.1722
B( 42-C , 94-H ) :   0.9619 B( 43-C , 44-S ) :   1.1076 B( 43-C , 47-C ) :   1.4873
B( 44-S , 45-C ) :   1.1513 B( 45-C , 46-C ) :   1.5625 B( 45-C , 95-H ) :   0.9693
B( 46-C , 47-C ) :   1.3026 B( 46-C , 51-C ) :   1.0574 B( 47-C , 48-C ) :   1.0848
B( 48-C , 49-C ) :   1.0724 B( 48-C , 96-H ) :   0.9058 B( 48-C , 97-H ) :   0.8737
B( 49-C , 50-C ) :   1.0337 B( 49-C , 52-C ) :   0.9775 B( 49-C , 98-H ) :   0.8970
B( 50-C , 51-C ) :   1.1063 B( 50-C , 99-H ) :   0.9314 B( 50-C ,100-H ) :   0.9220
B( 51-C ,101-H ) :   0.9121 B( 51-C ,102-H ) :   0.8813 B( 52-C , 53-C ) :   1.9596
B( 52-C , 54-C ) :   1.0141 B( 53-C ,103-H ) :   0.9394 B( 53-C ,104-H ) :   0.9452
B( 54-C , 55-C ) :   1.7606 B( 54-C ,105-H ) :   0.9090 B( 55-C , 56-C ) :   1.0106
B( 55-C , 68-C ) :   0.9839 B( 56-C , 57-C ) :   1.6673 B( 56-C , 62-C ) :   1.0117
B( 57-C , 58-C ) :   1.1410 B( 57-C , 60-C ) :   1.1393 B( 58-C , 59-N ) :   2.9666
B( 60-C , 61-N ) :   2.9853 B( 62-C , 63-C ) :   1.3069 B( 62-C , 67-C ) :   1.3714
B( 63-C , 64-C ) :   1.3771 B( 63-C , 68-C ) :   1.0139 B( 64-C , 65-C ) :   1.3709
B( 64-C ,106-H ) :   0.9875 B( 65-C , 66-C ) :   1.3692 B( 65-C ,107-H ) :   0.9870
B( 66-C , 67-C ) :   1.3787 B( 66-C ,108-H ) :   0.9857 B( 67-C ,109-H ) :   0.9860
B( 68-C , 69-C ) :   1.6872 B( 69-C , 70-C ) :   1.1358 B( 69-C , 72-C ) :   1.1584
B( 70-C , 71-N ) :   2.9952 B( 72-C , 73-N ) :   2.9715

-----------------------------------------------------------------------------
         ABSORPTION SPECTRUM VIA TRANSITION ELECTRIC DIPOLE MOMENTS
-----------------------------------------------------------------------------
State   Energy  Wavelength   fosc         T2         TX        TY        TZ
        (cm-1)    (nm)                  (au**2)     (au)      (au)      (au)
-----------------------------------------------------------------------------
   0   10343.7    966.8   0.021118209   0.67213  -0.29864   0.30162   0.70140
   1   12971.6    770.9   0.044266186   1.12345   0.40713  -0.40702  -0.88996
   2   14279.3    700.3   0.003392139   0.07821  -0.09836   0.25048   0.07609
   3   15297.1    653.7   0.000109476   0.00236   0.00580  -0.04819  -0.00019
   4   17808.9    561.5   1.064930903  19.68609   1.25903  -4.12333  -1.04838
   5   23651.8    422.8   0.195933015   2.72721  -0.08958   0.56516   1.54912
   6   24057.5    415.7   0.250135831   3.42295  -1.62171   0.75937  -0.46513
   7   25069.8    398.9   0.140122374   1.84006  -0.91337  -0.27126  -0.96552
   8   27042.7    369.8   0.087963235   1.07085  -0.12788   0.38200   0.95319
   9   27206.0    367.6   0.002486890   0.03009   0.08907   0.02946   0.14592
  10   27513.0    363.5   0.043928779   0.52564  -0.23520   0.51281  -0.45535
  11   27625.5    362.0   0.020379099   0.24286   0.43445  -0.22277  -0.06696
  12   28026.0    356.8   0.176641422   2.07495   0.94739   0.64571  -0.87204
  13   28630.4    349.3   0.009417934   0.10829   0.06776   0.00262   0.32202
  14   28817.5    347.0   0.011308469   0.12919  -0.18552  -0.08384   0.29621
  15   28933.1    345.6   0.004731718   0.05384   0.03840  -0.02007  -0.22795
  16   29437.3    339.7   0.004270179   0.04776  -0.08918  -0.01259  -0.19911
  17   29603.7    337.8   0.115468630   1.28408  -0.44266  -0.71775  -0.75695
  18   30259.9    330.5   0.048029962   0.52254  -0.25532   0.67534  -0.03565
  19   30469.2    328.2   0.058337392   0.63032   0.34517   0.21408  -0.68217
  20   30838.3    324.3   0.198873897   2.12306  -0.17151   0.88771   1.14264
  21   31258.7    319.9   0.010793596   0.11368  -0.08007   0.23157   0.23160
  22   31526.7    317.2   0.119905050   1.25209  -0.17747  -1.06303   0.30094
  23   31630.4    316.2   0.027451475   0.28572  -0.11704   0.45599   0.25316
  24   31739.3    315.1   0.098476273   1.02143   0.13522   0.82507  -0.56782
  25   31848.2    314.0   0.462744910   4.78336  -2.05251  -0.45075  -0.60613
  26   32061.0    311.9   0.010345782   0.10623  -0.00948   0.07544   0.31694
  27   32264.7    309.9   0.086948151   0.88717  -0.89278  -0.08714  -0.28726
  28   32514.0    307.6   0.232216174   2.35124  -0.66922  -0.39572   1.32166
  29   33152.7    301.6   0.027154062   0.26964  -0.40962   0.19206   0.25490
  30   33504.1    298.5   0.165190228   1.62316   1.23100   0.09522   0.31423
  31   33731.1    296.5   0.024814098   0.24218   0.39867   0.23804   0.16303
  32   34608.4    288.9   0.050113350   0.47670  -0.61542   0.12502   0.28693
  33   34863.5    286.8   0.023725562   0.22404  -0.03660  -0.33712  -0.33023
  34   35045.2    285.3   0.279812565   2.62854  -0.58658  -0.70353   1.33772
  35   35232.7    283.8   0.006502772   0.06076  -0.09347   0.12236   0.19249
  36   35479.4    281.9   0.034445047   0.31961  -0.17006  -0.35786  -0.40327
  37   35633.3    280.6   0.067676706   0.62526   0.31074  -0.72612  -0.03811
  38   35683.4    280.2   0.504352826   4.65311   1.93763  -0.92605  -0.20279
  39   35739.7    279.8   0.290341554   2.67444   0.66868  -1.48407   0.15759
  40   35939.8    278.2   0.019722400   0.18066   0.38481   0.17736   0.03357
  41   36052.6    277.4   0.403996454   3.68907   1.43024   1.15319   0.56004
  42   36438.7    274.4   0.121857833   1.10095   0.16806   0.93412   0.44736
  43   37089.1    269.6   0.011314163   0.10043  -0.17626   0.26335  -0.00261
  44   37184.0    268.9   0.006201701   0.05491  -0.00186   0.22034  -0.07971
  45   37331.8    267.9   0.044958524   0.39647   0.40805  -0.47908  -0.02102
  46   37727.9    265.1   0.000290270   0.00253   0.03092  -0.01731  -0.03574
  47   38124.4    262.3   0.036147295   0.31214  -0.03518  -0.51743  -0.20778
  48   38421.0    260.3   0.006557472   0.05619   0.01055   0.20654   0.11583
  49   38536.2    259.5   0.000928794   0.00793   0.07824   0.00941   0.04152
  50   38856.5    257.4   0.017792648   0.15075  -0.30343  -0.15604  -0.18529
  51   39021.9    256.3   0.000640679   0.00541   0.05933   0.00380  -0.04326
  52   39215.0    255.0   0.042838302   0.35963  -0.56490   0.16186  -0.11967
  53   39436.8    253.6   0.000118874   0.00099   0.01725  -0.02406   0.01076
  54   39518.9    253.0   0.002975822   0.02479   0.06012   0.12675   0.07148
  55   39849.4    250.9   0.000011577   0.00010   0.00772  -0.00525   0.00292

FINAL SINGLE POINT ENERGY     -4410.633504437435

DIPOLE MOMENT
-------------
                                X             Y             Z
Electronic contribution:     -7.54493      22.66675      -9.29894
Nuclear contribution   :      5.51958     -23.40372      10.14223
                        -----------------------------------------
Total Dipole Moment    :     -2.02535      -0.73697       0.84329
                        -----------------------------------------
Magnitude (a.u.)       :      2.31437
Magnitude (Debye)      :      5.88266

Rotational constants in cm-1:     0.002093     0.000314     0.000310
Rotational constants in MHz :    62.749800     9.402453     9.283964

                             ****ORCA TERMINATED NORMALLY****
TOTAL RUN TIME: 0 days 0 hours 32 minutes 36 seconds 19 msec
