                         Program Version 4.2.0 -  RELEASE  -
|  1> # ORCA input file
|  2> # SCF done       -130.438672363256          0.000879613465
|  3> ! CAM-B3LYP def2-SVP def2/J RIJCOSX Grid4 TightSCF
|  4> %maxcore 5000
|  5> %tddft
|  6>     Mode sTDDFT
|  7>     Ethresh 5.0
|  8>     maxcore 5000
|  9> end
| 10>
| 11> %pal
| 12>   nprocs 6
| 13>   end
| 14> * xyz 0 1
| 15>    C       -5.20731        -1.28525        -6.90110
| 16>    N       -5.46581        -1.60475        -5.66264
| 17>    N       -5.02006        -2.69729        -5.09887
| 18>    C       -4.26451        -3.58109        -5.73997
| 19>    C       -3.91898        -3.32916        -7.10283
| 20>    C       -4.41255        -2.12859        -7.70648
| 21>    N       -4.02233        -2.00827        -8.97420
| 22>    S       -3.12198        -3.28651        -9.35748
| 23>    N       -3.18484        -4.05245        -7.93778
| 24>    C       -3.81591        -4.75137        -5.06891
| 25>    C       -4.04818        -5.15101        -3.74428
| 26>    C       -4.78744        -4.47052        -2.76397
| 27>    C       -4.89695        -5.03196        -1.51659
| 28>    C       -4.29042        -6.25164        -1.20168
| 29>    C       -3.54432        -6.96882        -2.12343
| 30>    C       -3.42277        -6.40590        -3.43718
| 31>    C       -2.74257        -6.91079        -4.52590
| 32>    S       -2.84243        -5.91417        -5.90121
| 33>    C       -2.90806        -8.21623        -1.82397
| 34>    C       -2.79251        -8.79478        -0.60324
| 35>    C       -2.13687       -10.02285        -0.37360
| 36>    S       -1.43617       -10.99497        -1.65469
| 37>    C       -0.84451       -12.23902        -0.57632
| 38>    C       -1.17332       -11.90101         0.73668
| 39>    C       -1.89378       -10.67339         0.82735
| 40>    N       -2.09598       -10.44701         2.14941
| 41>    N       -1.53867       -11.41555         2.89826
| 42>    C       -0.98647       -12.28419         2.09289
| 43>    C       -0.11501       -13.32743        -1.10110
| 44>    C        0.07783       -14.61693        -0.58595
| 45>    C       -0.54159       -15.20018         0.53281
| 46>    C       -0.21977       -16.48542         0.87898
| 47>    C        0.70811       -17.23232         0.14182
| 48>    C        1.30737       -16.73925        -1.00107
| 49>    C        0.96558       -15.40386        -1.39723
| 50>    C        1.39400       -14.71492        -2.50941
| 51>    S        0.74583       -13.14066        -2.59883
| 52>    C        2.21509       -17.50983        -1.80517
| 53>    C        2.88152       -18.61935        -1.41461
| 54>    C        3.75407       -19.36091        -2.25035
| 55>    S        3.95612       -18.97964        -3.93351
| 56>    C        5.06198       -20.25536        -4.17790
| 57>    C        5.29959       -20.96843        -3.02390
| 58>    C        4.55043       -20.45979        -1.91082
| 59>    C        4.69334       -21.07588        -0.65326
| 60>    C        5.53513       -22.14344        -0.51338
| 61>    S        5.75547       -22.95176         1.05515
| 62>    C        6.27954       -22.65802        -1.61900
| 63>    O        7.11147       -23.71828        -1.47693
| 64>    C        6.15798       -22.07606        -2.84943
| 65>    H       -5.62442        -0.36168        -7.27061
| 66>    H       -5.24856        -3.53072        -3.01673
| 67>    H       -5.46661        -4.52405        -0.75226
| 68>    H       -4.42322        -6.64484        -0.20551
| 69>    H       -2.18191        -7.82201        -4.59540
| 70>    H       -2.45943        -8.74160        -2.65613
| 71>    H       -3.19452        -8.31569         0.27934
| 72>    H       -2.56277        -9.67651         2.59571
| 73>    H       -0.46052       -13.12649         2.49326
| 74>    H       -1.28246       -14.64650         1.08473
| 75>    H       -0.69720       -16.94467         1.73197
| 76>    H        0.91858       -18.24245         0.45795
| 77>    H        2.05698       -15.03872        -3.28600
| 78>    H        2.38759       -17.15311        -2.81149
| 79>    H        2.78360       -18.98253        -0.40120
| 80>    H        5.48264       -20.41595        -5.14993
| 81>    H        4.14177       -20.69895         0.19541
| 82>    H        4.93678       -22.15546         1.73300
| 83>    H        7.11079       -24.03206        -0.56360
| 84>    H        6.72235       -22.46845        -3.67898
| 85> *
| 86>
| 87>                          ****END OF INPUT****

CARTESIAN COORDINATES (ANGSTROEM)
---------------------------------
  C     -5.207310   -1.285250   -6.901100
  N     -5.465810   -1.604750   -5.662640
  N     -5.020060   -2.697290   -5.098870
  C     -4.264510   -3.581090   -5.739970
  C     -3.918980   -3.329160   -7.102830
  C     -4.412550   -2.128590   -7.706480
  N     -4.022330   -2.008270   -8.974200
  S     -3.121980   -3.286510   -9.357480
  N     -3.184840   -4.052450   -7.937780
  C     -3.815910   -4.751370   -5.068910
  C     -4.048180   -5.151010   -3.744280
  C     -4.787440   -4.470520   -2.763970
  C     -4.896950   -5.031960   -1.516590
  C     -4.290420   -6.251640   -1.201680
  C     -3.544320   -6.968820   -2.123430
  C     -3.422770   -6.405900   -3.437180
  C     -2.742570   -6.910790   -4.525900
  S     -2.842430   -5.914170   -5.901210
  C     -2.908060   -8.216230   -1.823970
  C     -2.792510   -8.794780   -0.603240
  C     -2.136870  -10.022850   -0.373600
  S     -1.436170  -10.994970   -1.654690
  C     -0.844510  -12.239020   -0.576320
  C     -1.173320  -11.901010    0.736680
  C     -1.893780  -10.673390    0.827350
  N     -2.095980  -10.447010    2.149410
  N     -1.538670  -11.415550    2.898260
  C     -0.986470  -12.284190    2.092890
  C     -0.115010  -13.327430   -1.101100
  C      0.077830  -14.616930   -0.585950
  C     -0.541590  -15.200180    0.532810
  C     -0.219770  -16.485420    0.878980
  C      0.708110  -17.232320    0.141820
  C      1.307370  -16.739250   -1.001070
  C      0.965580  -15.403860   -1.397230
  C      1.394000  -14.714920   -2.509410
  S      0.745830  -13.140660   -2.598830
  C      2.215090  -17.509830   -1.805170
  C      2.881520  -18.619350   -1.414610
  C      3.754070  -19.360910   -2.250350
  S      3.956120  -18.979640   -3.933510
  C      5.061980  -20.255360   -4.177900
  C      5.299590  -20.968430   -3.023900
  C      4.550430  -20.459790   -1.910820
  C      4.693340  -21.075880   -0.653260
  C      5.535130  -22.143440   -0.513380
  S      5.755470  -22.951760    1.055150
  C      6.279540  -22.658020   -1.619000
  O      7.111470  -23.718280   -1.476930
  C      6.157980  -22.076060   -2.849430
  H     -5.624420   -0.361680   -7.270610
  H     -5.248560   -3.530720   -3.016730
  H     -5.466610   -4.524050   -0.752260
  H     -4.423220   -6.644840   -0.205510
  H     -2.181910   -7.822010   -4.595400
  H     -2.459430   -8.741600   -2.656130
  H     -3.194520   -8.315690    0.279340
  H     -2.562770   -9.676510    2.595710
  H     -0.460520  -13.126490    2.493260
  H     -1.282460  -14.646500    1.084730
  H     -0.697200  -16.944670    1.731970
  H      0.918580  -18.242450    0.457950
  H      2.056980  -15.038720   -3.286000
  H      2.387590  -17.153110   -2.811490
  H      2.783600  -18.982530   -0.401200
  H      5.482640  -20.415950   -5.149930
  H      4.141770  -20.698950    0.195410
  H      4.936780  -22.155460    1.733000
  H      7.110790  -24.032060   -0.563600
  H      6.722350  -22.468450   -3.678980

 Total Charge           Charge          ....    0
 Multiplicity           Mult            ....    1
 Number of Electrons    NEL             ....  388
 Basis Dimension        Dim             ....  824

ORBITAL ENERGIES
----------------

  NO   OCC          E(Eh)            E(eV)
   0   2.0000     -89.035637     -2422.7829
   1   2.0000     -88.966469     -2420.9007
   2   2.0000     -88.964550     -2420.8485
   3   2.0000     -88.959258     -2420.7045
   4   2.0000     -88.958898     -2420.6947
   5   2.0000     -88.943736     -2420.2821
   6   2.0000     -19.245430      -523.6948
   7   2.0000     -14.476248      -393.9187
   8   2.0000     -14.452864      -393.2824
   9   2.0000     -14.449897      -393.2017
  10   2.0000     -14.433547      -392.7568
  11   2.0000     -14.432001      -392.7147
  12   2.0000     -14.424183      -392.5020
  13   2.0000     -10.337036      -281.2850
  14   2.0000     -10.332205      -281.1536
  15   2.0000     -10.331754      -281.1413
  16   2.0000     -10.330341      -281.1029
  17   2.0000     -10.317103      -280.7426
  18   2.0000     -10.312166      -280.6083
  19   2.0000     -10.311701      -280.5956
  20   2.0000     -10.308741      -280.5151
  21   2.0000     -10.306000      -280.4405
  22   2.0000     -10.298742      -280.2430
  23   2.0000     -10.296970      -280.1948
  24   2.0000     -10.296006      -280.1686
  25   2.0000     -10.294757      -280.1346
  26   2.0000     -10.293690      -280.1055
  27   2.0000     -10.291628      -280.0494
  28   2.0000     -10.288089      -279.9531
  29   2.0000     -10.283954      -279.8406
  30   2.0000     -10.282333      -279.7965
  31   2.0000     -10.282104      -279.7903
  32   2.0000     -10.281629      -279.7773
  33   2.0000     -10.280553      -279.7481
  34   2.0000     -10.279816      -279.7280
  35   2.0000     -10.278761      -279.6993
  36   2.0000     -10.278234      -279.6850
  37   2.0000     -10.277390      -279.6620
  38   2.0000     -10.276771      -279.6452
  39   2.0000     -10.276109      -279.6271
  40   2.0000     -10.275894      -279.6213
  41   2.0000     -10.272101      -279.5181
  42   2.0000     -10.269905      -279.4583
  43   2.0000     -10.269427      -279.4453
  44   2.0000     -10.269073      -279.4357
  45   2.0000     -10.267835      -279.4020
  46   2.0000     -10.263881      -279.2944
  47   2.0000     -10.263316      -279.2790
  48   2.0000     -10.262780      -279.2644
  49   2.0000     -10.252730      -278.9910
  50   2.0000      -8.127446      -221.1591
  51   2.0000      -8.061948      -219.3767
  52   2.0000      -8.058900      -219.2938
  53   2.0000      -8.054452      -219.1728
  54   2.0000      -8.053696      -219.1522
  55   2.0000      -8.039410      -218.7635
  56   2.0000      -6.098591      -165.9511
  57   2.0000      -6.090853      -165.7405
  58   2.0000      -6.089894      -165.7144
  59   2.0000      -6.030945      -164.1104
  60   2.0000      -6.027870      -164.0267
  61   2.0000      -6.026597      -163.9920
  62   2.0000      -6.024913      -163.9462
  63   2.0000      -6.023348      -163.9036
  64   2.0000      -6.023330      -163.9031
  65   2.0000      -6.023128      -163.8976
  66   2.0000      -6.022194      -163.8722
  67   2.0000      -6.019258      -163.7923
  68   2.0000      -6.018954      -163.7841
  69   2.0000      -6.017487      -163.7441
  70   2.0000      -6.015705      -163.6956
  71   2.0000      -6.009798      -163.5349
  72   2.0000      -6.005650      -163.4220
  73   2.0000      -5.999454      -163.2534
  74   2.0000      -1.143869       -31.1263
  75   2.0000      -1.138059       -30.9681
  76   2.0000      -1.137787       -30.9608
  77   2.0000      -1.104158       -30.0457
  78   2.0000      -0.998967       -27.1833
  79   2.0000      -0.998308       -27.1653
  80   2.0000      -0.990063       -26.9410
  81   2.0000      -0.983697       -26.7678
  82   2.0000      -0.975351       -26.5407
  83   2.0000      -0.938901       -25.5488
  84   2.0000      -0.933835       -25.4109
  85   2.0000      -0.930567       -25.3220
  86   2.0000      -0.917374       -24.9630
  87   2.0000      -0.914953       -24.8971
  88   2.0000      -0.905288       -24.6341
  89   2.0000      -0.896543       -24.3962
  90   2.0000      -0.889264       -24.1981
  91   2.0000      -0.876379       -23.8475
  92   2.0000      -0.863181       -23.4884
  93   2.0000      -0.851008       -23.1571
  94   2.0000      -0.849109       -23.1054
  95   2.0000      -0.834295       -22.7023
  96   2.0000      -0.824888       -22.4463
  97   2.0000      -0.823076       -22.3970
  98   2.0000      -0.816736       -22.2245
  99   2.0000      -0.801796       -21.8180
 100   2.0000      -0.795144       -21.6370
 101   2.0000      -0.773454       -21.0468
 102   2.0000      -0.766871       -20.8676
 103   2.0000      -0.760843       -20.7036
 104   2.0000      -0.733984       -19.9727
 105   2.0000      -0.728654       -19.8277
 106   2.0000      -0.720942       -19.6178
 107   2.0000      -0.708699       -19.2847
 108   2.0000      -0.708112       -19.2687
 109   2.0000      -0.698817       -19.0158
 110   2.0000      -0.693464       -18.8701
 111   2.0000      -0.690739       -18.7960
 112   2.0000      -0.685330       -18.6488
 113   2.0000      -0.677602       -18.4385
 114   2.0000      -0.664371       -18.0785
 115   2.0000      -0.663595       -18.0573
 116   2.0000      -0.659146       -17.9363
 117   2.0000      -0.633686       -17.2435
 118   2.0000      -0.633309       -17.2332
 119   2.0000      -0.627686       -17.0802
 120   2.0000      -0.624644       -16.9974
 121   2.0000      -0.609231       -16.5780
 122   2.0000      -0.605803       -16.4847
 123   2.0000      -0.600836       -16.3496
 124   2.0000      -0.586866       -15.9694
 125   2.0000      -0.573807       -15.6141
 126   2.0000      -0.569084       -15.4856
 127   2.0000      -0.563024       -15.3207
 128   2.0000      -0.562267       -15.3001
 129   2.0000      -0.560235       -15.2448
 130   2.0000      -0.552742       -15.0409
 131   2.0000      -0.550369       -14.9763
 132   2.0000      -0.545062       -14.8319
 133   2.0000      -0.543113       -14.7789
 134   2.0000      -0.540984       -14.7209
 135   2.0000      -0.536762       -14.6060
 136   2.0000      -0.533382       -14.5141
 137   2.0000      -0.518958       -14.1216
 138   2.0000      -0.513952       -13.9853
 139   2.0000      -0.510224       -13.8839
 140   2.0000      -0.509655       -13.8684
 141   2.0000      -0.506963       -13.7952
 142   2.0000      -0.503346       -13.6967
 143   2.0000      -0.502898       -13.6845
 144   2.0000      -0.499823       -13.6009
 145   2.0000      -0.494501       -13.4561
 146   2.0000      -0.490608       -13.3501
 147   2.0000      -0.488317       -13.2878
 148   2.0000      -0.484986       -13.1971
 149   2.0000      -0.483383       -13.1535
 150   2.0000      -0.482314       -13.1244
 151   2.0000      -0.479559       -13.0495
 152   2.0000      -0.474218       -12.9041
 153   2.0000      -0.464898       -12.6505
 154   2.0000      -0.463246       -12.6056
 155   2.0000      -0.457225       -12.4417
 156   2.0000      -0.455746       -12.4015
 157   2.0000      -0.452023       -12.3002
 158   2.0000      -0.440255       -11.9799
 159   2.0000      -0.439004       -11.9459
 160   2.0000      -0.436951       -11.8900
 161   2.0000      -0.434914       -11.8346
 162   2.0000      -0.430571       -11.7164
 163   2.0000      -0.425973       -11.5913
 164   2.0000      -0.422953       -11.5091
 165   2.0000      -0.421032       -11.4569
 166   2.0000      -0.416339       -11.3292
 167   2.0000      -0.414981       -11.2922
 168   2.0000      -0.411734       -11.2038
 169   2.0000      -0.411060       -11.1855
 170   2.0000      -0.410113       -11.1597
 171   2.0000      -0.407210       -11.0807
 172   2.0000      -0.403360       -10.9760
 173   2.0000      -0.394630       -10.7384
 174   2.0000      -0.393606       -10.7106
 175   2.0000      -0.374939       -10.2026
 176   2.0000      -0.373238       -10.1563
 177   2.0000      -0.372112       -10.1257
 178   2.0000      -0.363056        -9.8793
 179   2.0000      -0.360985        -9.8229
 180   2.0000      -0.359523        -9.7831
 181   2.0000      -0.350440        -9.5359
 182   2.0000      -0.349201        -9.5022
 183   2.0000      -0.323024        -8.7899
 184   2.0000      -0.315852        -8.5948
 185   2.0000      -0.312715        -8.5094
 186   2.0000      -0.311352        -8.4723
 187   2.0000      -0.308742        -8.4013
 188   2.0000      -0.290029        -7.8921
 189   2.0000      -0.283215        -7.7067
 190   2.0000      -0.279523        -7.6062
 191   2.0000      -0.255077        -6.9410
 192   2.0000      -0.233068        -6.3421
 193   2.0000      -0.212054        -5.7703
 194   0.0000      -0.081822        -2.2265
 195   0.0000      -0.064709        -1.7608
 196   0.0000      -0.045047        -1.2258
 197   0.0000      -0.023524        -0.6401
 198   0.0000      -0.004333        -0.1179

MULLIKEN ATOMIC CHARGES
-----------------------
   0 C :   -0.040543
   1 N :   -0.031382
   2 N :   -0.088256
   3 C :    0.052280
   4 C :   -0.026340
   5 C :    0.066123
   6 N :   -0.257248
   7 S :    0.523407
   8 N :   -0.285353
   9 C :   -0.196994
  10 C :    0.086395
  11 C :   -0.018978
  12 C :    0.053824
  13 C :   -0.064125
  14 C :    0.152392
  15 C :    0.065444
  16 C :   -0.128271
  17 S :    0.204292
  18 C :   -0.060948
  19 C :    0.022022
  20 C :   -0.157660
  21 S :    0.114511
  22 C :   -0.124110
  23 C :    0.031401
  24 C :    0.142794
  25 N :   -0.049088
  26 N :   -0.056562
  27 C :   -0.019426
  28 C :   -0.153995
  29 C :    0.131679
  30 C :   -0.044833
  31 C :    0.034681
  32 C :   -0.058349
  33 C :    0.133930
  34 C :    0.066535
  35 C :   -0.154769
  36 S :    0.164304
  37 C :   -0.051928
  38 C :    0.027623
  39 C :   -0.134403
  40 S :    0.131767
  41 C :   -0.129966
  42 C :    0.112996
  43 C :    0.135339
  44 C :   -0.058725
  45 C :   -0.068679
  46 S :   -0.013478
  47 C :    0.134532
  48 O :   -0.178393
  49 C :   -0.085574
  50 H :   -0.002732
  51 H :   -0.001345
  52 H :   -0.017699
  53 H :   -0.036797
  54 H :    0.023413
  55 H :   -0.029958
  56 H :   -0.028567
  57 H :    0.133737
  58 H :    0.002825
  59 H :   -0.019364
  60 H :   -0.018300
  61 H :   -0.030933
  62 H :    0.022680
  63 H :   -0.019704
  64 H :   -0.019809
  65 H :    0.014585
  66 H :   -0.046078
  67 H :    0.075844
  68 H :    0.179994
  69 H :   -0.031683
Sum of atomic charges:    0.0000000

LOEWDIN ATOMIC CHARGES
----------------------
   0 C :   -0.014595
   1 N :   -0.033879
   2 N :   -0.069435
   3 C :   -0.010629
   4 C :   -0.069020
   5 C :   -0.068246
   6 N :   -0.272000
   7 S :    0.656531
   8 N :   -0.287623
   9 C :   -0.211487
  10 C :   -0.018956
  11 C :   -0.015059
  12 C :   -0.015703
  13 C :   -0.028968
  14 C :   -0.014518
  15 C :   -0.049297
  16 C :   -0.179840
  17 S :    0.527737
  18 C :   -0.043075
  19 C :   -0.028164
  20 C :   -0.214682
  21 S :    0.435471
  22 C :   -0.173756
  23 C :   -0.098278
  24 C :   -0.015753
  25 N :    0.081131
  26 N :   -0.053778
  27 C :   -0.041795
  28 C :   -0.205313
  29 C :   -0.040729
  30 C :   -0.024231
  31 C :   -0.024398
  32 C :   -0.027314
  33 C :   -0.014686
  34 C :   -0.044290
  35 C :   -0.198728
  36 S :    0.481123
  37 C :   -0.035182
  38 C :   -0.025568
  39 C :   -0.187809
  40 S :    0.473143
  41 C :   -0.201314
  42 C :   -0.047764
  43 C :   -0.049070
  44 C :   -0.047204
  45 C :   -0.171039
  46 S :    0.211283
  47 C :    0.030746
  48 O :   -0.051127
  49 C :   -0.051539
  50 H :    0.031443
  51 H :    0.031447
  52 H :    0.029444
  53 H :    0.021429
  54 H :    0.022808
  55 H :    0.016378
  56 H :    0.027424
  57 H :    0.084832
  58 H :    0.022878
  59 H :    0.030870
  60 H :    0.029250
  61 H :    0.023834
  62 H :    0.022256
  63 H :    0.017069
  64 H :    0.029132
  65 H :    0.022806
  66 H :    0.022475
  67 H :   -0.014640
  68 H :    0.073067
  69 H :    0.034475

  Mayer bond orders larger than 0.100000
B(  0-C ,  1-N ) :   1.7364 B(  0-C ,  5-C ) :   1.1165 B(  0-C , 50-H ) :   1.0166
B(  1-N ,  2-N ) :   1.1986 B(  2-N ,  3-C ) :   1.6753 B(  3-C ,  4-C ) :   1.0723
B(  3-C ,  9-C ) :   1.2001 B(  4-C ,  5-C ) :   1.2079 B(  4-C ,  8-N ) :   1.5362
B(  5-C ,  6-N ) :   1.5124 B(  6-N ,  7-S ) :   1.2841 B(  6-N ,  8-N ) :   0.1463
B(  7-S ,  8-N ) :   1.2552 B(  9-C , 10-C ) :   1.3012 B(  9-C , 16-C ) :   0.1099
B(  9-C , 17-S ) :   1.1774 B( 10-C , 11-C ) :   1.2664 B( 10-C , 15-C ) :   1.1955
B( 11-C , 12-C ) :   1.4523 B( 11-C , 51-H ) :   0.9823 B( 12-C , 13-C ) :   1.2423
B( 12-C , 52-H ) :   0.9833 B( 13-C , 14-C ) :   1.4761 B( 13-C , 53-H ) :   0.9851
B( 14-C , 15-C ) :   1.1349 B( 14-C , 18-C ) :   1.1010 B( 15-C , 16-C ) :   1.4220
B( 16-C , 17-S ) :   1.2178 B( 16-C , 54-H ) :   0.9546 B( 18-C , 19-C ) :   1.6437
B( 18-C , 55-H ) :   0.9782 B( 19-C , 20-C ) :   1.1914 B( 19-C , 56-H ) :   0.9739
B( 20-C , 21-S ) :   1.0653 B( 20-C , 22-C ) :   0.1187 B( 20-C , 24-C ) :   1.3742
B( 21-S , 22-C ) :   1.1564 B( 22-C , 23-C ) :   1.3565 B( 22-C , 28-C ) :   1.1711
B( 23-C , 24-C ) :   1.2355 B( 23-C , 27-C ) :   1.1396 B( 24-C , 25-N ) :   1.1502
B( 25-N , 26-N ) :   1.1250 B( 25-N , 57-H ) :   0.9503 B( 26-N , 27-C ) :   1.7537
B( 27-C , 58-H ) :   0.9946 B( 28-C , 29-C ) :   1.3553 B( 28-C , 35-C ) :   0.1160
B( 28-C , 36-S ) :   1.1749 B( 29-C , 30-C ) :   1.2200 B( 29-C , 34-C ) :   1.1946
B( 30-C , 31-C ) :   1.5090 B( 30-C , 59-H ) :   0.9911 B( 31-C , 32-C ) :   1.2244
B( 31-C , 60-H ) :   0.9833 B( 32-C , 33-C ) :   1.5061 B( 32-C , 61-H ) :   0.9855
B( 33-C , 34-C ) :   1.1312 B( 33-C , 37-C ) :   1.0880 B( 34-C , 35-C ) :   1.4525
B( 35-C , 36-S ) :   1.1891 B( 35-C , 62-H ) :   0.9558 B( 37-C , 38-C ) :   1.6877
B( 37-C , 63-H ) :   0.9705 B( 38-C , 39-C ) :   1.1673 B( 38-C , 64-H ) :   0.9642
B( 39-C , 40-S ) :   1.1542 B( 39-C , 41-C ) :   0.1089 B( 39-C , 43-C ) :   1.3362
B( 40-S , 41-C ) :   1.1860 B( 41-C , 42-C ) :   1.4327 B( 41-C , 65-H ) :   0.9692
B( 42-C , 43-C ) :   1.1965 B( 42-C , 49-C ) :   1.1314 B( 43-C , 44-C ) :   1.2185
B( 44-C , 45-C ) :   1.5543 B( 44-C , 66-H ) :   0.9780 B( 45-C , 46-S ) :   1.0065
B( 45-C , 47-C ) :   1.1707 B( 46-S , 67-H ) :   0.9532 B( 47-C , 48-O ) :   1.2450
B( 47-C , 49-C ) :   1.5476 B( 48-O , 68-H ) :   0.9519 B( 49-C , 69-H ) :   1.0125

-----------------------------------------------------------------------------
         ABSORPTION SPECTRUM VIA TRANSITION ELECTRIC DIPOLE MOMENTS
-----------------------------------------------------------------------------
State   Energy  Wavelength   fosc         T2         TX        TY        TZ
        (cm-1)    (nm)                  (au**2)     (au)      (au)      (au)
-----------------------------------------------------------------------------
   0   14799.0    675.7   1.071951815  23.84611   1.92652  -4.18153   1.62770
   1   17918.7    558.1   0.676285902  12.42511  -2.00975   2.61236   1.24964
   2   19896.6    502.6   0.000014624   0.00024  -0.01165  -0.00378  -0.00959
   3   21651.9    461.9   0.054516457   0.82891   0.22372   0.19696  -0.86027
   4   22752.3    439.5   0.057639550   0.83401   0.62743  -0.35279  -0.56204
   5   22947.8    435.8   0.167650880   2.40514   0.20554  -1.13925   1.03199
   6   25964.1    385.1   0.173301468   2.19738   0.94934  -1.13739  -0.04982
   7   26688.9    374.7   0.038021893   0.46901   0.46318  -0.49700   0.08636
   8   27446.2    364.3   0.073555764   0.88229  -0.17660   0.64018  -0.66428
   9   28522.7    350.6   0.115790732   1.33647  -0.63161   0.79626   0.55091
  10   29394.7    340.2   0.018880448   0.21146  -0.28482   0.35079   0.08532
  11   31165.3    320.9   0.062333058   0.65845   0.24333   0.01923  -0.77387
  12   32242.0    310.2   0.100557783   1.02676  -0.47735   0.73313  -0.51129
  13   32313.5    309.5   0.050193483   0.51138   0.39941  -0.47020  -0.36160
  14   32858.0    304.3   0.123323068   1.23560  -0.26022   0.63384  -0.87529
  15   33580.0    297.8   0.149075894   1.46151  -0.48317   0.83412  -0.72959
  16   34397.7    290.7   0.003526041   0.03375  -0.14677  -0.08926  -0.06512
  17   34433.0    290.4   0.007278073   0.06959  -0.02536  -0.01836   0.26193
  18   34927.5    286.3   0.012786462   0.12052   0.07102  -0.12312  -0.31673
  19   35245.1    283.7   0.007114470   0.06645  -0.20256   0.13016  -0.09210
  20   35513.7    281.6   0.005690527   0.05275  -0.17195  -0.08148  -0.12863
  21   36054.6    277.4   0.046671808   0.42616  -0.05699  -0.64751   0.06034
  22   36453.3    274.3   0.002819334   0.02546  -0.10165  -0.10281   0.06753
  23   36549.5    273.6   0.000304435   0.00274  -0.02484  -0.03663  -0.02799
  24   37162.6    269.1   0.066152567   0.58603   0.36458  -0.61324   0.27757
  25   37387.9    267.5   0.138633927   1.22071   0.07227   0.62343  -0.90930
  26   37579.3    266.1   0.001521675   0.01333   0.06133   0.00519   0.09768
  27   37809.4    264.5   0.018306220   0.15940  -0.09423   0.14267  -0.36078
  28   37940.1    263.6   0.004681006   0.04062   0.16888   0.09091   0.06192
  29   38405.2    260.4   0.029699171   0.25458   0.15814  -0.06965  -0.47405
  30   38914.9    257.0   0.135776845   1.14864   0.57514  -0.88721   0.17527
  31   39046.3    256.1   0.038507931   0.32467   0.10116   0.06010  -0.55752
  32   39372.3    254.0   0.028823375   0.24101   0.27686  -0.40471   0.02380
  33   39774.3    251.4   0.017883521   0.14802  -0.10221   0.18991  -0.31860

FINAL SINGLE POINT ENERGY     -4211.709802722862

DIPOLE MOMENT
-------------
                                X             Y             Z
Electronic contribution:     -7.46796      31.18501     -27.62469
Nuclear contribution   :      8.29812     -32.49105      27.52327
                        -----------------------------------------
Total Dipole Moment    :      0.83016      -1.30604      -0.10142
                        -----------------------------------------
Magnitude (a.u.)       :      1.55087
Magnitude (Debye)      :      3.94199

Rotational constants in cm-1:     0.003328     0.000349     0.000317
Rotational constants in MHz :    99.756970    10.465986     9.510757

                             ****ORCA TERMINATED NORMALLY****
TOTAL RUN TIME: 0 days 0 hours 5 minutes 0 seconds 252 msec
