                         Program Version 4.2.0 -  RELEASE  -
|  1> # ORCA input file
|  2> # SCF done       -150.820449923486          0.000707524947
|  3> ! CAM-B3LYP def2-SVP def2/J RIJCOSX Grid4 TightSCF
|  4> %maxcore 5000
|  5> %tddft
|  6>     Mode sTDDFT
|  7>     Ethresh 5.0
|  8>     maxcore 5000
|  9> end
| 10>
| 11> %pal
| 12>   nprocs 6
| 13>   end
| 14> * xyz 0 1
| 15>    C       -3.08154         0.53529        -1.06985
| 16>    C       -3.39760         0.37969         0.23832
| 17>    C       -2.84506        -0.78191         0.87442
| 18>    C       -2.07284        -1.57277         0.06533
| 19>   Si       -1.98396        -0.85398        -1.67707
| 20>    C       -1.43252        -2.75755         0.45197
| 21>    C       -0.66378        -3.51735        -0.43986
| 22>    C       -0.09569        -4.70623         0.13617
| 23>    N        0.64190        -5.53308        -0.61399
| 24>    C        0.82707        -5.19745        -1.87305
| 25>    C        1.63208        -6.12386        -2.70412
| 26>    O        2.07580        -7.17555        -2.27996
| 27>    C        1.85486        -5.68747        -4.09010
| 28>    C        1.34860        -4.56162        -4.60625
| 29>    C        0.50722        -3.62322        -3.84453
| 30>    O        0.04367        -2.61512        -4.34049
| 31>    C        0.27492        -3.99896        -2.43406
| 32>    N       -0.46472        -3.18512        -1.70864
| 33>    C       -0.42657        -4.84917         1.48945
| 34>    S       -1.43206        -3.52987         2.00998
| 35>    C       -0.02784        -5.90009         2.34692
| 36>    C        0.79033        -6.94107         1.98838
| 37>    C        1.00750        -7.86209         3.03318
| 38>    C        1.78800        -9.03837         3.03768
| 39>    C        1.85571        -9.72077         4.26101
| 40>    C        1.13848        -9.20656         5.37282
| 41>    N        0.40331        -8.11469         5.37330
| 42>    C        0.34949        -7.46623         4.23013
| 43>    S       -0.55716        -6.00276         4.02308
| 44>    S        1.29983       -10.19301         6.79865
| 45>    C        2.30131       -11.30252         5.90314
| 46>    C        2.50429       -10.94287         4.61217
| 47>    F        3.23077       -11.67106         3.75553
| 48>    F        2.78512       -12.38234         6.50540
| 49>    C        2.47129        -9.42032         1.81827
| 50>    C        1.80731        -9.44933         0.62622
| 51>    C        2.59817        -9.65946        -0.54355
| 52>    C        3.94766        -9.79525        -0.34242
| 53>   Si        4.30639        -9.66963         1.49471
| 54>    C        4.89406        -9.89216        -1.39246
| 55>    C        4.74176       -10.33346        -2.67464
| 56>    C        5.74377        -9.93009        -3.69346
| 57>    O        6.82987        -9.43687        -3.49837
| 58>    C        5.10056       -10.21160        -4.99796
| 59>    C        3.87031       -10.85794        -4.78141
| 60>    C        3.69600       -11.07479        -3.34509
| 61>    C        2.85069       -11.99950        -2.79160
| 62>    C        2.85669       -12.34299        -1.42460
| 63>    N        2.84553       -12.67977        -0.32781
| 64>    C        1.92286       -12.75920        -3.53318
| 65>    N        1.14218       -13.38587        -4.09439
| 66>    C        3.06384       -11.18392        -5.85818
| 67>    C        3.50469       -10.86683        -7.13811
| 68>    C        4.73591       -10.24197        -7.34600
| 69>    C        5.54507        -9.90699        -6.26749
| 70>   Br        5.31798        -9.83295        -9.09816
| 71>   Br        2.39595       -11.29615        -8.60911
| 72>    H       -3.45448         1.38225        -1.62391
| 73>    H       -4.01956         1.06082         0.80043
| 74>    H       -3.03655        -1.00083         1.91575
| 75>    H       -2.66743        -1.68003        -2.66182
| 76>    H       -0.65455        -0.37361        -2.02350
| 77>    H        2.46532        -6.35224        -4.68697
| 78>    H        1.53384        -4.28249        -5.63467
| 79>    H        1.21873        -7.01031         1.00547
| 80>    H        0.73639        -9.33759         0.54346
| 81>    H        2.14111        -9.59886        -1.51858
| 82>    H        5.02295        -8.43239         1.82464
| 83>    H        4.93593       -10.85787         2.04429
| 84>    H        5.87944        -9.48795        -1.17854
| 85>    H        2.10610       -11.66310        -5.73285
| 86>    H        6.49614        -9.41993        -6.41737
| 87> *
| 88>
| 89>                          ****END OF INPUT****

CARTESIAN COORDINATES (ANGSTROEM)
---------------------------------
  C     -3.081540    0.535290   -1.069850
  C     -3.397600    0.379690    0.238320
  C     -2.845060   -0.781910    0.874420
  C     -2.072840   -1.572770    0.065330
  Si    -1.983960   -0.853980   -1.677070
  C     -1.432520   -2.757550    0.451970
  C     -0.663780   -3.517350   -0.439860
  C     -0.095690   -4.706230    0.136170
  N      0.641900   -5.533080   -0.613990
  C      0.827070   -5.197450   -1.873050
  C      1.632080   -6.123860   -2.704120
  O      2.075800   -7.175550   -2.279960
  C      1.854860   -5.687470   -4.090100
  C      1.348600   -4.561620   -4.606250
  C      0.507220   -3.623220   -3.844530
  O      0.043670   -2.615120   -4.340490
  C      0.274920   -3.998960   -2.434060
  N     -0.464720   -3.185120   -1.708640
  C     -0.426570   -4.849170    1.489450
  S     -1.432060   -3.529870    2.009980
  C     -0.027840   -5.900090    2.346920
  C      0.790330   -6.941070    1.988380
  C      1.007500   -7.862090    3.033180
  C      1.788000   -9.038370    3.037680
  C      1.855710   -9.720770    4.261010
  C      1.138480   -9.206560    5.372820
  N      0.403310   -8.114690    5.373300
  C      0.349490   -7.466230    4.230130
  S     -0.557160   -6.002760    4.023080
  S      1.299830  -10.193010    6.798650
  C      2.301310  -11.302520    5.903140
  C      2.504290  -10.942870    4.612170
  F      3.230770  -11.671060    3.755530
  F      2.785120  -12.382340    6.505400
  C      2.471290   -9.420320    1.818270
  C      1.807310   -9.449330    0.626220
  C      2.598170   -9.659460   -0.543550
  C      3.947660   -9.795250   -0.342420
  Si     4.306390   -9.669630    1.494710
  C      4.894060   -9.892160   -1.392460
  C      4.741760  -10.333460   -2.674640
  C      5.743770   -9.930090   -3.693460
  O      6.829870   -9.436870   -3.498370
  C      5.100560  -10.211600   -4.997960
  C      3.870310  -10.857940   -4.781410
  C      3.696000  -11.074790   -3.345090
  C      2.850690  -11.999500   -2.791600
  C      2.856690  -12.342990   -1.424600
  N      2.845530  -12.679770   -0.327810
  C      1.922860  -12.759200   -3.533180
  N      1.142180  -13.385870   -4.094390
  C      3.063840  -11.183920   -5.858180
  C      3.504690  -10.866830   -7.138110
  C      4.735910  -10.241970   -7.346000
  C      5.545070   -9.906990   -6.267490
  Br     5.317980   -9.832950   -9.098160
  Br     2.395950  -11.296150   -8.609110
  H     -3.454480    1.382250   -1.623910
  H     -4.019560    1.060820    0.800430
  H     -3.036550   -1.000830    1.915750
  H     -2.667430   -1.680030   -2.661820
  H     -0.654550   -0.373610   -2.023500
  H      2.465320   -6.352240   -4.686970
  H      1.533840   -4.282490   -5.634670
  H      1.218730   -7.010310    1.005470
  H      0.736390   -9.337590    0.543460
  H      2.141110   -9.598860   -1.518580
  H      5.022950   -8.432390    1.824640
  H      4.935930  -10.857870    2.044290
  H      5.879440   -9.487950   -1.178540
  H      2.106100  -11.663100   -5.732850
  H      6.496140   -9.419930   -6.417370

 Total Charge           Charge          ....    0
 Multiplicity           Mult            ....    1
 Number of Electrons    NEL             ....  478
 Basis Dimension        Dim             ....  929

ORBITAL ENERGIES
----------------

  NO   OCC          E(Eh)            E(eV)
   0   2.0000    -482.878006    -13139.7785
   1   2.0000    -482.876501    -13139.7376
   2   2.0000     -88.997385     -2421.7420
   3   2.0000     -88.968822     -2420.9647
   4   2.0000     -88.961828     -2420.7744
   5   2.0000     -66.203102     -1801.4780
   6   2.0000     -66.188841     -1801.0899
   7   2.0000     -62.555584     -1702.2240
   8   2.0000     -62.554155     -1702.1851
   9   2.0000     -56.389532     -1534.4372
  10   2.0000     -56.388115     -1534.3986
  11   2.0000     -56.386884     -1534.3651
  12   2.0000     -56.386791     -1534.3626
  13   2.0000     -56.385442     -1534.3259
  14   2.0000     -56.385352     -1534.3234
  15   2.0000     -24.807799      -675.0545
  16   2.0000     -24.797155      -674.7649
  17   2.0000     -19.240479      -523.5600
  18   2.0000     -19.235178      -523.4158
  19   2.0000     -19.218641      -522.9658
  20   2.0000     -14.461054      -393.5053
  21   2.0000     -14.456122      -393.3711
  22   2.0000     -14.426788      -392.5728
  23   2.0000     -14.418564      -392.3491
  24   2.0000     -14.418074      -392.3357
  25   2.0000     -10.389080      -282.7012
  26   2.0000     -10.387801      -282.6664
  27   2.0000     -10.384437      -282.5749
  28   2.0000     -10.369973      -282.1813
  29   2.0000     -10.367100      -282.1031
  30   2.0000     -10.354515      -281.7607
  31   2.0000     -10.354089      -281.7491
  32   2.0000     -10.349784      -281.6319
  33   2.0000     -10.349278      -281.6182
  34   2.0000     -10.347330      -281.5652
  35   2.0000     -10.346352      -281.5386
  36   2.0000     -10.345644      -281.5193
  37   2.0000     -10.344454      -281.4869
  38   2.0000     -10.336942      -281.2825
  39   2.0000     -10.334792      -281.2240
  40   2.0000     -10.332558      -281.1632
  41   2.0000     -10.330691      -281.1124
  42   2.0000     -10.324095      -280.9329
  43   2.0000     -10.320604      -280.8379
  44   2.0000     -10.319497      -280.8078
  45   2.0000     -10.319156      -280.7985
  46   2.0000     -10.318301      -280.7752
  47   2.0000     -10.317898      -280.7643
  48   2.0000     -10.317549      -280.7548
  49   2.0000     -10.316500      -280.7262
  50   2.0000     -10.312142      -280.6077
  51   2.0000     -10.311821      -280.5989
  52   2.0000     -10.305620      -280.4302
  53   2.0000     -10.303706      -280.3781
  54   2.0000     -10.303315      -280.3675
  55   2.0000     -10.296760      -280.1891
  56   2.0000     -10.295431      -280.1529
  57   2.0000     -10.294977      -280.1406
  58   2.0000     -10.292639      -280.0769
  59   2.0000     -10.285700      -279.8881
  60   2.0000     -10.282566      -279.8028
  61   2.0000     -10.279677      -279.7242
  62   2.0000     -10.274894      -279.5941
  63   2.0000     -10.272820      -279.5376
  64   2.0000     -10.255182      -279.0577
  65   2.0000      -8.784879      -239.0487
  66   2.0000      -8.783495      -239.0110
  67   2.0000      -8.091904      -220.1919
  68   2.0000      -8.065972      -219.4862
  69   2.0000      -8.058450      -219.2816
  70   2.0000      -6.620961      -180.1655
  71   2.0000      -6.619662      -180.1302
  72   2.0000      -6.607012      -179.7859
  73   2.0000      -6.606256      -179.7654
  74   2.0000      -6.605583      -179.7471
  75   2.0000      -6.604832      -179.7266
  76   2.0000      -6.060870      -164.9247
  77   2.0000      -6.056718      -164.8117
  78   2.0000      -6.054817      -164.7600
  79   2.0000      -6.035503      -164.2344
  80   2.0000      -6.031695      -164.1308
  81   2.0000      -6.027959      -164.0291
  82   2.0000      -6.026768      -163.9967
  83   2.0000      -6.023964      -163.9204
  84   2.0000      -6.019660      -163.8033
  85   2.0000      -5.373626      -146.2238
  86   2.0000      -5.358275      -145.8061
  87   2.0000      -3.736692      -101.6806
  88   2.0000      -3.735491      -101.6479
  89   2.0000      -3.734420      -101.6187
  90   2.0000      -3.721681      -101.2721
  91   2.0000      -3.720092      -101.2288
  92   2.0000      -3.718975      -101.1985
  93   2.0000      -2.736903       -74.4749
  94   2.0000      -2.735536       -74.4377
  95   2.0000      -2.733101       -74.3715
  96   2.0000      -2.732531       -74.3559
  97   2.0000      -2.731803       -74.3361
  98   2.0000      -2.731170       -74.3189
  99   2.0000      -2.721419       -74.0536
 100   2.0000      -2.721412       -74.0534
 101   2.0000      -2.719998       -74.0149
 102   2.0000      -2.719984       -74.0145
 103   2.0000      -1.326177       -36.0871
 104   2.0000      -1.308214       -35.5983
 105   2.0000      -1.153827       -31.3972
 106   2.0000      -1.148064       -31.2404
 107   2.0000      -1.134196       -30.8630
 108   2.0000      -1.107210       -30.1287
 109   2.0000      -1.074495       -29.2385
 110   2.0000      -1.035213       -28.1696
 111   2.0000      -1.024789       -27.8859
 112   2.0000      -1.009747       -27.4766
 113   2.0000      -1.008843       -27.4520
 114   2.0000      -0.996962       -27.1287
 115   2.0000      -0.990766       -26.9601
 116   2.0000      -0.977053       -26.5870
 117   2.0000      -0.970589       -26.4111
 118   2.0000      -0.950585       -25.8667
 119   2.0000      -0.947612       -25.7858
 120   2.0000      -0.927932       -25.2503
 121   2.0000      -0.922479       -25.1019
 122   2.0000      -0.918324       -24.9889
 123   2.0000      -0.912266       -24.8240
 124   2.0000      -0.895637       -24.3715
 125   2.0000      -0.879699       -23.9378
 126   2.0000      -0.877704       -23.8835
 127   2.0000      -0.863368       -23.4934
 128   2.0000      -0.853435       -23.2232
 129   2.0000      -0.851643       -23.1744
 130   2.0000      -0.828526       -22.5453
 131   2.0000      -0.821929       -22.3658
 132   2.0000      -0.812212       -22.1014
 133   2.0000      -0.809211       -22.0198
 134   2.0000      -0.794843       -21.6288
 135   2.0000      -0.787319       -21.4240
 136   2.0000      -0.778284       -21.1782
 137   2.0000      -0.766795       -20.8655
 138   2.0000      -0.753246       -20.4969
 139   2.0000      -0.741735       -20.1836
 140   2.0000      -0.735680       -20.0189
 141   2.0000      -0.716096       -19.4860
 142   2.0000      -0.710313       -19.3286
 143   2.0000      -0.701312       -19.0837
 144   2.0000      -0.691683       -18.8217
 145   2.0000      -0.690532       -18.7903
 146   2.0000      -0.686250       -18.6738
 147   2.0000      -0.678143       -18.4532
 148   2.0000      -0.675622       -18.3846
 149   2.0000      -0.670502       -18.2453
 150   2.0000      -0.657186       -17.8829
 151   2.0000      -0.650191       -17.6926
 152   2.0000      -0.640494       -17.4287
 153   2.0000      -0.629075       -17.1180
 154   2.0000      -0.620705       -16.8902
 155   2.0000      -0.619199       -16.8493
 156   2.0000      -0.615705       -16.7542
 157   2.0000      -0.609412       -16.5829
 158   2.0000      -0.605484       -16.4761
 159   2.0000      -0.602934       -16.4067
 160   2.0000      -0.591005       -16.0821
 161   2.0000      -0.587948       -15.9989
 162   2.0000      -0.586322       -15.9546
 163   2.0000      -0.582179       -15.8419
 164   2.0000      -0.577998       -15.7281
 165   2.0000      -0.574516       -15.6334
 166   2.0000      -0.573958       -15.6182
 167   2.0000      -0.571435       -15.5495
 168   2.0000      -0.568835       -15.4788
 169   2.0000      -0.558754       -15.2045
 170   2.0000      -0.551294       -15.0015
 171   2.0000      -0.549690       -14.9578
 172   2.0000      -0.547845       -14.9076
 173   2.0000      -0.542688       -14.7673
 174   2.0000      -0.539566       -14.6823
 175   2.0000      -0.537063       -14.6142
 176   2.0000      -0.534688       -14.5496
 177   2.0000      -0.529230       -14.4011
 178   2.0000      -0.527398       -14.3512
 179   2.0000      -0.524797       -14.2804
 180   2.0000      -0.524034       -14.2597
 181   2.0000      -0.517319       -14.0770
 182   2.0000      -0.510143       -13.8817
 183   2.0000      -0.508620       -13.8403
 184   2.0000      -0.505011       -13.7420
 185   2.0000      -0.503702       -13.7064
 186   2.0000      -0.499959       -13.6046
 187   2.0000      -0.494375       -13.4526
 188   2.0000      -0.491855       -13.3840
 189   2.0000      -0.490057       -13.3351
 190   2.0000      -0.486950       -13.2506
 191   2.0000      -0.479145       -13.0382
 192   2.0000      -0.477536       -12.9944
 193   2.0000      -0.471805       -12.8385
 194   2.0000      -0.470390       -12.8000
 195   2.0000      -0.468604       -12.7514
 196   2.0000      -0.465843       -12.6762
 197   2.0000      -0.463244       -12.6055
 198   2.0000      -0.459901       -12.5145
 199   2.0000      -0.455858       -12.4045
 200   2.0000      -0.451783       -12.2936
 201   2.0000      -0.448748       -12.2110
 202   2.0000      -0.445078       -12.1112
 203   2.0000      -0.441703       -12.0193
 204   2.0000      -0.436693       -11.8830
 205   2.0000      -0.434578       -11.8255
 206   2.0000      -0.433149       -11.7866
 207   2.0000      -0.430024       -11.7015
 208   2.0000      -0.427011       -11.6196
 209   2.0000      -0.425523       -11.5791
 210   2.0000      -0.423301       -11.5186
 211   2.0000      -0.417823       -11.3696
 212   2.0000      -0.412036       -11.2121
 213   2.0000      -0.408893       -11.1265
 214   2.0000      -0.400970       -10.9110
 215   2.0000      -0.397819       -10.8252
 216   2.0000      -0.397453       -10.8153
 217   2.0000      -0.395731       -10.7684
 218   2.0000      -0.391348       -10.6491
 219   2.0000      -0.390496       -10.6259
 220   2.0000      -0.382995       -10.4218
 221   2.0000      -0.377308       -10.2671
 222   2.0000      -0.376209       -10.2372
 223   2.0000      -0.372821       -10.1450
 224   2.0000      -0.358608        -9.7582
 225   2.0000      -0.355669        -9.6783
 226   2.0000      -0.355287        -9.6678
 227   2.0000      -0.352816        -9.6006
 228   2.0000      -0.349399        -9.5076
 229   2.0000      -0.348644        -9.4871
 230   2.0000      -0.342289        -9.3142
 231   2.0000      -0.339731        -9.2446
 232   2.0000      -0.334464        -9.1012
 233   2.0000      -0.332588        -9.0502
 234   2.0000      -0.312390        -8.5006
 235   2.0000      -0.307511        -8.3678
 236   2.0000      -0.292628        -7.9628
 237   2.0000      -0.273843        -7.4517
 238   2.0000      -0.244811        -6.6616
 239   0.0000      -0.106424        -2.8960
 240   0.0000      -0.100057        -2.7227
 241   0.0000      -0.094315        -2.5664
 242   0.0000      -0.068454        -1.8627
 243   0.0000      -0.042327        -1.1518

MULLIKEN ATOMIC CHARGES
-----------------------
   0 C :   -0.158897
   1 C :    0.025115
   2 C :   -0.029406
   3 C :   -0.212446
   4 Si:    0.550742
   5 C :   -0.066756
   6 C :    0.024946
   7 C :    0.056829
   8 N :    0.062647
   9 C :   -0.115720
  10 C :    0.150081
  11 O :   -0.125276
  12 C :   -0.017434
  13 C :   -0.013168
  14 C :    0.144644
  15 O :   -0.109313
  16 C :   -0.116328
  17 N :    0.025879
  18 C :   -0.135283
  19 S :    0.214502
  20 C :   -0.060716
  21 C :   -0.091389
  22 C :    0.084606
  23 C :    0.105176
  24 C :    0.039387
  25 C :   -0.170452
  26 N :   -0.012689
  27 C :   -0.137823
  28 S :    0.129614
  29 S :    0.132162
  30 C :    0.060529
  31 C :    0.216323
  32 F :   -0.169404
  33 F :   -0.150000
  34 C :   -0.212415
  35 C :    0.000879
  36 C :    0.063473
  37 C :   -0.199714
  38 Si:    0.547440
  39 C :    0.073305
  40 C :   -0.120865
  41 C :    0.134914
  42 O :   -0.139922
  43 C :    0.003631
  44 C :    0.013176
  45 C :    0.269880
  46 C :   -0.335650
  47 C :   -0.193975
  48 N :    0.175790
  49 C :   -0.180199
  50 N :    0.159340
  51 C :   -0.009345
  52 C :   -0.025946
  53 C :   -0.019110
  54 C :   -0.024652
  55 Br:    0.011248
  56 Br:    0.017993
  57 H :    0.009608
  58 H :   -0.007384
  59 H :   -0.011353
  60 H :   -0.068574
  61 H :   -0.066282
  62 H :    0.017287
  63 H :    0.021554
  64 H :    0.015062
  65 H :    0.008911
  66 H :    0.018829
  67 H :   -0.069810
  68 H :   -0.043330
  69 H :    0.020905
  70 H :    0.008727
  71 H :    0.005887
Sum of atomic charges:   -0.0000000

LOEWDIN ATOMIC CHARGES
----------------------
   0 C :   -0.168661
   1 C :   -0.032006
   2 C :   -0.001748
   3 C :   -0.194653
   4 Si:    0.546775
   5 C :   -0.164212
   6 C :   -0.049478
   7 C :   -0.042760
   8 N :    0.007089
   9 C :   -0.043688
  10 C :    0.065481
  11 O :   -0.117915
  12 C :   -0.015006
  13 C :   -0.004889
  14 C :    0.056251
  15 O :   -0.104406
  16 C :   -0.046470
  17 N :    0.021582
  18 C :   -0.193379
  19 S :    0.505097
  20 C :   -0.174286
  21 C :   -0.038820
  22 C :   -0.060589
  23 C :    0.005711
  24 C :   -0.086418
  25 C :   -0.130205
  26 N :   -0.098651
  27 C :   -0.128226
  28 S :    0.398452
  29 S :    0.414010
  30 C :   -0.100258
  31 C :   -0.000114
  32 F :   -0.042687
  33 F :   -0.040500
  34 C :   -0.141552
  35 C :    0.003266
  36 C :    0.056640
  37 C :   -0.190578
  38 Si:    0.566154
  39 C :    0.073528
  40 C :   -0.099691
  41 C :    0.083013
  42 O :   -0.139622
  43 C :   -0.043158
  44 C :   -0.008859
  45 C :    0.068339
  46 C :   -0.138081
  47 C :   -0.014606
  48 N :   -0.038629
  49 C :   -0.022421
  50 N :   -0.048126
  51 C :   -0.010151
  52 C :   -0.120388
  53 C :   -0.125410
  54 C :    0.004558
  55 Br:    0.134313
  56 Br:    0.138466
  57 H :    0.020971
  58 H :    0.024360
  59 H :    0.021119
  60 H :   -0.081513
  61 H :   -0.080754
  62 H :    0.045607
  63 H :    0.047542
  64 H :    0.032516
  65 H :    0.033590
  66 H :    0.030706
  67 H :   -0.082864
  68 H :   -0.072688
  69 H :    0.043833
  70 H :    0.044208
  71 H :    0.045940

  Mayer bond orders larger than 0.100000
B(  0-C ,  1-C ) :   1.8062 B(  0-C ,  4-Si) :   0.8896 B(  0-C , 57-H ) :   0.9446
B(  1-C ,  2-C ) :   1.0984 B(  1-C , 58-H ) :   0.9864 B(  2-C ,  3-C ) :   1.6095
B(  2-C , 59-H ) :   1.0001 B(  3-C ,  4-Si) :   0.8707 B(  3-C ,  5-C ) :   1.2523
B(  4-Si, 17-N ) :   0.1113 B(  4-Si, 60-H ) :   0.9623 B(  4-Si, 61-H ) :   0.9629
B(  5-C ,  6-C ) :   1.2963 B(  5-C , 18-C ) :   0.1224 B(  5-C , 19-S ) :   1.1387
B(  6-C ,  7-C ) :   1.1705 B(  6-C , 17-N ) :   1.3985 B(  7-C ,  8-N ) :   1.4285
B(  7-C , 18-C ) :   1.3735 B(  8-N ,  9-C ) :   1.7130 B(  9-C , 10-C ) :   0.9061
B(  9-C , 16-C ) :   1.0838 B( 10-C , 11-O ) :   2.1722 B( 10-C , 12-C ) :   1.0328
B( 12-C , 13-C ) :   1.6791 B( 12-C , 62-H ) :   0.9993 B( 13-C , 14-C ) :   1.0263
B( 13-C , 63-H ) :   0.9988 B( 14-C , 15-O ) :   2.2140 B( 14-C , 16-C ) :   0.9078
B( 16-C , 17-N ) :   1.6914 B( 18-C , 19-S ) :   1.1582 B( 18-C , 20-C ) :   1.1868
B( 20-C , 21-C ) :   1.5461 B( 20-C , 28-S ) :   1.0499 B( 21-C , 22-C ) :   1.1481
B( 21-C , 64-H ) :   0.9817 B( 22-C , 23-C ) :   1.3364 B( 22-C , 27-C ) :   1.1924
B( 23-C , 24-C ) :   1.3702 B( 23-C , 34-C ) :   1.0125 B( 24-C , 25-C ) :   1.1782
B( 24-C , 31-C ) :   1.0750 B( 25-C , 26-N ) :   1.5484 B( 25-C , 29-S ) :   1.0779
B( 26-N , 27-C ) :   1.5461 B( 27-C , 28-S ) :   1.0770 B( 29-S , 30-C ) :   1.0778
B( 30-C , 31-C ) :   1.5167 B( 30-C , 33-F ) :   1.1415 B( 31-C , 32-F ) :   1.1345
B( 34-C , 35-C ) :   1.7248 B( 34-C , 38-Si) :   0.8815 B( 35-C , 36-C ) :   1.1211
B( 35-C , 65-H ) :   0.9995 B( 36-C , 37-C ) :   1.6384 B( 36-C , 66-H ) :   0.9738
B( 37-C , 38-Si) :   0.8970 B( 37-C , 39-C ) :   1.1378 B( 38-Si, 67-H ) :   0.9532
B( 38-Si, 68-H ) :   0.9606 B( 39-C , 40-C ) :   1.6437 B( 39-C , 69-H ) :   0.9353
B( 40-C , 41-C ) :   0.9541 B( 40-C , 45-C ) :   1.0426 B( 41-C , 42-O ) :   2.2655
B( 41-C , 43-C ) :   0.9158 B( 43-C , 44-C ) :   1.3317 B( 43-C , 54-C ) :   1.3729
B( 44-C , 45-C ) :   0.9977 B( 44-C , 51-C ) :   1.3733 B( 45-C , 46-C ) :   1.6589
B( 46-C , 47-C ) :   1.1711 B( 46-C , 49-C ) :   1.1239 B( 47-C , 48-N ) :   2.9866
B( 49-C , 50-N ) :   2.9900 B( 51-C , 52-C ) :   1.3663 B( 51-C , 70-H ) :   0.9827
B( 52-C , 53-C ) :   1.4249 B( 52-C , 56-Br) :   1.0502 B( 53-C , 54-C ) :   1.3548
B( 53-C , 55-Br) :   1.0319 B( 54-C , 71-H ) :   1.0076

-----------------------------------------------------------------------------
         ABSORPTION SPECTRUM VIA TRANSITION ELECTRIC DIPOLE MOMENTS
-----------------------------------------------------------------------------
State   Energy  Wavelength   fosc         T2         TX        TY        TZ
        (cm-1)    (nm)                  (au**2)     (au)      (au)      (au)
-----------------------------------------------------------------------------
   0   12754.6    784.0   0.298597902   7.70718   1.17800  -2.35375   0.88280
   1   15464.1    646.7   0.087614699   1.86522  -0.68411   0.51051   1.06611
   2   18349.7    545.0   0.234129124   4.20050   0.74350  -1.05912  -1.58934
   3   20851.5    479.6   0.067619631   1.06761   0.23848  -0.23617  -0.97722
   4   22634.2    441.8   0.185159760   2.69312   0.05402   0.36707   1.59858
   5   23669.1    422.5   0.028271497   0.39323  -0.13475   0.26398   0.55262
   6   25346.4    394.5   0.016487315   0.21415   0.10208   0.24290  -0.38043
   7   25426.1    393.3   0.063705681   0.82485  -0.68838   0.21898   0.55048
   8   25524.5    391.8   0.106082075   1.36823   0.59826  -1.00510  -0.01019
   9   25829.9    387.1   0.022474686   0.28645  -0.08451   0.52709  -0.03847
  10   26784.1    373.4   0.199911631   2.45718  -0.44969   1.41974  -0.48919
  11   26946.2    371.1   0.060376287   0.73764  -0.23616  -0.04860   0.82432
  12   27016.1    370.2   0.050022113   0.60956   0.19770  -0.58214  -0.48123
  13   27749.7    360.4   0.417894437   4.95774   0.90414  -1.62759   1.22116
  14   28364.8    352.5   0.154266585   1.79047  -0.51358   1.13082  -0.49795
  15   28748.5    347.8   0.013428363   0.15377  -0.27747   0.27577   0.02713
  16   29844.2    335.1   0.175585234   1.93689   0.63306  -0.03786  -1.23883
  17   30570.4    327.1   0.057392410   0.61806   0.39680  -0.61838   0.27967
  18   30827.8    324.4   0.084282246   0.90005  -0.25937  -0.25464   0.87632
  19   30838.7    324.3   0.158957700   1.69692   0.31958   0.37614  -1.20553
  20   31591.6    316.5   0.031111741   0.32421   0.24537  -0.41834   0.29832
  21   31657.1    315.9   0.114230388   1.18792  -0.49857  -0.53792   0.80622
  22   32102.7    311.5   0.012520706   0.12840  -0.16207  -0.14605   0.28425
  23   32897.2    304.0   0.025131368   0.25150  -0.19546   0.00620   0.46179
  24   33369.1    299.7   0.078531039   0.77477   0.10030  -0.55518   0.67564
  25   33464.5    298.8   0.026770136   0.26336   0.18053  -0.07551  -0.47441
  26   34201.6    292.4   0.012837081   0.12356  -0.03326  -0.14017  -0.32064
  27   34357.6    291.1   0.085790399   0.82204   0.13396   0.34653  -0.82705
  28   34543.1    289.5   0.015922358   0.15175  -0.29436   0.24949  -0.05347
  29   34633.9    288.7   0.066202779   0.62929  -0.58877  -0.14772   0.51071
  30   34667.2    288.5   0.028449812   0.27017   0.08621   0.41202  -0.30493
  31   34809.7    287.3   0.140889933   1.33246  -0.29705  -0.66611   0.89472
  32   35194.7    284.1   0.716809820   6.70506  -1.20493  -0.45329   2.24672
  33   35512.0    281.6   0.077559499   0.71901  -0.16354  -0.49543  -0.66844
  34   35827.1    279.1   0.029937413   0.27509  -0.23477  -0.21066  -0.41904
  35   35996.1    277.8   0.005527757   0.05056   0.03387  -0.05177   0.21617
  36   36387.9    274.8   0.007694693   0.06962   0.23813   0.10648  -0.03963
  37   36578.0    273.4   0.006611134   0.05950   0.15297  -0.06364  -0.17903
  38   36923.1    270.8   0.012658006   0.11286  -0.10756  -0.21943   0.23052
  39   36999.6    270.3   0.013332635   0.11863   0.05246   0.18286  -0.28713
  40   37123.8    269.4   0.003907062   0.03465   0.10371   0.10940  -0.10920
  41   37364.4    267.6   0.088602868   0.78067  -0.40746  -0.25928   0.73988
  42   37784.7    264.7   0.001047777   0.00913   0.03872  -0.08670  -0.01063
  43   38004.8    263.1   0.003375446   0.02924   0.11289   0.00263   0.12841
  44   38206.7    261.7   0.058405735   0.50326  -0.13934  -0.09912  -0.68849
  45   38400.1    260.4   0.009386083   0.08047   0.26056   0.01224  -0.11147
  46   38452.0    260.1   0.089478478   0.76608  -0.25680  -0.22336   0.80638
  47   38692.7    258.4   0.060108239   0.51142  -0.11549   0.00358   0.70574
  48   38893.5    257.1   0.025688516   0.21744   0.01947  -0.31142   0.34652
  49   39081.0    255.9   0.038404066   0.32351   0.07264  -0.30655   0.47356
  50   39337.6    254.2   0.002788303   0.02333   0.00698  -0.10143   0.11401
  51   39680.9    252.0   0.077841947   0.64581   0.55906   0.41816   0.39801
  52   40121.2    249.2   0.052982676   0.43475   0.45982   0.37790   0.28373
  53   40318.6    248.0   0.026803404   0.21886   0.20887   0.14862   0.39133

FINAL SINGLE POINT ENERGY     -9150.462285249632

DIPOLE MOMENT
-------------
                                X             Y             Z
Electronic contribution:     47.05532     -82.95361    -122.75982
Nuclear contribution   :    -47.43433      85.47859     122.67596
                        -----------------------------------------
Total Dipole Moment    :     -0.37900       2.52498      -0.08386
                        -----------------------------------------
Magnitude (a.u.)       :      2.55464
Magnitude (Debye)      :      6.49338

Rotational constants in cm-1:     0.001141     0.000653     0.000444
Rotational constants in MHz :    34.203340    19.583879    13.313859

                             ****ORCA TERMINATED NORMALLY****
TOTAL RUN TIME: 0 days 0 hours 6 minutes 54 seconds 883 msec
