                         Program Version 4.2.0 -  RELEASE  -
|  1> # ORCA input file
|  2> # SCF done       -146.971095773306          0.000418782001
|  3> ! CAM-B3LYP def2-SVP def2/J RIJCOSX Grid4 TightSCF
|  4> %maxcore 5000
|  5> %tddft
|  6>     Mode sTDDFT
|  7>     Ethresh 5.0
|  8>     maxcore 5000
|  9> end
| 10>
| 11> %pal
| 12>   nprocs 6
| 13>   end
| 14> * xyz 0 1
| 15>    C       -4.04656        -2.47737         1.29743
| 16>    C       -3.20571        -2.17659         0.26256
| 17>    C       -2.72130        -0.87276         0.02677
| 18>    C       -3.06423         0.19857         0.82690
| 19>    C       -3.93764        -0.07553         1.91461
| 20>    C       -4.42342        -1.41658         2.14290
| 21>    N       -5.20227        -1.37042         3.20821
| 22>    O       -5.20288        -0.10299         3.61261
| 23>    N       -4.45133         0.69356         2.85270
| 24>    C       -2.57863         1.52599         0.59307
| 25>    O       -2.97283         2.52927         1.41140
| 26>    C       -1.72902         2.04583        -0.36165
| 27>    C       -0.90397         1.72259        -1.53132
| 28>    O       -0.71424         0.67424        -2.09656
| 29>    N       -0.34558         2.94068        -1.88620
| 30>    C       -0.71272         4.02713        -1.08086
| 31>    O       -0.32608         5.15561        -1.23659
| 32>    C       -1.61235         3.43326        -0.09571
| 33>    C       -2.40089         3.69989         1.01493
| 34>    C       -2.66959         4.89211         1.71878
| 35>    C       -3.48463         4.91648         2.81667
| 36>    C       -3.77583         6.08219         3.53643
| 37>    C       -4.57813         6.12926         4.65408
| 38>    C       -5.26159         5.07967         5.32173
| 39>    C       -5.96473         5.48371         6.41516
| 40>    C       -5.87672         6.87272         6.67010
| 41>    S       -4.87196         7.64906         5.47274
| 42>    C       -6.46022         7.59934         7.69203
| 43>    C       -7.28609         7.14442         8.74433
| 44>    C       -7.68759         8.13260         9.59212
| 45>    C       -7.20120         9.42033         9.25218
| 46>    S       -6.21406         9.32633         7.81144
| 47>    C       -7.43319        10.60240         9.91455
| 48>    C       -6.90402        11.82805         9.48498
| 49>    O       -6.12949        11.86862         8.36372
| 50>    C       -7.00149        13.12210         9.98325
| 51>    C       -7.57586        13.94286        11.04392
| 52>    O       -8.27276        13.66128        11.98530
| 53>    N       -7.12753        15.23274        10.73912
| 54>    C       -6.33168        15.33425         9.60354
| 55>    O       -5.85101        16.35276         9.17714
| 56>    C       -6.25324        13.95286         9.11521
| 57>    C       -5.72736        13.14743         8.12323
| 58>    C       -4.91420        13.44332         6.99783
| 59>    C       -4.50653        12.48758         6.13185
| 60>    C       -3.69696        12.68290         4.96361
| 61>    C       -3.19577        13.88637         4.50707
| 62>    C       -2.40969        13.99880         3.34073
| 63>    C       -2.07664        12.92569         2.56237
| 64>    C       -2.55721        11.66983         2.97813
| 65>    C       -3.36216        11.54794         4.17091
| 66>    N       -3.66332        10.27426         4.31122
| 67>    O       -3.09265         9.64158         3.28663
| 68>    N       -2.42313        10.45797         2.47234
| 69>    H       -4.41763        -3.47177         1.47970
| 70>    H       -2.89050        -2.95921        -0.41060
| 71>    H       -2.05866        -0.70763        -0.80945
| 72>    H        0.28413         3.04068        -2.66952
| 73>    H       -2.19600         5.78787         1.34651
| 74>    H       -3.92039         3.98037         3.13713
| 75>    H       -3.34118         7.01174         3.19349
| 76>    H       -5.21538         4.06111         4.98102
| 77>    H       -6.54025         4.82587         7.04153
| 78>    H       -7.55936         6.10978         8.84931
| 79>    H       -8.31704         7.98387        10.45130
| 80>    H       -8.04474        10.61480        10.80259
| 81>    H       -7.36669        16.03364        11.30589
| 82>    H       -4.65149        14.48450         6.88758
| 83>    H       -4.80636        11.46315         6.30909
| 84>    H       -3.40941        14.78887         5.05799
| 85>    H       -2.06254        14.98228         3.06050
| 86>    H       -1.47812        13.01169         1.67148
| 87> *
| 88>
| 89>                          ****END OF INPUT****

CARTESIAN COORDINATES (ANGSTROEM)
---------------------------------
  C     -4.046560   -2.477370    1.297430
  C     -3.205710   -2.176590    0.262560
  C     -2.721300   -0.872760    0.026770
  C     -3.064230    0.198570    0.826900
  C     -3.937640   -0.075530    1.914610
  C     -4.423420   -1.416580    2.142900
  N     -5.202270   -1.370420    3.208210
  O     -5.202880   -0.102990    3.612610
  N     -4.451330    0.693560    2.852700
  C     -2.578630    1.525990    0.593070
  O     -2.972830    2.529270    1.411400
  C     -1.729020    2.045830   -0.361650
  C     -0.903970    1.722590   -1.531320
  O     -0.714240    0.674240   -2.096560
  N     -0.345580    2.940680   -1.886200
  C     -0.712720    4.027130   -1.080860
  O     -0.326080    5.155610   -1.236590
  C     -1.612350    3.433260   -0.095710
  C     -2.400890    3.699890    1.014930
  C     -2.669590    4.892110    1.718780
  C     -3.484630    4.916480    2.816670
  C     -3.775830    6.082190    3.536430
  C     -4.578130    6.129260    4.654080
  C     -5.261590    5.079670    5.321730
  C     -5.964730    5.483710    6.415160
  C     -5.876720    6.872720    6.670100
  S     -4.871960    7.649060    5.472740
  C     -6.460220    7.599340    7.692030
  C     -7.286090    7.144420    8.744330
  C     -7.687590    8.132600    9.592120
  C     -7.201200    9.420330    9.252180
  S     -6.214060    9.326330    7.811440
  C     -7.433190   10.602400    9.914550
  C     -6.904020   11.828050    9.484980
  O     -6.129490   11.868620    8.363720
  C     -7.001490   13.122100    9.983250
  C     -7.575860   13.942860   11.043920
  O     -8.272760   13.661280   11.985300
  N     -7.127530   15.232740   10.739120
  C     -6.331680   15.334250    9.603540
  O     -5.851010   16.352760    9.177140
  C     -6.253240   13.952860    9.115210
  C     -5.727360   13.147430    8.123230
  C     -4.914200   13.443320    6.997830
  C     -4.506530   12.487580    6.131850
  C     -3.696960   12.682900    4.963610
  C     -3.195770   13.886370    4.507070
  C     -2.409690   13.998800    3.340730
  C     -2.076640   12.925690    2.562370
  C     -2.557210   11.669830    2.978130
  C     -3.362160   11.547940    4.170910
  N     -3.663320   10.274260    4.311220
  O     -3.092650    9.641580    3.286630
  N     -2.423130   10.457970    2.472340
  H     -4.417630   -3.471770    1.479700
  H     -2.890500   -2.959210   -0.410600
  H     -2.058660   -0.707630   -0.809450
  H      0.284130    3.040680   -2.669520
  H     -2.196000    5.787870    1.346510
  H     -3.920390    3.980370    3.137130
  H     -3.341180    7.011740    3.193490
  H     -5.215380    4.061110    4.981020
  H     -6.540250    4.825870    7.041530
  H     -7.559360    6.109780    8.849310
  H     -8.317040    7.983870   10.451300
  H     -8.044740   10.614800   10.802590
  H     -7.366690   16.033640   11.305890
  H     -4.651490   14.484500    6.887580
  H     -4.806360   11.463150    6.309090
  H     -3.409410   14.788870    5.057990
  H     -2.062540   14.982280    3.060500
  H     -1.478120   13.011690    1.671480

 Total Charge           Charge          ....    0
 Multiplicity           Mult            ....    1
 Number of Electrons    NEL             ....  384
 Basis Dimension        Dim             ....  854

ORBITAL ENERGIES
----------------

  NO   OCC          E(Eh)            E(eV)
   0   2.0000     -88.951091     -2420.4822
   1   2.0000     -88.946880     -2420.3677
   2   2.0000     -19.357647      -526.7484
   3   2.0000     -19.355497      -526.6899
   4   2.0000     -19.308143      -525.4013
   5   2.0000     -19.305498      -525.3293
   6   2.0000     -19.213334      -522.8214
   7   2.0000     -19.206538      -522.6365
   8   2.0000     -19.204200      -522.5728
   9   2.0000     -19.200983      -522.4853
  10   2.0000     -14.480485      -394.0340
  11   2.0000     -14.479710      -394.0129
  12   2.0000     -14.479178      -393.9985
  13   2.0000     -14.478245      -393.9731
  14   2.0000     -14.453003      -393.2862
  15   2.0000     -14.446327      -393.1045
  16   2.0000     -10.401336      -283.0348
  17   2.0000     -10.396079      -282.8917
  18   2.0000     -10.393486      -282.8211
  19   2.0000     -10.390713      -282.7457
  20   2.0000     -10.363864      -282.0151
  21   2.0000     -10.358796      -281.8772
  22   2.0000     -10.357988      -281.8552
  23   2.0000     -10.354925      -281.7718
  24   2.0000     -10.328379      -281.0495
  25   2.0000     -10.325159      -280.9619
  26   2.0000     -10.323940      -280.9287
  27   2.0000     -10.323425      -280.9147
  28   2.0000     -10.320678      -280.8399
  29   2.0000     -10.319222      -280.8003
  30   2.0000     -10.317267      -280.7471
  31   2.0000     -10.314833      -280.6809
  32   2.0000     -10.311861      -280.6000
  33   2.0000     -10.308069      -280.4968
  34   2.0000     -10.301659      -280.3224
  35   2.0000     -10.299499      -280.2636
  36   2.0000     -10.299058      -280.2516
  37   2.0000     -10.298850      -280.2460
  38   2.0000     -10.297562      -280.2109
  39   2.0000     -10.296801      -280.1902
  40   2.0000     -10.296057      -280.1699
  41   2.0000     -10.295844      -280.1642
  42   2.0000     -10.295795      -280.1628
  43   2.0000     -10.292191      -280.0648
  44   2.0000     -10.291291      -280.0403
  45   2.0000     -10.289868      -280.0015
  46   2.0000     -10.289445      -279.9900
  47   2.0000     -10.289002      -279.9780
  48   2.0000     -10.287317      -279.9321
  49   2.0000     -10.286726      -279.9161
  50   2.0000     -10.286314      -279.9048
  51   2.0000     -10.285813      -279.8912
  52   2.0000     -10.284775      -279.8630
  53   2.0000     -10.281150      -279.7643
  54   2.0000      -8.046411      -218.9540
  55   2.0000      -8.043215      -218.8670
  56   2.0000      -6.016282      -163.7114
  57   2.0000      -6.012894      -163.6192
  58   2.0000      -6.011892      -163.5919
  59   2.0000      -6.008758      -163.5066
  60   2.0000      -6.007405      -163.4698
  61   2.0000      -6.004136      -163.3809
  62   2.0000      -1.307900       -35.5898
  63   2.0000      -1.307887       -35.5894
  64   2.0000      -1.227394       -33.3991
  65   2.0000      -1.222730       -33.2722
  66   2.0000      -1.154422       -31.4134
  67   2.0000      -1.147008       -31.2117
  68   2.0000      -1.133236       -30.8369
  69   2.0000      -1.126115       -30.6431
  70   2.0000      -1.041095       -28.3296
  71   2.0000      -1.034417       -28.1479
  72   2.0000      -1.011693       -27.5296
  73   2.0000      -1.011067       -27.5125
  74   2.0000      -1.001903       -27.2632
  75   2.0000      -1.000149       -27.2154
  76   2.0000      -0.997884       -27.1538
  77   2.0000      -0.980462       -26.6797
  78   2.0000      -0.932761       -25.3817
  79   2.0000      -0.931024       -25.3344
  80   2.0000      -0.924102       -25.1461
  81   2.0000      -0.916752       -24.9461
  82   2.0000      -0.916169       -24.9302
  83   2.0000      -0.913775       -24.8651
  84   2.0000      -0.900947       -24.5160
  85   2.0000      -0.892983       -24.2993
  86   2.0000      -0.873556       -23.7707
  87   2.0000      -0.859207       -23.3802
  88   2.0000      -0.852907       -23.2088
  89   2.0000      -0.833458       -22.6796
  90   2.0000      -0.828512       -22.5449
  91   2.0000      -0.810346       -22.0506
  92   2.0000      -0.790039       -21.4980
  93   2.0000      -0.776688       -21.1347
  94   2.0000      -0.773732       -21.0543
  95   2.0000      -0.768033       -20.8992
  96   2.0000      -0.762414       -20.7463
  97   2.0000      -0.758920       -20.6513
  98   2.0000      -0.755002       -20.5447
  99   2.0000      -0.745610       -20.2891
 100   2.0000      -0.745028       -20.2732
 101   2.0000      -0.739078       -20.1113
 102   2.0000      -0.718952       -19.5637
 103   2.0000      -0.706889       -19.2354
 104   2.0000      -0.694911       -18.9095
 105   2.0000      -0.694772       -18.9057
 106   2.0000      -0.687825       -18.7167
 107   2.0000      -0.677837       -18.4449
 108   2.0000      -0.659830       -17.9549
 109   2.0000      -0.649035       -17.6612
 110   2.0000      -0.636873       -17.3302
 111   2.0000      -0.634122       -17.2553
 112   2.0000      -0.629640       -17.1334
 113   2.0000      -0.623145       -16.9566
 114   2.0000      -0.620487       -16.8843
 115   2.0000      -0.613536       -16.6952
 116   2.0000      -0.609844       -16.5947
 117   2.0000      -0.606831       -16.5127
 118   2.0000      -0.606379       -16.5004
 119   2.0000      -0.599110       -16.3026
 120   2.0000      -0.591993       -16.1090
 121   2.0000      -0.589651       -16.0452
 122   2.0000      -0.583692       -15.8831
 123   2.0000      -0.583485       -15.8774
 124   2.0000      -0.582861       -15.8605
 125   2.0000      -0.580392       -15.7933
 126   2.0000      -0.579653       -15.7732
 127   2.0000      -0.573584       -15.6080
 128   2.0000      -0.571069       -15.5396
 129   2.0000      -0.560483       -15.2515
 130   2.0000      -0.555060       -15.1039
 131   2.0000      -0.553349       -15.0574
 132   2.0000      -0.544357       -14.8127
 133   2.0000      -0.542666       -14.7667
 134   2.0000      -0.540234       -14.7005
 135   2.0000      -0.537435       -14.6244
 136   2.0000      -0.535381       -14.5685
 137   2.0000      -0.523360       -14.2414
 138   2.0000      -0.519846       -14.1457
 139   2.0000      -0.517304       -14.0766
 140   2.0000      -0.515423       -14.0254
 141   2.0000      -0.509760       -13.8713
 142   2.0000      -0.507294       -13.8042
 143   2.0000      -0.502345       -13.6695
 144   2.0000      -0.501584       -13.6488
 145   2.0000      -0.500199       -13.6111
 146   2.0000      -0.495587       -13.4856
 147   2.0000      -0.488480       -13.2922
 148   2.0000      -0.485260       -13.2046
 149   2.0000      -0.484555       -13.1854
 150   2.0000      -0.481222       -13.0947
 151   2.0000      -0.480060       -13.0631
 152   2.0000      -0.475443       -12.9375
 153   2.0000      -0.474933       -12.9236
 154   2.0000      -0.471550       -12.8315
 155   2.0000      -0.470604       -12.8058
 156   2.0000      -0.470525       -12.8036
 157   2.0000      -0.468790       -12.7564
 158   2.0000      -0.465192       -12.6585
 159   2.0000      -0.460241       -12.5238
 160   2.0000      -0.451773       -12.2934
 161   2.0000      -0.448185       -12.1957
 162   2.0000      -0.436377       -11.8744
 163   2.0000      -0.431848       -11.7512
 164   2.0000      -0.428186       -11.6515
 165   2.0000      -0.427489       -11.6326
 166   2.0000      -0.418411       -11.3855
 167   2.0000      -0.407168       -11.0796
 168   2.0000      -0.404538       -11.0080
 169   2.0000      -0.403271       -10.9736
 170   2.0000      -0.398557       -10.8453
 171   2.0000      -0.392655       -10.6847
 172   2.0000      -0.385830       -10.4990
 173   2.0000      -0.382471       -10.4076
 174   2.0000      -0.378185       -10.2909
 175   2.0000      -0.372466       -10.1353
 176   2.0000      -0.368387       -10.0243
 177   2.0000      -0.366101        -9.9621
 178   2.0000      -0.363908        -9.9024
 179   2.0000      -0.361888        -9.8475
 180   2.0000      -0.359743        -9.7891
 181   2.0000      -0.356008        -9.6875
 182   2.0000      -0.352214        -9.5842
 183   2.0000      -0.344564        -9.3761
 184   2.0000      -0.342465        -9.3189
 185   2.0000      -0.337730        -9.1901
 186   2.0000      -0.332755        -9.0547
 187   2.0000      -0.327923        -8.9232
 188   2.0000      -0.309504        -8.4220
 189   2.0000      -0.284433        -7.7398
 190   2.0000      -0.260508        -7.0888
 191   2.0000      -0.214874        -5.8470
 192   0.0000      -0.099215        -2.6998
 193   0.0000      -0.074779        -2.0348
 194   0.0000      -0.070275        -1.9123
 195   0.0000      -0.038680        -1.0525
 196   0.0000      -0.024940        -0.6786

MULLIKEN ATOMIC CHARGES
-----------------------
   0 C :   -0.016510
   1 C :    0.042659
   2 C :   -0.038677
   3 C :    0.059843
   4 C :   -0.050913
   5 C :    0.002787
   6 N :    0.056752
   7 O :   -0.105140
   8 N :    0.053799
   9 C :    0.092927
  10 O :   -0.200583
  11 C :   -0.080021
  12 C :    0.184049
  13 O :   -0.159591
  14 N :   -0.162793
  15 C :    0.157182
  16 O :   -0.138194
  17 C :   -0.024670
  18 C :    0.099168
  19 C :   -0.049316
  20 C :    0.026088
  21 C :    0.031155
  22 C :   -0.044565
  23 C :    0.029613
  24 C :    0.022583
  25 C :   -0.041561
  26 S :    0.129608
  27 C :   -0.039149
  28 C :    0.037298
  29 C :    0.023915
  30 C :    0.004114
  31 S :    0.095902
  32 C :   -0.051011
  33 C :    0.103717
  34 O :   -0.243943
  35 C :   -0.035901
  36 C :    0.155228
  37 O :   -0.148252
  38 N :   -0.167350
  39 C :    0.158655
  40 O :   -0.146902
  41 C :   -0.028213
  42 C :    0.079153
  43 C :    0.004489
  44 C :   -0.018311
  45 C :    0.109599
  46 C :   -0.049518
  47 C :    0.053545
  48 C :   -0.028716
  49 C :    0.012770
  50 C :   -0.067495
  51 N :    0.057245
  52 O :   -0.118314
  53 N :    0.061080
  54 H :   -0.005880
  55 H :    0.007953
  56 H :    0.000381
  57 H :    0.137458
  58 H :    0.014280
  59 H :    0.020722
  60 H :   -0.002493
  61 H :    0.006808
  62 H :   -0.007821
  63 H :   -0.009416
  64 H :   -0.005987
  65 H :    0.006088
  66 H :    0.135688
  67 H :    0.010146
  68 H :    0.013136
  69 H :   -0.006752
  70 H :    0.003124
  71 H :   -0.006749
Sum of atomic charges:   -0.0000000

LOEWDIN ATOMIC CHARGES
----------------------
   0 C :   -0.010442
   1 C :   -0.004781
   2 C :    0.013902
   3 C :   -0.043370
   4 C :   -0.051898
   5 C :   -0.058954
   6 N :   -0.023627
   7 O :    0.071811
   8 N :   -0.030484
   9 C :    0.067606
  10 O :    0.029146
  11 C :   -0.094597
  12 C :    0.087080
  13 O :   -0.166652
  14 N :   -0.004575
  15 C :    0.085461
  16 O :   -0.157410
  17 C :   -0.104735
  18 C :    0.076588
  19 C :   -0.047124
  20 C :    0.008084
  21 C :   -0.044363
  22 C :   -0.137676
  23 C :   -0.025456
  24 C :   -0.024093
  25 C :   -0.166287
  26 S :    0.419815
  27 C :   -0.189435
  28 C :   -0.019426
  29 C :   -0.039545
  30 C :   -0.122978
  31 S :    0.408009
  32 C :   -0.088871
  33 C :    0.073868
  34 O :    0.000644
  35 C :   -0.110115
  36 C :    0.083175
  37 O :   -0.166418
  38 N :   -0.008891
  39 C :    0.082563
  40 O :   -0.165794
  41 C :   -0.089097
  42 C :    0.060736
  43 C :   -0.020967
  44 C :   -0.007088
  45 C :   -0.023787
  46 C :   -0.003708
  47 C :   -0.003366
  48 C :   -0.018412
  49 C :   -0.056908
  50 C :   -0.049478
  51 N :   -0.029543
  52 O :    0.066292
  53 N :   -0.025038
  54 H :    0.041313
  55 H :    0.039666
  56 H :    0.038893
  57 H :    0.094496
  58 H :    0.046600
  59 H :    0.034945
  60 H :    0.032404
  61 H :    0.038685
  62 H :    0.034209
  63 H :    0.033447
  64 H :    0.035745
  65 H :    0.049007
  66 H :    0.092986
  67 H :    0.042714
  68 H :    0.032886
  69 H :    0.034433
  70 H :    0.037400
  71 H :    0.040780

  Mayer bond orders larger than 0.100000
B(  0-C ,  1-C ) :   1.5209 B(  0-C ,  3-C ) :   0.1072 B(  0-C ,  5-C ) :   1.1617
B(  0-C , 54-H ) :   1.0239 B(  1-C ,  2-C ) :   1.1865 B(  1-C , 55-H ) :   0.9834
B(  2-C ,  3-C ) :   1.5624 B(  2-C , 56-H ) :   0.9763 B(  3-C ,  4-C ) :   1.1056
B(  3-C ,  9-C ) :   1.0787 B(  4-C ,  5-C ) :   1.1448 B(  4-C ,  8-N ) :   1.6166
B(  5-C ,  6-N ) :   1.5956 B(  6-N ,  7-O ) :   1.0708 B(  6-N ,  8-N ) :   0.1859
B(  7-O ,  8-N ) :   1.0515 B(  9-C , 10-O ) :   1.1902 B(  9-C , 11-C ) :   1.4407
B( 10-O , 18-C ) :   1.1460 B( 11-C , 12-C ) :   0.8717 B( 11-C , 17-C ) :   1.2763
B( 12-C , 13-O ) :   2.1748 B( 12-C , 14-N ) :   1.1164 B( 14-N , 15-C ) :   1.0562
B( 14-N , 57-H ) :   0.9146 B( 15-C , 16-O ) :   2.2751 B( 15-C , 17-C ) :   0.8882
B( 17-C , 18-C ) :   1.3562 B( 18-C , 19-C ) :   1.1862 B( 19-C , 20-C ) :   1.5626
B( 19-C , 58-H ) :   0.9739 B( 20-C , 21-C ) :   1.1930 B( 20-C , 59-H ) :   0.9792
B( 21-C , 22-C ) :   1.5116 B( 21-C , 60-H ) :   0.9693 B( 22-C , 23-C ) :   1.1543
B( 22-C , 26-S ) :   1.0492 B( 23-C , 24-C ) :   1.6033 B( 23-C , 61-H ) :   0.9907
B( 24-C , 25-C ) :   1.1850 B( 24-C , 62-H ) :   0.9944 B( 25-C , 26-S ) :   1.0677
B( 25-C , 27-C ) :   1.4838 B( 27-C , 28-C ) :   1.2019 B( 27-C , 31-S ) :   1.0251
B( 28-C , 29-C ) :   1.5775 B( 28-C , 63-H ) :   0.9946 B( 29-C , 30-C ) :   1.1494
B( 29-C , 64-H ) :   1.0017 B( 30-C , 31-S ) :   1.0721 B( 30-C , 32-C ) :   1.5042
B( 32-C , 33-C ) :   1.2402 B( 32-C , 65-H ) :   0.9668 B( 33-C , 34-O ) :   1.1140
B( 33-C , 35-C ) :   1.3454 B( 34-O , 42-C ) :   1.1278 B( 35-C , 36-C ) :   0.8967
B( 35-C , 41-C ) :   1.2861 B( 36-C , 37-O ) :   2.2657 B( 36-C , 38-N ) :   1.0637
B( 38-N , 39-C ) :   1.0885 B( 38-N , 66-H ) :   0.9143 B( 39-C , 40-O ) :   2.2660
B( 39-C , 41-C ) :   0.8755 B( 41-C , 42-C ) :   1.3909 B( 42-C , 43-C ) :   1.1924
B( 43-C , 44-C ) :   1.6068 B( 43-C , 67-H ) :   0.9545 B( 44-C , 45-C ) :   1.0946
B( 44-C , 68-H ) :   0.9950 B( 45-C , 46-C ) :   1.5100 B( 45-C , 48-C ) :   0.1066
B( 45-C , 50-C ) :   1.1213 B( 46-C , 47-C ) :   1.2061 B( 46-C , 69-H ) :   0.9887
B( 47-C , 48-C ) :   1.5261 B( 47-C , 70-H ) :   0.9817 B( 48-C , 49-C ) :   1.1595
B( 48-C , 71-H ) :   1.0232 B( 49-C , 50-C ) :   1.1438 B( 49-C , 53-N ) :   1.5968
B( 50-C , 51-N ) :   1.6239 B( 51-N , 52-O ) :   1.0497 B( 51-N , 53-N ) :   0.1877
B( 52-O , 53-N ) :   1.0564

-----------------------------------------------------------------------------
         ABSORPTION SPECTRUM VIA TRANSITION ELECTRIC DIPOLE MOMENTS
-----------------------------------------------------------------------------
State   Energy  Wavelength   fosc         T2         TX        TY        TZ
        (cm-1)    (nm)                  (au**2)     (au)      (au)      (au)
-----------------------------------------------------------------------------
   0   11631.1    859.8   0.977516496  27.66802  -1.15547   4.34253   2.73411
   1   16266.5    614.8   0.559452697  11.32259  -1.39227   1.76215   2.50579
   2   19013.9    525.9   0.085962114   1.48837   0.76099   0.31360  -0.90051
   3   21079.3    474.4   0.392546878   6.13070   1.31136  -0.47795  -2.04514
   4   24251.7    412.3   0.500011579   6.78755   1.54149   0.29906  -2.07892
   5   25361.6    394.3   0.112875897   1.46521  -0.57739   0.40154   0.98519
   6   26541.6    376.8   0.162704668   2.01813  -0.83751  -0.34642   1.09394
   7   26756.7    373.7   0.134518835   1.65511  -0.71252   0.03584   1.07058
   8   28521.0    350.6   0.230794623   2.66401   0.69488   1.40099  -0.46731
   9   29728.4    336.4   0.058994289   0.65330  -0.12036   0.68101   0.41838
  10   30128.8    331.9   0.017396815   0.19009   0.02382  -0.42270  -0.10414
  11   31915.5    313.3   0.029777136   0.30715   0.29758   0.23477  -0.40433
  12   32435.3    308.3   0.220538622   2.23842  -0.37174   1.13884   0.89626
  13   33084.1    302.3   0.190578962   1.89640   0.56169   1.18391  -0.42339
  14   33810.9    295.8   0.203629912   1.98272  -0.76426  -0.82199   0.85027
  15   34069.0    293.5   0.124492987   1.20299   0.68049   0.11464  -0.85251
  16   35185.5    284.2   0.087495776   0.81865  -0.46742   0.22104   0.74250
  17   35609.7    280.8   0.033414036   0.30891   0.04814   0.54662   0.08835
  18   35726.2    279.9   0.000041496   0.00038  -0.01559  -0.00237   0.01157
  19   35925.7    278.4   0.000960299   0.00880   0.07757  -0.01720   0.04986
  20   36738.8    272.2   0.003168961   0.02840   0.08606  -0.05444  -0.13426
  21   37513.2    266.6   0.011211676   0.09839   0.19632   0.00539  -0.24458
  22   37616.6    265.8   0.000107291   0.00094  -0.02434   0.00484  -0.01798
  23   38040.0    262.9   0.003938436   0.03408   0.05067   0.16483   0.06594
  24   38564.5    259.3   0.107957345   0.92160  -0.55680  -0.35823   0.69515
  25   39501.9    253.2   0.006049960   0.05042  -0.12428   0.06141   0.17665
  26   39920.0    250.5   0.001432268   0.01181  -0.06307   0.00516   0.08836

FINAL SINGLE POINT ENERGY     -3182.231806280196

DIPOLE MOMENT
-------------
                                X             Y             Z
Electronic contribution:     -0.38083      -0.35243       0.88483
Nuclear contribution   :      0.46824      -0.47277      -1.34169
                        -----------------------------------------
Total Dipole Moment    :      0.08741      -0.82520      -0.45686
                        -----------------------------------------
Magnitude (a.u.)       :      0.94727
Magnitude (Debye)      :      2.40776

Rotational constants in cm-1:     0.002906     0.000563     0.000472
Rotational constants in MHz :    87.109951    16.888532    14.151283

                             ****ORCA TERMINATED NORMALLY****
TOTAL RUN TIME: 0 days 0 hours 5 minutes 38 seconds 176 msec
