                         Program Version 4.2.0 -  RELEASE  -
|  1> # ORCA input file
|  2> # SCF done       -162.940602096488          0.000841103194
|  3> ! CAM-B3LYP def2-SVP def2/J RIJCOSX Grid4 TightSCF
|  4> %maxcore 5000
|  5> %tddft
|  6>     Mode sTDDFT
|  7>     Ethresh 5.0
|  8>     maxcore 5000
|  9> end
| 10>
| 11> %pal
| 12>   nprocs 6
| 13>   end
| 14> * xyz 0 1
| 15>    C       -0.07433         1.03154        -5.09951
| 16>    C       -1.34438         0.70007        -4.72063
| 17>    C       -2.01463         1.32262        -3.64646
| 18>    C       -1.43951         2.31276        -2.87337
| 19>    C       -0.12892         2.70172        -3.27096
| 20>    C        0.55034         2.05910        -4.36935
| 21>    N        1.73421         2.63348        -4.48022
| 22>    O        1.79091         3.55955        -3.52698
| 23>    N        0.68392         3.61826        -2.78765
| 24>    C       -2.06816         2.97421        -1.76687
| 25>    S       -1.56192         4.57477        -1.35697
| 26>    C       -2.73116         4.72848        -0.09380
| 27>    C       -3.47607         3.54614         0.03166
| 28>    C       -3.08886         2.54023        -0.91241
| 29>    C       -3.68777         1.26425        -0.84199
| 30>    C       -4.66703         1.03870         0.07986
| 31>    F       -5.24054        -0.17301         0.15809
| 32>    C       -5.08877         2.05272         0.97024
| 33>    F       -6.06765         1.78262         1.84898
| 34>    C       -4.49919         3.28207         0.96288
| 35>    C       -2.85494         5.90749         0.68322
| 36>    C       -2.08319         7.01052         0.54841
| 37>    C       -2.24139         8.16221         1.37816
| 38>    C       -1.51317         9.29103         1.31765
| 39>    C       -0.41657         9.53942         0.32939
| 40>    C       -1.76580        10.40388         2.29609
| 41>    N       -2.23012        11.59213         1.60753
| 42>    C       -2.32046        12.79198         2.20930
| 43>    C       -2.98021        13.87118         1.70235
| 44>    C       -3.05731        15.08737         2.40045
| 45>    C       -3.75458        16.20291         2.00652
| 46>    C       -4.48484        16.45141         0.82093
| 47>    C       -5.09449        17.67009         0.78665
| 48>    C       -4.89227        18.44694         1.94907
| 49>    S       -3.86895        17.60080         3.07362
| 50>    C       -5.43142        19.69125         2.24335
| 51>    C       -6.26414        20.49055         1.43950
| 52>    C       -6.67067        21.64530         2.04924
| 53>    C       -6.18288        21.80664         3.36189
| 54>    S       -5.16256        20.45656         3.79533
| 55>    C       -6.47116        22.84839         4.23035
| 56>    C       -5.97912        22.91004         5.52387
| 57>    C       -6.28829        23.89428         6.44978
| 58>    C       -5.80611        23.98006         7.79958
| 59>    C       -4.91419        23.13722         8.42820
| 60>    C       -4.48986        23.28807         9.76137
| 61>    N       -4.10464        23.35318        10.84274
| 62>    C       -4.29495        22.01250         7.85103
| 63>    N       -3.74325        21.07985         7.46536
| 64>    C       -6.43404        25.14533         8.42430
| 65>    C       -7.27807        25.76605         7.47303
| 66>    C       -7.21005        25.01207         6.20018
| 67>    O       -7.80945        25.28735         5.17632
| 68>    C       -8.01940        26.88499         7.75715
| 69>    C       -7.92271        27.42224         9.04632
| 70>    C       -7.07407        26.79891         9.98778
| 71>    C       -6.32405        25.66388         9.69944
| 72>    S       -7.09983        27.62585        11.51774
| 73>    C       -8.23796        28.78071        10.87662
| 74>    C       -8.58170        28.56166         9.58633
| 75>   Br       -8.86528        30.16894        11.97339
| 76>    H        0.43707         0.55412        -5.91749
| 77>    H       -1.87534        -0.06837        -5.26251
| 78>    H       -3.03336         1.02761        -3.45502
| 79>    H       -3.36643         0.45396        -1.47373
| 80>    H       -4.81806         4.02764         1.67218
| 81>    H       -3.62715         5.89802         1.44080
| 82>    H       -1.30596         7.01789        -0.20209
| 83>    H       -3.01697         8.08923         2.13124
| 84>    H       -0.66839         9.15000        -0.65391
| 85>    H        0.50126         9.04933         0.65664
| 86>    H       -0.21722        10.60522         0.24467
| 87>    H       -0.83525        10.65758         2.81711
| 88>    H       -2.50066        10.08430         3.04812
| 89>    H       -2.79323        11.43777         0.78309
| 90>    H       -1.80177        12.87254         3.15537
| 91>    H       -3.48899        13.77743         0.75376
| 92>    H       -2.55405        15.13670         3.35701
| 93>    H       -4.54068        15.73168         0.02395
| 94>    H       -5.69220        18.02355        -0.03420
| 95>    H       -6.54558        20.20341         0.44206
| 96>    H       -7.31333        22.37956         1.59703
| 97>    H       -7.12673        23.63122         3.87785
| 98>    H       -5.31322        22.11290         5.83148
| 99>    H       -8.65649        27.33270         7.01045
|100>    H       -5.69339        25.22644        10.45496
|101>    H       -9.27073        29.17559         9.03536
|102> *
|103>
|104>                          ****END OF INPUT****

CARTESIAN COORDINATES (ANGSTROEM)
---------------------------------
  C     -0.074330    1.031540   -5.099510
  C     -1.344380    0.700070   -4.720630
  C     -2.014630    1.322620   -3.646460
  C     -1.439510    2.312760   -2.873370
  C     -0.128920    2.701720   -3.270960
  C      0.550340    2.059100   -4.369350
  N      1.734210    2.633480   -4.480220
  O      1.790910    3.559550   -3.526980
  N      0.683920    3.618260   -2.787650
  C     -2.068160    2.974210   -1.766870
  S     -1.561920    4.574770   -1.356970
  C     -2.731160    4.728480   -0.093800
  C     -3.476070    3.546140    0.031660
  C     -3.088860    2.540230   -0.912410
  C     -3.687770    1.264250   -0.841990
  C     -4.667030    1.038700    0.079860
  F     -5.240540   -0.173010    0.158090
  C     -5.088770    2.052720    0.970240
  F     -6.067650    1.782620    1.848980
  C     -4.499190    3.282070    0.962880
  C     -2.854940    5.907490    0.683220
  C     -2.083190    7.010520    0.548410
  C     -2.241390    8.162210    1.378160
  C     -1.513170    9.291030    1.317650
  C     -0.416570    9.539420    0.329390
  C     -1.765800   10.403880    2.296090
  N     -2.230120   11.592130    1.607530
  C     -2.320460   12.791980    2.209300
  C     -2.980210   13.871180    1.702350
  C     -3.057310   15.087370    2.400450
  C     -3.754580   16.202910    2.006520
  C     -4.484840   16.451410    0.820930
  C     -5.094490   17.670090    0.786650
  C     -4.892270   18.446940    1.949070
  S     -3.868950   17.600800    3.073620
  C     -5.431420   19.691250    2.243350
  C     -6.264140   20.490550    1.439500
  C     -6.670670   21.645300    2.049240
  C     -6.182880   21.806640    3.361890
  S     -5.162560   20.456560    3.795330
  C     -6.471160   22.848390    4.230350
  C     -5.979120   22.910040    5.523870
  C     -6.288290   23.894280    6.449780
  C     -5.806110   23.980060    7.799580
  C     -4.914190   23.137220    8.428200
  C     -4.489860   23.288070    9.761370
  N     -4.104640   23.353180   10.842740
  C     -4.294950   22.012500    7.851030
  N     -3.743250   21.079850    7.465360
  C     -6.434040   25.145330    8.424300
  C     -7.278070   25.766050    7.473030
  C     -7.210050   25.012070    6.200180
  O     -7.809450   25.287350    5.176320
  C     -8.019400   26.884990    7.757150
  C     -7.922710   27.422240    9.046320
  C     -7.074070   26.798910    9.987780
  C     -6.324050   25.663880    9.699440
  S     -7.099830   27.625850   11.517740
  C     -8.237960   28.780710   10.876620
  C     -8.581700   28.561660    9.586330
  Br    -8.865280   30.168940   11.973390
  H      0.437070    0.554120   -5.917490
  H     -1.875340   -0.068370   -5.262510
  H     -3.033360    1.027610   -3.455020
  H     -3.366430    0.453960   -1.473730
  H     -4.818060    4.027640    1.672180
  H     -3.627150    5.898020    1.440800
  H     -1.305960    7.017890   -0.202090
  H     -3.016970    8.089230    2.131240
  H     -0.668390    9.150000   -0.653910
  H      0.501260    9.049330    0.656640
  H     -0.217220   10.605220    0.244670
  H     -0.835250   10.657580    2.817110
  H     -2.500660   10.084300    3.048120
  H     -2.793230   11.437770    0.783090
  H     -1.801770   12.872540    3.155370
  H     -3.488990   13.777430    0.753760
  H     -2.554050   15.136700    3.357010
  H     -4.540680   15.731680    0.023950
  H     -5.692200   18.023550   -0.034200
  H     -6.545580   20.203410    0.442060
  H     -7.313330   22.379560    1.597030
  H     -7.126730   23.631220    3.877850
  H     -5.313220   22.112900    5.831480
  H     -8.656490   27.332700    7.010450
  H     -5.693390   25.226440   10.454960
  H     -9.270730   29.175590    9.035360

 Total Charge           Charge          ....    0
 Multiplicity           Mult            ....    1
 Number of Electrons    NEL             ....  476
 Basis Dimension        Dim             .... 1018

ORBITAL ENERGIES
----------------

  NO   OCC          E(Eh)            E(eV)
   0   2.0000    -482.867530    -13139.4935
   1   2.0000     -88.981736     -2421.3161
   2   2.0000     -88.954541     -2420.5761
   3   2.0000     -88.952979     -2420.5336
   4   2.0000     -88.944566     -2420.3047
   5   2.0000     -62.545254     -1701.9429
   6   2.0000     -56.379180     -1534.1555
   7   2.0000     -56.376511     -1534.0829
   8   2.0000     -56.376466     -1534.0816
   9   2.0000     -24.797077      -674.7628
  10   2.0000     -24.796600      -674.7498
  11   2.0000     -19.362523      -526.8810
  12   2.0000     -19.182257      -521.9757
  13   2.0000     -14.488220      -394.2445
  14   2.0000     -14.485568      -394.1724
  15   2.0000     -14.466088      -393.6423
  16   2.0000     -14.384397      -391.4193
  17   2.0000     -14.382330      -391.3631
  18   2.0000     -10.379537      -282.4416
  19   2.0000     -10.378738      -282.4198
  20   2.0000     -10.347887      -281.5803
  21   2.0000     -10.336913      -281.2817
  22   2.0000     -10.334755      -281.2230
  23   2.0000     -10.333879      -281.1991
  24   2.0000     -10.332540      -281.1627
  25   2.0000     -10.331564      -281.1361
  26   2.0000     -10.327825      -281.0344
  27   2.0000     -10.325875      -280.9813
  28   2.0000     -10.324347      -280.9398
  29   2.0000     -10.320572      -280.8370
  30   2.0000     -10.310621      -280.5663
  31   2.0000     -10.309873      -280.5459
  32   2.0000     -10.308741      -280.5151
  33   2.0000     -10.308432      -280.5067
  34   2.0000     -10.306687      -280.4592
  35   2.0000     -10.306634      -280.4578
  36   2.0000     -10.306100      -280.4432
  37   2.0000     -10.305729      -280.4331
  38   2.0000     -10.304494      -280.3995
  39   2.0000     -10.303249      -280.3657
  40   2.0000     -10.303111      -280.3619
  41   2.0000     -10.302881      -280.3557
  42   2.0000     -10.301987      -280.3313
  43   2.0000     -10.301586      -280.3204
  44   2.0000     -10.300767      -280.2981
  45   2.0000     -10.300650      -280.2949
  46   2.0000     -10.299871      -280.2737
  47   2.0000     -10.294087      -280.1163
  48   2.0000     -10.292907      -280.0842
  49   2.0000     -10.291276      -280.0398
  50   2.0000     -10.291143      -280.0362
  51   2.0000     -10.289199      -279.9833
  52   2.0000     -10.287740      -279.9436
  53   2.0000     -10.284388      -279.8524
  54   2.0000     -10.284299      -279.8500
  55   2.0000     -10.281888      -279.7844
  56   2.0000     -10.279098      -279.7085
  57   2.0000     -10.278819      -279.7009
  58   2.0000     -10.277605      -279.6678
  59   2.0000     -10.275772      -279.6180
  60   2.0000     -10.274017      -279.5702
  61   2.0000     -10.273941      -279.5681
  62   2.0000     -10.262745      -279.2635
  63   2.0000     -10.255134      -279.0564
  64   2.0000     -10.252885      -278.9952
  65   2.0000      -8.774680      -238.7712
  66   2.0000      -8.076110      -219.7621
  67   2.0000      -8.050849      -219.0747
  68   2.0000      -8.049023      -219.0250
  69   2.0000      -8.040479      -218.7926
  70   2.0000      -6.610888      -179.8914
  71   2.0000      -6.596433      -179.4981
  72   2.0000      -6.596308      -179.4947
  73   2.0000      -6.044996      -164.4927
  74   2.0000      -6.040851      -164.3799
  75   2.0000      -6.039143      -164.3334
  76   2.0000      -6.020482      -163.8257
  77   2.0000      -6.018712      -163.7775
  78   2.0000      -6.016421      -163.7151
  79   2.0000      -6.014472      -163.6621
  80   2.0000      -6.011973      -163.5941
  81   2.0000      -6.010220      -163.5464
  82   2.0000      -6.010007      -163.5406
  83   2.0000      -6.006032      -163.4324
  84   2.0000      -6.001779      -163.3167
  85   2.0000      -2.726734       -74.1982
  86   2.0000      -2.722735       -74.0894
  87   2.0000      -2.722624       -74.0864
  88   2.0000      -2.711137       -73.7738
  89   2.0000      -2.711119       -73.7733
  90   2.0000      -1.318848       -35.8877
  91   2.0000      -1.315175       -35.7877
  92   2.0000      -1.303966       -35.4827
  93   2.0000      -1.095082       -29.7987
  94   2.0000      -1.065221       -28.9861
  95   2.0000      -1.026728       -27.9387
  96   2.0000      -1.014798       -27.6140
  97   2.0000      -1.002815       -27.2880
  98   2.0000      -1.000534       -27.2259
  99   2.0000      -0.996099       -27.1052
 100   2.0000      -0.983658       -26.7667
 101   2.0000      -0.975629       -26.5482
 102   2.0000      -0.962905       -26.2020
 103   2.0000      -0.959172       -26.1004
 104   2.0000      -0.956468       -26.0268
 105   2.0000      -0.942250       -25.6399
 106   2.0000      -0.929221       -25.2854
 107   2.0000      -0.919001       -25.0073
 108   2.0000      -0.916189       -24.9308
 109   2.0000      -0.908468       -24.7207
 110   2.0000      -0.889895       -24.2153
 111   2.0000      -0.882517       -24.0145
 112   2.0000      -0.879932       -23.9442
 113   2.0000      -0.870051       -23.6753
 114   2.0000      -0.862268       -23.4635
 115   2.0000      -0.859144       -23.3785
 116   2.0000      -0.850594       -23.1458
 117   2.0000      -0.847788       -23.0695
 118   2.0000      -0.846186       -23.0259
 119   2.0000      -0.825208       -22.4551
 120   2.0000      -0.823451       -22.4072
 121   2.0000      -0.815329       -22.1862
 122   2.0000      -0.803716       -21.8702
 123   2.0000      -0.797638       -21.7048
 124   2.0000      -0.787648       -21.4330
 125   2.0000      -0.774755       -21.0821
 126   2.0000      -0.767774       -20.8922
 127   2.0000      -0.755146       -20.5486
 128   2.0000      -0.747444       -20.3390
 129   2.0000      -0.746418       -20.3111
 130   2.0000      -0.728921       -19.8349
 131   2.0000      -0.728601       -19.8263
 132   2.0000      -0.720052       -19.5936
 133   2.0000      -0.711042       -19.3484
 134   2.0000      -0.703178       -19.1344
 135   2.0000      -0.689192       -18.7539
 136   2.0000      -0.675631       -18.3849
 137   2.0000      -0.668770       -18.1981
 138   2.0000      -0.665874       -18.1193
 139   2.0000      -0.661123       -17.9901
 140   2.0000      -0.647609       -17.6223
 141   2.0000      -0.644328       -17.5330
 142   2.0000      -0.643715       -17.5164
 143   2.0000      -0.640590       -17.4314
 144   2.0000      -0.632798       -17.2193
 145   2.0000      -0.630160       -17.1475
 146   2.0000      -0.625048       -17.0084
 147   2.0000      -0.622644       -16.9430
 148   2.0000      -0.618723       -16.8363
 149   2.0000      -0.614203       -16.7133
 150   2.0000      -0.612684       -16.6720
 151   2.0000      -0.610315       -16.6075
 152   2.0000      -0.604009       -16.4359
 153   2.0000      -0.599144       -16.3035
 154   2.0000      -0.595464       -16.2034
 155   2.0000      -0.589453       -16.0398
 156   2.0000      -0.583936       -15.8897
 157   2.0000      -0.581874       -15.8336
 158   2.0000      -0.581121       -15.8131
 159   2.0000      -0.571168       -15.5423
 160   2.0000      -0.567972       -15.4553
 161   2.0000      -0.567396       -15.4396
 162   2.0000      -0.562877       -15.3167
 163   2.0000      -0.553505       -15.0616
 164   2.0000      -0.549729       -14.9589
 165   2.0000      -0.546001       -14.8574
 166   2.0000      -0.538353       -14.6493
 167   2.0000      -0.534891       -14.5551
 168   2.0000      -0.530851       -14.4452
 169   2.0000      -0.529084       -14.3971
 170   2.0000      -0.520429       -14.1616
 171   2.0000      -0.518694       -14.1144
 172   2.0000      -0.515186       -14.0189
 173   2.0000      -0.513383       -13.9699
 174   2.0000      -0.510493       -13.8912
 175   2.0000      -0.509816       -13.8728
 176   2.0000      -0.506592       -13.7851
 177   2.0000      -0.503796       -13.7090
 178   2.0000      -0.501580       -13.6487
 179   2.0000      -0.500956       -13.6317
 180   2.0000      -0.499975       -13.6050
 181   2.0000      -0.494721       -13.4620
 182   2.0000      -0.491564       -13.3761
 183   2.0000      -0.490537       -13.3482
 184   2.0000      -0.484306       -13.1786
 185   2.0000      -0.483286       -13.1509
 186   2.0000      -0.481446       -13.1008
 187   2.0000      -0.480070       -13.0634
 188   2.0000      -0.476418       -12.9640
 189   2.0000      -0.473867       -12.8946
 190   2.0000      -0.470758       -12.8100
 191   2.0000      -0.467865       -12.7313
 192   2.0000      -0.467667       -12.7259
 193   2.0000      -0.465858       -12.6766
 194   2.0000      -0.464738       -12.6462
 195   2.0000      -0.461938       -12.5700
 196   2.0000      -0.456103       -12.4112
 197   2.0000      -0.454680       -12.3725
 198   2.0000      -0.446270       -12.1436
 199   2.0000      -0.444503       -12.0955
 200   2.0000      -0.441158       -12.0045
 201   2.0000      -0.438884       -11.9426
 202   2.0000      -0.434574       -11.8253
 203   2.0000      -0.433341       -11.7918
 204   2.0000      -0.433152       -11.7867
 205   2.0000      -0.432108       -11.7582
 206   2.0000      -0.428128       -11.6499
 207   2.0000      -0.422443       -11.4953
 208   2.0000      -0.420420       -11.4402
 209   2.0000      -0.415258       -11.2998
 210   2.0000      -0.413200       -11.2437
 211   2.0000      -0.409957       -11.1555
 212   2.0000      -0.406525       -11.0621
 213   2.0000      -0.404824       -11.0158
 214   2.0000      -0.399624       -10.8743
 215   2.0000      -0.396770       -10.7967
 216   2.0000      -0.394485       -10.7345
 217   2.0000      -0.393261       -10.7012
 218   2.0000      -0.386587       -10.5196
 219   2.0000      -0.384373       -10.4593
 220   2.0000      -0.377078       -10.2608
 221   2.0000      -0.371342       -10.1047
 222   2.0000      -0.370152       -10.0724
 223   2.0000      -0.360640        -9.8135
 224   2.0000      -0.357391        -9.7251
 225   2.0000      -0.343995        -9.3606
 226   2.0000      -0.338684        -9.2160
 227   2.0000      -0.335551        -9.1308
 228   2.0000      -0.324523        -8.8307
 229   2.0000      -0.324054        -8.8180
 230   2.0000      -0.319089        -8.6828
 231   2.0000      -0.311494        -8.4762
 232   2.0000      -0.303247        -8.2518
 233   2.0000      -0.290425        -7.9029
 234   2.0000      -0.273458        -7.4412
 235   2.0000      -0.265028        -7.2118
 236   2.0000      -0.251319        -6.8387
 237   2.0000      -0.208221        -5.6660
 238   0.0000      -0.091952        -2.5021
 239   0.0000      -0.088608        -2.4112
 240   0.0000      -0.049100        -1.3361
 241   0.0000      -0.042626        -1.1599
 242   0.0000      -0.023117        -0.6291

MULLIKEN ATOMIC CHARGES
-----------------------
   0 C :   -0.028480
   1 C :    0.045852
   2 C :   -0.075483
   3 C :    0.139573
   4 C :   -0.094623
   5 C :    0.012237
   6 N :    0.056377
   7 O :   -0.098550
   8 N :    0.028373
   9 C :   -0.163906
  10 S :    0.195790
  11 C :   -0.085907
  12 C :    0.117892
  13 C :    0.148395
  14 C :   -0.126899
  15 C :    0.228786
  16 F :   -0.177467
  17 C :    0.227231
  18 F :   -0.177710
  19 C :   -0.114622
  20 C :   -0.002702
  21 C :   -0.005001
  22 C :    0.021090
  23 C :   -0.245534
  24 C :    0.092385
  25 C :    0.227436
  26 N :   -0.159982
  27 C :    0.075462
  28 C :   -0.026427
  29 C :    0.058955
  30 C :   -0.088041
  31 C :    0.047428
  32 C :    0.008917
  33 C :   -0.028988
  34 S :    0.126793
  35 C :   -0.062794
  36 C :    0.044253
  37 C :    0.012039
  38 C :    0.008063
  39 S :    0.106840
  40 C :   -0.031203
  41 C :   -0.040802
  42 C :   -0.097610
  43 C :    0.334689
  44 C :   -0.375728
  45 C :   -0.191231
  46 N :    0.125598
  47 C :   -0.192037
  48 N :    0.121874
  49 C :    0.012478
  50 C :   -0.005965
  51 C :    0.132295
  52 O :   -0.174388
  53 C :   -0.085114
  54 C :    0.119445
  55 C :   -0.091085
  56 C :   -0.029983
  57 S :    0.171956
  58 C :   -0.123434
  59 C :    0.033572
  60 Br:    0.005546
  61 H :   -0.006380
  62 H :    0.005627
  63 H :   -0.006255
  64 H :   -0.011828
  65 H :   -0.011287
  66 H :   -0.013627
  67 H :    0.000162
  68 H :   -0.023940
  69 H :    0.032319
  70 H :    0.041356
  71 H :    0.016354
  72 H :    0.025592
  73 H :    0.015214
  74 H :    0.128961
  75 H :    0.015129
  76 H :   -0.020009
  77 H :   -0.005537
  78 H :   -0.010715
  79 H :   -0.013017
  80 H :   -0.013111
  81 H :   -0.007512
  82 H :    0.010121
  83 H :    0.008772
  84 H :   -0.019711
  85 H :   -0.013648
  86 H :   -0.008958
Sum of atomic charges:   -0.0000000

LOEWDIN ATOMIC CHARGES
----------------------
   0 C :   -0.020707
   1 C :   -0.004575
   2 C :   -0.018598
   3 C :   -0.035385
   4 C :   -0.059044
   5 C :   -0.057093
   6 N :   -0.021288
   7 O :    0.075825
   8 N :   -0.043013
   9 C :   -0.181541
  10 S :    0.527935
  11 C :   -0.180295
  12 C :   -0.043964
  13 C :   -0.038686
  14 C :   -0.045877
  15 C :    0.064244
  16 F :   -0.055502
  17 C :    0.060366
  18 F :   -0.055919
  19 C :   -0.039017
  20 C :   -0.031853
  21 C :   -0.030021
  22 C :   -0.039348
  23 C :   -0.046764
  24 C :   -0.053520
  25 C :    0.048384
  26 N :    0.006234
  27 C :    0.068903
  28 C :   -0.115241
  29 C :    0.004765
  30 C :   -0.190837
  31 C :   -0.011988
  32 C :   -0.048669
  33 C :   -0.140675
  34 S :    0.404657
  35 C :   -0.213039
  36 C :   -0.009085
  37 C :   -0.058564
  38 C :   -0.101316
  39 S :    0.412177
  40 C :   -0.086860
  41 C :    0.046757
  42 C :   -0.123026
  43 C :    0.073008
  44 C :   -0.168774
  45 C :   -0.019147
  46 N :   -0.081197
  47 C :   -0.020938
  48 N :   -0.078417
  49 C :   -0.016288
  50 C :   -0.046792
  51 C :    0.079884
  52 O :   -0.167804
  53 C :    0.012990
  54 C :   -0.038748
  55 C :   -0.147368
  56 C :   -0.016665
  57 S :    0.421555
  58 C :   -0.277849
  59 C :   -0.071605
  60 Br:    0.122669
  61 H :    0.041065
  62 H :    0.037989
  63 H :    0.034223
  64 H :    0.039390
  65 H :    0.039751
  66 H :    0.032467
  67 H :    0.022047
  68 H :    0.026787
  69 H :    0.035126
  70 H :    0.044230
  71 H :    0.029662
  72 H :    0.032469
  73 H :    0.021741
  74 H :    0.083486
  75 H :    0.034074
  76 H :    0.023074
  77 H :    0.034438
  78 H :    0.032509
  79 H :    0.032339
  80 H :    0.032002
  81 H :    0.035464
  82 H :    0.036188
  83 H :    0.029863
  84 H :    0.036953
  85 H :    0.038948
  86 H :    0.036263

  Mayer bond orders larger than 0.100000
B(  0-C ,  1-C ) :   1.5265 B(  0-C ,  3-C ) :   0.1011 B(  0-C ,  5-C ) :   1.1606
B(  0-C , 61-H ) :   1.0266 B(  1-C ,  2-C ) :   1.1921 B(  1-C , 62-H ) :   0.9835
B(  2-C ,  3-C ) :   1.5151 B(  2-C , 63-H ) :   0.9932 B(  3-C ,  4-C ) :   1.1335
B(  3-C ,  9-C ) :   1.0902 B(  4-C ,  5-C ) :   1.1506 B(  4-C ,  8-N ) :   1.5896
B(  5-C ,  6-N ) :   1.5948 B(  6-N ,  7-O ) :   1.0722 B(  6-N ,  8-N ) :   0.1838
B(  7-O ,  8-N ) :   1.0642 B(  9-C , 10-S ) :   1.1798 B(  9-C , 11-C ) :   0.1199
B(  9-C , 13-C ) :   1.3699 B( 10-S , 11-C ) :   1.1499 B( 11-C , 12-C ) :   1.3296
B( 11-C , 20-C ) :   1.1477 B( 12-C , 13-C ) :   1.2129 B( 12-C , 19-C ) :   1.1612
B( 13-C , 14-C ) :   1.1420 B( 14-C , 15-C ) :   1.5092 B( 14-C , 19-C ) :   0.1123
B( 14-C , 64-H ) :   0.9964 B( 15-C , 16-F ) :   1.1278 B( 15-C , 17-C ) :   1.1511
B( 17-C , 18-F ) :   1.1298 B( 17-C , 19-C ) :   1.5107 B( 19-C , 65-H ) :   0.9976
B( 20-C , 21-C ) :   1.6731 B( 20-C , 66-H ) :   0.9773 B( 21-C , 22-C ) :   1.1146
B( 21-C , 67-H ) :   0.9729 B( 22-C , 23-C ) :   1.7558 B( 22-C , 68-H ) :   0.9767
B( 23-C , 24-C ) :   1.0697 B( 23-C , 25-C ) :   1.0526 B( 24-C , 69-H ) :   0.9501
B( 24-C , 70-H ) :   0.9456 B( 24-C , 71-H ) :   0.9503 B( 25-C , 26-N ) :   0.9525
B( 25-C , 72-H ) :   0.9290 B( 25-C , 73-H ) :   0.9400 B( 26-N , 27-C ) :   1.2684
B( 26-N , 74-H ) :   0.9352 B( 27-C , 28-C ) :   1.5481 B( 27-C , 75-H ) :   0.9698
B( 28-C , 29-C ) :   1.2495 B( 28-C , 76-H ) :   0.9648 B( 29-C , 30-C ) :   1.5156
B( 29-C , 77-H ) :   0.9620 B( 30-C , 31-C ) :   1.1871 B( 30-C , 34-S ) :   1.0146
B( 31-C , 32-C ) :   1.5721 B( 31-C , 78-H ) :   0.9887 B( 32-C , 33-C ) :   1.2181
B( 32-C , 79-H ) :   0.9933 B( 33-C , 34-S ) :   1.1160 B( 33-C , 35-C ) :   1.4129
B( 35-C , 36-C ) :   1.2551 B( 35-C , 39-S ) :   1.0427 B( 36-C , 37-C ) :   1.4975
B( 36-C , 80-H ) :   0.9942 B( 37-C , 38-C ) :   1.2162 B( 37-C , 81-H ) :   1.0020
B( 38-C , 39-S ) :   1.1023 B( 38-C , 40-C ) :   1.3591 B( 40-C , 41-C ) :   1.3165
B( 40-C , 82-H ) :   0.9787 B( 41-C , 42-C ) :   1.4189 B( 41-C , 83-H ) :   0.9443
B( 42-C , 43-C ) :   1.1406 B( 42-C , 51-C ) :   0.9812 B( 43-C , 44-C ) :   1.5559
B( 43-C , 49-C ) :   0.9822 B( 44-C , 45-C ) :   1.1537 B( 44-C , 47-C ) :   1.1586
B( 45-C , 46-N ) :   2.9572 B( 47-C , 48-N ) :   2.9546 B( 49-C , 50-C ) :   1.2818
B( 49-C , 56-C ) :   1.4247 B( 50-C , 51-C ) :   0.9315 B( 50-C , 53-C ) :   1.4326
B( 51-C , 52-O ) :   2.1767 B( 53-C , 54-C ) :   1.2339 B( 53-C , 84-H ) :   1.0168
B( 54-C , 55-C ) :   1.3244 B( 54-C , 59-C ) :   1.1578 B( 55-C , 56-C ) :   1.3133
B( 55-C , 57-S ) :   1.0795 B( 56-C , 85-H ) :   0.9800 B( 57-S , 58-C ) :   1.0845
B( 58-C , 59-C ) :   1.6218 B( 58-C , 60-Br) :   1.0080 B( 59-C , 86-H ) :   1.0008

-----------------------------------------------------------------------------
         ABSORPTION SPECTRUM VIA TRANSITION ELECTRIC DIPOLE MOMENTS
-----------------------------------------------------------------------------
State   Energy  Wavelength   fosc         T2         TX        TY        TZ
        (cm-1)    (nm)                  (au**2)     (au)      (au)      (au)
-----------------------------------------------------------------------------
   0   11783.7    848.6   1.564364121  43.70492  -1.58081   5.55435   3.21795
   1   18851.4    530.5   0.001724892   0.03012   0.03613  -0.14245  -0.09233
   2   19667.0    508.5   0.615912402  10.30995   0.93414  -2.39111  -1.92871
   3   21266.9    470.2   0.149575993   2.31544  -0.77040   1.00144  -0.84796
   4   23561.4    424.4   0.177234490   2.47641   0.79962  -1.20908   0.61249
   5   25337.1    394.7   0.383482702   4.98269  -0.95017   1.73271  -1.03807
   6   26427.8    378.4   0.000777651   0.00969  -0.01278   0.03569   0.09083
   7   26605.6    375.9   0.134058074   1.65881   0.55399   1.12163  -0.30633
   8   27012.9    370.2   0.260179091   3.17086   0.32316   0.54001   1.66578
   9   27627.3    362.0   0.001533728   0.01828   0.03550  -0.02019   0.12887
  10   27818.9    359.5   0.000025921   0.00031   0.00419  -0.00973   0.01395
  11   29617.6    337.6   0.012024096   0.13365   0.00518   0.15626   0.33047
  12   31306.7    319.4   0.001724578   0.01814  -0.06507  -0.07936   0.08719
  13   31346.3    319.0   0.024020669   0.25227  -0.19035   0.16791  -0.43341
  14   31397.3    318.5   0.000383126   0.00402   0.05088  -0.03457   0.01527
  15   31765.1    314.8   0.076764120   0.79558   0.63003   0.21256  -0.59453
  16   32152.2    311.0   0.185221855   1.89652   0.51115  -0.94582  -0.86062
  17   32789.9    305.0   0.263097080   2.64150   0.94518  -1.23762  -0.46521
  18   33287.9    300.4   0.004439369   0.04390  -0.17611  -0.06840  -0.09061
  19   33540.8    298.1   0.191247515   1.87715   0.58031   1.23862  -0.07875
  20   34069.0    293.5   0.302764672   2.92565  -0.57641   1.57710   0.32582
  21   34583.0    289.2   0.197758219   1.88256   1.00039   0.83303  -0.43340
  22   34854.6    286.9   0.000621578   0.00587   0.05377   0.01391  -0.05278
  23   35288.7    283.4   0.137892966   1.28642  -0.46318   0.96480   0.37556
  24   35306.6    283.2   0.000392512   0.00366   0.01375  -0.05257  -0.02659
  25   36348.4    275.1   0.125868467   1.14001   0.68022  -0.31829   0.75894
  26   36506.4    273.9   0.334946817   3.02053   0.68105   1.56430   0.33117
  27   37223.6    268.6   0.051133645   0.45223  -0.02837   0.47271   0.47746
  28   38224.5    261.6   0.008976323   0.07731  -0.10152   0.08640  -0.24400
  29   38405.2    260.4   0.140730866   1.20635   0.70897  -0.63283   0.55068
  30   39225.2    254.9   0.000247147   0.00207   0.02762  -0.00485   0.03588
  31   39770.8    251.4   0.000186429   0.00154  -0.03294  -0.01103   0.01835
  32   39827.3    251.1   0.028224756   0.23331   0.39570   0.12030  -0.24951
  33   40322.0    248.0   0.231356735   1.88893  -0.44304  -0.14415  -1.29301

FINAL SINGLE POINT ENERGY     -6593.557919679080

DIPOLE MOMENT
-------------
                                X             Y             Z
Electronic contribution:    -62.96643     167.40468     116.70071
Nuclear contribution   :     63.03880    -173.82441    -121.87967
                        -----------------------------------------
Total Dipole Moment    :      0.07238      -6.41973      -5.17896
                        -----------------------------------------
Magnitude (a.u.)       :      8.24862
Magnitude (Debye)      :     20.96633

Rotational constants in cm-1:     0.002917     0.000132     0.000130
Rotational constants in MHz :    87.457964     3.968769     3.903103

                             ****ORCA TERMINATED NORMALLY****
TOTAL RUN TIME: 0 days 0 hours 7 minutes 6 seconds 346 msec
