                         Program Version 4.2.0 -  RELEASE  -
|  1> # ORCA input file
|  2> # SCF done        -85.544010424714          0.000791809475
|  3> ! CAM-B3LYP def2-SVP def2/J RIJCOSX Grid4 TightSCF
|  4> %maxcore 5000
|  5> %tddft
|  6>     Mode sTDDFT
|  7>     Ethresh 5.0
|  8>     maxcore 5000
|  9> end
| 10>
| 11> %pal
| 12>   nprocs 6
| 13>   end
| 14> * xyz 0 1
| 15>    C        3.21659        -0.30102         1.28112
| 16>    C        2.19754        -0.26141         2.17074
| 17>    C        1.24628        -1.33885         2.09133
| 18>    C        1.48746        -2.28146         1.12437
| 19>   Si        3.04839        -1.80212         0.20663
| 20>    C        0.67450        -3.42716         0.86651
| 21>    C       -0.44676        -3.78944         1.58275
| 22>    C       -1.12159        -4.96507         1.16109
| 23>    C       -0.57778        -5.62273         0.07785
| 24>   Si        0.93725        -4.68215        -0.48612
| 25>    C       -1.09870        -6.81207        -0.50205
| 26>    C       -2.18039        -7.52111        -0.02693
| 27>    C       -2.70010        -8.68668        -0.58364
| 28>    C       -2.03048        -9.33750        -1.72012
| 29>    C       -0.95914        -8.82579        -2.36283
| 30>    S       -0.21859        -7.33441        -1.93878
| 31>    C       -2.73752       -10.55141        -1.93446
| 32>    C       -3.77509       -10.65756        -1.01067
| 33>    C       -4.52255       -11.84387        -1.18427
| 34>    C       -4.04116       -12.59271        -2.21008
| 35>    S       -2.67044       -11.89383        -3.00802
| 36>    C       -3.78759        -9.48681        -0.17043
| 37>    C       -4.75645        -9.28236         0.83843
| 38>    C       -5.09999        -8.10128         1.42772
| 39>    C       -6.05390        -7.92541         2.46260
| 40>    C       -6.70705        -8.93897         3.13868
| 41>    C       -7.61312        -8.53803         4.15274
| 42>    C       -7.74434        -7.18102         4.37028
| 43>   Si       -6.62930        -6.29249         3.16929
| 44>    C       -8.60215        -6.58070         5.34157
| 45>    C       -9.31269        -7.25831         6.29990
| 46>    C      -10.11729        -6.44933         7.17658
| 47>    C      -10.07664        -5.11371         6.95890
| 48>   Si       -8.94259        -4.74884         5.53976
| 49>    H        3.97650         0.46389         1.26642
| 50>    H        2.06962         0.51749         2.90995
| 51>    H        0.40525        -1.36368         2.76803
| 52>    H        2.82188        -1.50540        -1.20986
| 53>    H        4.13272        -2.77514         0.36149
| 54>    H       -0.82156        -3.23292         2.42889
| 55>    H       -2.01024        -5.28857         1.68335
| 56>    H        0.80800        -4.14284        -1.84233
| 57>    H        2.16860        -5.46610        -0.35797
| 58>    H       -2.63797        -7.14838         0.87632
| 59>    H       -0.49338        -9.32155        -3.19997
| 60>    H       -5.36961       -12.13259        -0.58845
| 61>    H       -4.40821       -13.53577        -2.56558
| 62>    H       -5.30702       -10.17105         1.12026
| 63>    H       -4.65194        -7.18861         1.05965
| 64>    H       -6.55485        -9.98917         2.93658
| 65>    H       -8.16411        -9.28428         4.70693
| 66>    H       -5.54941        -5.52852         3.80472
| 67>    H       -7.33059        -5.45220         2.19422
| 68>    H       -9.28629        -8.32995         6.43104
| 69>    H      -10.70583        -6.91702         7.95393
| 70>    H      -10.64953        -4.43011         7.56466
| 71>    H       -7.75209        -3.97442         5.90365
| 72>    H       -9.60499        -4.15099         4.37653
| 73> *
| 74>
| 75>                          ****END OF INPUT****

CARTESIAN COORDINATES (ANGSTROEM)
---------------------------------
  C      3.216590   -0.301020    1.281120
  C      2.197540   -0.261410    2.170740
  C      1.246280   -1.338850    2.091330
  C      1.487460   -2.281460    1.124370
  Si     3.048390   -1.802120    0.206630
  C      0.674500   -3.427160    0.866510
  C     -0.446760   -3.789440    1.582750
  C     -1.121590   -4.965070    1.161090
  C     -0.577780   -5.622730    0.077850
  Si     0.937250   -4.682150   -0.486120
  C     -1.098700   -6.812070   -0.502050
  C     -2.180390   -7.521110   -0.026930
  C     -2.700100   -8.686680   -0.583640
  C     -2.030480   -9.337500   -1.720120
  C     -0.959140   -8.825790   -2.362830
  S     -0.218590   -7.334410   -1.938780
  C     -2.737520  -10.551410   -1.934460
  C     -3.775090  -10.657560   -1.010670
  C     -4.522550  -11.843870   -1.184270
  C     -4.041160  -12.592710   -2.210080
  S     -2.670440  -11.893830   -3.008020
  C     -3.787590   -9.486810   -0.170430
  C     -4.756450   -9.282360    0.838430
  C     -5.099990   -8.101280    1.427720
  C     -6.053900   -7.925410    2.462600
  C     -6.707050   -8.938970    3.138680
  C     -7.613120   -8.538030    4.152740
  C     -7.744340   -7.181020    4.370280
  Si    -6.629300   -6.292490    3.169290
  C     -8.602150   -6.580700    5.341570
  C     -9.312690   -7.258310    6.299900
  C    -10.117290   -6.449330    7.176580
  C    -10.076640   -5.113710    6.958900
  Si    -8.942590   -4.748840    5.539760
  H      3.976500    0.463890    1.266420
  H      2.069620    0.517490    2.909950
  H      0.405250   -1.363680    2.768030
  H      2.821880   -1.505400   -1.209860
  H      4.132720   -2.775140    0.361490
  H     -0.821560   -3.232920    2.428890
  H     -2.010240   -5.288570    1.683350
  H      0.808000   -4.142840   -1.842330
  H      2.168600   -5.466100   -0.357970
  H     -2.637970   -7.148380    0.876320
  H     -0.493380   -9.321550   -3.199970
  H     -5.369610  -12.132590   -0.588450
  H     -4.408210  -13.535770   -2.565580
  H     -5.307020  -10.171050    1.120260
  H     -4.651940   -7.188610    1.059650
  H     -6.554850   -9.989170    2.936580
  H     -8.164110   -9.284280    4.706930
  H     -5.549410   -5.528520    3.804720
  H     -7.330590   -5.452200    2.194220
  H     -9.286290   -8.329950    6.431040
  H    -10.705830   -6.917020    7.953930
  H    -10.649530   -4.430110    7.564660
  H     -7.752090   -3.974420    5.903650
  H     -9.604990   -4.150990    4.376530

 Total Charge           Charge          ....    0
 Multiplicity           Mult            ....    1
 Number of Electrons    NEL             ....  280
 Basis Dimension        Dim             ....  620

ORBITAL ENERGIES
----------------

  NO   OCC          E(Eh)            E(eV)
   0   2.0000     -88.962618     -2420.7959
   1   2.0000     -88.946989     -2420.3706
   2   2.0000     -66.187734     -1801.0598
   3   2.0000     -66.180978     -1800.8760
   4   2.0000     -66.177189     -1800.7729
   5   2.0000     -66.174249     -1800.6929
   6   2.0000     -10.315927      -280.7106
   7   2.0000     -10.309049      -280.5235
   8   2.0000     -10.287999      -279.9507
   9   2.0000     -10.286886      -279.9204
  10   2.0000     -10.279844      -279.7288
  11   2.0000     -10.279021      -279.7064
  12   2.0000     -10.275511      -279.6109
  13   2.0000     -10.274059      -279.5714
  14   2.0000     -10.273750      -279.5629
  15   2.0000     -10.273322      -279.5513
  16   2.0000     -10.269679      -279.4522
  17   2.0000     -10.266573      -279.3677
  18   2.0000     -10.265934      -279.3503
  19   2.0000     -10.265655      -279.3427
  20   2.0000     -10.265176      -279.3296
  21   2.0000     -10.263301      -279.2786
  22   2.0000     -10.262594      -279.2594
  23   2.0000     -10.261964      -279.2422
  24   2.0000     -10.261823      -279.2384
  25   2.0000     -10.259772      -279.1826
  26   2.0000     -10.258104      -279.1372
  27   2.0000     -10.257929      -279.1325
  28   2.0000     -10.255428      -279.0644
  29   2.0000     -10.248322      -278.8710
  30   2.0000     -10.247925      -278.8602
  31   2.0000     -10.246644      -278.8254
  32   2.0000     -10.246343      -278.8172
  33   2.0000     -10.238344      -278.5995
  34   2.0000      -8.057886      -219.2662
  35   2.0000      -8.042336      -218.8431
  36   2.0000      -6.027469      -164.0158
  37   2.0000      -6.022855      -163.8902
  38   2.0000      -6.019878      -163.8092
  39   2.0000      -6.011807      -163.5896
  40   2.0000      -6.007589      -163.4748
  41   2.0000      -6.004316      -163.3858
  42   2.0000      -5.358745      -145.8189
  43   2.0000      -5.352739      -145.6554
  44   2.0000      -5.348214      -145.5323
  45   2.0000      -5.346080      -145.4742
  46   2.0000      -3.721626      -101.2706
  47   2.0000      -3.720194      -101.2316
  48   2.0000      -3.720066      -101.2281
  49   2.0000      -3.715380      -101.1006
  50   2.0000      -3.714235      -101.0695
  51   2.0000      -3.714147      -101.0671
  52   2.0000      -3.710800      -100.9760
  53   2.0000      -3.709771      -100.9480
  54   2.0000      -3.709709      -100.9463
  55   2.0000      -3.708658      -100.9177
  56   2.0000      -3.707576      -100.8883
  57   2.0000      -3.707500      -100.8862
  58   2.0000      -0.993797       -27.0426
  59   2.0000      -0.960715       -26.1424
  60   2.0000      -0.927406       -25.2360
  61   2.0000      -0.918752       -25.0005
  62   2.0000      -0.913374       -24.8542
  63   2.0000      -0.904293       -24.6071
  64   2.0000      -0.896706       -24.4006
  65   2.0000      -0.877020       -23.8649
  66   2.0000      -0.859279       -23.3822
  67   2.0000      -0.833141       -22.6709
  68   2.0000      -0.825382       -22.4598
  69   2.0000      -0.808475       -21.9997
  70   2.0000      -0.800154       -21.7733
  71   2.0000      -0.778942       -21.1961
  72   2.0000      -0.759602       -20.6698
  73   2.0000      -0.738399       -20.0929
  74   2.0000      -0.732429       -19.9304
  75   2.0000      -0.726736       -19.7755
  76   2.0000      -0.704339       -19.1660
  77   2.0000      -0.693158       -18.8618
  78   2.0000      -0.684767       -18.6335
  79   2.0000      -0.676599       -18.4112
  80   2.0000      -0.651852       -17.7378
  81   2.0000      -0.631909       -17.1951
  82   2.0000      -0.625108       -17.0101
  83   2.0000      -0.617510       -16.8033
  84   2.0000      -0.614057       -16.7093
  85   2.0000      -0.603655       -16.4263
  86   2.0000      -0.592992       -16.1361
  87   2.0000      -0.587583       -15.9889
  88   2.0000      -0.580390       -15.7932
  89   2.0000      -0.572817       -15.5871
  90   2.0000      -0.569342       -15.4926
  91   2.0000      -0.567313       -15.4374
  92   2.0000      -0.558804       -15.2058
  93   2.0000      -0.554221       -15.0811
  94   2.0000      -0.550346       -14.9757
  95   2.0000      -0.537533       -14.6270
  96   2.0000      -0.524878       -14.2827
  97   2.0000      -0.513369       -13.9695
  98   2.0000      -0.508354       -13.8330
  99   2.0000      -0.501781       -13.6542
 100   2.0000      -0.499502       -13.5921
 101   2.0000      -0.487089       -13.2544
 102   2.0000      -0.477335       -12.9889
 103   2.0000      -0.476764       -12.9734
 104   2.0000      -0.470382       -12.7997
 105   2.0000      -0.467102       -12.7105
 106   2.0000      -0.457660       -12.4536
 107   2.0000      -0.455935       -12.4066
 108   2.0000      -0.455247       -12.3879
 109   2.0000      -0.451926       -12.2975
 110   2.0000      -0.446428       -12.1479
 111   2.0000      -0.445385       -12.1196
 112   2.0000      -0.433987       -11.8094
 113   2.0000      -0.432841       -11.7782
 114   2.0000      -0.429710       -11.6930
 115   2.0000      -0.423368       -11.5204
 116   2.0000      -0.410653       -11.1744
 117   2.0000      -0.406332       -11.0569
 118   2.0000      -0.403970       -10.9926
 119   2.0000      -0.401305       -10.9201
 120   2.0000      -0.397273       -10.8103
 121   2.0000      -0.391821       -10.6620
 122   2.0000      -0.391454       -10.6520
 123   2.0000      -0.390977       -10.6390
 124   2.0000      -0.390410       -10.6236
 125   2.0000      -0.387156       -10.5351
 126   2.0000      -0.383926       -10.4471
 127   2.0000      -0.378280       -10.2935
 128   2.0000      -0.374919       -10.2021
 129   2.0000      -0.371343       -10.1048
 130   2.0000      -0.355116        -9.6632
 131   2.0000      -0.353035        -9.6066
 132   2.0000      -0.343130        -9.3370
 133   2.0000      -0.329575        -8.9682
 134   2.0000      -0.320862        -8.7311
 135   2.0000      -0.302774        -8.2389
 136   2.0000      -0.276125        -7.5137
 137   2.0000      -0.260020        -7.0755
 138   2.0000      -0.236457        -6.4343
 139   2.0000      -0.199848        -5.4381
 140   0.0000      -0.075114        -2.0440
 141   0.0000      -0.049075        -1.3354
 142   0.0000      -0.026026        -0.7082
 143   0.0000      -0.006414        -0.1745
 144   0.0000       0.010834         0.2948

MULLIKEN ATOMIC CHARGES
-----------------------
   0 C :   -0.167196
   1 C :    0.036974
   2 C :   -0.022844
   3 C :   -0.144585
   4 Si:    0.487617
   5 C :   -0.131498
   6 C :    0.002995
   7 C :   -0.011551
   8 C :   -0.153111
   9 Si:    0.482513
  10 C :   -0.028886
  11 C :   -0.039695
  12 C :    0.043237
  13 C :    0.062323
  14 C :   -0.128633
  15 S :    0.094587
  16 C :   -0.110025
  17 C :    0.051206
  18 C :    0.006108
  19 C :   -0.067882
  20 S :    0.119551
  21 C :    0.081482
  22 C :   -0.005366
  23 C :   -0.008744
  24 C :   -0.137150
  25 C :   -0.007620
  26 C :    0.006475
  27 C :   -0.147188
  28 Si:    0.485566
  29 C :   -0.135437
  30 C :   -0.029587
  31 C :    0.039285
  32 C :   -0.171750
  33 Si:    0.490070
  34 H :    0.006089
  35 H :   -0.009460
  36 H :   -0.021384
  37 H :   -0.080399
  38 H :   -0.077988
  39 H :   -0.024308
  40 H :   -0.015289
  41 H :   -0.066697
  42 H :   -0.065134
  43 H :   -0.030103
  44 H :    0.029948
  45 H :   -0.020731
  46 H :    0.022122
  47 H :   -0.033411
  48 H :   -0.031849
  49 H :   -0.024844
  50 H :   -0.027728
  51 H :   -0.084926
  52 H :   -0.078425
  53 H :   -0.024773
  54 H :   -0.013813
  55 H :    0.001082
  56 H :   -0.087227
  57 H :   -0.081990
Sum of atomic charges:   -0.0000000

LOEWDIN ATOMIC CHARGES
----------------------
   0 C :   -0.196327
   1 C :   -0.016096
   2 C :   -0.020191
   3 C :   -0.179527
   4 Si:    0.532303
   5 C :   -0.179794
   6 C :   -0.014555
   7 C :   -0.013762
   8 C :   -0.198467
   9 Si:    0.523191
  10 C :   -0.167304
  11 C :   -0.019847
  12 C :   -0.019490
  13 C :   -0.047359
  14 C :   -0.145706
  15 S :    0.442101
  16 C :   -0.205940
  17 C :   -0.038960
  18 C :   -0.064973
  19 C :   -0.167101
  20 S :    0.413192
  21 C :   -0.054286
  22 C :   -0.009221
  23 C :   -0.054384
  24 C :   -0.173270
  25 C :   -0.028137
  26 C :   -0.009572
  27 C :   -0.191183
  28 Si:    0.542569
  29 C :   -0.175713
  30 C :   -0.031216
  31 C :   -0.015265
  32 C :   -0.204183
  33 Si:    0.532247
  34 H :    0.019337
  35 H :    0.024436
  36 H :    0.019772
  37 H :   -0.089696
  38 H :   -0.089143
  39 H :    0.022675
  40 H :    0.023942
  41 H :   -0.084949
  42 H :   -0.084197
  43 H :    0.033779
  44 H :    0.033768
  45 H :    0.028784
  46 H :    0.021554
  47 H :    0.024989
  48 H :    0.018006
  49 H :    0.019361
  50 H :    0.020902
  51 H :   -0.092734
  52 H :   -0.088946
  53 H :    0.018120
  54 H :    0.022821
  55 H :    0.017275
  56 H :   -0.092336
  57 H :   -0.091296

  Mayer bond orders larger than 0.100000
B(  0-C ,  1-C ) :   1.8073 B(  0-C ,  4-Si) :   0.9555 B(  0-C , 34-H ) :   0.9457
B(  1-C ,  2-C ) :   1.0936 B(  1-C , 35-H ) :   0.9829 B(  2-C ,  3-C ) :   1.6827
B(  2-C , 36-H ) :   0.9893 B(  3-C ,  4-Si) :   0.9296 B(  3-C ,  5-C ) :   1.1233
B(  4-Si, 37-H ) :   0.9505 B(  4-Si, 38-H ) :   0.9522 B(  5-C ,  6-C ) :   1.6408
B(  5-C ,  9-Si) :   0.9389 B(  6-C ,  7-C ) :   1.1383 B(  6-C , 39-H ) :   0.9901
B(  7-C ,  8-C ) :   1.6607 B(  7-C , 40-H ) :   0.9875 B(  8-C ,  9-Si) :   0.9033
B(  8-C , 10-C ) :   1.1341 B(  9-Si, 41-H ) :   0.9567 B(  9-Si, 42-H ) :   0.9579
B( 10-C , 11-C ) :   1.5155 B( 10-C , 15-S ) :   1.0460 B( 11-C , 12-C ) :   1.2547
B( 11-C , 43-H ) :   0.9623 B( 12-C , 13-C ) :   1.0523 B( 12-C , 21-C ) :   1.3599
B( 13-C , 14-C ) :   1.6118 B( 13-C , 16-C ) :   1.1753 B( 14-C , 15-S ) :   1.1358
B( 14-C , 44-H ) :   0.9411 B( 16-C , 17-C ) :   1.4441 B( 16-C , 20-S ) :   1.0695
B( 17-C , 18-C ) :   1.2163 B( 17-C , 21-C ) :   1.1005 B( 18-C , 19-C ) :   1.5870
B( 18-C , 45-H ) :   0.9981 B( 19-C , 20-S ) :   1.1517 B( 19-C , 46-H ) :   0.9663
B( 21-C , 22-C ) :   1.1796 B( 22-C , 23-C ) :   1.6055 B( 22-C , 47-H ) :   0.9534
B( 23-C , 24-C ) :   1.1446 B( 23-C , 48-H ) :   0.9750 B( 24-C , 25-C ) :   1.6130
B( 24-C , 28-Si) :   0.9337 B( 25-C , 26-C ) :   1.1446 B( 25-C , 49-H ) :   0.9863
B( 26-C , 27-C ) :   1.6321 B( 26-C , 50-H ) :   0.9896 B( 27-C , 28-Si) :   0.9419
B( 27-C , 29-C ) :   1.1205 B( 28-Si, 51-H ) :   0.9518 B( 28-Si, 52-H ) :   0.9520
B( 29-C , 30-C ) :   1.6821 B( 29-C , 33-Si) :   0.9312 B( 30-C , 31-C ) :   1.0938
B( 30-C , 53-H ) :   0.9889 B( 31-C , 32-C ) :   1.8047 B( 31-C , 54-H ) :   0.9827
B( 32-C , 33-Si) :   0.9577 B( 32-C , 55-H ) :   0.9458 B( 33-Si, 56-H ) :   0.9476
B( 33-Si, 57-H ) :   0.9515

-----------------------------------------------------------------------------
         ABSORPTION SPECTRUM VIA TRANSITION ELECTRIC DIPOLE MOMENTS
-----------------------------------------------------------------------------
State   Energy  Wavelength   fosc         T2         TX        TY        TZ
        (cm-1)    (nm)                  (au**2)     (au)      (au)      (au)
-----------------------------------------------------------------------------
   0   13094.4    763.7   0.779392916  19.59499   3.73635   1.86459  -1.46902
   1   17594.4    568.4   0.159108403   2.97710  -0.81924   0.86218   1.25003
   2   20334.5    491.8   0.105851910   1.71372  -0.46346   0.82414   0.90539
   3   21091.7    474.1   1.033657720  16.13396  -0.28191   3.08016   2.56263
   4   25126.7    398.0   0.090131246   1.18091   0.95818   0.33383  -0.38904
   5   26698.7    374.6   0.058136074   0.71686  -0.71558  -0.41595   0.17827
   6   28276.3    353.7   0.043652776   0.50823   0.55701   0.38584  -0.22159
   7   28341.2    352.8   0.000712136   0.00827  -0.00584   0.00741  -0.09046
   8   30080.2    332.4   0.015285989   0.16730  -0.30588  -0.11193   0.24741
   9   31537.3    317.1   0.087580439   0.91424  -0.64794  -0.64037   0.29041
  10   32019.1    312.3   0.006147239   0.06320  -0.05941   0.17621   0.16919
  11   33794.3    295.9   0.044506265   0.43356  -0.50801  -0.15801   0.38797
  12   34900.1    286.5   0.004520617   0.04264   0.07151  -0.12910  -0.14444
  13   34999.2    285.7   0.011410000   0.10733   0.16425  -0.14888  -0.24121
  14   35524.2    281.5   0.024662008   0.22855  -0.20661   0.21741   0.37228
  15   35837.2    279.0   0.014518982   0.13338  -0.29070  -0.21970  -0.02455
  16   36006.7    277.7   0.008282570   0.07573   0.09557   0.22931   0.11837
  17   36797.2    271.8   0.118667109   1.06167  -0.53634  -0.86149  -0.17843
  18   38133.5    262.2   0.046665583   0.40287  -0.33677  -0.51241  -0.16400
  19   39035.2    256.2   0.085945256   0.72484  -0.43015  -0.72448  -0.12221
  20   39344.2    254.2   0.046566808   0.38965   0.43708   0.43526  -0.09571
  21   39961.6    250.2   0.037404268   0.30814   0.01489   0.45063   0.32381
  22   40283.5    248.2   0.108745056   0.88870   0.56276  -0.23064  -0.72028

FINAL SINGLE POINT ENERGY     -3033.585286058184

DIPOLE MOMENT
-------------
                                X             Y             Z
Electronic contribution:     10.09963     -17.95036     -21.52273
Nuclear contribution   :     -9.71776      17.94575      21.47471
                        -----------------------------------------
Total Dipole Moment    :      0.38187      -0.00461      -0.04802
                        -----------------------------------------
Magnitude (a.u.)       :      0.38490
Magnitude (Debye)      :      0.97835

Rotational constants in cm-1:     0.002406     0.001490     0.000929
Rotational constants in MHz :    72.129058    44.671151    27.850750

                             ****ORCA TERMINATED NORMALLY****
TOTAL RUN TIME: 0 days 0 hours 3 minutes 2 seconds 8 msec
