                         Program Version 4.2.0 -  RELEASE  -
|  1> # ORCA input file
|  2> # SCF done       -176.893533596618          0.000918600766
|  3> ! CAM-B3LYP def2-SVP def2/J RIJCOSX Grid4 TightSCF
|  4> %maxcore 5000
|  5> %tddft
|  6>     Mode sTDDFT
|  7>     Ethresh 5.0
|  8>     maxcore 5000
|  9> end
| 10>
| 11> %pal
| 12>   nprocs 6
| 13>   end
| 14> * xyz 0 1
| 15>    C       -1.59122        -0.56979        -2.95367
| 16>    C       -1.47442         0.52862        -3.76308
| 17>    C       -1.05150         1.75351        -3.24535
| 18>    C       -0.73160         1.92233        -1.90808
| 19>    C       -0.84925         0.78817        -1.04757
| 20>    C       -1.28114        -0.45314        -1.58688
| 21>    N       -1.39958        -1.53898        -0.79205
| 22>    C       -1.11270        -1.42942         0.47717
| 23>    C       -0.68067        -0.18414         1.02456
| 24>    N       -0.56129         0.87367         0.26558
| 25>    C       -0.34971        -0.03565         2.47072
| 26>    C       -1.25419        -2.64758         1.32704
| 27>    C       -0.29517         3.20395        -1.41665
| 28>    C        0.10256         3.54656        -0.14380
| 29>    C        0.46586         4.89170        -0.04059
| 30>    C        0.34169         5.58544        -1.25519
| 31>    S       -0.21924         4.58491        -2.51553
| 32>    C        0.73911         6.93072        -1.04696
| 33>    C        1.11589         7.08569         0.29711
| 34>    C        0.95134         5.80584         0.97445
| 35>    C        1.19876         5.52699         2.28804
| 36>    C        1.67444         6.50433         3.18582
| 37>    N        2.06099         7.29821         3.91785
| 38>    C        0.99285         4.24424         2.83514
| 39>    N        0.82644         3.20657         3.29519
| 40>    C        1.53219         8.38061         0.60035
| 41>    C        1.47528         9.21819        -0.50027
| 42>    S        0.89183         8.37841        -1.93663
| 43>    C        1.82866        10.59571        -0.57195
| 44>    C        1.70260        11.33261        -1.72461
| 45>    C        2.04329        12.67606        -1.85750
| 46>    C        2.59233        13.43227        -0.72911
| 47>    C        2.79585        12.91431         0.50130
| 48>    S        2.44699        11.28797         0.92531
| 49>    C        2.82651        14.73925        -1.23726
| 50>    C        2.45295        14.80793        -2.58184
| 51>    C        2.67286        16.09917        -3.11377
| 52>    C        3.19179        16.94673        -2.18715
| 53>    S        3.43695        16.22694        -0.63388
| 54>    C        1.95408        13.51582        -2.98748
| 55>    C        1.44847        13.10148        -4.23739
| 56>    C        1.34471        13.85006        -5.36900
| 57>    C        0.80225        13.36572        -6.58202
| 58>    C        0.27152        12.11439        -6.86957
| 59>    C       -0.18133        12.02131        -8.18027
| 60>    C       -0.00051        13.20444        -8.91687
| 61>    S        0.73260        14.43326        -7.98070
| 62>    C       -0.50371        13.00027       -10.22559
| 63>    C       -1.00405        11.68918       -10.31442
| 64>    C       -0.81987        11.03037        -9.04015
| 65>    C       -1.17241         9.75383        -8.70372
| 66>    C       -1.79956         8.88247        -9.61670
| 67>    N       -2.31288         8.16256       -10.34807
| 68>    C       -0.93398         9.22558        -7.41924
| 69>    N       -0.74163         8.78767        -6.37595
| 70>    C       -1.53224        11.39155       -11.57389
| 71>    C       -1.44515        12.44939       -12.44830
| 72>    S       -0.68342        13.85553       -11.68934
| 73>    C       -1.88255        12.52597       -13.81753
| 74>    C       -1.66710        13.67325       -14.56353
| 75>    C       -2.07834        13.78871       -15.89190
| 76>    C       -2.72260        12.75469       -16.51724
| 77>    C       -2.96822        11.56690       -15.80547
| 78>    C       -2.55265        11.43591       -14.45327
| 79>    N       -2.80077        10.28782       -13.79418
| 80>    C       -3.41870         9.31095       -14.40520
| 81>    C       -3.83490         9.44805       -15.76316
| 82>    N       -3.60675        10.55043       -16.42515
| 83>    C       -4.54336         8.34557       -16.47683
| 84>    C       -3.66826         8.06163       -13.63019
| 85>    H       -1.91432        -1.52857        -3.32626
| 86>    H       -1.70847         0.45777        -4.81475
| 87>    H       -0.96954         2.59918        -3.91384
| 88>    H        0.45431        -0.71700         2.74531
| 89>    H       -1.21704        -0.27903         3.08283
| 90>    H       -0.03939         0.98469         2.67925
| 91>    H       -1.58856        -3.47797         0.71197
| 92>    H       -1.97721        -2.47248         2.12229
| 93>    H       -0.30103        -2.90007         1.78907
| 94>    H        0.11663         2.82626         0.65243
| 95>    H        1.86244         8.71047         1.56898
| 96>    H        1.30844        10.81016        -2.58641
| 97>    H        3.19779        13.49293         1.31794
| 98>    H        2.46607        16.40731        -4.12187
| 99>    H        3.45430        17.97841        -2.31781
|100>    H        1.10713        12.07673        -4.28097
|101>    H        1.68304        14.87427        -5.37491
|102>    H        0.21804        11.31706        -6.15212
|103>    H       -1.96946        10.45576       -11.86736
|104>    H       -1.16123        14.50972       -14.10153
|105>    H       -1.88124        14.70811       -16.42288
|106>    H       -3.05180        12.81625       -17.54207
|107>    H       -5.46518         8.08852       -15.95727
|108>    H       -3.91810         7.45465       -16.51268
|109>    H       -4.77562         8.66373       -17.48903
|110>    H       -3.25727         8.15604       -12.62868
|111>    H       -3.20718         7.20995       -14.12806
|112>    H       -4.73806         7.86904       -13.56101
|113> *
|114>
|115>                          ****END OF INPUT****

CARTESIAN COORDINATES (ANGSTROEM)
---------------------------------
  C     -1.591220   -0.569790   -2.953670
  C     -1.474420    0.528620   -3.763080
  C     -1.051500    1.753510   -3.245350
  C     -0.731600    1.922330   -1.908080
  C     -0.849250    0.788170   -1.047570
  C     -1.281140   -0.453140   -1.586880
  N     -1.399580   -1.538980   -0.792050
  C     -1.112700   -1.429420    0.477170
  C     -0.680670   -0.184140    1.024560
  N     -0.561290    0.873670    0.265580
  C     -0.349710   -0.035650    2.470720
  C     -1.254190   -2.647580    1.327040
  C     -0.295170    3.203950   -1.416650
  C      0.102560    3.546560   -0.143800
  C      0.465860    4.891700   -0.040590
  C      0.341690    5.585440   -1.255190
  S     -0.219240    4.584910   -2.515530
  C      0.739110    6.930720   -1.046960
  C      1.115890    7.085690    0.297110
  C      0.951340    5.805840    0.974450
  C      1.198760    5.526990    2.288040
  C      1.674440    6.504330    3.185820
  N      2.060990    7.298210    3.917850
  C      0.992850    4.244240    2.835140
  N      0.826440    3.206570    3.295190
  C      1.532190    8.380610    0.600350
  C      1.475280    9.218190   -0.500270
  S      0.891830    8.378410   -1.936630
  C      1.828660   10.595710   -0.571950
  C      1.702600   11.332610   -1.724610
  C      2.043290   12.676060   -1.857500
  C      2.592330   13.432270   -0.729110
  C      2.795850   12.914310    0.501300
  S      2.446990   11.287970    0.925310
  C      2.826510   14.739250   -1.237260
  C      2.452950   14.807930   -2.581840
  C      2.672860   16.099170   -3.113770
  C      3.191790   16.946730   -2.187150
  S      3.436950   16.226940   -0.633880
  C      1.954080   13.515820   -2.987480
  C      1.448470   13.101480   -4.237390
  C      1.344710   13.850060   -5.369000
  C      0.802250   13.365720   -6.582020
  C      0.271520   12.114390   -6.869570
  C     -0.181330   12.021310   -8.180270
  C     -0.000510   13.204440   -8.916870
  S      0.732600   14.433260   -7.980700
  C     -0.503710   13.000270  -10.225590
  C     -1.004050   11.689180  -10.314420
  C     -0.819870   11.030370   -9.040150
  C     -1.172410    9.753830   -8.703720
  C     -1.799560    8.882470   -9.616700
  N     -2.312880    8.162560  -10.348070
  C     -0.933980    9.225580   -7.419240
  N     -0.741630    8.787670   -6.375950
  C     -1.532240   11.391550  -11.573890
  C     -1.445150   12.449390  -12.448300
  S     -0.683420   13.855530  -11.689340
  C     -1.882550   12.525970  -13.817530
  C     -1.667100   13.673250  -14.563530
  C     -2.078340   13.788710  -15.891900
  C     -2.722600   12.754690  -16.517240
  C     -2.968220   11.566900  -15.805470
  C     -2.552650   11.435910  -14.453270
  N     -2.800770   10.287820  -13.794180
  C     -3.418700    9.310950  -14.405200
  C     -3.834900    9.448050  -15.763160
  N     -3.606750   10.550430  -16.425150
  C     -4.543360    8.345570  -16.476830
  C     -3.668260    8.061630  -13.630190
  H     -1.914320   -1.528570   -3.326260
  H     -1.708470    0.457770   -4.814750
  H     -0.969540    2.599180   -3.913840
  H      0.454310   -0.717000    2.745310
  H     -1.217040   -0.279030    3.082830
  H     -0.039390    0.984690    2.679250
  H     -1.588560   -3.477970    0.711970
  H     -1.977210   -2.472480    2.122290
  H     -0.301030   -2.900070    1.789070
  H      0.116630    2.826260    0.652430
  H      1.862440    8.710470    1.568980
  H      1.308440   10.810160   -2.586410
  H      3.197790   13.492930    1.317940
  H      2.466070   16.407310   -4.121870
  H      3.454300   17.978410   -2.317810
  H      1.107130   12.076730   -4.280970
  H      1.683040   14.874270   -5.374910
  H      0.218040   11.317060   -6.152120
  H     -1.969460   10.455760  -11.867360
  H     -1.161230   14.509720  -14.101530
  H     -1.881240   14.708110  -16.422880
  H     -3.051800   12.816250  -17.542070
  H     -5.465180    8.088520  -15.957270
  H     -3.918100    7.454650  -16.512680
  H     -4.775620    8.663730  -17.489030
  H     -3.257270    8.156040  -12.628680
  H     -3.207180    7.209950  -14.128060
  H     -4.738060    7.869040  -13.561010

 Total Charge           Charge          ....    0
 Multiplicity           Mult            ....    1
 Number of Electrons    NEL             ....  516
 Basis Dimension        Dim             .... 1144

ORBITAL ENERGIES
----------------

  NO   OCC          E(Eh)            E(eV)
   0   2.0000     -88.983140     -2421.3543
   1   2.0000     -88.975118     -2421.1361
   2   2.0000     -88.974660     -2421.1236
   3   2.0000     -88.974602     -2421.1220
   4   2.0000     -88.972159     -2421.0555
   5   2.0000     -88.955971     -2420.6150
   6   2.0000     -14.424950      -392.5228
   7   2.0000     -14.423244      -392.4764
   8   2.0000     -14.422710      -392.4619
   9   2.0000     -14.422626      -392.4596
  10   2.0000     -14.409697      -392.1078
  11   2.0000     -14.408741      -392.0818
  12   2.0000     -14.408378      -392.0719
  13   2.0000     -14.407566      -392.0498
  14   2.0000     -10.355266      -281.7811
  15   2.0000     -10.351473      -281.6779
  16   2.0000     -10.343478      -281.4604
  17   2.0000     -10.340317      -281.3743
  18   2.0000     -10.327505      -281.0257
  19   2.0000     -10.326684      -281.0034
  20   2.0000     -10.326138      -280.9885
  21   2.0000     -10.324773      -280.9514
  22   2.0000     -10.324357      -280.9400
  23   2.0000     -10.324295      -280.9383
  24   2.0000     -10.324111      -280.9333
  25   2.0000     -10.320609      -280.8380
  26   2.0000     -10.319263      -280.8014
  27   2.0000     -10.318214      -280.7729
  28   2.0000     -10.315124      -280.6888
  29   2.0000     -10.313778      -280.6522
  30   2.0000     -10.313636      -280.6483
  31   2.0000     -10.313572      -280.6466
  32   2.0000     -10.312581      -280.6196
  33   2.0000     -10.309887      -280.5463
  34   2.0000     -10.308585      -280.5109
  35   2.0000     -10.307438      -280.4797
  36   2.0000     -10.306837      -280.4633
  37   2.0000     -10.303679      -280.3774
  38   2.0000     -10.302522      -280.3459
  39   2.0000     -10.302362      -280.3415
  40   2.0000     -10.296358      -280.1782
  41   2.0000     -10.295535      -280.1557
  42   2.0000     -10.295332      -280.1502
  43   2.0000     -10.295241      -280.1477
  44   2.0000     -10.294476      -280.1269
  45   2.0000     -10.291975      -280.0589
  46   2.0000     -10.290329      -280.0141
  47   2.0000     -10.289869      -280.0016
  48   2.0000     -10.287050      -279.9249
  49   2.0000     -10.286033      -279.8972
  50   2.0000     -10.284809      -279.8639
  51   2.0000     -10.284158      -279.8462
  52   2.0000     -10.281210      -279.7659
  53   2.0000     -10.278912      -279.7034
  54   2.0000     -10.278700      -279.6976
  55   2.0000     -10.277459      -279.6639
  56   2.0000     -10.276899      -279.6486
  57   2.0000     -10.275990      -279.6239
  58   2.0000     -10.275170      -279.6016
  59   2.0000     -10.274951      -279.5956
  60   2.0000     -10.274784      -279.5911
  61   2.0000     -10.274090      -279.5722
  62   2.0000     -10.273891      -279.5668
  63   2.0000     -10.272219      -279.5213
  64   2.0000     -10.270185      -279.4660
  65   2.0000     -10.268136      -279.4102
  66   2.0000     -10.263704      -279.2896
  67   2.0000     -10.263283      -279.2781
  68   2.0000     -10.255853      -279.0759
  69   2.0000     -10.255061      -279.0544
  70   2.0000      -8.077325      -219.7952
  71   2.0000      -8.069692      -219.5875
  72   2.0000      -8.069513      -219.5826
  73   2.0000      -8.069278      -219.5762
  74   2.0000      -8.066587      -219.5030
  75   2.0000      -8.051378      -219.0891
  76   2.0000      -6.046581      -164.5358
  77   2.0000      -6.042481      -164.4243
  78   2.0000      -6.039634      -164.3468
  79   2.0000      -6.039331      -164.3385
  80   2.0000      -6.038706      -164.3216
  81   2.0000      -6.038455      -164.3147
  82   2.0000      -6.035798      -164.2424
  83   2.0000      -6.034778      -164.2147
  84   2.0000      -6.034537      -164.2081
  85   2.0000      -6.034380      -164.2038
  86   2.0000      -6.032022      -164.1397
  87   2.0000      -6.031746      -164.1321
  88   2.0000      -6.031662      -164.1299
  89   2.0000      -6.031475      -164.1248
  90   2.0000      -6.029057      -164.0590
  91   2.0000      -6.020789      -163.8340
  92   2.0000      -6.016554      -163.7188
  93   2.0000      -6.013479      -163.6351
  94   2.0000      -1.070341       -29.1255
  95   2.0000      -1.068985       -29.0886
  96   2.0000      -1.034730       -28.1564
  97   2.0000      -1.029411       -28.0117
  98   2.0000      -1.015329       -27.6285
  99   2.0000      -1.012333       -27.5470
 100   2.0000      -1.005481       -27.3605
 101   2.0000      -1.001617       -27.2554
 102   2.0000      -1.000292       -27.2193
 103   2.0000      -0.995052       -27.0767
 104   2.0000      -0.992986       -27.0205
 105   2.0000      -0.988530       -26.8993
 106   2.0000      -0.979940       -26.6655
 107   2.0000      -0.968939       -26.3662
 108   2.0000      -0.953465       -25.9451
 109   2.0000      -0.952805       -25.9271
 110   2.0000      -0.941881       -25.6299
 111   2.0000      -0.939550       -25.5665
 112   2.0000      -0.927000       -25.2250
 113   2.0000      -0.908572       -24.7235
 114   2.0000      -0.902339       -24.5539
 115   2.0000      -0.886006       -24.1094
 116   2.0000      -0.877782       -23.8857
 117   2.0000      -0.876137       -23.8409
 118   2.0000      -0.873108       -23.7585
 119   2.0000      -0.863406       -23.4945
 120   2.0000      -0.859410       -23.3857
 121   2.0000      -0.851729       -23.1767
 122   2.0000      -0.845428       -23.0053
 123   2.0000      -0.840086       -22.8599
 124   2.0000      -0.837090       -22.7784
 125   2.0000      -0.832493       -22.6533
 126   2.0000      -0.815528       -22.1917
 127   2.0000      -0.806010       -21.9326
 128   2.0000      -0.804609       -21.8945
 129   2.0000      -0.798943       -21.7403
 130   2.0000      -0.796295       -21.6683
 131   2.0000      -0.793975       -21.6052
 132   2.0000      -0.776021       -21.1166
 133   2.0000      -0.768143       -20.9022
 134   2.0000      -0.763147       -20.7663
 135   2.0000      -0.758328       -20.6352
 136   2.0000      -0.734748       -19.9935
 137   2.0000      -0.729191       -19.8423
 138   2.0000      -0.711134       -19.3509
 139   2.0000      -0.710279       -19.3277
 140   2.0000      -0.709661       -19.3109
 141   2.0000      -0.708543       -19.2804
 142   2.0000      -0.701984       -19.1020
 143   2.0000      -0.698927       -19.0188
 144   2.0000      -0.693385       -18.8680
 145   2.0000      -0.683167       -18.5899
 146   2.0000      -0.677589       -18.4381
 147   2.0000      -0.668435       -18.1890
 148   2.0000      -0.660235       -17.9659
 149   2.0000      -0.656356       -17.8604
 150   2.0000      -0.652447       -17.7540
 151   2.0000      -0.645849       -17.5745
 152   2.0000      -0.636491       -17.3198
 153   2.0000      -0.626058       -17.0359
 154   2.0000      -0.623181       -16.9576
 155   2.0000      -0.621380       -16.9086
 156   2.0000      -0.618253       -16.8235
 157   2.0000      -0.612744       -16.6736
 158   2.0000      -0.606284       -16.4978
 159   2.0000      -0.605622       -16.4798
 160   2.0000      -0.599614       -16.3163
 161   2.0000      -0.596709       -16.2373
 162   2.0000      -0.594753       -16.1841
 163   2.0000      -0.580635       -15.7999
 164   2.0000      -0.576859       -15.6971
 165   2.0000      -0.569652       -15.5010
 166   2.0000      -0.562269       -15.3001
 167   2.0000      -0.561199       -15.2710
 168   2.0000      -0.549385       -14.9495
 169   2.0000      -0.547000       -14.8846
 170   2.0000      -0.544531       -14.8175
 171   2.0000      -0.542559       -14.7638
 172   2.0000      -0.542124       -14.7520
 173   2.0000      -0.540837       -14.7169
 174   2.0000      -0.537443       -14.6246
 175   2.0000      -0.532727       -14.4962
 176   2.0000      -0.528382       -14.3780
 177   2.0000      -0.527117       -14.3436
 178   2.0000      -0.518093       -14.0980
 179   2.0000      -0.514024       -13.9873
 180   2.0000      -0.511852       -13.9282
 181   2.0000      -0.507489       -13.8095
 182   2.0000      -0.504168       -13.7191
 183   2.0000      -0.498903       -13.5758
 184   2.0000      -0.498549       -13.5662
 185   2.0000      -0.496381       -13.5072
 186   2.0000      -0.494662       -13.4604
 187   2.0000      -0.493637       -13.4325
 188   2.0000      -0.490668       -13.3518
 189   2.0000      -0.489946       -13.3321
 190   2.0000      -0.487359       -13.2617
 191   2.0000      -0.484763       -13.1911
 192   2.0000      -0.484147       -13.1743
 193   2.0000      -0.483459       -13.1556
 194   2.0000      -0.482516       -13.1299
 195   2.0000      -0.482405       -13.1269
 196   2.0000      -0.480892       -13.0857
 197   2.0000      -0.477819       -13.0021
 198   2.0000      -0.475154       -12.9296
 199   2.0000      -0.472711       -12.8631
 200   2.0000      -0.471601       -12.8329
 201   2.0000      -0.470627       -12.8064
 202   2.0000      -0.468830       -12.7575
 203   2.0000      -0.467686       -12.7264
 204   2.0000      -0.461894       -12.5688
 205   2.0000      -0.459632       -12.5072
 206   2.0000      -0.454886       -12.3781
 207   2.0000      -0.454262       -12.3611
 208   2.0000      -0.453611       -12.3434
 209   2.0000      -0.451741       -12.2925
 210   2.0000      -0.450651       -12.2628
 211   2.0000      -0.447331       -12.1725
 212   2.0000      -0.446944       -12.1620
 213   2.0000      -0.445851       -12.1322
 214   2.0000      -0.444676       -12.1003
 215   2.0000      -0.439540       -11.9605
 216   2.0000      -0.435321       -11.8457
 217   2.0000      -0.434694       -11.8286
 218   2.0000      -0.433808       -11.8045
 219   2.0000      -0.433713       -11.8019
 220   2.0000      -0.432603       -11.7717
 221   2.0000      -0.430231       -11.7072
 222   2.0000      -0.429870       -11.6974
 223   2.0000      -0.428529       -11.6609
 224   2.0000      -0.427037       -11.6203
 225   2.0000      -0.426050       -11.5934
 226   2.0000      -0.423647       -11.5280
 227   2.0000      -0.420921       -11.4538
 228   2.0000      -0.417324       -11.3560
 229   2.0000      -0.415460       -11.3052
 230   2.0000      -0.414882       -11.2895
 231   2.0000      -0.412358       -11.2208
 232   2.0000      -0.410496       -11.1702
 233   2.0000      -0.409302       -11.1377
 234   2.0000      -0.407480       -11.0881
 235   2.0000      -0.400787       -10.9060
 236   2.0000      -0.395883       -10.7725
 237   2.0000      -0.389811       -10.6073
 238   2.0000      -0.377740       -10.2788
 239   2.0000      -0.366091        -9.9618
 240   2.0000      -0.364762        -9.9257
 241   2.0000      -0.355939        -9.6856
 242   2.0000      -0.349692        -9.5156
 243   2.0000      -0.337878        -9.1941
 244   2.0000      -0.333218        -9.0673
 245   2.0000      -0.330101        -8.9825
 246   2.0000      -0.316114        -8.6019
 247   2.0000      -0.312024        -8.4906
 248   2.0000      -0.311499        -8.4763
 249   2.0000      -0.309539        -8.4230
 250   2.0000      -0.309178        -8.4132
 251   2.0000      -0.308501        -8.3947
 252   2.0000      -0.307796        -8.3755
 253   2.0000      -0.302148        -8.2219
 254   2.0000      -0.280499        -7.6328
 255   2.0000      -0.263843        -7.1795
 256   2.0000      -0.245563        -6.6821
 257   2.0000      -0.213107        -5.7989
 258   0.0000      -0.097880        -2.6634
 259   0.0000      -0.092878        -2.5274
 260   0.0000      -0.061508        -1.6737
 261   0.0000      -0.040745        -1.1087
 262   0.0000      -0.037212        -1.0126

MULLIKEN ATOMIC CHARGES
-----------------------
   0 C :    0.002793
   1 C :    0.043326
   2 C :   -0.081965
   3 C :    0.160942
   4 C :   -0.034790
   5 C :   -0.024606
   6 N :    0.011687
   7 C :   -0.189987
   8 C :   -0.154797
   9 N :   -0.012566
  10 C :    0.121301
  11 C :    0.134831
  12 C :   -0.118131
  13 C :   -0.051218
  14 C :    0.025647
  15 C :   -0.086033
  16 S :    0.162258
  17 C :   -0.091535
  18 C :    0.015224
  19 C :    0.313537
  20 C :   -0.313233
  21 C :   -0.190197
  22 N :    0.166757
  23 C :   -0.175751
  24 N :    0.181829
  25 C :   -0.058466
  26 C :   -0.068522
  27 S :    0.178415
  28 C :   -0.015182
  29 C :   -0.100250
  30 C :    0.057675
  31 C :    0.063907
  32 C :   -0.120558
  33 S :    0.131822
  34 C :   -0.116072
  35 C :    0.053709
  36 C :   -0.007244
  37 C :   -0.067867
  38 S :    0.129228
  39 C :    0.098418
  40 C :   -0.016256
  41 C :    0.041939
  42 C :   -0.069916
  43 C :   -0.056671
  44 C :    0.010642
  45 C :   -0.110847
  46 S :    0.174019
  47 C :   -0.084751
  48 C :    0.018867
  49 C :    0.320620
  50 C :   -0.321132
  51 C :   -0.180742
  52 N :    0.179360
  53 C :   -0.178536
  54 N :    0.150662
  55 C :   -0.046232
  56 C :   -0.123005
  57 S :    0.143558
  58 C :    0.164351
  59 C :   -0.081732
  60 C :    0.044981
  61 C :   -0.003167
  62 C :   -0.022097
  63 C :   -0.034427
  64 N :   -0.010906
  65 C :   -0.159877
  66 C :   -0.188154
  67 N :    0.011124
  68 C :    0.132701
  69 C :    0.124056
  70 H :   -0.028241
  71 H :   -0.008700
  72 H :   -0.007543
  73 H :    0.021949
  74 H :    0.021494
  75 H :    0.035809
  76 H :    0.024996
  77 H :    0.025604
  78 H :    0.024050
  79 H :    0.015227
  80 H :    0.016998
  81 H :   -0.003542
  82 H :    0.036733
  83 H :   -0.015610
  84 H :    0.024063
  85 H :   -0.038792
  86 H :   -0.053657
  87 H :    0.000290
  88 H :    0.012443
  89 H :   -0.014152
  90 H :   -0.012288
  91 H :   -0.029536
  92 H :    0.023631
  93 H :    0.025118
  94 H :    0.024886
  95 H :    0.035235
  96 H :    0.019402
  97 H :    0.021368
Sum of atomic charges:   -0.0000000

LOEWDIN ATOMIC CHARGES
----------------------
   0 C :   -0.014559
   1 C :   -0.018125
   2 C :   -0.027461
   3 C :   -0.037397
   4 C :   -0.006511
   5 C :   -0.013162
   6 N :   -0.046241
   7 C :   -0.004130
   8 C :    0.006622
   9 N :   -0.041218
  10 C :   -0.056085
  11 C :   -0.052748
  12 C :   -0.152926
  13 C :   -0.024309
  14 C :   -0.076848
  15 C :   -0.181595
  16 S :    0.476676
  17 C :   -0.173211
  18 C :   -0.072207
  19 C :    0.088324
  20 C :   -0.109201
  21 C :   -0.016589
  22 N :   -0.039095
  23 C :   -0.004475
  24 N :   -0.034958
  25 C :   -0.039455
  26 C :   -0.184327
  27 S :    0.486400
  28 C :   -0.177204
  29 C :   -0.035227
  30 C :   -0.016843
  31 C :   -0.050183
  32 C :   -0.139016
  33 S :    0.459499
  34 C :   -0.200523
  35 C :   -0.037533
  36 C :   -0.066821
  37 C :   -0.167025
  38 S :    0.424503
  39 C :   -0.052406
  40 C :   -0.005791
  41 C :   -0.066710
  42 C :   -0.154389
  43 C :   -0.040184
  44 C :   -0.064972
  45 C :   -0.197555
  46 S :    0.463941
  47 C :   -0.170518
  48 C :   -0.087468
  49 C :    0.091813
  50 C :   -0.115768
  51 C :   -0.004778
  52 N :   -0.039035
  53 C :   -0.012205
  54 N :   -0.052096
  55 C :   -0.022282
  56 C :   -0.159926
  57 S :    0.462321
  58 C :   -0.034984
  59 C :   -0.031822
  60 C :   -0.018734
  61 C :   -0.018071
  62 C :   -0.012819
  63 C :   -0.007231
  64 N :   -0.040481
  65 C :    0.005308
  66 C :   -0.004500
  67 N :   -0.047051
  68 C :   -0.052982
  69 C :   -0.056086
  70 H :    0.033578
  71 H :    0.032691
  72 H :    0.020330
  73 H :    0.037577
  74 H :    0.037453
  75 H :    0.037906
  76 H :    0.038027
  77 H :    0.038054
  78 H :    0.037665
  79 H :    0.034745
  80 H :    0.034203
  81 H :    0.026291
  82 H :    0.037148
  83 H :    0.027381
  84 H :    0.023166
  85 H :    0.027177
  86 H :    0.022785
  87 H :    0.034708
  88 H :    0.034297
  89 H :    0.018290
  90 H :    0.031381
  91 H :    0.032932
  92 H :    0.037367
  93 H :    0.037794
  94 H :    0.037821
  95 H :    0.037945
  96 H :    0.036659
  97 H :    0.037268

  Mayer bond orders larger than 0.100000
B(  0-C ,  1-C ) :   1.4252 B(  0-C ,  3-C ) :   0.1079 B(  0-C ,  5-C ) :   1.2632
B(  0-C , 70-H ) :   1.0085 B(  1-C ,  2-C ) :   1.2729 B(  1-C , 71-H ) :   0.9857
B(  2-C ,  3-C ) :   1.4323 B(  2-C , 72-H ) :   0.9884 B(  3-C ,  4-C ) :   1.2089
B(  3-C , 12-C ) :   1.0911 B(  4-C ,  5-C ) :   1.2628 B(  4-C ,  9-N ) :   1.4344
B(  5-C ,  6-N ) :   1.3889 B(  6-N ,  7-C ) :   1.7257 B(  7-C ,  8-C ) :   1.1612
B(  7-C , 11-C ) :   1.0955 B(  8-C ,  9-N ) :   1.6736 B(  8-C , 10-C ) :   1.0918
B( 10-C , 73-H ) :   0.9358 B( 10-C , 74-H ) :   0.9352 B( 10-C , 75-H ) :   0.9324
B( 11-C , 76-H ) :   0.9411 B( 11-C , 77-H ) :   0.9409 B( 11-C , 78-H ) :   0.9407
B( 12-C , 13-C ) :   1.5085 B( 12-C , 16-S ) :   1.0909 B( 13-C , 14-C ) :   1.2060
B( 13-C , 79-H ) :   0.9796 B( 14-C , 15-C ) :   1.4394 B( 14-C , 19-C ) :   1.0076
B( 15-C , 16-S ) :   1.1304 B( 15-C , 17-C ) :   1.1737 B( 17-C , 18-C ) :   1.4463
B( 17-C , 27-S ) :   1.1320 B( 18-C , 19-C ) :   0.9900 B( 18-C , 25-C ) :   1.3030
B( 19-C , 20-C ) :   1.7029 B( 20-C , 21-C ) :   1.1320 B( 20-C , 23-C ) :   1.1389
B( 21-C , 22-N ) :   2.9907 B( 23-C , 24-N ) :   2.9860 B( 25-C , 26-C ) :   1.4564
B( 25-C , 80-H ) :   0.9806 B( 26-C , 27-S ) :   1.1015 B( 26-C , 28-C ) :   1.1650
B( 28-C , 29-C ) :   1.5307 B( 28-C , 33-S ) :   1.0561 B( 29-C , 30-C ) :   1.2512
B( 29-C , 81-H ) :   0.9580 B( 30-C , 31-C ) :   1.0519 B( 30-C , 39-C ) :   1.3715
B( 31-C , 32-C ) :   1.6148 B( 31-C , 34-C ) :   1.1733 B( 32-C , 33-S ) :   1.1346
B( 32-C , 82-H ) :   0.9390 B( 34-C , 35-C ) :   1.4573 B( 34-C , 38-S ) :   1.0790
B( 35-C , 36-C ) :   1.2136 B( 35-C , 39-C ) :   1.0665 B( 36-C , 37-C ) :   1.5871
B( 36-C , 83-H ) :   1.0001 B( 37-C , 38-S ) :   1.1575 B( 37-C , 84-H ) :   0.9643
B( 39-C , 40-C ) :   1.1956 B( 40-C , 41-C ) :   1.6255 B( 40-C , 85-H ) :   0.9548
B( 41-C , 42-C ) :   1.1314 B( 41-C , 86-H ) :   0.9650 B( 42-C , 43-C ) :   1.4378
B( 42-C , 46-S ) :   1.1103 B( 43-C , 44-C ) :   1.3076 B( 43-C , 87-H ) :   0.9882
B( 44-C , 45-C ) :   1.4406 B( 44-C , 49-C ) :   0.9863 B( 45-C , 46-S ) :   1.1050
B( 45-C , 47-C ) :   1.1870 B( 47-C , 48-C ) :   1.4339 B( 47-C , 57-S ) :   1.1341
B( 48-C , 49-C ) :   1.0156 B( 48-C , 55-C ) :   1.2009 B( 49-C , 50-C ) :   1.6929
B( 50-C , 51-C ) :   1.1412 B( 50-C , 53-C ) :   1.1363 B( 51-C , 52-N ) :   2.9868
B( 53-C , 54-N ) :   2.9778 B( 55-C , 56-C ) :   1.5202 B( 55-C , 88-H ) :   0.9780
B( 56-C , 57-S ) :   1.0746 B( 56-C , 58-C ) :   1.0948 B( 58-C , 59-C ) :   1.4338
B( 58-C , 61-C ) :   0.1078 B( 58-C , 63-C ) :   1.2059 B( 59-C , 60-C ) :   1.2720
B( 59-C , 89-H ) :   0.9867 B( 60-C , 61-C ) :   1.4284 B( 60-C , 90-H ) :   0.9848
B( 61-C , 62-C ) :   1.2600 B( 61-C , 91-H ) :   1.0081 B( 62-C , 63-C ) :   1.2633
B( 62-C , 67-N ) :   1.3900 B( 63-C , 64-N ) :   1.4347 B( 64-N , 65-C ) :   1.6754
B( 65-C , 66-C ) :   1.1619 B( 65-C , 69-C ) :   1.0924 B( 66-C , 67-N ) :   1.7251
B( 66-C , 68-C ) :   1.0959 B( 68-C , 92-H ) :   0.9409 B( 68-C , 93-H ) :   0.9411
B( 68-C , 94-H ) :   0.9414 B( 69-C , 95-H ) :   0.9319 B( 69-C , 96-H ) :   0.9354
B( 69-C , 97-H ) :   0.9353

-----------------------------------------------------------------------------
         ABSORPTION SPECTRUM VIA TRANSITION ELECTRIC DIPOLE MOMENTS
-----------------------------------------------------------------------------
State   Energy  Wavelength   fosc         T2         TX        TY        TZ
        (cm-1)    (nm)                  (au**2)     (au)      (au)      (au)
-----------------------------------------------------------------------------
   0    9222.6   1084.3   0.156188193   5.57534   0.58292  -0.57749   2.21406
   1   10414.3    960.2   0.101707428   3.21513   0.39816   1.73872  -0.18295
   2   16298.5    613.6   0.061235672   1.23690  -0.33234  -0.01323  -1.06126
   3   17667.6    566.0   0.696018762  12.96936   0.26554  -2.26483   2.78736
   4   18841.5    530.7   0.178299879   3.11538   0.27109  -0.86852   1.51247
   5   22219.8    450.0   0.331819971   4.91628  -0.31836   1.15218  -1.86746
   6   23865.9    419.0   0.321518146   4.43509  -0.80359  -1.14582  -1.57366
   7   24286.0    411.8   0.204486610   2.77195   0.64910   1.14040   1.02475
   8   25089.6    398.6   0.787843992  10.33765  -1.27250  -1.86395  -2.29000
   9   26098.0    383.2   0.158407193   1.99822  -0.50727  -1.09805  -0.73157
  10   26746.0    373.9   0.155711556   1.91662  -0.42850  -1.25237  -0.40569
  11   27113.3    368.8   0.103453102   1.25614  -0.35417  -0.93521  -0.50604
  12   28559.7    350.1   0.005702251   0.06573   0.11202   0.15828   0.16772
  13   28972.5    345.2   0.130326075   1.48088  -0.46807  -0.35856  -1.06453
  14   29528.6    338.7   0.004228456   0.04714   0.12984   0.17302  -0.01863
  15   29744.2    336.2   0.141502502   1.56616  -0.27748  -1.20946  -0.16243
  16   30121.8    332.0   0.246638680   2.69560   0.22832   1.44232  -0.75045
  17   30264.9    330.4   0.029827546   0.32446  -0.25648  -0.37539  -0.34316
  18   30472.4    328.2   0.002129829   0.02301   0.10518   0.09933  -0.04561
  19   31162.1    320.9   0.064181911   0.67805  -0.27781  -0.17361  -0.75547
  20   31711.9    315.3   0.351317129   3.64714  -0.19901   0.92506  -1.65886
  21   31874.7    313.7   0.522433217   5.39586   0.44636  -0.32955   2.25566
  22   32158.0    311.0   0.040047436   0.40998  -0.30728  -0.48624  -0.28131
  23   32194.2    310.6   0.531068817   5.43061   0.66639   2.22489  -0.19076
  24   32506.4    307.6   0.052296787   0.52964   0.14739   0.70887  -0.07361
  25   32544.2    307.3   0.008134539   0.08229  -0.24863  -0.13875  -0.03493
  26   32718.3    305.6   0.281882780   2.83631   0.54017   0.21684   1.58035
  27   33315.9    300.2   0.031748609   0.31373  -0.21721  -0.33711  -0.39102
  28   33375.4    299.6   0.005538968   0.05464   0.17660  -0.09966   0.11626
  29   33639.0    297.3   0.068982367   0.67510  -0.30395  -0.70712  -0.28758
  30   34367.0    291.0   0.695093132   6.65850   0.55209   2.47299  -0.48788
  31   34898.0    286.5   0.004776223   0.04506   0.08634   0.12040   0.15200
  32   35868.0    278.8   0.009428956   0.08654   0.12224   0.26757  -0.00229
  33   36193.4    276.3   0.083407168   0.75866  -0.07484   0.42859  -0.75457
  34   36226.6    276.0   0.016333359   0.14843  -0.04211  -0.36765   0.10719
  35   36357.2    275.0   0.006682398   0.06051   0.05757   0.04423   0.23503
  36   36478.5    274.1   0.016054024   0.14488  -0.11095   0.07600  -0.35609
  37   37271.9    268.3   0.134463451   1.18768  -0.31570  -1.01766  -0.22885
  38   37559.1    266.2   0.032870082   0.28811   0.15399   0.38450   0.34141
  39   37930.6    263.6   0.043641316   0.37878  -0.25425  -0.18927  -0.52755
  40   37998.9    263.2   0.039415997   0.34149   0.09585  -0.30083   0.49173
  41   38398.4    260.4   0.008606319   0.07379   0.07525   0.26040   0.01781
  42   38659.6    258.7   0.089832989   0.76499   0.29043   0.82311  -0.05593
  43   38743.3    258.1   0.001193935   0.01015  -0.04956  -0.08635   0.01527
  44   39061.6    256.0   0.077758045   0.65535  -0.31414  -0.23113  -0.70940
  45   39112.4    255.7   0.000584123   0.00492   0.03061  -0.01206   0.06192
  46   39377.0    254.0   0.021277681   0.17789  -0.18051  -0.29380  -0.24288
  47   39403.2    253.8   0.002511100   0.02098   0.07183   0.12491   0.01476
  48   39528.0    253.0   0.023354562   0.19451  -0.13945  -0.41411   0.05980
  49   39622.7    252.4   0.014036405   0.11662   0.07343   0.30535  -0.13413
  50   39738.7    251.6   0.002424410   0.02008   0.01770   0.13015   0.05322
  51   39946.1    250.3   0.004985377   0.04109   0.07403   0.08873   0.16653
  52   40009.1    249.9   0.058076190   0.47788  -0.13372  -0.63226   0.24545

FINAL SINGLE POINT ENERGY     -4973.854772372535

DIPOLE MOMENT
-------------
                                X             Y             Z
Electronic contribution:     24.16149      44.97371      28.47111
Nuclear contribution   :    -24.10884     -44.06577     -29.62621
                        -----------------------------------------
Total Dipole Moment    :      0.05265       0.90793      -1.15510
                        -----------------------------------------
Magnitude (a.u.)       :      1.47016
Magnitude (Debye)      :      3.73685

Rotational constants in cm-1:     0.000839     0.000373     0.000258
Rotational constants in MHz :    25.145194    11.179235     7.748758

                             ****ORCA TERMINATED NORMALLY****
TOTAL RUN TIME: 0 days 0 hours 9 minutes 8 seconds 70 msec
