                         Program Version 4.2.0 -  RELEASE  -
|  1> # ORCA input file
|  2> # SCF done       -186.542236028800          0.000302655259
|  3> ! CAM-B3LYP def2-SVP def2/J RIJCOSX Grid4 TightSCF
|  4> %maxcore 5000
|  5> %tddft
|  6>     Mode sTDDFT
|  7>     Ethresh 5.0
|  8>     maxcore 5000
|  9> end
| 10>
| 11> %pal
| 12>   nprocs 6
| 13>   end
| 14> * xyz 0 1
| 15>    C        0.12819         1.65832        -0.36447
| 16>    C       -1.17252         1.27452        -0.59382
| 17>    N       -2.16825         2.24605        -0.87854
| 18>    O       -1.85173         3.41485        -0.75311
| 19>    O       -3.26778         1.87321        -1.23752
| 20>    C       -1.37569        -0.13522        -0.52099
| 21>    C       -2.71107        -0.78328        -0.60740
| 22>    C       -0.19074        -0.78393        -0.25675
| 23>    S        1.13266         0.33846        -0.03405
| 24>    C        0.09570        -2.19286        -0.15755
| 25>    C        1.09609        -2.65673         0.71732
| 26>    C        1.42163        -4.05805         0.85097
| 27>    N        2.43888        -4.42012         1.65149
| 28>    C        3.08293        -3.50866         2.33675
| 29>    C        2.70867        -2.12636         2.26069
| 30>    N        1.74949        -1.74394         1.45679
| 31>    C        3.38140        -1.16201         3.04992
| 32>    N        3.94716        -0.41251         3.70645
| 33>    C        4.16131        -3.90596         3.16481
| 34>    N        5.03168        -4.19649         3.85123
| 35>    C        0.74932        -5.05410         0.11274
| 36>    C       -0.19861        -4.58175        -0.81551
| 37>    C       -0.51959        -3.17451        -0.95238
| 38>    N       -1.41178        -2.96325        -1.92354
| 39>    S       -1.83295        -4.36919        -2.56694
| 40>    N       -0.90696        -5.32536        -1.67249
| 41>    C        1.03718        -6.46972         0.26869
| 42>    C        0.94944        -7.32695        -0.83865
| 43>    C        1.21873        -8.66214        -0.68302
| 44>    C        1.58076        -9.18354         0.57144
| 45>    C        1.65718        -8.34559         1.67651
| 46>    C        1.38380        -7.00312         1.51827
| 47>    C        1.82571       -10.59871         0.42473
| 48>    C        1.59891       -10.95900        -0.91835
| 49>    C        1.14281        -9.76159        -1.72025
| 50>    C       -0.34077        -9.87250        -2.14417
| 51>    C       -0.68999       -11.04604        -3.04994
| 52>    C        2.05900        -9.48750        -2.92200
| 53>    C        3.50470        -9.24344        -2.50393
| 54>    C        1.82284       -12.24706        -1.33224
| 55>    C        2.25616       -13.21973        -0.41242
| 56>    C        2.45652       -12.84564         0.92535
| 57>    C        2.25051       -11.54934         1.34528
| 58>    C        2.45258       -14.56069        -0.88891
| 59>    C        3.10433       -15.56063        -0.24636
| 60>    C        3.25557       -16.87597        -0.74746
| 61>    S        4.63415       -17.81018        -0.27026
| 62>    C        4.27135       -19.10803        -1.37896
| 63>    C        3.02741       -18.86852        -2.00503
| 64>    C        2.46151       -17.60696        -1.65320
| 65>    C        1.18734       -17.26902        -2.13236
| 66>    C        0.49245       -18.11857        -2.96554
| 67>    C       -0.83534       -17.74281        -3.44653
| 68>    C       -1.22459       -16.49811        -3.69020
| 69>    C        1.05285       -19.38066        -3.30857
| 70>    C        0.29597       -20.33290        -4.18339
| 71>    C        2.28474       -19.73753        -2.82023
| 72>    C        5.22680       -20.11863        -1.53597
| 73>    C        5.33373       -20.99497        -2.59005
| 74>    C        6.34395       -21.95319        -2.67553
| 75>    C        6.54279       -22.79648        -3.74978
| 76>    C        5.81685       -22.90054        -4.95860
| 77>    C        6.30093       -23.83303        -5.82581
| 78>    C        7.44061       -24.52339        -5.35332
| 79>    S        7.86929       -23.94645        -3.75672
| 80>    C        8.16058       -25.50508        -6.00061
| 81>    C        7.91427       -26.04094        -7.29356
| 82>    C        8.79416       -26.99303        -7.67976
| 83>    C        9.81131       -27.28529        -6.71257
| 84>    S        9.56483       -26.26618        -5.28505
| 85>    C       10.81212       -28.17173        -6.81373
| 86>    H        0.49893         2.66450        -0.36481
| 87>    H       -3.46265        -0.15582        -0.13397
| 88>    H       -2.69649        -1.75748        -0.12834
| 89>    H       -3.00048        -0.91124        -1.64901
| 90>    H        0.68999        -6.92294        -1.80342
| 91>    H        1.91710        -8.73636         2.64870
| 92>    H        1.41666        -6.35277         2.37722
| 93>    H       -0.61029        -8.94002        -2.64452
| 94>    H       -0.94354        -9.94198        -1.23485
| 95>    H       -0.09558       -11.03724        -3.95983
| 96>    H       -1.73862       -10.98161        -3.33276
| 97>    H       -0.53839       -11.99101        -2.53533
| 98>    H        1.68250        -8.61390        -3.45803
| 99>    H        2.02514       -10.34006        -3.60176
|100>    H        3.57511        -8.37972        -1.84671
|101>    H        4.12340        -9.06114        -3.37973
|102>    H        3.90228       -10.10756        -1.97582
|103>    H        1.69657       -12.52989        -2.36705
|104>    H        2.77083       -13.58955         1.64120
|105>    H        2.41968       -11.27531         2.37586
|106>    H        2.08169       -14.75171        -1.88692
|107>    H        3.62537       -15.35215         0.67879
|108>    H        0.71591       -16.36204        -1.79110
|109>    H       -1.52862       -18.55470        -3.61750
|110>    H       -0.56451       -15.65505        -3.57216
|111>    H       -2.21906       -16.27582        -4.03693
|112>    H        0.01714       -19.85441        -5.12119
|113>    H       -0.61751       -20.66560        -3.69020
|114>    H        0.89872       -21.21022        -4.40537
|115>    H        2.66595       -20.72393        -3.03080
|116>    H        6.00144       -20.15259        -0.77905
|117>    H        4.64640       -20.90911        -3.41615
|118>    H        7.03137       -22.03855        -1.84442
|119>    H        4.95981       -22.28480        -5.16467
|120>    H        5.87108       -24.03907        -6.78963
|121>    H        7.09061       -25.69867        -7.89463
|122>    H        8.76839       -27.50947        -8.62274
|123>    H       10.92667       -28.77071        -7.69980
|124>    H       11.52601       -28.31162        -6.02304
|125> *
|126>
|127>                          ****END OF INPUT****

CARTESIAN COORDINATES (ANGSTROEM)
---------------------------------
  C      0.128190    1.658320   -0.364470
  C     -1.172520    1.274520   -0.593820
  N     -2.168250    2.246050   -0.878540
  O     -1.851730    3.414850   -0.753110
  O     -3.267780    1.873210   -1.237520
  C     -1.375690   -0.135220   -0.520990
  C     -2.711070   -0.783280   -0.607400
  C     -0.190740   -0.783930   -0.256750
  S      1.132660    0.338460   -0.034050
  C      0.095700   -2.192860   -0.157550
  C      1.096090   -2.656730    0.717320
  C      1.421630   -4.058050    0.850970
  N      2.438880   -4.420120    1.651490
  C      3.082930   -3.508660    2.336750
  C      2.708670   -2.126360    2.260690
  N      1.749490   -1.743940    1.456790
  C      3.381400   -1.162010    3.049920
  N      3.947160   -0.412510    3.706450
  C      4.161310   -3.905960    3.164810
  N      5.031680   -4.196490    3.851230
  C      0.749320   -5.054100    0.112740
  C     -0.198610   -4.581750   -0.815510
  C     -0.519590   -3.174510   -0.952380
  N     -1.411780   -2.963250   -1.923540
  S     -1.832950   -4.369190   -2.566940
  N     -0.906960   -5.325360   -1.672490
  C      1.037180   -6.469720    0.268690
  C      0.949440   -7.326950   -0.838650
  C      1.218730   -8.662140   -0.683020
  C      1.580760   -9.183540    0.571440
  C      1.657180   -8.345590    1.676510
  C      1.383800   -7.003120    1.518270
  C      1.825710  -10.598710    0.424730
  C      1.598910  -10.959000   -0.918350
  C      1.142810   -9.761590   -1.720250
  C     -0.340770   -9.872500   -2.144170
  C     -0.689990  -11.046040   -3.049940
  C      2.059000   -9.487500   -2.922000
  C      3.504700   -9.243440   -2.503930
  C      1.822840  -12.247060   -1.332240
  C      2.256160  -13.219730   -0.412420
  C      2.456520  -12.845640    0.925350
  C      2.250510  -11.549340    1.345280
  C      2.452580  -14.560690   -0.888910
  C      3.104330  -15.560630   -0.246360
  C      3.255570  -16.875970   -0.747460
  S      4.634150  -17.810180   -0.270260
  C      4.271350  -19.108030   -1.378960
  C      3.027410  -18.868520   -2.005030
  C      2.461510  -17.606960   -1.653200
  C      1.187340  -17.269020   -2.132360
  C      0.492450  -18.118570   -2.965540
  C     -0.835340  -17.742810   -3.446530
  C     -1.224590  -16.498110   -3.690200
  C      1.052850  -19.380660   -3.308570
  C      0.295970  -20.332900   -4.183390
  C      2.284740  -19.737530   -2.820230
  C      5.226800  -20.118630   -1.535970
  C      5.333730  -20.994970   -2.590050
  C      6.343950  -21.953190   -2.675530
  C      6.542790  -22.796480   -3.749780
  C      5.816850  -22.900540   -4.958600
  C      6.300930  -23.833030   -5.825810
  C      7.440610  -24.523390   -5.353320
  S      7.869290  -23.946450   -3.756720
  C      8.160580  -25.505080   -6.000610
  C      7.914270  -26.040940   -7.293560
  C      8.794160  -26.993030   -7.679760
  C      9.811310  -27.285290   -6.712570
  S      9.564830  -26.266180   -5.285050
  C     10.812120  -28.171730   -6.813730
  H      0.498930    2.664500   -0.364810
  H     -3.462650   -0.155820   -0.133970
  H     -2.696490   -1.757480   -0.128340
  H     -3.000480   -0.911240   -1.649010
  H      0.689990   -6.922940   -1.803420
  H      1.917100   -8.736360    2.648700
  H      1.416660   -6.352770    2.377220
  H     -0.610290   -8.940020   -2.644520
  H     -0.943540   -9.941980   -1.234850
  H     -0.095580  -11.037240   -3.959830
  H     -1.738620  -10.981610   -3.332760
  H     -0.538390  -11.991010   -2.535330
  H      1.682500   -8.613900   -3.458030
  H      2.025140  -10.340060   -3.601760
  H      3.575110   -8.379720   -1.846710
  H      4.123400   -9.061140   -3.379730
  H      3.902280  -10.107560   -1.975820
  H      1.696570  -12.529890   -2.367050
  H      2.770830  -13.589550    1.641200
  H      2.419680  -11.275310    2.375860
  H      2.081690  -14.751710   -1.886920
  H      3.625370  -15.352150    0.678790
  H      0.715910  -16.362040   -1.791100
  H     -1.528620  -18.554700   -3.617500
  H     -0.564510  -15.655050   -3.572160
  H     -2.219060  -16.275820   -4.036930
  H      0.017140  -19.854410   -5.121190
  H     -0.617510  -20.665600   -3.690200
  H      0.898720  -21.210220   -4.405370
  H      2.665950  -20.723930   -3.030800
  H      6.001440  -20.152590   -0.779050
  H      4.646400  -20.909110   -3.416150
  H      7.031370  -22.038550   -1.844420
  H      4.959810  -22.284800   -5.164670
  H      5.871080  -24.039070   -6.789630
  H      7.090610  -25.698670   -7.894630
  H      8.768390  -27.509470   -8.622740
  H     10.926670  -28.770710   -7.699800
  H     11.526010  -28.311620   -6.023040

 Total Charge           Charge          ....    0
 Multiplicity           Mult            ....    1
 Number of Electrons    NEL             ....  526
 Basis Dimension        Dim             .... 1209

ORBITAL ENERGIES
----------------

  NO   OCC          E(Eh)            E(eV)
   0   2.0000     -89.055100     -2423.3125
   1   2.0000     -88.976343     -2421.1694
   2   2.0000     -88.958427     -2420.6819
   3   2.0000     -88.937053     -2420.1002
   4   2.0000     -88.933893     -2420.0143
   5   2.0000     -19.234960      -523.4099
   6   2.0000     -19.231259      -523.3092
   7   2.0000     -14.642511      -398.4430
   8   2.0000     -14.468957      -393.7203
   9   2.0000     -14.466622      -393.6568
  10   2.0000     -14.461177      -393.5086
  11   2.0000     -14.459693      -393.4683
  12   2.0000     -14.435487      -392.8096
  13   2.0000     -14.432187      -392.7198
  14   2.0000     -10.389027      -282.6998
  15   2.0000     -10.384966      -282.5893
  16   2.0000     -10.354530      -281.7611
  17   2.0000     -10.352904      -281.7168
  18   2.0000     -10.351183      -281.6700
  19   2.0000     -10.350151      -281.6419
  20   2.0000     -10.328313      -281.0477
  21   2.0000     -10.326732      -281.0047
  22   2.0000     -10.325501      -280.9712
  23   2.0000     -10.324251      -280.9371
  24   2.0000     -10.322288      -280.8837
  25   2.0000     -10.317316      -280.7484
  26   2.0000     -10.317091      -280.7423
  27   2.0000     -10.306532      -280.4550
  28   2.0000     -10.304726      -280.4058
  29   2.0000     -10.303953      -280.3848
  30   2.0000     -10.302090      -280.3341
  31   2.0000     -10.301140      -280.3083
  32   2.0000     -10.299668      -280.2682
  33   2.0000     -10.299292      -280.2580
  34   2.0000     -10.290624      -280.0221
  35   2.0000     -10.285304      -279.8774
  36   2.0000     -10.284751      -279.8623
  37   2.0000     -10.281445      -279.7723
  38   2.0000     -10.281397      -279.7710
  39   2.0000     -10.280365      -279.7429
  40   2.0000     -10.279913      -279.7306
  41   2.0000     -10.279792      -279.7274
  42   2.0000     -10.278459      -279.6911
  43   2.0000     -10.278127      -279.6820
  44   2.0000     -10.277106      -279.6543
  45   2.0000     -10.277055      -279.6529
  46   2.0000     -10.276771      -279.6452
  47   2.0000     -10.276535      -279.6387
  48   2.0000     -10.274750      -279.5902
  49   2.0000     -10.274346      -279.5792
  50   2.0000     -10.274243      -279.5764
  51   2.0000     -10.274133      -279.5734
  52   2.0000     -10.273507      -279.5563
  53   2.0000     -10.272795      -279.5370
  54   2.0000     -10.272470      -279.5281
  55   2.0000     -10.272391      -279.5260
  56   2.0000     -10.272146      -279.5193
  57   2.0000     -10.271382      -279.4985
  58   2.0000     -10.270432      -279.4727
  59   2.0000     -10.270104      -279.4637
  60   2.0000     -10.269937      -279.4592
  61   2.0000     -10.269529      -279.4481
  62   2.0000     -10.266994      -279.3791
  63   2.0000     -10.266510      -279.3659
  64   2.0000     -10.265936      -279.3503
  65   2.0000     -10.265451      -279.3371
  66   2.0000     -10.265404      -279.3358
  67   2.0000     -10.264799      -279.3194
  68   2.0000     -10.263695      -279.2894
  69   2.0000     -10.255557      -279.0679
  70   2.0000     -10.248777      -278.8834
  71   2.0000      -8.146147      -221.6679
  72   2.0000      -8.071170      -219.6277
  73   2.0000      -8.053912      -219.1581
  74   2.0000      -8.033517      -218.6031
  75   2.0000      -8.030698      -218.5264
  76   2.0000      -6.117085      -166.4543
  77   2.0000      -6.109321      -166.2431
  78   2.0000      -6.109278      -166.2419
  79   2.0000      -6.040356      -164.3664
  80   2.0000      -6.035800      -164.2425
  81   2.0000      -6.033856      -164.1896
  82   2.0000      -6.022819      -163.8892
  83   2.0000      -6.018897      -163.7825
  84   2.0000      -6.016652      -163.7214
  85   2.0000      -6.003291      -163.3579
  86   2.0000      -6.000506      -163.2821
  87   2.0000      -5.999312      -163.2496
  88   2.0000      -5.996628      -163.1765
  89   2.0000      -5.994308      -163.1134
  90   2.0000      -5.991201      -163.0289
  91   2.0000      -1.314249       -35.7625
  92   2.0000      -1.149610       -31.2825
  93   2.0000      -1.131374       -30.7862
  94   2.0000      -1.126898       -30.6644
  95   2.0000      -1.054386       -28.6913
  96   2.0000      -1.019792       -27.7499
  97   2.0000      -1.011877       -27.5346
  98   2.0000      -1.006965       -27.4009
  99   2.0000      -1.001973       -27.2651
 100   2.0000      -0.991102       -26.9693
 101   2.0000      -0.990138       -26.9430
 102   2.0000      -0.987594       -26.8738
 103   2.0000      -0.981845       -26.7174
 104   2.0000      -0.964863       -26.2553
 105   2.0000      -0.948060       -25.7980
 106   2.0000      -0.939976       -25.5780
 107   2.0000      -0.925243       -25.1771
 108   2.0000      -0.914070       -24.8731
 109   2.0000      -0.909481       -24.7482
 110   2.0000      -0.907676       -24.6991
 111   2.0000      -0.893965       -24.3260
 112   2.0000      -0.889233       -24.1973
 113   2.0000      -0.877340       -23.8736
 114   2.0000      -0.872034       -23.7293
 115   2.0000      -0.867124       -23.5956
 116   2.0000      -0.858689       -23.3661
 117   2.0000      -0.854833       -23.2612
 118   2.0000      -0.842853       -22.9352
 119   2.0000      -0.840354       -22.8672
 120   2.0000      -0.839586       -22.8463
 121   2.0000      -0.838570       -22.8186
 122   2.0000      -0.836729       -22.7686
 123   2.0000      -0.833735       -22.6871
 124   2.0000      -0.823409       -22.4061
 125   2.0000      -0.811396       -22.0792
 126   2.0000      -0.808698       -22.0058
 127   2.0000      -0.804131       -21.8815
 128   2.0000      -0.790702       -21.5161
 129   2.0000      -0.777572       -21.1588
 130   2.0000      -0.772399       -21.0181
 131   2.0000      -0.767347       -20.8806
 132   2.0000      -0.760121       -20.6839
 133   2.0000      -0.754255       -20.5243
 134   2.0000      -0.745476       -20.2854
 135   2.0000      -0.733935       -19.9714
 136   2.0000      -0.720221       -19.5982
 137   2.0000      -0.717717       -19.5301
 138   2.0000      -0.714895       -19.4533
 139   2.0000      -0.706980       -19.2379
 140   2.0000      -0.699863       -19.0442
 141   2.0000      -0.697480       -18.9794
 142   2.0000      -0.693494       -18.8709
 143   2.0000      -0.680966       -18.5300
 144   2.0000      -0.679248       -18.4833
 145   2.0000      -0.675381       -18.3781
 146   2.0000      -0.671909       -18.2836
 147   2.0000      -0.662929       -18.0392
 148   2.0000      -0.657229       -17.8841
 149   2.0000      -0.650965       -17.7137
 150   2.0000      -0.645303       -17.5596
 151   2.0000      -0.635597       -17.2955
 152   2.0000      -0.634745       -17.2723
 153   2.0000      -0.630613       -17.1599
 154   2.0000      -0.629290       -17.1239
 155   2.0000      -0.625161       -17.0115
 156   2.0000      -0.623100       -16.9554
 157   2.0000      -0.617830       -16.8120
 158   2.0000      -0.612802       -16.6752
 159   2.0000      -0.607296       -16.5254
 160   2.0000      -0.603208       -16.4141
 161   2.0000      -0.598077       -16.2745
 162   2.0000      -0.594162       -16.1680
 163   2.0000      -0.592537       -16.1237
 164   2.0000      -0.588182       -16.0053
 165   2.0000      -0.586900       -15.9704
 166   2.0000      -0.577489       -15.7143
 167   2.0000      -0.570498       -15.5240
 168   2.0000      -0.565502       -15.3881
 169   2.0000      -0.564028       -15.3480
 170   2.0000      -0.563095       -15.3226
 171   2.0000      -0.550456       -14.9787
 172   2.0000      -0.547595       -14.9008
 173   2.0000      -0.545822       -14.8526
 174   2.0000      -0.543720       -14.7954
 175   2.0000      -0.538709       -14.6590
 176   2.0000      -0.536826       -14.6078
 177   2.0000      -0.532668       -14.4946
 178   2.0000      -0.530041       -14.4231
 179   2.0000      -0.527508       -14.3542
 180   2.0000      -0.525729       -14.3058
 181   2.0000      -0.520654       -14.1677
 182   2.0000      -0.517341       -14.0776
 183   2.0000      -0.516485       -14.0543
 184   2.0000      -0.513090       -13.9619
 185   2.0000      -0.509176       -13.8554
 186   2.0000      -0.507325       -13.8050
 187   2.0000      -0.506399       -13.7798
 188   2.0000      -0.502613       -13.6768
 189   2.0000      -0.501368       -13.6429
 190   2.0000      -0.499631       -13.5956
 191   2.0000      -0.495448       -13.4818
 192   2.0000      -0.494076       -13.4445
 193   2.0000      -0.493632       -13.4324
 194   2.0000      -0.490254       -13.3405
 195   2.0000      -0.486409       -13.2359
 196   2.0000      -0.486325       -13.2336
 197   2.0000      -0.484369       -13.1803
 198   2.0000      -0.483390       -13.1537
 199   2.0000      -0.481663       -13.1067
 200   2.0000      -0.477379       -12.9902
 201   2.0000      -0.474440       -12.9102
 202   2.0000      -0.472244       -12.8504
 203   2.0000      -0.467342       -12.7170
 204   2.0000      -0.463588       -12.6149
 205   2.0000      -0.462529       -12.5860
 206   2.0000      -0.461665       -12.5625
 207   2.0000      -0.460316       -12.5258
 208   2.0000      -0.459729       -12.5098
 209   2.0000      -0.457864       -12.4591
 210   2.0000      -0.456767       -12.4293
 211   2.0000      -0.455708       -12.4004
 212   2.0000      -0.454075       -12.3560
 213   2.0000      -0.451816       -12.2945
 214   2.0000      -0.448108       -12.1937
 215   2.0000      -0.447644       -12.1810
 216   2.0000      -0.445781       -12.1303
 217   2.0000      -0.444641       -12.0993
 218   2.0000      -0.440797       -11.9947
 219   2.0000      -0.437234       -11.8977
 220   2.0000      -0.436534       -11.8787
 221   2.0000      -0.434295       -11.8178
 222   2.0000      -0.432264       -11.7625
 223   2.0000      -0.425315       -11.5734
 224   2.0000      -0.422329       -11.4922
 225   2.0000      -0.421292       -11.4639
 226   2.0000      -0.420088       -11.4312
 227   2.0000      -0.419267       -11.4088
 228   2.0000      -0.417411       -11.3583
 229   2.0000      -0.415841       -11.3156
 230   2.0000      -0.415382       -11.3031
 231   2.0000      -0.412522       -11.2253
 232   2.0000      -0.410986       -11.1835
 233   2.0000      -0.409949       -11.1553
 234   2.0000      -0.408261       -11.1093
 235   2.0000      -0.403702       -10.9853
 236   2.0000      -0.397141       -10.8068
 237   2.0000      -0.394464       -10.7339
 238   2.0000      -0.391759       -10.6603
 239   2.0000      -0.388957       -10.5841
 240   2.0000      -0.385481       -10.4895
 241   2.0000      -0.380868       -10.3639
 242   2.0000      -0.378162       -10.2903
 243   2.0000      -0.372223       -10.1287
 244   2.0000      -0.371896       -10.1198
 245   2.0000      -0.367630       -10.0037
 246   2.0000      -0.362219        -9.8565
 247   2.0000      -0.356892        -9.7115
 248   2.0000      -0.354327        -9.6417
 249   2.0000      -0.350097        -9.5266
 250   2.0000      -0.341979        -9.3057
 251   2.0000      -0.332600        -9.0505
 252   2.0000      -0.327672        -8.9164
 253   2.0000      -0.325830        -8.8663
 254   2.0000      -0.321966        -8.7612
 255   2.0000      -0.320684        -8.7262
 256   2.0000      -0.315728        -8.5914
 257   2.0000      -0.302459        -8.2303
 258   2.0000      -0.292936        -7.9712
 259   2.0000      -0.290893        -7.9156
 260   2.0000      -0.265829        -7.2336
 261   2.0000      -0.241022        -6.5585
 262   2.0000      -0.195948        -5.3320
 263   0.0000      -0.125020        -3.4020
 264   0.0000      -0.077844        -2.1182
 265   0.0000      -0.057085        -1.5534
 266   0.0000      -0.045552        -1.2395
 267   0.0000      -0.040520        -1.1026

MULLIKEN ATOMIC CHARGES
-----------------------
   0 C :   -0.076884
   1 C :    0.086505
   2 N :    0.261902
   3 O :   -0.252245
   4 O :   -0.245964
   5 C :   -0.042630
   6 C :    0.210041
   7 C :   -0.272153
   8 S :    0.213183
   9 C :    0.115209
  10 C :   -0.054665
  11 C :   -0.076741
  12 N :    0.056705
  13 C :   -0.144682
  14 C :   -0.115845
  15 N :    0.024896
  16 C :   -0.216577
  17 N :    0.246031
  18 C :   -0.208864
  19 N :    0.236604
  20 C :    0.119066
  21 C :   -0.004083
  22 C :   -0.019134
  23 N :   -0.270649
  24 S :    0.553250
  25 N :   -0.282811
  26 C :   -0.000118
  27 C :   -0.062095
  28 C :    0.000915
  29 C :    0.119123
  30 C :   -0.064563
  31 C :    0.037599
  32 C :    0.096541
  33 C :    0.031750
  34 C :   -0.128068
  35 C :    0.078944
  36 C :    0.032159
  37 C :    0.051654
  38 C :    0.024559
  39 C :   -0.120343
  40 C :    0.122703
  41 C :   -0.013528
  42 C :   -0.042540
  43 C :   -0.028893
  44 C :    0.056918
  45 C :   -0.137941
  46 S :    0.153163
  47 C :   -0.122130
  48 C :    0.129550
  49 C :    0.122483
  50 C :   -0.118563
  51 C :    0.083043
  52 C :   -0.035171
  53 C :   -0.012197
  54 C :   -0.081105
  55 C :    0.100244
  56 C :   -0.107795
  57 C :    0.028338
  58 C :   -0.009799
  59 C :    0.027961
  60 C :   -0.053093
  61 C :    0.024815
  62 C :    0.020286
  63 C :   -0.050756
  64 S :    0.088488
  65 C :   -0.065366
  66 C :    0.029269
  67 C :    0.049149
  68 C :   -0.063890
  69 S :    0.078527
  70 C :   -0.032629
  71 H :    0.043256
  72 H :    0.026689
  73 H :   -0.007775
  74 H :    0.029504
  75 H :   -0.027626
  76 H :   -0.032108
  77 H :   -0.023210
  78 H :   -0.003868
  79 H :    0.004520
  80 H :    0.002312
  81 H :    0.010878
  82 H :    0.018715
  83 H :   -0.004633
  84 H :    0.008004
  85 H :    0.020083
  86 H :    0.009247
  87 H :    0.023562
  88 H :   -0.039408
  89 H :   -0.026510
  90 H :   -0.034155
  91 H :   -0.016949
  92 H :   -0.015459
  93 H :   -0.027053
  94 H :   -0.005788
  95 H :    0.015804
  96 H :    0.020432
  97 H :    0.028903
  98 H :    0.031526
  99 H :    0.005473
 100 H :   -0.041529
 101 H :   -0.019038
 102 H :   -0.008730
 103 H :   -0.018495
 104 H :   -0.017210
 105 H :   -0.018382
 106 H :   -0.014083
 107 H :   -0.014337
 108 H :    0.018703
 109 H :    0.021669
Sum of atomic charges:   -0.0000000

LOEWDIN ATOMIC CHARGES
----------------------
   0 C :   -0.149208
   1 C :   -0.087473
   2 N :    0.286793
   3 O :   -0.215719
   4 O :   -0.204510
   5 C :   -0.016680
   6 C :   -0.047724
   7 C :   -0.180562
   8 S :    0.521197
   9 C :   -0.041143
  10 C :   -0.011551
  11 C :   -0.012138
  12 N :    0.015410
  13 C :   -0.033502
  14 C :   -0.022736
  15 N :   -0.017473
  16 C :   -0.037114
  17 N :    0.000559
  18 C :   -0.037301
  19 N :   -0.004899
  20 C :    0.004009
  21 C :   -0.039776
  22 C :   -0.042333
  23 N :   -0.269813
  24 S :    0.687411
  25 N :   -0.276292
  26 C :   -0.029753
  27 C :   -0.001887
  28 C :   -0.000669
  29 C :    0.000061
  30 C :   -0.025146
  31 C :    0.006121
  32 C :   -0.023230
  33 C :    0.006168
  34 C :   -0.034387
  35 C :   -0.009041
  36 C :   -0.059649
  37 C :   -0.015336
  38 C :   -0.056400
  39 C :   -0.024590
  40 C :   -0.019215
  41 C :   -0.017002
  42 C :   -0.012572
  43 C :   -0.028570
  44 C :   -0.039355
  45 C :   -0.179265
  46 S :    0.468023
  47 C :   -0.173419
  48 C :   -0.042582
  49 C :   -0.044167
  50 C :   -0.005603
  51 C :   -0.029976
  52 C :   -0.020112
  53 C :   -0.039772
  54 C :   -0.017317
  55 C :   -0.045341
  56 C :   -0.028719
  57 C :   -0.049578
  58 C :   -0.031939
  59 C :   -0.054679
  60 C :   -0.151277
  61 C :   -0.041796
  62 C :   -0.029044
  63 C :   -0.182675
  64 S :    0.369883
  65 C :   -0.180709
  66 C :   -0.027553
  67 C :   -0.035154
  68 C :   -0.139122
  69 S :    0.351613
  70 C :   -0.080114
  71 H :    0.038389
  72 H :    0.033995
  73 H :    0.023014
  74 H :    0.043225
  75 H :    0.022671
  76 H :    0.028629
  77 H :    0.025565
  78 H :    0.020295
  79 H :    0.026727
  80 H :    0.019552
  81 H :    0.027028
  82 H :    0.023464
  83 H :    0.019197
  84 H :    0.020025
  85 H :    0.024637
  86 H :    0.024010
  87 H :    0.026747
  88 H :    0.023231
  89 H :    0.025820
  90 H :    0.027860
  91 H :    0.026914
  92 H :    0.026652
  93 H :    0.027901
  94 H :    0.027964
  95 H :    0.019677
  96 H :    0.024309
  97 H :    0.034892
  98 H :    0.034531
  99 H :    0.028774
 100 H :    0.023759
 101 H :    0.027503
 102 H :    0.024312
 103 H :    0.028523
 104 H :    0.029906
 105 H :    0.030258
 106 H :    0.031311
 107 H :    0.032340
 108 H :    0.027935
 109 H :    0.025874

  Mayer bond orders larger than 0.100000
B(  0-C ,  1-C ) :   1.4931 B(  0-C ,  8-S ) :   1.2348 B(  0-C , 71-H ) :   0.9569
B(  1-C ,  2-N ) :   0.9222 B(  1-C ,  5-C ) :   1.2454 B(  2-N ,  3-O ) :   1.5417
B(  2-N ,  4-O ) :   1.5212 B(  3-O ,  4-O ) :   0.2620 B(  5-C ,  6-C ) :   1.1528
B(  5-C ,  7-C ) :   1.5327 B(  6-C , 72-H ) :   0.9219 B(  6-C , 73-H ) :   0.9267
B(  6-C , 74-H ) :   0.9130 B(  7-C ,  8-S ) :   1.1321 B(  7-C ,  9-C ) :   1.0729
B(  9-C , 10-C ) :   1.3045 B(  9-C , 20-C ) :   0.1302 B(  9-C , 22-C ) :   1.2491
B( 10-C , 11-C ) :   1.0973 B( 10-C , 15-N ) :   1.3976 B( 11-C , 12-N ) :   1.4250
B( 11-C , 20-C ) :   1.2954 B( 12-N , 13-C ) :   1.7455 B( 13-C , 14-C ) :   1.1966
B( 13-C , 18-C ) :   1.1519 B( 14-C , 15-N ) :   1.7368 B( 14-C , 16-C ) :   1.1527
B( 16-C , 17-N ) :   3.0456 B( 18-C , 19-N ) :   3.0484 B( 20-C , 21-C ) :   1.2453
B( 20-C , 26-C ) :   1.0289 B( 21-C , 22-C ) :   1.0938 B( 21-C , 25-N ) :   1.4868
B( 22-C , 23-N ) :   1.5046 B( 23-N , 24-S ) :   1.2906 B( 23-N , 25-N ) :   0.1572
B( 24-S , 25-N ) :   1.2952 B( 26-C , 27-C ) :   1.3028 B( 26-C , 31-C ) :   1.3424
B( 27-C , 28-C ) :   1.4057 B( 27-C , 75-H ) :   0.9904 B( 28-C , 29-C ) :   1.3645
B( 28-C , 34-C ) :   0.9242 B( 29-C , 30-C ) :   1.3257 B( 29-C , 32-C ) :   1.0021
B( 30-C , 31-C ) :   1.4016 B( 30-C , 76-H ) :   0.9927 B( 31-C , 77-H ) :   0.9791
B( 32-C , 33-C ) :   1.3772 B( 32-C , 42-C ) :   1.3221 B( 33-C , 34-C ) :   0.9161
B( 33-C , 39-C ) :   1.3907 B( 34-C , 35-C ) :   1.0170 B( 34-C , 37-C ) :   1.0307
B( 35-C , 36-C ) :   1.1145 B( 35-C , 78-H ) :   0.9366 B( 35-C , 79-H ) :   0.9384
B( 36-C , 80-H ) :   0.9629 B( 36-C , 81-H ) :   0.9593 B( 36-C , 82-H ) :   0.9605
B( 37-C , 38-C ) :   1.1041 B( 37-C , 83-H ) :   0.9391 B( 37-C , 84-H ) :   0.9385
B( 38-C , 85-H ) :   0.9633 B( 38-C , 86-H ) :   0.9642 B( 38-C , 87-H ) :   0.9651
B( 39-C , 40-C ) :   1.2758 B( 39-C , 88-H ) :   1.0055 B( 40-C , 41-C ) :   1.3400
B( 40-C , 43-C ) :   1.0911 B( 41-C , 42-C ) :   1.4029 B( 41-C , 89-H ) :   0.9821
B( 42-C , 90-H ) :   0.9901 B( 43-C , 44-C ) :   1.6578 B( 43-C , 91-H ) :   0.9791
B( 44-C , 45-C ) :   1.1461 B( 44-C , 92-H ) :   0.9481 B( 45-C , 46-S ) :   1.1499
B( 45-C , 47-C ) :   0.1029 B( 45-C , 49-C ) :   1.3014 B( 46-S , 47-C ) :   1.1385
B( 47-C , 48-C ) :   1.2907 B( 47-C , 57-C ) :   1.1818 B( 48-C , 49-C ) :   1.2263
B( 48-C , 56-C ) :   1.2002 B( 49-C , 50-C ) :   1.2030 B( 50-C , 51-C ) :   1.4951
B( 50-C , 93-H ) :   0.9920 B( 51-C , 52-C ) :   1.0298 B( 51-C , 54-C ) :   1.2166
B( 52-C , 53-C ) :   1.9773 B( 52-C , 94-H ) :   0.9525 B( 53-C , 95-H ) :   0.9566
B( 53-C , 96-H ) :   0.9491 B( 54-C , 55-C ) :   1.0873 B( 54-C , 56-C ) :   1.5335
B( 55-C , 97-H ) :   0.9434 B( 55-C , 98-H ) :   0.9407 B( 55-C , 99-H ) :   0.9540
B( 56-C ,100-H ) :   0.9872 B( 57-C , 58-C ) :   1.5830 B( 57-C ,101-H ) :   0.9565
B( 58-C , 59-C ) :   1.2359 B( 58-C ,102-H ) :   0.9651 B( 59-C , 60-C ) :   1.5071
B( 59-C ,103-H ) :   0.9694 B( 60-C , 61-C ) :   1.1658 B( 60-C , 64-S ) :   1.0356
B( 61-C , 62-C ) :   1.6020 B( 61-C ,104-H ) :   0.9899 B( 62-C , 63-C ) :   1.1861
B( 62-C ,105-H ) :   0.9915 B( 63-C , 64-S ) :   1.0460 B( 63-C , 65-C ) :   1.5300
B( 65-C , 66-C ) :   1.1624 B( 65-C , 69-S ) :   1.0457 B( 66-C , 67-C ) :   1.6515
B( 66-C ,106-H ) :   0.9915 B( 67-C , 68-C ) :   1.0852 B( 67-C ,107-H ) :   0.9926
B( 68-C , 69-S ) :   1.0082 B( 68-C , 70-C ) :   1.8587 B( 70-C ,108-H ) :   0.9507
B( 70-C ,109-H ) :   0.9416

-----------------------------------------------------------------------------
         ABSORPTION SPECTRUM VIA TRANSITION ELECTRIC DIPOLE MOMENTS
-----------------------------------------------------------------------------
State   Energy  Wavelength   fosc         T2         TX        TY        TZ
        (cm-1)    (nm)                  (au**2)     (au)      (au)      (au)
-----------------------------------------------------------------------------
   0    8300.7   1204.7   0.436082859  17.29546  -1.12280   3.93267   0.75424
   1   13257.4    754.3   1.725158222  42.83982   2.64399  -5.68761  -1.87089
   2   13784.1    725.5   0.400043036   9.55440  -1.70210   1.67422   1.96322
   3   18647.5    536.3   0.012337962   0.21782  -0.41230   0.19868  -0.09138
   4   19872.9    503.2   0.039130465   0.64823   0.68428  -0.14667  -0.39809
   5   22280.6    448.8   0.002017380   0.02981   0.14428   0.09177   0.02383
   6   22830.2    438.0   0.130597041   1.88321  -0.93866  -0.93672   0.35313
   7   23110.0    432.7   0.007339364   0.10455  -0.06832   0.06710   0.30884
   8   23550.4    424.6   0.010531780   0.14722  -0.17081   0.08157   0.33376
   9   24110.1    414.8   0.006908433   0.09433   0.17546   0.19347   0.16160
  10   25472.4    392.6   0.076582978   0.98978   0.27750  -0.95392   0.05303
  11   26706.1    374.4   0.049355360   0.60841  -0.11016  -0.69452  -0.33753
  12   27341.6    365.7   0.042595394   0.51288  -0.06256   0.70442   0.11293
  13   27747.0    360.4   0.046334445   0.54975   0.25929  -0.67867   0.14806
  14   28317.1    353.1   0.056256511   0.65403  -0.35345   0.71273  -0.14532
  15   28648.6    349.1   0.012895417   0.14819   0.25337  -0.27695   0.08538
  16   28885.0    346.2   0.008811491   0.10043   0.22471  -0.15463   0.16132
  17   29102.8    343.6   0.001765566   0.01997  -0.01190  -0.14050   0.00956
  18   29240.2    342.0   0.202140956   2.27588  -0.05626  -1.47689  -0.30249
  19   29804.6    335.5   0.307712040   3.39888  -0.08033  -1.71206  -0.67917
  20   29981.5    333.5   0.049895872   0.54788   0.04256  -0.72863  -0.12316
  21   31002.4    322.6   0.027392456   0.29088   0.40729  -0.00679   0.35348
  22   31810.7    314.4   0.001535740   0.01589  -0.12108  -0.00918  -0.03390
  23   31822.8    314.2   0.024879109   0.25738   0.36000   0.09178   0.34547
  24   32208.5    310.5   0.100080134   1.02295  -0.54656  -0.42116  -0.73949
  25   32268.1    309.9   0.305844014   3.12034  -1.16107  -0.55472  -1.21019
  26   32749.4    305.3   0.065036799   0.65378   0.58081  -0.37399   0.42020
  27   33187.5    301.3   0.029347370   0.29112   0.39525   0.12721   0.34455
  28   33233.4    300.9   0.013357549   0.13232  -0.03521  -0.15785  -0.32583
  29   33415.5    299.3   0.013294193   0.13098  -0.28139  -0.02116  -0.22660
  30   33658.6    297.1   0.158282677   1.54815   0.87506  -0.70062   0.53996
  31   33773.4    296.1   0.085861969   0.83695  -0.88108  -0.08952  -0.22943
  32   34696.9    288.2   0.545323895   5.17416   1.57249   0.60187   1.52944
  33   34850.7    286.9   0.001552464   0.01467   0.03695   0.07889   0.08412
  34   35271.8    283.5   0.187365178   1.74879  -0.55342   1.16078  -0.30839
  35   35643.1    280.6   0.037434539   0.34576   0.44896   0.02032   0.37919
  36   35692.5    280.2   0.119731043   1.10435   0.74863   0.14510   0.72309
  37   36363.4    275.0   0.238434007   2.15864   0.05704  -1.42165  -0.36645
  38   37253.0    268.4   0.130854079   1.15638   0.42200  -0.96796   0.20337
  39   37400.9    267.4   0.041265506   0.36323  -0.23625  -0.40498  -0.37869
  40   37463.2    266.9   0.002319730   0.02038  -0.07762   0.10266  -0.06181
  41   37544.6    266.3   0.032146499   0.28188   0.36439  -0.26083   0.28472
  42   37712.4    265.2   0.006521523   0.05693   0.05679  -0.23060   0.02293
  43   37730.9    265.0   0.060436772   0.52733  -0.55165   0.19159  -0.43162
  44   38359.3    260.7   0.019681632   0.16891   0.07135   0.11002  -0.38951
  45   38534.6    259.5   0.153315724   1.30982   0.59718   0.26577   0.93945
  46   38674.7    258.6   0.002746160   0.02338  -0.14767   0.01937  -0.03456
  47   38848.8    257.4   0.040983962   0.34731  -0.20381  -0.00743  -0.55291
  48   39094.3    255.8   0.008629406   0.07267   0.09184   0.25210   0.02606
  49   39139.3    255.5   0.001190316   0.01001  -0.00807   0.07994   0.05964
  50   39336.7    254.2   0.009200097   0.07700  -0.12003  -0.24796   0.03323
  51   39555.0    252.8   0.044136272   0.36734   0.13103  -0.59137   0.02137
  52   39664.9    252.1   0.009714720   0.08063   0.15169  -0.21265   0.11135
  53   39767.1    251.5   0.039445699   0.32655   0.36279   0.06867   0.43614
  54   39961.6    250.2   0.003478597   0.02866  -0.00483  -0.16337  -0.04409
  55   39999.2    250.0   0.050290286   0.41391  -0.04424   0.62750   0.13490
  56   40050.3    249.7   0.001552534   0.01276   0.01265  -0.10130   0.04837

FINAL SINGLE POINT ENERGY     -4715.906314129704

DIPOLE MOMENT
-------------
                                X             Y             Z
Electronic contribution:     11.66868      97.37253      39.34095
Nuclear contribution   :    -13.02438    -100.58553     -41.87017
                        -----------------------------------------
Total Dipole Moment    :     -1.35570      -3.21300      -2.52922
                        -----------------------------------------
Magnitude (a.u.)       :      4.30793
Magnitude (Debye)      :     10.94988

Rotational constants in cm-1:     0.002309     0.000170     0.000165
Rotational constants in MHz :    69.228208     5.092959     4.955426

                             ****ORCA TERMINATED NORMALLY****
TOTAL RUN TIME: 0 days 0 hours 11 minutes 24 seconds 300 msec
