                         Program Version 4.2.0 -  RELEASE  -
|  1> # ORCA input file
|  2> # SCF done       -121.291348472990          0.000822185639
|  3> ! CAM-B3LYP def2-SVP def2/J RIJCOSX Grid4 TightSCF
|  4> %maxcore 5000
|  5> %tddft
|  6>     Mode sTDDFT
|  7>     Ethresh 5.0
|  8>     maxcore 5000
|  9> end
| 10>
| 11> %pal
| 12>   nprocs 6
| 13>   end
| 14> * xyz 0 1
| 15>    C        0.70713        -2.42131         4.71724
| 16>    C        1.42617        -1.37847         5.39456
| 17>    C        1.56377        -0.30984         4.58112
| 18>    C        0.93352        -0.61584         3.29047
| 19>    O        0.94509         0.07205         2.29590
| 20>    C        0.35362        -2.01530         3.45491
| 21>    C       -0.35592        -2.79334         2.52293
| 22>    S       -0.49585        -4.49804         2.83953
| 23>    C       -1.43712        -4.80217         1.40572
| 24>    C       -1.69417        -3.57973         0.73213
| 25>    C       -1.06097        -2.46133         1.34260
| 26>    C       -1.24608        -1.18632         0.78369
| 27>    C       -2.03185        -1.00923        -0.32408
| 28>    C       -2.23999         0.33967        -0.93065
| 29>    C       -2.69876        -2.12546        -0.89861
| 30>    O       -3.48537        -1.83713        -1.96334
| 31>    C       -4.21231        -2.87468        -2.57536
| 32>    C       -2.53359        -3.38925        -0.36988
| 33>    C       -1.85269        -6.10475         1.16487
| 34>    C       -2.42059        -6.62491         0.01817
| 35>    C       -3.06528        -7.86239        -0.06767
| 36>    C       -3.19653        -8.56270        -1.34969
| 37>    C       -3.75706        -9.76151        -1.17052
| 38>    C       -4.08751        -9.92642         0.26621
| 39>    O       -4.64554       -10.88137         0.76370
| 40>    C       -3.64140        -8.66836         0.92603
| 41>    C       -3.99063        -8.33027         2.24987
| 42>    S       -4.25365        -6.65307         2.71440
| 43>    C       -4.68260        -7.07030         4.36176
| 44>    C       -4.67134        -8.44635         4.49402
| 45>    C       -4.28134        -9.16413         3.33387
| 46>    C       -4.20934       -10.56109         3.58987
| 47>    C       -4.54865       -10.89041         4.85660
| 48>    C       -4.59995       -12.23827         5.47427
| 49>    S       -4.97078        -9.48871         5.83949
| 50>    C       -4.93025        -6.08632         5.33680
| 51>    S       -5.54526        -6.53064         6.90672
| 52>    C       -5.51561        -4.87876         7.45610
| 53>    C       -5.04960        -4.03723         6.46290
| 54>    C       -4.71408        -4.71185         5.25559
| 55>    C       -4.16919        -4.03906         4.15448
| 56>    N       -3.70061        -3.44644         3.28852
| 57>    C       -4.90208        -2.65003         6.63318
| 58>    N       -4.77755        -1.51930         6.78023
| 59>    C       -5.92459        -4.49509         8.77516
| 60>    C       -6.35748        -5.34517         9.70461
| 61>    H        0.45899        -3.36890         5.16092
| 62>    H        1.78471        -1.46491         6.40509
| 63>    H        2.05360         0.62278         4.78359
| 64>    H       -0.76160        -0.33376         1.22777
| 65>    H       -1.64259         1.08729        -0.41773
| 66>    H       -3.29151         0.61656        -0.87158
| 67>    H       -1.96916         0.32101        -1.98491
| 68>    H       -4.77024        -2.40553        -3.38420
| 69>    H       -4.91240        -3.34200        -1.87600
| 70>    H       -3.54765        -3.63870        -2.99177
| 71>    H       -3.08221        -4.22566        -0.76401
| 72>    H       -1.68656        -6.79801         1.98035
| 73>    H       -2.30458        -6.08609        -0.91234
| 74>    H       -2.83534        -8.14521        -2.27363
| 75>    H       -3.96040       -10.52200        -1.90044
| 76>    H       -3.93893       -11.28505         2.84537
| 77>    H       -3.91908       -12.29756         6.32348
| 78>    H       -4.32155       -12.99200         4.74230
| 79>    H       -5.60426       -12.45347         5.83863
| 80>    H       -5.85800        -3.43374         8.97981
| 81>    H       -6.42739        -6.40330         9.51045
| 82>    H       -6.65327        -5.00824        10.68151
| 83> *
| 84>
| 85>                          ****END OF INPUT****

CARTESIAN COORDINATES (ANGSTROEM)
---------------------------------
  C      0.707130   -2.421310    4.717240
  C      1.426170   -1.378470    5.394560
  C      1.563770   -0.309840    4.581120
  C      0.933520   -0.615840    3.290470
  O      0.945090    0.072050    2.295900
  C      0.353620   -2.015300    3.454910
  C     -0.355920   -2.793340    2.522930
  S     -0.495850   -4.498040    2.839530
  C     -1.437120   -4.802170    1.405720
  C     -1.694170   -3.579730    0.732130
  C     -1.060970   -2.461330    1.342600
  C     -1.246080   -1.186320    0.783690
  C     -2.031850   -1.009230   -0.324080
  C     -2.239990    0.339670   -0.930650
  C     -2.698760   -2.125460   -0.898610
  O     -3.485370   -1.837130   -1.963340
  C     -4.212310   -2.874680   -2.575360
  C     -2.533590   -3.389250   -0.369880
  C     -1.852690   -6.104750    1.164870
  C     -2.420590   -6.624910    0.018170
  C     -3.065280   -7.862390   -0.067670
  C     -3.196530   -8.562700   -1.349690
  C     -3.757060   -9.761510   -1.170520
  C     -4.087510   -9.926420    0.266210
  O     -4.645540  -10.881370    0.763700
  C     -3.641400   -8.668360    0.926030
  C     -3.990630   -8.330270    2.249870
  S     -4.253650   -6.653070    2.714400
  C     -4.682600   -7.070300    4.361760
  C     -4.671340   -8.446350    4.494020
  C     -4.281340   -9.164130    3.333870
  C     -4.209340  -10.561090    3.589870
  C     -4.548650  -10.890410    4.856600
  C     -4.599950  -12.238270    5.474270
  S     -4.970780   -9.488710    5.839490
  C     -4.930250   -6.086320    5.336800
  S     -5.545260   -6.530640    6.906720
  C     -5.515610   -4.878760    7.456100
  C     -5.049600   -4.037230    6.462900
  C     -4.714080   -4.711850    5.255590
  C     -4.169190   -4.039060    4.154480
  N     -3.700610   -3.446440    3.288520
  C     -4.902080   -2.650030    6.633180
  N     -4.777550   -1.519300    6.780230
  C     -5.924590   -4.495090    8.775160
  C     -6.357480   -5.345170    9.704610
  H      0.458990   -3.368900    5.160920
  H      1.784710   -1.464910    6.405090
  H      2.053600    0.622780    4.783590
  H     -0.761600   -0.333760    1.227770
  H     -1.642590    1.087290   -0.417730
  H     -3.291510    0.616560   -0.871580
  H     -1.969160    0.321010   -1.984910
  H     -4.770240   -2.405530   -3.384200
  H     -4.912400   -3.342000   -1.876000
  H     -3.547650   -3.638700   -2.991770
  H     -3.082210   -4.225660   -0.764010
  H     -1.686560   -6.798010    1.980350
  H     -2.304580   -6.086090   -0.912340
  H     -2.835340   -8.145210   -2.273630
  H     -3.960400  -10.522000   -1.900440
  H     -3.938930  -11.285050    2.845370
  H     -3.919080  -12.297560    6.323480
  H     -4.321550  -12.992000    4.742300
  H     -5.604260  -12.453470    5.838630
  H     -5.858000   -3.433740    8.979810
  H     -6.427390   -6.403300    9.510450
  H     -6.653270   -5.008240   10.681510

 Total Charge           Charge          ....    0
 Multiplicity           Mult            ....    1
 Number of Electrons    NEL             ....  346
 Basis Dimension        Dim             ....  770

ORBITAL ENERGIES
----------------

  NO   OCC          E(Eh)            E(eV)
   0   2.0000     -88.975012     -2421.1332
   1   2.0000     -88.961225     -2420.7580
   2   2.0000     -88.949498     -2420.4389
   3   2.0000     -88.944245     -2420.2960
   4   2.0000     -19.251995      -523.8734
   5   2.0000     -19.233739      -523.3766
   6   2.0000     -19.204684      -522.5860
   7   2.0000     -14.404902      -391.9773
   8   2.0000     -14.401942      -391.8968
   9   2.0000     -10.373172      -282.2684
  10   2.0000     -10.349028      -281.6114
  11   2.0000     -10.335186      -281.2347
  12   2.0000     -10.334678      -281.2209
  13   2.0000     -10.325391      -280.9682
  14   2.0000     -10.322526      -280.8902
  15   2.0000     -10.320592      -280.8376
  16   2.0000     -10.319397      -280.8051
  17   2.0000     -10.312390      -280.6144
  18   2.0000     -10.308050      -280.4963
  19   2.0000     -10.305016      -280.4137
  20   2.0000     -10.304879      -280.4100
  21   2.0000     -10.303359      -280.3687
  22   2.0000     -10.301873      -280.3282
  23   2.0000     -10.300020      -280.2778
  24   2.0000     -10.299418      -280.2614
  25   2.0000     -10.295984      -280.1680
  26   2.0000     -10.295774      -280.1623
  27   2.0000     -10.293699      -280.1058
  28   2.0000     -10.293610      -280.1034
  29   2.0000     -10.293296      -280.0948
  30   2.0000     -10.290530      -280.0196
  31   2.0000     -10.286244      -279.9029
  32   2.0000     -10.285958      -279.8951
  33   2.0000     -10.280610      -279.7496
  34   2.0000     -10.278039      -279.6797
  35   2.0000     -10.275255      -279.6039
  36   2.0000     -10.274224      -279.5758
  37   2.0000     -10.274189      -279.5749
  38   2.0000     -10.272037      -279.5163
  39   2.0000     -10.269729      -279.4535
  40   2.0000     -10.268381      -279.4169
  41   2.0000     -10.265833      -279.3475
  42   2.0000     -10.265512      -279.3388
  43   2.0000     -10.262163      -279.2477
  44   2.0000     -10.257736      -279.1272
  45   2.0000     -10.252003      -278.9712
  46   2.0000      -8.070215      -219.6017
  47   2.0000      -8.056531      -219.2293
  48   2.0000      -8.043729      -218.8810
  49   2.0000      -8.040217      -218.7854
  50   2.0000      -6.039566      -164.3449
  51   2.0000      -6.035434      -164.2325
  52   2.0000      -6.032145      -164.1430
  53   2.0000      -6.025668      -163.9668
  54   2.0000      -6.021587      -163.8557
  55   2.0000      -6.018915      -163.7830
  56   2.0000      -6.013472      -163.6349
  57   2.0000      -6.010033      -163.5413
  58   2.0000      -6.009043      -163.5144
  59   2.0000      -6.005650      -163.4220
  60   2.0000      -6.005253      -163.4112
  61   2.0000      -6.001420      -163.3069
  62   2.0000      -1.155973       -31.4556
  63   2.0000      -1.142923       -31.1005
  64   2.0000      -1.116139       -30.3717
  65   2.0000      -1.019832       -27.7510
  66   2.0000      -0.997366       -27.1397
  67   2.0000      -0.996393       -27.1132
  68   2.0000      -0.984209       -26.7817
  69   2.0000      -0.979664       -26.6580
  70   2.0000      -0.968818       -26.3629
  71   2.0000      -0.962841       -26.2002
  72   2.0000      -0.935552       -25.4577
  73   2.0000      -0.929957       -25.3054
  74   2.0000      -0.904342       -24.6084
  75   2.0000      -0.900090       -24.4927
  76   2.0000      -0.883766       -24.0485
  77   2.0000      -0.864555       -23.5257
  78   2.0000      -0.856369       -23.3030
  79   2.0000      -0.848682       -23.0938
  80   2.0000      -0.842661       -22.9300
  81   2.0000      -0.835379       -22.7318
  82   2.0000      -0.824111       -22.4252
  83   2.0000      -0.813597       -22.1391
  84   2.0000      -0.802026       -21.8242
  85   2.0000      -0.786593       -21.4043
  86   2.0000      -0.773852       -21.0576
  87   2.0000      -0.770764       -20.9735
  88   2.0000      -0.768125       -20.9017
  89   2.0000      -0.760047       -20.6819
  90   2.0000      -0.737815       -20.0770
  91   2.0000      -0.723913       -19.6987
  92   2.0000      -0.712396       -19.3853
  93   2.0000      -0.695531       -18.9264
  94   2.0000      -0.690176       -18.7807
  95   2.0000      -0.686530       -18.6814
  96   2.0000      -0.671886       -18.2829
  97   2.0000      -0.656673       -17.8690
  98   2.0000      -0.651086       -17.7169
  99   2.0000      -0.642326       -17.4786
 100   2.0000      -0.635297       -17.2873
 101   2.0000      -0.625870       -17.0308
 102   2.0000      -0.620221       -16.8771
 103   2.0000      -0.605837       -16.4857
 104   2.0000      -0.599276       -16.3071
 105   2.0000      -0.595237       -16.1972
 106   2.0000      -0.589986       -16.0543
 107   2.0000      -0.581753       -15.8303
 108   2.0000      -0.580049       -15.7839
 109   2.0000      -0.574347       -15.6288
 110   2.0000      -0.568099       -15.4587
 111   2.0000      -0.558637       -15.2013
 112   2.0000      -0.555873       -15.1261
 113   2.0000      -0.546951       -14.8833
 114   2.0000      -0.535560       -14.5733
 115   2.0000      -0.525992       -14.3130
 116   2.0000      -0.524718       -14.2783
 117   2.0000      -0.521223       -14.1832
 118   2.0000      -0.518157       -14.0998
 119   2.0000      -0.516455       -14.0535
 120   2.0000      -0.512119       -13.9355
 121   2.0000      -0.511128       -13.9085
 122   2.0000      -0.509291       -13.8585
 123   2.0000      -0.506704       -13.7881
 124   2.0000      -0.505404       -13.7528
 125   2.0000      -0.500514       -13.6197
 126   2.0000      -0.497955       -13.5500
 127   2.0000      -0.492113       -13.3911
 128   2.0000      -0.489566       -13.3218
 129   2.0000      -0.487969       -13.2783
 130   2.0000      -0.486064       -13.2265
 131   2.0000      -0.482276       -13.1234
 132   2.0000      -0.479905       -13.0589
 133   2.0000      -0.479323       -13.0431
 134   2.0000      -0.475646       -12.9430
 135   2.0000      -0.465980       -12.6799
 136   2.0000      -0.464925       -12.6512
 137   2.0000      -0.460955       -12.5432
 138   2.0000      -0.457390       -12.4462
 139   2.0000      -0.448682       -12.2093
 140   2.0000      -0.447320       -12.1722
 141   2.0000      -0.443790       -12.0761
 142   2.0000      -0.442304       -12.0357
 143   2.0000      -0.439181       -11.9507
 144   2.0000      -0.434515       -11.8238
 145   2.0000      -0.432633       -11.7725
 146   2.0000      -0.431191       -11.7333
 147   2.0000      -0.429690       -11.6925
 148   2.0000      -0.427255       -11.6262
 149   2.0000      -0.424327       -11.5465
 150   2.0000      -0.416351       -11.3295
 151   2.0000      -0.412733       -11.2310
 152   2.0000      -0.411165       -11.1884
 153   2.0000      -0.409069       -11.1313
 154   2.0000      -0.402525       -10.9533
 155   2.0000      -0.400388       -10.8951
 156   2.0000      -0.398785       -10.8515
 157   2.0000      -0.393907       -10.7187
 158   2.0000      -0.386268       -10.5109
 159   2.0000      -0.379197       -10.3185
 160   2.0000      -0.373814       -10.1720
 161   2.0000      -0.352702        -9.5975
 162   2.0000      -0.341282        -9.2868
 163   2.0000      -0.331911        -9.0317
 164   2.0000      -0.329259        -8.9596
 165   2.0000      -0.323176        -8.7941
 166   2.0000      -0.311268        -8.4700
 167   2.0000      -0.305084        -8.3018
 168   2.0000      -0.290837        -7.9141
 169   2.0000      -0.288854        -7.8601
 170   2.0000      -0.286080        -7.7846
 171   2.0000      -0.248633        -6.7656
 172   2.0000      -0.210270        -5.7217
 173   0.0000      -0.106582        -2.9002
 174   0.0000      -0.070378        -1.9151
 175   0.0000      -0.042486        -1.1561
 176   0.0000      -0.023907        -0.6505
 177   0.0000      -0.014788        -0.4024

MULLIKEN ATOMIC CHARGES
-----------------------
   0 C :   -0.033908
   1 C :    0.077654
   2 C :   -0.033324
   3 C :    0.163976
   4 O :   -0.124289
   5 C :   -0.032439
   6 C :   -0.077017
   7 S :    0.146642
   8 C :   -0.112382
   9 C :    0.161744
  10 C :    0.134063
  11 C :   -0.087373
  12 C :   -0.102461
  13 C :    0.128899
  14 C :    0.227239
  15 O :   -0.300211
  16 C :    0.179399
  17 C :   -0.183247
  18 C :    0.062331
  19 C :   -0.073424
  20 C :    0.048470
  21 C :    0.043957
  22 C :   -0.018134
  23 C :    0.123062
  24 O :   -0.156290
  25 C :   -0.061850
  26 C :   -0.144113
  27 S :    0.123594
  28 C :   -0.163907
  29 C :   -0.055735
  30 C :    0.125945
  31 C :    0.021371
  32 C :   -0.209607
  33 C :    0.122472
  34 S :    0.089470
  35 C :   -0.067841
  36 S :    0.145902
  37 C :   -0.085602
  38 C :   -0.025523
  39 C :   -0.012963
  40 C :   -0.300532
  41 N :    0.209125
  42 C :   -0.268840
  43 N :    0.189777
  44 C :   -0.005506
  45 C :   -0.019432
  46 H :    0.008629
  47 H :    0.007210
  48 H :   -0.004505
  49 H :   -0.025893
  50 H :    0.011204
  51 H :    0.028525
  52 H :    0.022346
  53 H :    0.039131
  54 H :    0.034474
  55 H :    0.020932
  56 H :   -0.051857
  57 H :    0.013939
  58 H :   -0.010570
  59 H :   -0.011316
  60 H :   -0.010590
  61 H :   -0.011377
  62 H :    0.030723
  63 H :    0.025461
  64 H :    0.032341
  65 H :    0.019720
  66 H :    0.028784
  67 H :    0.033545
Sum of atomic charges:    0.0000000

LOEWDIN ATOMIC CHARGES
----------------------
   0 C :   -0.004687
   1 C :    0.027526
   2 C :   -0.061984
   3 C :    0.106945
   4 O :   -0.090298
   5 C :   -0.076951
   6 C :   -0.124090
   7 S :    0.477450
   8 C :   -0.175320
   9 C :   -0.005192
  10 C :   -0.039342
  11 C :   -0.001131
  12 C :   -0.033738
  13 C :   -0.040329
  14 C :    0.074773
  15 O :   -0.087344
  16 C :    0.077460
  17 C :   -0.082027
  18 C :   -0.003644
  19 C :   -0.084077
  20 C :    0.006086
  21 C :    0.019220
  22 C :   -0.042682
  23 C :    0.086653
  24 O :   -0.129352
  25 C :   -0.141867
  26 C :   -0.135698
  27 S :    0.471161
  28 C :   -0.235384
  29 C :   -0.178595
  30 C :   -0.072598
  31 C :   -0.052864
  32 C :   -0.153801
  33 C :   -0.059190
  34 S :    0.367204
  35 C :   -0.134003
  36 S :    0.464583
  37 C :   -0.146345
  38 C :   -0.082568
  39 C :   -0.119815
  40 C :   -0.046586
  41 N :   -0.057401
  42 C :   -0.031019
  43 N :   -0.046857
  44 C :   -0.038432
  45 C :   -0.033572
  46 H :    0.024998
  47 H :    0.034261
  48 H :    0.032137
  49 H :    0.027656
  50 H :    0.030817
  51 H :    0.037464
  52 H :    0.035159
  53 H :    0.030212
  54 H :    0.020095
  55 H :    0.015390
  56 H :    0.025067
  57 H :    0.030536
  58 H :    0.027255
  59 H :    0.027683
  60 H :    0.030067
  61 H :    0.031141
  62 H :    0.035946
  63 H :    0.040917
  64 H :    0.037103
  65 H :    0.044249
  66 H :    0.020226
  67 H :    0.031345

  Mayer bond orders larger than 0.100000
B(  0-C ,  1-C ) :   1.0456 B(  0-C ,  5-C ) :   1.6398 B(  0-C , 46-H ) :   0.9957
B(  1-C ,  2-C ) :   1.6861 B(  1-C , 47-H ) :   1.0013 B(  2-C ,  3-C ) :   1.0116
B(  2-C , 48-H ) :   1.0145 B(  3-C ,  4-O ) :   2.1512 B(  3-C ,  5-C ) :   0.8883
B(  5-C ,  6-C ) :   1.1751 B(  6-C ,  7-S ) :   1.1834 B(  6-C , 10-C ) :   1.3019
B(  7-S ,  8-C ) :   1.0934 B(  8-C ,  9-C ) :   1.2513 B(  8-C , 18-C ) :   1.3143
B(  9-C , 10-C ) :   1.2238 B(  9-C , 17-C ) :   1.2227 B( 10-C , 11-C ) :   1.1942
B( 11-C , 12-C ) :   1.5479 B( 11-C , 49-H ) :   0.9848 B( 12-C , 13-C ) :   1.0700
B( 12-C , 14-C ) :   1.2316 B( 13-C , 50-H ) :   0.9513 B( 13-C , 51-H ) :   0.9481
B( 13-C , 52-H ) :   0.9471 B( 14-C , 15-O ) :   1.2009 B( 14-C , 17-C ) :   1.3935
B( 15-O , 16-C ) :   0.9609 B( 16-C , 53-H ) :   0.9775 B( 16-C , 54-H ) :   0.9679
B( 16-C , 55-H ) :   0.9681 B( 17-C , 56-H ) :   0.9877 B( 18-C , 19-C ) :   1.4579
B( 18-C , 57-H ) :   0.9408 B( 19-C , 20-C ) :   1.2779 B( 19-C , 58-H ) :   0.9495
B( 20-C , 21-C ) :   1.0032 B( 20-C , 25-C ) :   1.4258 B( 21-C , 22-C ) :   1.7229
B( 21-C , 59-H ) :   1.0056 B( 22-C , 23-C ) :   0.9908 B( 22-C , 60-H ) :   1.0127
B( 23-C , 24-O ) :   2.1369 B( 23-C , 25-C ) :   0.9612 B( 25-C , 26-C ) :   1.1742
B( 26-C , 27-S ) :   1.1225 B( 26-C , 28-C ) :   0.1040 B( 26-C , 30-C ) :   1.3831
B( 27-S , 28-C ) :   1.0876 B( 28-C , 29-C ) :   1.4539 B( 28-C , 35-C ) :   1.2445
B( 29-C , 30-C ) :   1.2428 B( 29-C , 34-S ) :   1.0631 B( 30-C , 31-C ) :   1.1545
B( 31-C , 32-C ) :   1.6853 B( 31-C , 61-H ) :   0.9840 B( 32-C , 33-C ) :   1.0712
B( 32-C , 34-S ) :   1.0349 B( 33-C , 62-H ) :   0.9494 B( 33-C , 63-H ) :   0.9555
B( 33-C , 64-H ) :   0.9486 B( 35-C , 36-S ) :   1.1384 B( 35-C , 39-C ) :   1.4232
B( 36-S , 37-C ) :   1.0843 B( 37-C , 38-C ) :   1.5176 B( 37-C , 44-C ) :   1.1507
B( 38-C , 39-C ) :   1.2983 B( 38-C , 42-C ) :   1.1447 B( 39-C , 40-C ) :   1.1495
B( 40-C , 41-N ) :   2.9718 B( 42-C , 43-N ) :   3.0128 B( 44-C , 45-C ) :   1.9040
B( 44-C , 65-H ) :   0.9541 B( 45-C , 66-H ) :   0.9586 B( 45-C , 67-H ) :   0.9479

-----------------------------------------------------------------------------
         ABSORPTION SPECTRUM VIA TRANSITION ELECTRIC DIPOLE MOMENTS
-----------------------------------------------------------------------------
State   Energy  Wavelength   fosc         T2         TX        TY        TZ
        (cm-1)    (nm)                  (au**2)     (au)      (au)      (au)
-----------------------------------------------------------------------------
   0    7214.6   1386.1   0.200978113   9.17085   2.03010   2.09141  -0.82192
   1   14245.4    702.0   0.105197526   2.43112  -0.07445  -0.35327  -1.51683
   2   14891.0    671.5   0.202836238   4.48434  -0.85436  -1.68264  -0.96081
   3   20044.4    498.9   0.272065633   4.46844  -0.38659   1.19818   1.69805
   4   21831.7    458.0   0.129511329   1.95297   0.57419  -1.25565  -0.21588
   5   22598.0    442.5   0.247429147   3.60459   0.48406   0.82241   1.64131
   6   22845.9    437.7   0.276702157   3.98730  -0.37298  -1.92746  -0.36480
   7   24041.0    416.0   0.002934904   0.04019   0.00374  -0.14843   0.13470
   8   24222.0    412.8   0.051276998   0.69693  -0.17366  -0.62608  -0.52421
   9   24657.6    405.6   0.042142301   0.56266  -0.10481   0.66513   0.33055
  10   25064.9    399.0   0.140895064   1.85057  -0.11114  -1.12485  -0.75693
  11   26205.7    381.6   0.037707074   0.47370   0.26358   0.61201   0.17224
  12   26523.8    377.0   0.072685407   0.90217  -0.24186  -0.86752  -0.30179
  13   28321.1    353.1   0.019232203   0.22356  -0.01593   0.23063   0.41245
  14   29075.9    343.9   0.041626854   0.47132   0.33431  -0.51839  -0.30138
  15   29349.5    340.7   0.057423141   0.64411   0.35269   0.37959   0.61289
  16   31022.4    322.3   0.046086198   0.48907   0.35473   0.47257   0.37405
  17   31990.1    312.6   0.104413588   1.07453  -0.18872  -1.01136   0.12673
  18   32416.2    308.5   0.088494840   0.89873   0.00096  -0.68739   0.65286
  19   32807.0    304.8   0.005866782   0.05887   0.19700  -0.06682  -0.12489
  20   33172.9    301.5   0.005591353   0.05549  -0.18174  -0.12166  -0.08752
  21   33661.9    297.1   0.007257856   0.07098  -0.02683  -0.19712   0.17721
  22   33906.9    294.9   0.062286895   0.60476   0.08024  -0.64389   0.42864
  23   34304.9    291.5   0.048894133   0.46922  -0.45451  -0.03366  -0.51138
  24   34919.0    286.4   0.011412332   0.10759   0.10498  -0.22236  -0.21709
  25   35426.9    282.3   0.097019204   0.90157  -0.19098  -0.89456   0.25466
  26   36059.4    277.3   0.061176123   0.55852  -0.05888   0.02310   0.74466
  27   36698.6    272.5   0.103799904   0.93116  -0.13580   0.08093   0.95193
  28   37566.4    266.2   0.012862354   0.11272   0.02179   0.06029  -0.32956
  29   37682.8    265.4   0.020466453   0.17880   0.11214  -0.25663   0.31681
  30   38403.0    260.4   0.009605795   0.08235   0.23312   0.08722   0.14281
  31   38506.5    259.7   0.134544634   1.15029  -0.41982   0.49266  -0.85518
  32   38565.8    259.3   0.016699361   0.14255   0.07489  -0.25215   0.27086
  33   38926.4    256.9   0.017003436   0.14380   0.21144  -0.25439  -0.18542
  34   39659.3    252.1   0.016192788   0.13442   0.14648  -0.33192   0.05281
  35   39965.6    250.2   0.016475028   0.13571   0.07023  -0.31259   0.18185

FINAL SINGLE POINT ENERGY     -3348.260953651713

DIPOLE MOMENT
-------------
                                X             Y             Z
Electronic contribution:     -0.95258      -5.74439      15.75435
Nuclear contribution   :      1.71261       4.83143     -15.66678
                        -----------------------------------------
Total Dipole Moment    :      0.76003      -0.91296       0.08757
                        -----------------------------------------
Magnitude (a.u.)       :      1.19114
Magnitude (Debye)      :      3.02763

Rotational constants in cm-1:     0.002391     0.001569     0.001134
Rotational constants in MHz :    71.685734    47.031171    34.005133

                             ****ORCA TERMINATED NORMALLY****
TOTAL RUN TIME: 0 days 0 hours 6 minutes 25 seconds 485 msec
