                         Program Version 4.2.0 -  RELEASE  -
|  1> # ORCA input file
|  2> # SCF done       -109.534272419662          0.000769787319
|  3> ! CAM-B3LYP def2-SVP def2/J RIJCOSX Grid4 TightSCF
|  4> %maxcore 5000
|  5> %tddft
|  6>     Mode sTDDFT
|  7>     Ethresh 5.0
|  8>     maxcore 5000
|  9> end
| 10>
| 11> %pal
| 12>   nprocs 6
| 13>   end
| 14> * xyz 0 1
| 15>    C       -4.65564        -1.06620         4.15734
| 16>    C       -5.57536        -0.37644         5.04489
| 17>    C       -6.14457         0.67002         4.41792
| 18>    C       -5.61320         0.72423         3.04344
| 19>    O       -5.85837         1.50402         2.15518
| 20>    C       -4.65024        -0.43968         2.95163
| 21>    C       -3.93888        -0.70703         1.77078
| 22>    S       -4.18947         0.33522         0.34481
| 23>    C       -3.04355        -0.64251        -0.47042
| 24>    C       -2.56750        -1.66213         0.37919
| 25>    N       -3.07183        -1.67783         1.59887
| 26>    C       -1.56088        -2.51815        -0.32099
| 27>    C       -1.51267        -1.86151        -1.66882
| 28>    C       -2.39957        -0.77081        -1.71284
| 29>    S       -2.38782         0.01525        -3.23419
| 30>    C       -1.17573        -1.11441        -3.82710
| 31>    C       -0.82791        -2.05163        -2.85258
| 32>    C       -0.70145        -0.97053        -5.14407
| 33>    C        0.27140        -1.75314        -5.70278
| 34>    C        0.77793        -1.61330        -7.00588
| 35>    C        0.43287        -0.50924        -7.91343
| 36>    C        1.11330        -0.61485        -9.05698
| 37>    C        1.96656        -1.82481        -8.99650
| 38>    O        2.65874        -2.25654        -9.88918
| 39>    C        1.72556        -2.41546        -7.64062
| 40>    C        2.31661        -3.61812        -7.19964
| 41>    S        1.55350        -4.61533        -5.96211
| 42>    C        2.78455        -5.83259        -6.05036
| 43>    C        3.73769        -5.47205        -6.97636
| 44>    C        3.49319        -4.23708        -7.63515
| 45>    C        4.55126        -3.92145        -8.53145
| 46>    C        5.52177        -4.86383        -8.56602
| 47>    C        6.75946        -4.86985        -9.38410
| 48>    S        5.20931        -6.21880        -7.48276
| 49>    C        2.73975        -6.98922        -5.23252
| 50>    N        1.84217        -7.28246        -4.33492
| 51>    C        2.23001        -8.48962        -3.81834
| 52>    C        3.38551        -8.87649        -4.45536
| 53>    O        3.71261        -7.93536        -5.34746
| 54>    C        1.47637        -9.16757        -2.77417
| 55>    O        1.78180       -10.22068        -2.27606
| 56>    H       -4.08055        -1.93180         4.42562
| 57>    H       -5.75222        -0.68733         6.05943
| 58>    H       -6.86071         1.36908         4.80350
| 59>    H       -1.88609        -3.55836        -0.37965
| 60>    H       -0.59399        -2.50229         0.18488
| 61>    H       -0.11169        -2.83361        -3.02524
| 62>    H       -1.16338        -0.18531        -5.72547
| 63>    H        0.69889        -2.53708        -5.09624
| 64>    H       -0.26388         0.26781        -7.65793
| 65>    H        1.08509         0.02989        -9.91464
| 66>    H        4.57287        -3.03690        -9.13830
| 67>    H        7.64073        -4.93133        -8.74577
| 68>    H        6.81487        -3.96328        -9.98111
| 69>    H        6.77216        -5.73248       -10.05003
| 70>    H        4.01157        -9.73929        -4.35915
| 71>    H        0.57208        -8.61063        -2.47106
| 72> *
| 73>
| 74>                          ****END OF INPUT****

CARTESIAN COORDINATES (ANGSTROEM)
---------------------------------
  C     -4.655640   -1.066200    4.157340
  C     -5.575360   -0.376440    5.044890
  C     -6.144570    0.670020    4.417920
  C     -5.613200    0.724230    3.043440
  O     -5.858370    1.504020    2.155180
  C     -4.650240   -0.439680    2.951630
  C     -3.938880   -0.707030    1.770780
  S     -4.189470    0.335220    0.344810
  C     -3.043550   -0.642510   -0.470420
  C     -2.567500   -1.662130    0.379190
  N     -3.071830   -1.677830    1.598870
  C     -1.560880   -2.518150   -0.320990
  C     -1.512670   -1.861510   -1.668820
  C     -2.399570   -0.770810   -1.712840
  S     -2.387820    0.015250   -3.234190
  C     -1.175730   -1.114410   -3.827100
  C     -0.827910   -2.051630   -2.852580
  C     -0.701450   -0.970530   -5.144070
  C      0.271400   -1.753140   -5.702780
  C      0.777930   -1.613300   -7.005880
  C      0.432870   -0.509240   -7.913430
  C      1.113300   -0.614850   -9.056980
  C      1.966560   -1.824810   -8.996500
  O      2.658740   -2.256540   -9.889180
  C      1.725560   -2.415460   -7.640620
  C      2.316610   -3.618120   -7.199640
  S      1.553500   -4.615330   -5.962110
  C      2.784550   -5.832590   -6.050360
  C      3.737690   -5.472050   -6.976360
  C      3.493190   -4.237080   -7.635150
  C      4.551260   -3.921450   -8.531450
  C      5.521770   -4.863830   -8.566020
  C      6.759460   -4.869850   -9.384100
  S      5.209310   -6.218800   -7.482760
  C      2.739750   -6.989220   -5.232520
  N      1.842170   -7.282460   -4.334920
  C      2.230010   -8.489620   -3.818340
  C      3.385510   -8.876490   -4.455360
  O      3.712610   -7.935360   -5.347460
  C      1.476370   -9.167570   -2.774170
  O      1.781800  -10.220680   -2.276060
  H     -4.080550   -1.931800    4.425620
  H     -5.752220   -0.687330    6.059430
  H     -6.860710    1.369080    4.803500
  H     -1.886090   -3.558360   -0.379650
  H     -0.593990   -2.502290    0.184880
  H     -0.111690   -2.833610   -3.025240
  H     -1.163380   -0.185310   -5.725470
  H      0.698890   -2.537080   -5.096240
  H     -0.263880    0.267810   -7.657930
  H      1.085090    0.029890   -9.914640
  H      4.572870   -3.036900   -9.138300
  H      7.640730   -4.931330   -8.745770
  H      6.814870   -3.963280   -9.981110
  H      6.772160   -5.732480  -10.050030
  H      4.011570   -9.739290   -4.359150
  H      0.572080   -8.610630   -2.471060

 Total Charge           Charge          ....    0
 Multiplicity           Mult            ....    1
 Number of Electrons    NEL             ....  312
 Basis Dimension        Dim             ....  670

ORBITAL ENERGIES
----------------

  NO   OCC          E(Eh)            E(eV)
   0   2.0000     -88.968805     -2420.9643
   1   2.0000     -88.966868     -2420.9116
   2   2.0000     -88.959652     -2420.7152
   3   2.0000     -88.940605     -2420.1969
   4   2.0000     -19.311436      -525.4909
   5   2.0000     -19.238390      -523.5032
   6   2.0000     -19.215554      -522.8818
   7   2.0000     -19.206626      -522.6389
   8   2.0000     -14.414068      -392.2267
   9   2.0000     -14.408546      -392.0765
  10   2.0000     -10.373361      -282.2735
  11   2.0000     -10.370988      -282.2089
  12   2.0000     -10.358560      -281.8707
  13   2.0000     -10.351737      -281.6851
  14   2.0000     -10.342095      -281.4227
  15   2.0000     -10.337287      -281.2919
  16   2.0000     -10.313378      -280.6413
  17   2.0000     -10.309456      -280.5346
  18   2.0000     -10.309378      -280.5324
  19   2.0000     -10.308734      -280.5149
  20   2.0000     -10.305362      -280.4232
  21   2.0000     -10.305072      -280.4153
  22   2.0000     -10.302561      -280.3469
  23   2.0000     -10.300064      -280.2790
  24   2.0000     -10.299612      -280.2667
  25   2.0000     -10.299120      -280.2533
  26   2.0000     -10.295836      -280.1640
  27   2.0000     -10.294078      -280.1161
  28   2.0000     -10.293979      -280.1134
  29   2.0000     -10.292875      -280.0834
  30   2.0000     -10.290464      -280.0178
  31   2.0000     -10.289819      -280.0002
  32   2.0000     -10.287150      -279.9276
  33   2.0000     -10.286094      -279.8989
  34   2.0000     -10.282008      -279.7877
  35   2.0000     -10.279589      -279.7218
  36   2.0000     -10.277891      -279.6756
  37   2.0000     -10.277689      -279.6701
  38   2.0000     -10.272230      -279.5216
  39   2.0000     -10.269325      -279.4425
  40   2.0000     -10.257414      -279.1184
  41   2.0000      -8.063976      -219.4319
  42   2.0000      -8.060945      -219.3495
  43   2.0000      -8.053773      -219.1543
  44   2.0000      -8.036711      -218.6900
  45   2.0000      -6.033256      -164.1732
  46   2.0000      -6.030271      -164.0920
  47   2.0000      -6.029231      -164.0637
  48   2.0000      -6.026083      -163.9781
  49   2.0000      -6.025938      -163.9741
  50   2.0000      -6.023417      -163.9055
  51   2.0000      -6.023243      -163.9008
  52   2.0000      -6.019001      -163.7853
  53   2.0000      -6.015627      -163.6935
  54   2.0000      -6.006529      -163.4460
  55   2.0000      -6.002191      -163.3279
  56   2.0000      -5.997801      -163.2085
  57   2.0000      -1.239118       -33.7181
  58   2.0000      -1.149056       -31.2674
  59   2.0000      -1.127684       -30.6858
  60   2.0000      -1.120019       -30.4773
  61   2.0000      -1.068369       -29.0718
  62   2.0000      -1.019858       -27.7517
  63   2.0000      -1.001966       -27.2649
  64   2.0000      -1.000267       -27.2186
  65   2.0000      -0.971188       -26.4274
  66   2.0000      -0.968828       -26.3631
  67   2.0000      -0.937870       -25.5207
  68   2.0000      -0.932421       -25.3725
  69   2.0000      -0.897856       -24.4319
  70   2.0000      -0.895044       -24.3554
  71   2.0000      -0.887075       -24.1385
  72   2.0000      -0.855988       -23.2926
  73   2.0000      -0.851506       -23.1707
  74   2.0000      -0.836759       -22.7694
  75   2.0000      -0.834809       -22.7163
  76   2.0000      -0.820278       -22.3209
  77   2.0000      -0.800961       -21.7953
  78   2.0000      -0.781116       -21.2553
  79   2.0000      -0.779688       -21.2164
  80   2.0000      -0.769627       -20.9426
  81   2.0000      -0.760840       -20.7035
  82   2.0000      -0.756725       -20.5915
  83   2.0000      -0.746283       -20.3074
  84   2.0000      -0.714620       -19.4458
  85   2.0000      -0.707861       -19.2619
  86   2.0000      -0.688798       -18.7432
  87   2.0000      -0.681651       -18.5487
  88   2.0000      -0.667662       -18.1680
  89   2.0000      -0.655594       -17.8396
  90   2.0000      -0.649038       -17.6612
  91   2.0000      -0.633589       -17.2408
  92   2.0000      -0.626897       -17.0587
  93   2.0000      -0.623651       -16.9704
  94   2.0000      -0.614945       -16.7335
  95   2.0000      -0.607826       -16.5398
  96   2.0000      -0.596731       -16.2379
  97   2.0000      -0.594118       -16.1668
  98   2.0000      -0.589077       -16.0296
  99   2.0000      -0.586858       -15.9692
 100   2.0000      -0.580997       -15.8097
 101   2.0000      -0.573173       -15.5968
 102   2.0000      -0.565133       -15.3780
 103   2.0000      -0.559151       -15.2153
 104   2.0000      -0.554609       -15.0917
 105   2.0000      -0.550100       -14.9690
 106   2.0000      -0.536020       -14.5859
 107   2.0000      -0.529610       -14.4114
 108   2.0000      -0.524078       -14.2609
 109   2.0000      -0.522938       -14.2299
 110   2.0000      -0.516958       -14.0672
 111   2.0000      -0.515111       -14.0169
 112   2.0000      -0.512794       -13.9538
 113   2.0000      -0.507234       -13.8025
 114   2.0000      -0.506166       -13.7735
 115   2.0000      -0.505185       -13.7468
 116   2.0000      -0.501589       -13.6489
 117   2.0000      -0.497888       -13.5482
 118   2.0000      -0.489845       -13.3294
 119   2.0000      -0.485043       -13.1987
 120   2.0000      -0.483881       -13.1671
 121   2.0000      -0.483320       -13.1518
 122   2.0000      -0.481408       -13.0998
 123   2.0000      -0.478530       -13.0215
 124   2.0000      -0.476895       -12.9770
 125   2.0000      -0.474154       -12.9024
 126   2.0000      -0.472670       -12.8620
 127   2.0000      -0.467644       -12.7252
 128   2.0000      -0.461086       -12.5468
 129   2.0000      -0.454826       -12.3764
 130   2.0000      -0.448151       -12.1948
 131   2.0000      -0.435479       -11.8500
 132   2.0000      -0.432861       -11.7787
 133   2.0000      -0.427390       -11.6299
 134   2.0000      -0.423879       -11.5343
 135   2.0000      -0.417475       -11.3601
 136   2.0000      -0.413485       -11.2515
 137   2.0000      -0.404962       -11.0196
 138   2.0000      -0.404647       -11.0110
 139   2.0000      -0.398051       -10.8315
 140   2.0000      -0.390697       -10.6314
 141   2.0000      -0.373738       -10.1699
 142   2.0000      -0.372227       -10.1288
 143   2.0000      -0.356252        -9.6941
 144   2.0000      -0.353616        -9.6224
 145   2.0000      -0.347732        -9.4623
 146   2.0000      -0.343201        -9.3390
 147   2.0000      -0.331164        -9.0114
 148   2.0000      -0.329929        -8.9778
 149   2.0000      -0.328024        -8.9260
 150   2.0000      -0.318784        -8.6746
 151   2.0000      -0.314843        -8.5673
 152   2.0000      -0.294744        -8.0204
 153   2.0000      -0.292278        -7.9533
 154   2.0000      -0.253214        -6.8903
 155   2.0000      -0.219039        -5.9604
 156   0.0000      -0.098644        -2.6842
 157   0.0000      -0.078883        -2.1465
 158   0.0000      -0.026077        -0.7096
 159   0.0000      -0.018924        -0.5150
 160   0.0000      -0.009930        -0.2702

MULLIKEN ATOMIC CHARGES
-----------------------
   0 C :   -0.038307
   1 C :    0.063667
   2 C :   -0.033089
   3 C :    0.130017
   4 O :   -0.134692
   5 C :    0.040800
   6 C :   -0.119832
   7 S :    0.166165
   8 C :   -0.044800
   9 C :   -0.228566
  10 N :    0.000328
  11 C :    0.393073
  12 C :   -0.158316
  13 C :   -0.101938
  14 S :    0.158605
  15 C :   -0.086925
  16 C :   -0.011934
  17 C :    0.051574
  18 C :   -0.049159
  19 C :    0.049081
  20 C :    0.042837
  21 C :   -0.020022
  22 C :    0.132234
  23 O :   -0.141502
  24 C :   -0.034895
  25 C :   -0.140229
  26 S :    0.165736
  27 C :   -0.191271
  28 C :   -0.012164
  29 C :    0.108189
  30 C :    0.012395
  31 C :   -0.215288
  32 C :    0.116493
  33 S :    0.117523
  34 C :    0.070435
  35 N :   -0.091645
  36 C :   -0.047558
  37 C :    0.133451
  38 O :   -0.176914
  39 C :    0.166262
  40 O :   -0.179362
  41 H :    0.004121
  42 H :    0.008405
  43 H :   -0.003738
  44 H :    0.040128
  45 H :    0.038169
  46 H :   -0.007602
  47 H :   -0.019779
  48 H :   -0.002557
  49 H :   -0.005731
  50 H :   -0.009314
  51 H :   -0.010923
  52 H :    0.031576
  53 H :    0.025330
  54 H :    0.035163
  55 H :    0.032333
  56 H :   -0.016036
Sum of atomic charges:    0.0000000

LOEWDIN ATOMIC CHARGES
----------------------
   0 C :    0.010740
   1 C :    0.030728
   2 C :   -0.068107
   3 C :    0.095429
   4 O :   -0.104860
   5 C :   -0.087917
   6 C :   -0.126056
   7 S :    0.452500
   8 C :   -0.220543
   9 C :   -0.033179
  10 N :   -0.081984
  11 C :   -0.012291
  12 C :   -0.044519
  13 C :   -0.190288
  14 S :    0.443259
  15 C :   -0.171918
  16 C :   -0.035754
  17 C :   -0.016641
  18 C :   -0.043235
  19 C :   -0.009009
  20 C :    0.025556
  21 C :   -0.047648
  22 C :    0.093111
  23 O :   -0.112985
  24 C :   -0.102795
  25 C :   -0.148348
  26 S :    0.474135
  27 C :   -0.237519
  28 C :   -0.172307
  29 C :   -0.063400
  30 C :   -0.061326
  31 C :   -0.148686
  32 C :   -0.059478
  33 S :    0.381957
  34 C :    0.030510
  35 N :   -0.115402
  36 C :   -0.108234
  37 C :    0.068999
  38 O :    0.022007
  39 C :    0.102871
  40 O :   -0.135961
  41 H :    0.034169
  42 H :    0.033345
  43 H :    0.031663
  44 H :    0.057922
  45 H :    0.056873
  46 H :    0.035973
  47 H :    0.026601
  48 H :    0.013209
  49 H :    0.028025
  50 H :    0.031355
  51 H :    0.029272
  52 H :    0.036625
  53 H :    0.040267
  54 H :    0.038392
  55 H :    0.035019
  56 H :   -0.000124

  Mayer bond orders larger than 0.100000
B(  0-C ,  1-C ) :   1.0040 B(  0-C ,  5-C ) :   1.6729 B(  0-C , 41-H ) :   1.0197
B(  1-C ,  2-C ) :   1.7088 B(  1-C , 42-H ) :   0.9995 B(  2-C ,  3-C ) :   1.0003
B(  2-C , 43-H ) :   1.0185 B(  3-C ,  4-O ) :   2.1646 B(  3-C ,  5-C ) :   0.8973
B(  5-C ,  6-C ) :   1.1238 B(  6-C ,  7-S ) :   1.0878 B(  6-C , 10-N ) :   1.6585
B(  7-S ,  8-C ) :   1.0655 B(  8-C ,  9-C ) :   1.4393 B(  8-C , 13-C ) :   1.2161
B(  9-C , 10-N ) :   1.4774 B(  9-C , 11-C ) :   1.0413 B( 11-C , 12-C ) :   0.9796
B( 11-C , 44-H ) :   0.8604 B( 11-C , 45-H ) :   0.8621 B( 12-C , 13-C ) :   1.4785
B( 12-C , 16-C ) :   1.3502 B( 13-C , 14-S ) :   1.0993 B( 14-S , 15-C ) :   1.0922
B( 15-C , 16-C ) :   1.4142 B( 15-C , 17-C ) :   1.1662 B( 16-C , 46-H ) :   0.9966
B( 17-C , 18-C ) :   1.5977 B( 17-C , 47-H ) :   0.9635 B( 18-C , 19-C ) :   1.1992
B( 18-C , 48-H ) :   0.9525 B( 19-C , 20-C ) :   1.0032 B( 19-C , 24-C ) :   1.4940
B( 20-C , 21-C ) :   1.7345 B( 20-C , 49-H ) :   0.9986 B( 21-C , 22-C ) :   0.9942
B( 21-C , 50-H ) :   1.0124 B( 22-C , 23-O ) :   2.1579 B( 22-C , 24-C ) :   0.9273
B( 24-C , 25-C ) :   1.1613 B( 25-C , 26-S ) :   1.1061 B( 25-C , 27-C ) :   0.1215
B( 25-C , 29-C ) :   1.4087 B( 26-S , 27-C ) :   1.1207 B( 27-C , 28-C ) :   1.5132
B( 27-C , 34-C ) :   1.1091 B( 28-C , 29-C ) :   1.2341 B( 28-C , 33-S ) :   1.0560
B( 29-C , 30-C ) :   1.1559 B( 30-C , 31-C ) :   1.6774 B( 30-C , 51-H ) :   0.9847
B( 31-C , 32-C ) :   1.0727 B( 31-C , 33-S ) :   1.0435 B( 32-C , 52-H ) :   0.9492
B( 32-C , 53-H ) :   0.9572 B( 32-C , 54-H ) :   0.9482 B( 34-C , 35-N ) :   1.7680
B( 34-C , 38-O ) :   1.1886 B( 35-N , 36-C ) :   1.2945 B( 36-C , 37-C ) :   1.5147
B( 36-C , 39-C ) :   0.9724 B( 37-C , 38-O ) :   1.1552 B( 37-C , 55-H ) :   0.9916
B( 39-C , 40-O ) :   2.2033 B( 39-C , 56-H ) :   0.9511

-----------------------------------------------------------------------------
         ABSORPTION SPECTRUM VIA TRANSITION ELECTRIC DIPOLE MOMENTS
-----------------------------------------------------------------------------
State   Energy  Wavelength   fosc         T2         TX        TY        TZ
        (cm-1)    (nm)                  (au**2)     (au)      (au)      (au)
-----------------------------------------------------------------------------
   0   11779.5    848.9   0.774064436  21.63341   2.85005  -2.24322  -2.91181
   1   15949.9    627.0   0.195645332   4.03820   0.65661   0.33225  -1.86994
   2   19640.5    509.2   0.269653221   4.51990  -0.83812  -0.05151   1.95315
   3   22875.3    437.2   0.223143510   3.21140   0.91791  -0.47578  -1.46372
   4   25048.5    399.2   0.071407272   0.93850   0.52111  -0.67632  -0.45775
   5   25148.4    397.6   0.000103810   0.00136  -0.01270  -0.02761  -0.02086
   6   25689.2    389.3   0.119905126   1.53660  -0.43898   1.11109  -0.33071
   7   26022.8    384.3   0.037816018   0.47841  -0.57714   0.06189   0.37615
   8   27622.4    362.0   0.485257109   5.78344  -0.32974  -1.32278   1.98115
   9   28764.0    347.7   0.221774275   2.53827   0.50578   0.53445  -1.41309
  10   29827.9    335.3   0.058269581   0.64312   0.33987  -0.01487  -0.72622
  11   30773.5    325.0   0.071846484   0.76861   0.22720   0.40217  -0.74515
  12   32809.2    304.8   0.111581204   1.11962   0.08140   0.74499  -0.74699
  13   32838.3    304.5   0.000604133   0.00606   0.05325   0.01662   0.05427
  14   33698.7    296.7   0.031091744   0.30374   0.23809  -0.37621  -0.32484
  15   33888.2    295.1   0.028994826   0.28167  -0.46798   0.19619   0.15549
  16   34082.8    293.4   0.051139852   0.49397   0.05892  -0.58945   0.37821
  17   34424.4    290.5   0.000006657   0.00006   0.00495  -0.00610  -0.00141
  18   35206.3    284.0   0.029589520   0.27669   0.26971   0.09984  -0.44043
  19   36022.9    277.6   0.081917100   0.74864   0.41819   0.49387  -0.57433
  20   36325.5    275.3   0.000398201   0.00361   0.01916  -0.05384  -0.01853
  21   36940.6    270.7   0.030643988   0.27310  -0.20418  -0.02958   0.48014
  22   37979.3    263.3   0.016147910   0.13997   0.31012  -0.07357  -0.19593
  23   38387.4    260.5   0.000246325   0.00211  -0.02877  -0.02785   0.02257
  24   38589.6    259.1   0.007461603   0.06366   0.24782  -0.04699   0.00571
  25   39156.8    255.4   0.002110848   0.01775  -0.09888   0.08600   0.02399

FINAL SINGLE POINT ENERGY     -3191.513746797666

DIPOLE MOMENT
-------------
                                X             Y             Z
Electronic contribution:     -9.78372       0.93015       3.81695
Nuclear contribution   :      9.58936       0.32768      -2.86674
                        -----------------------------------------
Total Dipole Moment    :     -0.19436       1.25782       0.95020
                        -----------------------------------------
Magnitude (a.u.)       :      1.58832
Magnitude (Debye)      :      4.03720

Rotational constants in cm-1:     0.003836     0.000860     0.000717
Rotational constants in MHz :   114.999229    25.791576    21.482974

                             ****ORCA TERMINATED NORMALLY****
TOTAL RUN TIME: 0 days 0 hours 5 minutes 0 seconds 243 msec
