                         Program Version 4.2.0 -  RELEASE  -
|  1> # ORCA input file
|  2> # SCF done       -217.613216169581          0.000632294029
|  3> ! CAM-B3LYP def2-SVP def2/J RIJCOSX Grid4 TightSCF
|  4> %maxcore 5000
|  5> %tddft
|  6>     Mode sTDDFT
|  7>     Ethresh 5.0
|  8>     maxcore 5000
|  9> end
| 10>
| 11> %pal
| 12>   nprocs 6
| 13>   end
| 14> * xyz 0 1
| 15>    C        1.31358        -0.51981         3.09811
| 16>    F        2.31142         0.35018         2.93575
| 17>    C        0.31917        -0.26703         4.03854
| 18>    F        0.34865         0.84363         4.77453
| 19>    C       -0.70312        -1.19669         4.20117
| 20>    F       -1.66743        -0.97960         5.09746
| 21>    C       -0.72417        -2.34969         3.43024
| 22>    F       -1.73749        -3.20580         3.61988
| 23>    C        0.25550        -2.63370         2.46576
| 24>    C        1.27760        -1.67880         2.33541
| 25>    F        2.27940        -1.88107         1.47363
| 26>    C        0.22277        -3.83476         1.66544
| 27>    C        0.83541        -4.05675         0.44759
| 28>    C        0.60683        -5.34890        -0.02701
| 29>    C       -0.17838        -6.11950         0.84811
| 30>    S       -0.65732        -5.25266         2.22856
| 31>    C       -0.33366        -7.41642         0.29256
| 32>    C        0.35059        -7.46417        -0.93088
| 33>    C        0.95666        -6.16267        -1.17877
| 34>    C        1.68765        -5.79098        -2.26799
| 35>    C        1.96014        -6.68096        -3.32892
| 36>    N        2.18701        -7.39882        -4.19351
| 37>    C        2.21157        -4.48916        -2.41877
| 38>    N        2.63385        -3.43228        -2.55579
| 39>    C        0.26741        -8.71230        -1.55068
| 40>    C       -0.47185        -9.60987        -0.80513
| 41>    S       -1.08165        -8.90348         0.68073
| 42>    C       -0.74833       -10.96984        -1.11167
| 43>    C       -1.46300       -11.86301        -0.36500
| 44>    C       -1.53506       -13.15392        -0.93720
| 45>    C       -2.19924       -14.29106        -0.43205
| 46>    C       -3.01170       -14.24907         0.76626
| 47>    C       -3.13997       -15.20547         1.73243
| 48>    C       -4.07579       -14.85500         2.72975
| 49>    C       -4.68189       -13.64758         2.53787
| 50>    S       -4.07786       -12.90699         1.09508
| 51>    C       -5.70969       -12.97647         3.37241
| 52>   Cl       -4.41339       -15.88009         4.07065
| 53>    C       -2.05773       -15.46419        -1.16508
| 54>    C       -1.34120       -15.54160        -2.38605
| 55>    C       -0.71755       -14.39327        -2.91513
| 56>    C       -0.81366       -13.23246        -2.15454
| 57>    S       -0.11493       -11.69253        -2.57599
| 58>    C       -0.03351       -14.39579        -4.19223
| 59>    C        1.10802       -13.73048        -4.53725
| 60>    C        1.45535       -13.90633        -5.89429
| 61>    C        0.58983       -14.68730        -6.60317
| 62>    S       -0.68819       -15.23670        -5.57360
| 63>    C        0.63866       -15.06950        -8.03666
| 64>   Cl        2.85987       -13.18606        -6.58163
| 65>    C       -1.35009       -16.85193        -2.91892
| 66>    C       -2.06098       -17.74570        -2.17018
| 67>    S       -2.75938       -17.00333        -0.74618
| 68>    C       -2.24966       -19.13293        -2.41483
| 69>    C       -2.94929       -20.03692        -1.64280
| 70>    C       -2.91162       -21.32377        -2.18410
| 71>    C       -2.17723       -21.39553        -3.37748
| 72>    S       -1.53495       -19.88369        -3.83614
| 73>    C       -2.18130       -22.74106        -3.84476
| 74>    C       -2.93210       -23.50578        -2.94123
| 75>    C       -3.41196       -22.65270        -1.86923
| 76>    C       -4.16182       -23.02347        -0.78989
| 77>    C       -4.56813       -24.35900        -0.59724
| 78>    N       -4.89201       -25.45006        -0.44977
| 79>    C       -4.57037       -22.10490         0.19835
| 80>    N       -4.90397       -21.36264         1.00672
| 81>    C       -3.00967       -24.85084        -3.30960
| 82>    C       -2.32724       -25.10931        -4.48077
| 83>    S       -1.60603       -23.66064        -5.16516
| 84>    C       -2.16808       -26.34719        -5.20207
| 85>    C       -2.40077       -27.59829        -4.69404
| 86>    O       -2.28268       -28.71596        -5.42971
| 87>    C       -1.94271       -28.65493        -6.73600
| 88>    C       -1.89664       -29.84865        -7.45843
| 89>    C       -1.53974       -29.81999        -8.78769
| 90>    C       -1.22182       -28.61479        -9.41353
| 91>    C       -1.26122       -27.43835        -8.70375
| 92>    C       -1.62588       -27.44173        -7.35297
| 93>    C       -1.67126       -26.20998        -6.57423
| 94>    O       -1.30963       -25.12704        -7.02364
| 95>    C       -2.76562       -27.93174        -3.28550
| 96>    H        1.40523        -3.31471        -0.07947
| 97>    H        0.71669        -8.97360        -2.49182
| 98>    H       -1.90872       -11.59727         0.57615
| 99>    H       -2.56835       -16.11400         1.76381
|100>    H       -5.93006       -13.58984         4.24234
|101>    H       -6.62731       -12.82614         2.80414
|102>    H       -5.35823       -12.00040         3.70520
|103>    H        1.70944       -13.16374        -3.85139
|104>    H        1.56291       -14.70704        -8.47952
|105>    H       -0.20349       -14.63800        -8.57773
|106>    H        0.58935       -16.15180        -8.14808
|107>    H       -0.83754       -17.13865        -3.81866
|108>    H       -3.45386       -19.75740        -0.73519
|109>    H       -3.56927       -25.58013        -2.75986
|110>    H       -2.14355       -30.77102        -6.95725
|111>    H       -1.50534       -30.74073        -9.34969
|112>    H       -0.94384       -28.61029       -10.45598
|113>    H       -1.01864       -26.48995        -9.15800
|114>    H       -3.82447       -27.75247        -3.10291
|115>    H       -2.18644       -27.33716        -2.58358
|116>    H       -2.56966       -28.98837        -3.11771
|117> *
|118>
|119>                          ****END OF INPUT****

CARTESIAN COORDINATES (ANGSTROEM)
---------------------------------
  C      1.313580   -0.519810    3.098110
  F      2.311420    0.350180    2.935750
  C      0.319170   -0.267030    4.038540
  F      0.348650    0.843630    4.774530
  C     -0.703120   -1.196690    4.201170
  F     -1.667430   -0.979600    5.097460
  C     -0.724170   -2.349690    3.430240
  F     -1.737490   -3.205800    3.619880
  C      0.255500   -2.633700    2.465760
  C      1.277600   -1.678800    2.335410
  F      2.279400   -1.881070    1.473630
  C      0.222770   -3.834760    1.665440
  C      0.835410   -4.056750    0.447590
  C      0.606830   -5.348900   -0.027010
  C     -0.178380   -6.119500    0.848110
  S     -0.657320   -5.252660    2.228560
  C     -0.333660   -7.416420    0.292560
  C      0.350590   -7.464170   -0.930880
  C      0.956660   -6.162670   -1.178770
  C      1.687650   -5.790980   -2.267990
  C      1.960140   -6.680960   -3.328920
  N      2.187010   -7.398820   -4.193510
  C      2.211570   -4.489160   -2.418770
  N      2.633850   -3.432280   -2.555790
  C      0.267410   -8.712300   -1.550680
  C     -0.471850   -9.609870   -0.805130
  S     -1.081650   -8.903480    0.680730
  C     -0.748330  -10.969840   -1.111670
  C     -1.463000  -11.863010   -0.365000
  C     -1.535060  -13.153920   -0.937200
  C     -2.199240  -14.291060   -0.432050
  C     -3.011700  -14.249070    0.766260
  C     -3.139970  -15.205470    1.732430
  C     -4.075790  -14.855000    2.729750
  C     -4.681890  -13.647580    2.537870
  S     -4.077860  -12.906990    1.095080
  C     -5.709690  -12.976470    3.372410
  Cl    -4.413390  -15.880090    4.070650
  C     -2.057730  -15.464190   -1.165080
  C     -1.341200  -15.541600   -2.386050
  C     -0.717550  -14.393270   -2.915130
  C     -0.813660  -13.232460   -2.154540
  S     -0.114930  -11.692530   -2.575990
  C     -0.033510  -14.395790   -4.192230
  C      1.108020  -13.730480   -4.537250
  C      1.455350  -13.906330   -5.894290
  C      0.589830  -14.687300   -6.603170
  S     -0.688190  -15.236700   -5.573600
  C      0.638660  -15.069500   -8.036660
  Cl     2.859870  -13.186060   -6.581630
  C     -1.350090  -16.851930   -2.918920
  C     -2.060980  -17.745700   -2.170180
  S     -2.759380  -17.003330   -0.746180
  C     -2.249660  -19.132930   -2.414830
  C     -2.949290  -20.036920   -1.642800
  C     -2.911620  -21.323770   -2.184100
  C     -2.177230  -21.395530   -3.377480
  S     -1.534950  -19.883690   -3.836140
  C     -2.181300  -22.741060   -3.844760
  C     -2.932100  -23.505780   -2.941230
  C     -3.411960  -22.652700   -1.869230
  C     -4.161820  -23.023470   -0.789890
  C     -4.568130  -24.359000   -0.597240
  N     -4.892010  -25.450060   -0.449770
  C     -4.570370  -22.104900    0.198350
  N     -4.903970  -21.362640    1.006720
  C     -3.009670  -24.850840   -3.309600
  C     -2.327240  -25.109310   -4.480770
  S     -1.606030  -23.660640   -5.165160
  C     -2.168080  -26.347190   -5.202070
  C     -2.400770  -27.598290   -4.694040
  O     -2.282680  -28.715960   -5.429710
  C     -1.942710  -28.654930   -6.736000
  C     -1.896640  -29.848650   -7.458430
  C     -1.539740  -29.819990   -8.787690
  C     -1.221820  -28.614790   -9.413530
  C     -1.261220  -27.438350   -8.703750
  C     -1.625880  -27.441730   -7.352970
  C     -1.671260  -26.209980   -6.574230
  O     -1.309630  -25.127040   -7.023640
  C     -2.765620  -27.931740   -3.285500
  H      1.405230   -3.314710   -0.079470
  H      0.716690   -8.973600   -2.491820
  H     -1.908720  -11.597270    0.576150
  H     -2.568350  -16.114000    1.763810
  H     -5.930060  -13.589840    4.242340
  H     -6.627310  -12.826140    2.804140
  H     -5.358230  -12.000400    3.705200
  H      1.709440  -13.163740   -3.851390
  H      1.562910  -14.707040   -8.479520
  H     -0.203490  -14.638000   -8.577730
  H      0.589350  -16.151800   -8.148080
  H     -0.837540  -17.138650   -3.818660
  H     -3.453860  -19.757400   -0.735190
  H     -3.569270  -25.580130   -2.759860
  H     -2.143550  -30.771020   -6.957250
  H     -1.505340  -30.740730   -9.349690
  H     -0.943840  -28.610290  -10.455980
  H     -1.018640  -26.489950   -9.158000
  H     -3.824470  -27.752470   -3.102910
  H     -2.186440  -27.337160   -2.583580
  H     -2.569660  -28.988370   -3.117710

 Total Charge           Charge          ....    0
 Multiplicity           Mult            ....    1
 Number of Electrons    NEL             ....  632
 Basis Dimension        Dim             .... 1279

ORBITAL ENERGIES
----------------

  NO   OCC          E(Eh)            E(eV)
   0   2.0000    -101.580961     -2764.1585
   1   2.0000    -101.580082     -2764.1345
   2   2.0000     -88.991014     -2421.5686
   3   2.0000     -88.989078     -2421.5159
   4   2.0000     -88.980494     -2421.2823
   5   2.0000     -88.970975     -2421.0233
   6   2.0000     -88.957903     -2420.6676
   7   2.0000     -88.956754     -2420.6363
   8   2.0000     -88.956675     -2420.6342
   9   2.0000     -88.954288     -2420.5692
  10   2.0000     -24.819203      -675.3648
  11   2.0000     -24.814142      -675.2271
  12   2.0000     -24.813435      -675.2079
  13   2.0000     -24.811077      -675.1437
  14   2.0000     -24.809408      -675.0983
  15   2.0000     -19.312718      -525.5258
  16   2.0000     -19.207820      -522.6713
  17   2.0000     -14.428206      -392.6114
  18   2.0000     -14.427965      -392.6049
  19   2.0000     -14.423266      -392.4770
  20   2.0000     -14.420313      -392.3967
  21   2.0000     -10.396304      -282.8978
  22   2.0000     -10.395350      -282.8719
  23   2.0000     -10.394665      -282.8532
  24   2.0000     -10.392812      -282.8028
  25   2.0000     -10.391962      -282.7796
  26   2.0000     -10.379921      -282.4520
  27   2.0000     -10.367185      -282.1055
  28   2.0000     -10.363982      -282.0183
  29   2.0000     -10.363154      -281.9958
  30   2.0000     -10.352086      -281.6946
  31   2.0000     -10.350404      -281.6488
  32   2.0000     -10.341579      -281.4087
  33   2.0000     -10.334390      -281.2130
  34   2.0000     -10.332374      -281.1582
  35   2.0000     -10.331032      -281.1217
  36   2.0000     -10.330180      -281.0985
  37   2.0000     -10.328320      -281.0479
  38   2.0000     -10.328133      -281.0428
  39   2.0000     -10.326118      -280.9879
  40   2.0000     -10.324821      -280.9527
  41   2.0000     -10.322530      -280.8903
  42   2.0000     -10.321322      -280.8574
  43   2.0000     -10.317243      -280.7464
  44   2.0000     -10.316425      -280.7242
  45   2.0000     -10.316396      -280.7234
  46   2.0000     -10.316209      -280.7183
  47   2.0000     -10.314112      -280.6612
  48   2.0000     -10.313110      -280.6340
  49   2.0000     -10.308403      -280.5059
  50   2.0000     -10.307217      -280.4736
  51   2.0000     -10.306944      -280.4662
  52   2.0000     -10.306239      -280.4470
  53   2.0000     -10.306065      -280.4423
  54   2.0000     -10.303288      -280.3667
  55   2.0000     -10.302849      -280.3548
  56   2.0000     -10.302734      -280.3517
  57   2.0000     -10.302060      -280.3333
  58   2.0000     -10.300366      -280.2872
  59   2.0000     -10.300024      -280.2779
  60   2.0000     -10.299428      -280.2617
  61   2.0000     -10.299392      -280.2607
  62   2.0000     -10.299151      -280.2541
  63   2.0000     -10.297142      -280.1995
  64   2.0000     -10.294600      -280.1303
  65   2.0000     -10.293681      -280.1053
  66   2.0000     -10.292844      -280.0825
  67   2.0000     -10.292009      -280.0598
  68   2.0000     -10.291238      -280.0388
  69   2.0000     -10.291145      -280.0363
  70   2.0000     -10.290717      -280.0246
  71   2.0000     -10.289941      -280.0035
  72   2.0000     -10.287021      -279.9241
  73   2.0000     -10.286930      -279.9216
  74   2.0000     -10.285108      -279.8720
  75   2.0000     -10.281575      -279.7759
  76   2.0000     -10.278345      -279.6880
  77   2.0000     -10.277639      -279.6688
  78   2.0000     -10.276756      -279.6447
  79   2.0000     -10.276137      -279.6279
  80   2.0000     -10.274842      -279.5927
  81   2.0000      -9.535696      -259.4795
  82   2.0000      -9.534883      -259.4574
  83   2.0000      -8.085402      -220.0150
  84   2.0000      -8.083545      -219.9644
  85   2.0000      -8.074970      -219.7311
  86   2.0000      -8.063118      -219.4086
  87   2.0000      -8.053568      -219.1487
  88   2.0000      -8.052401      -219.1170
  89   2.0000      -8.051707      -219.0981
  90   2.0000      -8.049385      -219.0349
  91   2.0000      -7.305964      -198.8054
  92   2.0000      -7.305133      -198.7828
  93   2.0000      -7.295757      -198.5276
  94   2.0000      -7.295671      -198.5253
  95   2.0000      -7.294942      -198.5055
  96   2.0000      -7.294864      -198.5034
  97   2.0000      -6.054651      -164.7554
  98   2.0000      -6.052820      -164.7056
  99   2.0000      -6.050330      -164.6379
 100   2.0000      -6.048664      -164.5925
 101   2.0000      -6.047834      -164.5699
 102   2.0000      -6.045861      -164.5162
 103   2.0000      -6.044196      -164.4709
 104   2.0000      -6.040054      -164.3582
 105   2.0000      -6.037380      -164.2855
 106   2.0000      -6.032740      -164.1592
 107   2.0000      -6.027675      -164.0214
 108   2.0000      -6.025743      -163.9688
 109   2.0000      -6.022887      -163.8911
 110   2.0000      -6.021722      -163.8594
 111   2.0000      -6.021437      -163.8516
 112   2.0000      -6.019116      -163.7885
 113   2.0000      -6.018715      -163.7776
 114   2.0000      -6.017534      -163.7454
 115   2.0000      -6.017248      -163.7377
 116   2.0000      -6.015620      -163.6933
 117   2.0000      -6.014919      -163.6743
 118   2.0000      -6.014451      -163.6615
 119   2.0000      -6.012958      -163.6209
 120   2.0000      -6.010623      -163.5574
 121   2.0000      -1.343012       -36.5452
 122   2.0000      -1.337978       -36.4082
 123   2.0000      -1.331514       -36.2323
 124   2.0000      -1.321012       -35.9466
 125   2.0000      -1.315422       -35.7945
 126   2.0000      -1.226957       -33.3872
 127   2.0000      -1.129307       -30.7300
 128   2.0000      -1.044062       -28.4104
 129   2.0000      -1.031764       -28.0757
 130   2.0000      -1.020502       -27.7693
 131   2.0000      -1.015574       -27.6352
 132   2.0000      -1.012497       -27.5515
 133   2.0000      -1.007952       -27.4278
 134   2.0000      -1.005424       -27.3590
 135   2.0000      -1.000709       -27.2307
 136   2.0000      -0.999572       -27.1997
 137   2.0000      -0.996684       -27.1212
 138   2.0000      -0.994276       -27.0556
 139   2.0000      -0.986852       -26.8536
 140   2.0000      -0.977258       -26.5925
 141   2.0000      -0.973929       -26.5020
 142   2.0000      -0.957408       -26.0524
 143   2.0000      -0.949588       -25.8396
 144   2.0000      -0.942897       -25.6575
 145   2.0000      -0.938393       -25.5350
 146   2.0000      -0.928121       -25.2555
 147   2.0000      -0.922048       -25.0902
 148   2.0000      -0.911888       -24.8137
 149   2.0000      -0.900193       -24.4955
 150   2.0000      -0.895058       -24.3558
 151   2.0000      -0.887300       -24.1447
 152   2.0000      -0.884507       -24.0687
 153   2.0000      -0.870005       -23.6740
 154   2.0000      -0.867659       -23.6102
 155   2.0000      -0.861886       -23.4531
 156   2.0000      -0.861193       -23.4342
 157   2.0000      -0.856360       -23.3027
 158   2.0000      -0.854269       -23.2459
 159   2.0000      -0.848636       -23.0926
 160   2.0000      -0.844765       -22.9872
 161   2.0000      -0.839258       -22.8374
 162   2.0000      -0.833850       -22.6902
 163   2.0000      -0.825129       -22.4529
 164   2.0000      -0.809057       -22.0156
 165   2.0000      -0.806741       -21.9525
 166   2.0000      -0.805778       -21.9263
 167   2.0000      -0.798550       -21.7296
 168   2.0000      -0.789611       -21.4864
 169   2.0000      -0.780249       -21.2317
 170   2.0000      -0.775283       -21.0965
 171   2.0000      -0.767514       -20.8851
 172   2.0000      -0.761643       -20.7254
 173   2.0000      -0.753337       -20.4993
 174   2.0000      -0.750237       -20.4150
 175   2.0000      -0.745098       -20.2751
 176   2.0000      -0.732957       -19.9448
 177   2.0000      -0.724843       -19.7240
 178   2.0000      -0.705240       -19.1906
 179   2.0000      -0.702704       -19.1216
 180   2.0000      -0.699226       -19.0269
 181   2.0000      -0.696016       -18.9396
 182   2.0000      -0.694661       -18.9027
 183   2.0000      -0.691687       -18.8218
 184   2.0000      -0.685198       -18.6452
 185   2.0000      -0.679836       -18.4993
 186   2.0000      -0.674288       -18.3483
 187   2.0000      -0.672453       -18.2984
 188   2.0000      -0.665025       -18.0963
 189   2.0000      -0.656566       -17.8661
 190   2.0000      -0.651640       -17.7320
 191   2.0000      -0.650839       -17.7102
 192   2.0000      -0.647447       -17.6179
 193   2.0000      -0.639985       -17.4149
 194   2.0000      -0.634037       -17.2530
 195   2.0000      -0.632594       -17.2138
 196   2.0000      -0.629486       -17.1292
 197   2.0000      -0.625188       -17.0122
 198   2.0000      -0.623335       -16.9618
 199   2.0000      -0.622274       -16.9329
 200   2.0000      -0.619286       -16.8516
 201   2.0000      -0.614646       -16.7254
 202   2.0000      -0.609403       -16.5827
 203   2.0000      -0.606730       -16.5100
 204   2.0000      -0.602572       -16.3968
 205   2.0000      -0.599462       -16.3122
 206   2.0000      -0.598237       -16.2789
 207   2.0000      -0.596925       -16.2432
 208   2.0000      -0.589736       -16.0475
 209   2.0000      -0.587462       -15.9857
 210   2.0000      -0.584955       -15.9174
 211   2.0000      -0.583057       -15.8658
 212   2.0000      -0.578614       -15.7449
 213   2.0000      -0.577536       -15.7156
 214   2.0000      -0.571263       -15.5449
 215   2.0000      -0.567601       -15.4452
 216   2.0000      -0.557697       -15.1757
 217   2.0000      -0.551902       -15.0180
 218   2.0000      -0.549975       -14.9656
 219   2.0000      -0.546749       -14.8778
 220   2.0000      -0.545676       -14.8486
 221   2.0000      -0.540237       -14.7006
 222   2.0000      -0.536600       -14.6016
 223   2.0000      -0.535652       -14.5758
 224   2.0000      -0.533144       -14.5076
 225   2.0000      -0.532292       -14.4844
 226   2.0000      -0.529420       -14.4062
 227   2.0000      -0.525346       -14.2954
 228   2.0000      -0.524144       -14.2627
 229   2.0000      -0.522511       -14.2183
 230   2.0000      -0.522085       -14.2067
 231   2.0000      -0.519730       -14.1426
 232   2.0000      -0.517635       -14.0856
 233   2.0000      -0.514509       -14.0005
 234   2.0000      -0.513896       -13.9838
 235   2.0000      -0.513552       -13.9745
 236   2.0000      -0.510068       -13.8797
 237   2.0000      -0.508463       -13.8360
 238   2.0000      -0.503677       -13.7057
 239   2.0000      -0.502545       -13.6750
 240   2.0000      -0.501774       -13.6540
 241   2.0000      -0.500095       -13.6083
 242   2.0000      -0.496798       -13.5186
 243   2.0000      -0.495636       -13.4869
 244   2.0000      -0.494935       -13.4679
 245   2.0000      -0.493172       -13.4199
 246   2.0000      -0.491327       -13.3697
 247   2.0000      -0.488343       -13.2885
 248   2.0000      -0.485795       -13.2192
 249   2.0000      -0.483606       -13.1596
 250   2.0000      -0.479096       -13.0369
 251   2.0000      -0.477380       -12.9902
 252   2.0000      -0.477337       -12.9890
 253   2.0000      -0.475491       -12.9388
 254   2.0000      -0.474648       -12.9158
 255   2.0000      -0.473199       -12.8764
 256   2.0000      -0.469925       -12.7873
 257   2.0000      -0.467587       -12.7237
 258   2.0000      -0.464645       -12.6436
 259   2.0000      -0.463659       -12.6168
 260   2.0000      -0.460819       -12.5395
 261   2.0000      -0.460415       -12.5285
 262   2.0000      -0.459237       -12.4965
 263   2.0000      -0.458732       -12.4827
 264   2.0000      -0.455637       -12.3985
 265   2.0000      -0.455056       -12.3827
 266   2.0000      -0.454513       -12.3679
 267   2.0000      -0.451374       -12.2825
 268   2.0000      -0.450016       -12.2456
 269   2.0000      -0.449394       -12.2286
 270   2.0000      -0.448160       -12.1950
 271   2.0000      -0.442735       -12.0474
 272   2.0000      -0.439241       -11.9524
 273   2.0000      -0.438169       -11.9232
 274   2.0000      -0.437750       -11.9118
 275   2.0000      -0.436540       -11.8789
 276   2.0000      -0.435005       -11.8371
 277   2.0000      -0.432965       -11.7816
 278   2.0000      -0.432368       -11.7653
 279   2.0000      -0.429733       -11.6936
 280   2.0000      -0.426208       -11.5977
 281   2.0000      -0.424402       -11.5486
 282   2.0000      -0.422872       -11.5069
 283   2.0000      -0.420738       -11.4489
 284   2.0000      -0.419192       -11.4068
 285   2.0000      -0.418321       -11.3831
 286   2.0000      -0.416275       -11.3274
 287   2.0000      -0.412488       -11.2244
 288   2.0000      -0.410572       -11.1722
 289   2.0000      -0.406875       -11.0716
 290   2.0000      -0.399632       -10.8745
 291   2.0000      -0.392138       -10.6706
 292   2.0000      -0.382629       -10.4119
 293   2.0000      -0.378928       -10.3112
 294   2.0000      -0.376329       -10.2404
 295   2.0000      -0.374160       -10.1814
 296   2.0000      -0.373442       -10.1619
 297   2.0000      -0.353179        -9.6105
 298   2.0000      -0.347702        -9.4615
 299   2.0000      -0.344930        -9.3860
 300   2.0000      -0.340498        -9.2654
 301   2.0000      -0.337465        -9.1829
 302   2.0000      -0.332912        -9.0590
 303   2.0000      -0.330508        -8.9936
 304   2.0000      -0.328714        -8.9448
 305   2.0000      -0.322917        -8.7870
 306   2.0000      -0.318065        -8.6550
 307   2.0000      -0.314669        -8.5626
 308   2.0000      -0.313687        -8.5358
 309   2.0000      -0.308105        -8.3840
 310   2.0000      -0.301466        -8.2033
 311   2.0000      -0.296509        -8.0684
 312   2.0000      -0.291574        -7.9341
 313   2.0000      -0.262290        -7.1373
 314   2.0000      -0.255567        -6.9543
 315   2.0000      -0.233803        -6.3621
 316   0.0000      -0.103475        -2.8157
 317   0.0000      -0.092088        -2.5058
 318   0.0000      -0.058083        -1.5805
 319   0.0000      -0.037048        -1.0081
 320   0.0000      -0.034575        -0.9408

MULLIKEN ATOMIC CHARGES
-----------------------
   0 C :    0.175922
   1 F :   -0.155797
   2 C :    0.134214
   3 F :   -0.150592
   4 C :    0.175376
   5 F :   -0.157561
   6 C :    0.135559
   7 F :   -0.168874
   8 C :    0.024194
   9 C :    0.148300
  10 F :   -0.158728
  11 C :   -0.108188
  12 C :   -0.030468
  13 C :    0.002176
  14 C :   -0.097771
  15 S :    0.209126
  16 C :   -0.102323
  17 C :    0.017758
  18 C :    0.302948
  19 C :   -0.299692
  20 C :   -0.188264
  21 N :    0.175431
  22 C :   -0.192084
  23 N :    0.180790
  24 C :   -0.063679
  25 C :   -0.043186
  26 S :    0.188465
  27 C :   -0.010173
  28 C :   -0.097840
  29 C :    0.087422
  30 C :    0.144190
  31 C :   -0.210976
  32 C :    0.032408
  33 C :    0.086597
  34 C :   -0.265668
  35 S :    0.131159
  36 C :    0.122905
  37 Cl:   -0.083380
  38 C :   -0.140287
  39 C :    0.092195
  40 C :    0.139758
  41 C :   -0.137404
  42 S :    0.118472
  43 C :   -0.212626
  44 C :    0.031755
  45 C :    0.084895
  46 C :   -0.264727
  47 S :    0.134196
  48 C :    0.123962
  49 Cl:   -0.084974
  50 C :   -0.101918
  51 C :   -0.005404
  52 S :    0.116562
  53 C :   -0.050846
  54 C :   -0.062098
  55 C :    0.010920
  56 C :   -0.102114
  57 S :    0.185076
  58 C :   -0.083422
  59 C :    0.005966
  60 C :    0.307949
  61 C :   -0.308542
  62 C :   -0.182211
  63 N :    0.151420
  64 C :   -0.190658
  65 N :    0.168668
  66 C :   -0.071132
  67 C :   -0.098049
  68 S :    0.221859
  69 C :    0.026047
  70 C :   -0.074919
  71 O :   -0.190903
  72 C :    0.174229
  73 C :   -0.027221
  74 C :    0.040045
  75 C :    0.037957
  76 C :   -0.001859
  77 C :   -0.040257
  78 C :    0.162509
  79 O :   -0.231947
  80 C :    0.101185
  81 H :    0.016241
  82 H :    0.016670
  83 H :   -0.009341
  84 H :   -0.004216
  85 H :    0.026155
  86 H :    0.037130
  87 H :    0.030277
  88 H :   -0.004155
  89 H :    0.025036
  90 H :    0.038788
  91 H :    0.030623
  92 H :   -0.010746
  93 H :    0.013941
  94 H :   -0.019257
  95 H :   -0.011584
  96 H :    0.002089
  97 H :   -0.003445
  98 H :    0.002491
  99 H :    0.071847
 100 H :    0.054669
 101 H :    0.034988
Sum of atomic charges:   -0.0000000

LOEWDIN ATOMIC CHARGES
----------------------
   0 C :    0.030899
   1 F :   -0.034282
   2 C :    0.038247
   3 F :   -0.030173
   4 C :    0.029536
   5 F :   -0.036032
   6 C :    0.053449
   7 F :   -0.045450
   8 C :   -0.085379
   9 C :    0.065559
  10 F :   -0.031344
  11 C :   -0.176329
  12 C :   -0.016929
  13 C :   -0.077006
  14 C :   -0.177468
  15 S :    0.493954
  16 C :   -0.184280
  17 C :   -0.064815
  18 C :    0.081668
  19 C :   -0.100373
  20 C :   -0.017348
  21 N :   -0.030060
  22 C :   -0.018154
  23 N :   -0.029271
  24 C :   -0.034648
  25 C :   -0.172655
  26 S :    0.481697
  27 C :   -0.171768
  28 C :   -0.069819
  29 C :   -0.042349
  30 C :   -0.054130
  31 C :   -0.172225
  32 C :   -0.074408
  33 C :   -0.176334
  34 C :   -0.198429
  35 S :    0.443557
  36 C :   -0.061191
  37 Cl:    0.132693
  38 C :   -0.141863
  39 C :   -0.037872
  40 C :   -0.056178
  41 C :   -0.140534
  42 S :    0.426400
  43 C :   -0.172673
  44 C :   -0.075935
  45 C :   -0.176610
  46 C :   -0.198226
  47 S :    0.445984
  48 C :   -0.061038
  49 Cl:    0.131499
  50 C :   -0.077516
  51 C :   -0.163487
  52 S :    0.425726
  53 C :   -0.184049
  54 C :   -0.031635
  55 C :   -0.076364
  56 C :   -0.169672
  57 S :    0.480283
  58 C :   -0.199643
  59 C :   -0.079976
  60 C :    0.088188
  61 C :   -0.115404
  62 C :   -0.011723
  63 N :   -0.050105
  64 C :   -0.018579
  65 N :   -0.038796
  66 C :   -0.043329
  67 C :   -0.160962
  68 S :    0.528987
  69 C :   -0.130152
  70 C :    0.096170
  71 O :    0.009657
  72 C :    0.064242
  73 C :   -0.036295
  74 C :    0.004608
  75 C :   -0.026499
  76 C :    0.023985
  77 C :   -0.084866
  78 C :    0.075024
  79 O :   -0.202325
  80 C :   -0.050792
  81 H :    0.039564
  82 H :    0.038040
  83 H :    0.012081
  84 H :    0.027284
  85 H :    0.034655
  86 H :    0.039975
  87 H :    0.037377
  88 H :    0.026754
  89 H :    0.034375
  90 H :    0.040520
  91 H :    0.037630
  92 H :    0.012282
  93 H :    0.036967
  94 H :    0.031968
  95 H :    0.037686
  96 H :    0.035657
  97 H :    0.033352
  98 H :    0.040303
  99 H :    0.053504
 100 H :    0.049563
 101 H :    0.044198

  Mayer bond orders larger than 0.100000
B(  0-C ,  1-F ) :   1.1697 B(  0-C ,  2-C ) :   1.2739 B(  0-C ,  9-C ) :   1.2971
B(  2-C ,  3-F ) :   1.1855 B(  2-C ,  4-C ) :   1.2733 B(  2-C ,  8-C ) :   0.1050
B(  4-C ,  5-F ) :   1.1713 B(  4-C ,  6-C ) :   1.2997 B(  6-C ,  7-F ) :   1.1437
B(  6-C ,  8-C ) :   1.2899 B(  8-C ,  9-C ) :   1.2988 B(  8-C , 11-C ) :   1.0727
B(  9-C , 10-F ) :   1.1518 B( 11-C , 12-C ) :   1.4903 B( 11-C , 15-S ) :   1.1009
B( 12-C , 13-C ) :   1.2879 B( 12-C , 81-H ) :   0.9929 B( 13-C , 14-C ) :   1.4355
B( 13-C , 18-C ) :   0.9966 B( 14-C , 15-S ) :   1.1337 B( 14-C , 16-C ) :   1.1805
B( 16-C , 17-C ) :   1.4604 B( 16-C , 26-S ) :   1.1183 B( 17-C , 18-C ) :   0.9919
B( 17-C , 24-C ) :   1.2851 B( 18-C , 19-C ) :   1.7162 B( 19-C , 20-C ) :   1.1311
B( 19-C , 22-C ) :   1.1349 B( 20-C , 21-N ) :   2.9934 B( 22-C , 23-N ) :   2.9948
B( 24-C , 25-C ) :   1.4659 B( 24-C , 82-H ) :   0.9908 B( 25-C , 26-S ) :   1.1108
B( 25-C , 27-C ) :   1.1534 B( 27-C , 28-C ) :   1.5698 B( 27-C , 42-S ) :   1.0691
B( 28-C , 29-C ) :   1.1876 B( 28-C , 83-H ) :   0.9678 B( 29-C , 30-C ) :   1.2906
B( 29-C , 41-C ) :   1.2755 B( 30-C , 31-C ) :   0.9889 B( 30-C , 38-C ) :   1.4216
B( 31-C , 32-C ) :   1.5522 B( 31-C , 35-S ) :   1.1258 B( 32-C , 33-C ) :   1.2200
B( 32-C , 84-H ) :   0.9944 B( 33-C , 34-C ) :   1.6050 B( 33-C , 37-Cl) :   1.0109
B( 34-C , 35-S ) :   1.1274 B( 34-C , 36-C ) :   1.0827 B( 36-C , 85-H ) :   0.9437
B( 36-C , 86-H ) :   0.9489 B( 36-C , 87-H ) :   0.9484 B( 38-C , 39-C ) :   1.2709
B( 38-C , 52-S ) :   1.0556 B( 39-C , 40-C ) :   1.2945 B( 39-C , 50-C ) :   1.1855
B( 40-C , 41-C ) :   1.4157 B( 40-C , 43-C ) :   0.9893 B( 41-C , 42-S ) :   1.0559
B( 43-C , 44-C ) :   1.5499 B( 43-C , 47-S ) :   1.1294 B( 44-C , 45-C ) :   1.2224
B( 44-C , 88-H ) :   0.9940 B( 45-C , 46-C ) :   1.6048 B( 45-C , 49-Cl) :   1.0099
B( 46-C , 47-S ) :   1.1277 B( 46-C , 48-C ) :   1.0821 B( 48-C , 89-H ) :   0.9441
B( 48-C , 90-H ) :   0.9491 B( 48-C , 91-H ) :   0.9478 B( 50-C , 51-C ) :   1.5721
B( 50-C , 92-H ) :   0.9694 B( 51-C , 52-S ) :   1.0705 B( 51-C , 53-C ) :   1.1533
B( 53-C , 54-C ) :   1.4708 B( 53-C , 57-S ) :   1.0986 B( 54-C , 55-C ) :   1.2831
B( 54-C , 93-H ) :   0.9902 B( 55-C , 56-C ) :   1.4557 B( 55-C , 60-C ) :   0.9911
B( 56-C , 57-S ) :   1.1329 B( 56-C , 58-C ) :   1.1703 B( 58-C , 59-C ) :   1.4361
B( 58-C , 68-S ) :   1.0765 B( 59-C , 60-C ) :   1.0027 B( 59-C , 66-C ) :   1.2836
B( 60-C , 61-C ) :   1.6989 B( 61-C , 62-C ) :   1.1388 B( 61-C , 64-C ) :   1.1298
B( 62-C , 63-N ) :   2.9806 B( 64-C , 65-N ) :   2.9952 B( 66-C , 67-C ) :   1.4541
B( 66-C , 94-H ) :   0.9881 B( 67-C , 68-S ) :   1.1274 B( 67-C , 69-C ) :   1.0888
B( 68-S , 79-O ) :   0.1061 B( 69-C , 70-C ) :   1.5144 B( 69-C , 78-C ) :   1.0071
B( 70-C , 71-O ) :   1.1569 B( 70-C , 80-C ) :   1.1224 B( 71-O , 72-C ) :   1.0899
B( 72-C , 73-C ) :   1.3456 B( 72-C , 77-C ) :   1.3312 B( 73-C , 74-C ) :   1.4200
B( 73-C , 95-H ) :   0.9954 B( 74-C , 75-C ) :   1.3191 B( 74-C , 96-H ) :   0.9911
B( 75-C , 76-C ) :   1.4096 B( 75-C , 97-H ) :   0.9936 B( 76-C , 77-C ) :   1.3230
B( 76-C , 98-H ) :   1.0005 B( 77-C , 78-C ) :   1.0257 B( 78-C , 79-O ) :   2.0447
B( 80-C , 99-H ) :   0.9276 B( 80-C ,100-H ) :   0.9410 B( 80-C ,101-H ) :   0.9319

-----------------------------------------------------------------------------
         ABSORPTION SPECTRUM VIA TRANSITION ELECTRIC DIPOLE MOMENTS
-----------------------------------------------------------------------------
State   Energy  Wavelength   fosc         T2         TX        TY        TZ
        (cm-1)    (nm)                  (au**2)     (au)      (au)      (au)
-----------------------------------------------------------------------------
   0   12946.7    772.4   0.272192948   6.92137  -0.35255  -2.52002  -0.66828
   1   13191.7    758.1   0.002414889   0.06027  -0.13052  -0.18958  -0.08537
   2   19233.8    519.9   0.047817917   0.81847   0.35840   0.79501  -0.24076
   3   21275.6    470.0   0.067401532   1.04295  -0.38522  -0.93186   0.16186
   4   22966.7    435.4   1.138991545  16.32664   0.72169   3.92179   0.65220
   5   24071.5    415.4   1.199735665  16.40812  -1.18478  -3.87331   0.04369
   6   26225.6    381.3   0.160277299   2.01198   0.18774  -1.08643  -0.89241
   7   27652.0    361.6   0.180357413   2.14725  -0.55478   0.86058   1.04827
   8   27816.2    359.5   0.097458024   1.15344  -0.00401  -0.86006  -0.64321
   9   28907.3    345.9   0.073960317   0.84230   0.02672  -0.39352  -0.82869
  10   29594.5    337.9   0.034738520   0.38643   0.49138   0.20284  -0.32224
  11   29909.0    334.3   0.539063314   5.93354  -0.38974   1.95285   1.40286
  12   30101.2    332.2   0.356118057   3.89480   0.09037  -1.68654  -1.02089
  13   30372.1    329.2   0.140084608   1.51842   0.44016  -0.54240  -1.01512
  14   30603.2    326.8   0.036819891   0.39609   0.00148  -0.56048  -0.28626
  15   30830.7    324.4   0.578512722   6.17740   1.11018  -0.44679  -2.17836
  16   31564.5    316.8   0.190665342   1.98861  -0.01105  -1.27184  -0.60902
  17   32128.6    311.2   0.492695512   5.04850  -1.10451   0.05417   1.95592
  18   32357.6    309.0   0.610104137   6.20731  -1.22831  -0.26544   2.15130
  19   32714.2    305.7   0.163434179   1.64468   0.32616   1.22171   0.21381
  20   33123.9    301.9   0.036482623   0.36259   0.36118   0.02776  -0.48101
  21   33470.4    298.8   0.119618870   1.17656  -0.55427  -0.10674   0.92626
  22   33639.0    297.3   0.003640740   0.03563  -0.00259  -0.12577  -0.14073
  23   33828.8    295.6   0.092828779   0.90338  -0.01355  -0.92573  -0.21500
  24   34184.9    292.5   0.012946879   0.12468  -0.03185   0.33979   0.09061
  25   34587.6    289.1   0.013805720   0.13141   0.27822   0.09640  -0.21144
  26   34626.7    288.8   0.326973996   3.10869  -0.58400  -1.66184  -0.07688
  27   34928.2    286.3   0.003209792   0.03025  -0.09594  -0.12072   0.08048
  28   35214.1    284.0   0.006630265   0.06199  -0.05807  -0.01571   0.24159
  29   36085.6    277.1   0.009222164   0.08413  -0.10311   0.25743   0.08507
  30   36193.4    276.3   0.004985042   0.04534   0.08501  -0.00845  -0.19505
  31   36364.7    275.0   0.077427931   0.70096  -0.09938   0.61784   0.55619
  32   36548.9    273.6   0.106597357   0.96017  -0.58609  -0.56886   0.54136
  33   36884.8    271.1   0.042860627   0.38255  -0.09273  -0.61135   0.01402
  34   37240.0    268.5   0.007584340   0.06705  -0.00924   0.15791  -0.20501
  35   37338.8    267.8   0.249592250   2.20063   0.26194  -1.09109  -0.97033
  36   37691.4    265.3   0.053692277   0.46897  -0.19064   0.06608   0.65442
  37   37830.0    264.3   0.018921232   0.16466   0.19923   0.31137  -0.16738
  38   38004.1    263.1   0.002857336   0.02475  -0.13201   0.07349   0.04386
  39   38116.6    262.4   0.012379777   0.10692  -0.10952  -0.29708   0.08169
  40   38353.2    260.7   0.002385039   0.02047  -0.06455   0.05564   0.11494
  41   38546.1    259.4   0.004425745   0.03780  -0.02914  -0.04381  -0.18717
  42   38778.8    257.9   0.034029832   0.28890  -0.27341  -0.37402   0.27249
  43   39309.8    254.4   0.021739247   0.18206  -0.27614  -0.01421   0.32497
  44   40201.2    248.7   0.021705348   0.17775   0.17994   0.37571  -0.06490
  45   40318.6    248.0   0.063053040   0.51484  -0.01953  -0.64015  -0.32353

FINAL SINGLE POINT ENERGY     -7268.406424879717

DIPOLE MOMENT
-------------
                                X             Y             Z
Electronic contribution:     19.99210     151.91874      58.84394
Nuclear contribution   :    -20.50372    -155.05541     -59.84193
                        -----------------------------------------
Total Dipole Moment    :     -0.51162      -3.13667      -0.99799
                        -----------------------------------------
Magnitude (a.u.)       :      3.33113
Magnitude (Debye)      :      8.46707

Rotational constants in cm-1:     0.001374     0.000166     0.000149
Rotational constants in MHz :    41.195494     4.966458     4.466676

                             ****ORCA TERMINATED NORMALLY****
TOTAL RUN TIME: 0 days 0 hours 10 minutes 42 seconds 671 msec
