                         Program Version 4.2.0 -  RELEASE  -
|  1> # ORCA input file
|  2> # SCF done       -184.460075479722          0.000707562311
|  3> ! CAM-B3LYP def2-SVP def2/J RIJCOSX Grid4 TightSCF
|  4> %maxcore 5000
|  5> %tddft
|  6>     Mode sTDDFT
|  7>     Ethresh 5.0
|  8>     maxcore 5000
|  9> end
| 10>
| 11> %pal
| 12>   nprocs 6
| 13>   end
| 14> * xyz 0 1
| 15>    C        1.27537        -2.46063        -0.11535
| 16>    F        2.24280        -2.13876        -0.97772
| 17>    C        1.21268        -1.83094         1.12425
| 18>    F        2.10656        -0.89785         1.45614
| 19>    C        0.20344        -2.19138         2.01188
| 20>    F        0.11966        -1.59509         3.20334
| 21>    C       -0.72246        -3.16186         1.65687
| 22>    F       -1.69472        -3.44416         2.53338
| 23>    C       -0.69153        -3.81449         0.41523
| 24>    C        0.34318        -3.43149        -0.45240
| 25>    F        0.47904        -4.03361        -1.64141
| 26>    C       -1.66289        -4.83391         0.04524
| 27>    C       -2.15564        -4.94691        -1.22638
| 28>    C       -3.06748        -5.91902        -1.64739
| 29>    C       -3.48267        -6.99804        -0.73452
| 30>    C       -3.13398        -7.06586         0.56777
| 31>    S       -2.13821        -5.91541         1.35522
| 32>    C       -4.28514        -7.86833        -1.51765
| 33>    C       -4.37480        -7.37342        -2.81922
| 34>    C       -5.16944        -8.19566        -3.64877
| 35>    C       -5.64919        -9.27059        -2.97130
| 36>    S       -5.16501        -9.33038        -1.30841
| 37>    C       -3.64130        -6.13863        -2.90905
| 38>    C       -3.58995        -5.37080        -4.10395
| 39>    C       -3.29570        -4.05596        -4.23020
| 40>    C       -3.27835        -3.36594        -5.47216
| 41>    C       -3.05682        -2.03300        -5.67659
| 42>    C       -3.11021        -1.63555        -7.03171
| 43>    C       -3.37717        -2.71826        -7.91019
| 44>    S       -3.56037        -4.20072        -6.98942
| 45>    C       -3.46144        -2.53030        -9.27903
| 46>    O       -3.69719        -3.44373       -10.25656
| 47>    C       -3.89350        -4.79802        -9.93137
| 48>    C       -3.28394        -1.21012        -9.74443
| 49>    C       -3.03210        -0.12577        -8.86598
| 50>    C       -2.93058        -0.31669        -7.49803
| 51>    O       -2.68424         0.60024        -6.52451
| 52>    C       -2.41636         1.93798        -6.86820
| 53>    S       -2.90092         1.36187        -9.78661
| 54>    C       -3.16846         0.52082       -11.30085
| 55>    C       -3.34848        -0.81778       -11.10144
| 56>    C       -3.18826         1.25415       -12.53054
| 57>    C       -3.19409         0.64909       -13.75866
| 58>    C       -3.23575         1.32669       -14.98095
| 59>    C       -3.28634         2.79296       -15.03427
| 60>    C       -3.27146         3.59270       -13.94678
| 61>    S       -3.20851         3.00533       -12.33646
| 62>    C       -3.33399         3.11008       -16.41729
| 63>    C       -3.30572         1.93956       -17.17999
| 64>    C       -3.36201         2.22701       -18.56399
| 65>    C       -3.42539         3.56244       -18.80474
| 66>    S       -3.42061         4.53598       -17.37456
| 67>    C       -3.23564         0.80943       -16.28513
| 68>    C       -3.15853        -0.57849       -16.58334
| 69>    C       -3.07823        -1.12851       -17.81358
| 70>    C       -2.96417        -2.54185       -18.09705
| 71>    C       -2.87772        -2.95828       -19.39987
| 72>    O       -2.74516        -4.24300       -19.78413
| 73>    C       -2.67063        -5.21888       -18.85270
| 74>    C       -2.50670        -6.53328       -19.29399
| 75>    C       -2.42505        -7.55176       -18.37156
| 76>    C       -2.50611        -7.27920       -17.00719
| 77>    C       -2.66977        -5.98473       -16.57362
| 78>    C       -2.75430        -4.93191       -17.48971
| 79>    C       -2.92883        -3.54742       -17.02140
| 80>    O       -3.03305        -3.30275       -15.82805
| 81>    C       -2.91768        -2.05407       -20.59524
| 82>    H       -1.81145        -4.23393        -1.95941
| 83>    H       -3.47350        -7.85584         1.21911
| 84>    H       -5.37606        -8.00770        -4.68676
| 85>    H       -6.27514       -10.05734        -3.34500
| 86>    H       -3.86976        -5.90634        -5.00414
| 87>    H       -3.09754        -3.44140        -3.36412
| 88>    H       -2.86142        -1.33486        -4.88348
| 89>    H       -4.77376        -4.93884        -9.29855
| 90>    H       -3.01774        -5.22786        -9.43816
| 91>    H       -4.05178        -5.29992       -10.88502
| 92>    H       -2.21242         2.44180        -5.92418
| 93>    H       -3.27417         2.41289        -7.35170
| 94>    H       -1.54104         2.02114        -7.51767
| 95>    H       -3.54022        -1.52908       -11.88225
| 96>    H       -3.15912        -0.43026       -13.77520
| 97>    H       -3.29768         4.66901       -14.01354
| 98>    H       -3.36295         1.50119       -19.35642
| 99>    H       -3.47693         4.05587       -19.75584
|100>    H       -3.14847        -1.23650       -15.72937
|101>    H       -3.07797        -0.47908       -18.67393
|102>    H       -2.44562        -6.72276       -20.35414
|103>    H       -2.29656        -8.56894       -18.70956
|104>    H       -2.43971        -8.08702       -16.29454
|105>    H       -2.73614        -5.74029       -15.52427
|106>    H       -2.08198        -1.35631       -20.58243
|107>    H       -3.84577        -1.48601       -20.62211
|108>    H       -2.85182        -2.66297       -21.49344
|109> *
|110>
|111>                          ****END OF INPUT****

CARTESIAN COORDINATES (ANGSTROEM)
---------------------------------
  C      1.275370   -2.460630   -0.115350
  F      2.242800   -2.138760   -0.977720
  C      1.212680   -1.830940    1.124250
  F      2.106560   -0.897850    1.456140
  C      0.203440   -2.191380    2.011880
  F      0.119660   -1.595090    3.203340
  C     -0.722460   -3.161860    1.656870
  F     -1.694720   -3.444160    2.533380
  C     -0.691530   -3.814490    0.415230
  C      0.343180   -3.431490   -0.452400
  F      0.479040   -4.033610   -1.641410
  C     -1.662890   -4.833910    0.045240
  C     -2.155640   -4.946910   -1.226380
  C     -3.067480   -5.919020   -1.647390
  C     -3.482670   -6.998040   -0.734520
  C     -3.133980   -7.065860    0.567770
  S     -2.138210   -5.915410    1.355220
  C     -4.285140   -7.868330   -1.517650
  C     -4.374800   -7.373420   -2.819220
  C     -5.169440   -8.195660   -3.648770
  C     -5.649190   -9.270590   -2.971300
  S     -5.165010   -9.330380   -1.308410
  C     -3.641300   -6.138630   -2.909050
  C     -3.589950   -5.370800   -4.103950
  C     -3.295700   -4.055960   -4.230200
  C     -3.278350   -3.365940   -5.472160
  C     -3.056820   -2.033000   -5.676590
  C     -3.110210   -1.635550   -7.031710
  C     -3.377170   -2.718260   -7.910190
  S     -3.560370   -4.200720   -6.989420
  C     -3.461440   -2.530300   -9.279030
  O     -3.697190   -3.443730  -10.256560
  C     -3.893500   -4.798020   -9.931370
  C     -3.283940   -1.210120   -9.744430
  C     -3.032100   -0.125770   -8.865980
  C     -2.930580   -0.316690   -7.498030
  O     -2.684240    0.600240   -6.524510
  C     -2.416360    1.937980   -6.868200
  S     -2.900920    1.361870   -9.786610
  C     -3.168460    0.520820  -11.300850
  C     -3.348480   -0.817780  -11.101440
  C     -3.188260    1.254150  -12.530540
  C     -3.194090    0.649090  -13.758660
  C     -3.235750    1.326690  -14.980950
  C     -3.286340    2.792960  -15.034270
  C     -3.271460    3.592700  -13.946780
  S     -3.208510    3.005330  -12.336460
  C     -3.333990    3.110080  -16.417290
  C     -3.305720    1.939560  -17.179990
  C     -3.362010    2.227010  -18.563990
  C     -3.425390    3.562440  -18.804740
  S     -3.420610    4.535980  -17.374560
  C     -3.235640    0.809430  -16.285130
  C     -3.158530   -0.578490  -16.583340
  C     -3.078230   -1.128510  -17.813580
  C     -2.964170   -2.541850  -18.097050
  C     -2.877720   -2.958280  -19.399870
  O     -2.745160   -4.243000  -19.784130
  C     -2.670630   -5.218880  -18.852700
  C     -2.506700   -6.533280  -19.293990
  C     -2.425050   -7.551760  -18.371560
  C     -2.506110   -7.279200  -17.007190
  C     -2.669770   -5.984730  -16.573620
  C     -2.754300   -4.931910  -17.489710
  C     -2.928830   -3.547420  -17.021400
  O     -3.033050   -3.302750  -15.828050
  C     -2.917680   -2.054070  -20.595240
  H     -1.811450   -4.233930   -1.959410
  H     -3.473500   -7.855840    1.219110
  H     -5.376060   -8.007700   -4.686760
  H     -6.275140  -10.057340   -3.345000
  H     -3.869760   -5.906340   -5.004140
  H     -3.097540   -3.441400   -3.364120
  H     -2.861420   -1.334860   -4.883480
  H     -4.773760   -4.938840   -9.298550
  H     -3.017740   -5.227860   -9.438160
  H     -4.051780   -5.299920  -10.885020
  H     -2.212420    2.441800   -5.924180
  H     -3.274170    2.412890   -7.351700
  H     -1.541040    2.021140   -7.517670
  H     -3.540220   -1.529080  -11.882250
  H     -3.159120   -0.430260  -13.775200
  H     -3.297680    4.669010  -14.013540
  H     -3.362950    1.501190  -19.356420
  H     -3.476930    4.055870  -19.755840
  H     -3.148470   -1.236500  -15.729370
  H     -3.077970   -0.479080  -18.673930
  H     -2.445620   -6.722760  -20.354140
  H     -2.296560   -8.568940  -18.709560
  H     -2.439710   -8.087020  -16.294540
  H     -2.736140   -5.740290  -15.524270
  H     -2.081980   -1.356310  -20.582430
  H     -3.845770   -1.486010  -20.622110
  H     -2.851820   -2.662970  -21.493440

 Total Charge           Charge          ....    0
 Multiplicity           Mult            ....    1
 Number of Electrons    NEL             ....  512
 Basis Dimension        Dim             .... 1097

ORBITAL ENERGIES
----------------

  NO   OCC          E(Eh)            E(eV)
   0   2.0000     -88.969371     -2420.9797
   1   2.0000     -88.959504     -2420.7112
   2   2.0000     -88.951007     -2420.4800
   3   2.0000     -88.944600     -2420.3056
   4   2.0000     -88.942372     -2420.2450
   5   2.0000     -88.937391     -2420.1094
   6   2.0000     -24.810585      -675.1303
   7   2.0000     -24.808579      -675.0757
   8   2.0000     -24.807257      -675.0398
   9   2.0000     -24.806267      -675.0128
  10   2.0000     -24.805722      -674.9980
  11   2.0000     -19.290009      -524.9078
  12   2.0000     -19.239757      -523.5404
  13   2.0000     -19.238027      -523.4933
  14   2.0000     -19.178472      -521.8727
  15   2.0000     -10.392595      -282.7969
  16   2.0000     -10.389633      -282.7163
  17   2.0000     -10.389502      -282.7127
  18   2.0000     -10.387679      -282.6631
  19   2.0000     -10.387455      -282.6570
  20   2.0000     -10.351899      -281.6895
  21   2.0000     -10.342893      -281.4444
  22   2.0000     -10.342208      -281.4258
  23   2.0000     -10.327461      -281.0245
  24   2.0000     -10.326558      -280.9999
  25   2.0000     -10.326335      -280.9939
  26   2.0000     -10.323380      -280.9135
  27   2.0000     -10.321772      -280.8697
  28   2.0000     -10.316574      -280.7283
  29   2.0000     -10.314395      -280.6690
  30   2.0000     -10.312846      -280.6268
  31   2.0000     -10.309099      -280.5249
  32   2.0000     -10.298045      -280.2241
  33   2.0000     -10.293830      -280.1093
  34   2.0000     -10.293250      -280.0936
  35   2.0000     -10.291943      -280.0580
  36   2.0000     -10.291541      -280.0471
  37   2.0000     -10.291431      -280.0441
  38   2.0000     -10.290024      -280.0058
  39   2.0000     -10.284775      -279.8630
  40   2.0000     -10.281804      -279.7821
  41   2.0000     -10.280645      -279.7506
  42   2.0000     -10.279434      -279.7176
  43   2.0000     -10.277242      -279.6580
  44   2.0000     -10.277125      -279.6548
  45   2.0000     -10.276691      -279.6430
  46   2.0000     -10.275835      -279.6197
  47   2.0000     -10.272727      -279.5351
  48   2.0000     -10.272420      -279.5268
  49   2.0000     -10.272369      -279.5254
  50   2.0000     -10.271991      -279.5151
  51   2.0000     -10.271210      -279.4938
  52   2.0000     -10.270450      -279.4731
  53   2.0000     -10.269868      -279.4573
  54   2.0000     -10.269793      -279.4553
  55   2.0000     -10.269528      -279.4481
  56   2.0000     -10.269369      -279.4437
  57   2.0000     -10.268705      -279.4257
  58   2.0000     -10.266670      -279.3703
  59   2.0000     -10.266476      -279.3650
  60   2.0000     -10.264102      -279.3004
  61   2.0000     -10.262915      -279.2681
  62   2.0000     -10.261320      -279.2247
  63   2.0000     -10.260215      -279.1946
  64   2.0000     -10.254904      -279.0501
  65   2.0000     -10.253551      -279.0133
  66   2.0000     -10.248133      -278.8659
  67   2.0000      -8.064779      -219.4538
  68   2.0000      -8.055088      -219.1901
  69   2.0000      -8.046444      -218.9549
  70   2.0000      -8.039991      -218.7793
  71   2.0000      -8.037361      -218.7077
  72   2.0000      -8.032251      -218.5687
  73   2.0000      -6.034349      -164.2030
  74   2.0000      -6.029793      -164.0790
  75   2.0000      -6.026568      -163.9912
  76   2.0000      -6.024722      -163.9410
  77   2.0000      -6.020123      -163.8159
  78   2.0000      -6.016848      -163.7267
  79   2.0000      -6.015908      -163.7012
  80   2.0000      -6.011688      -163.5864
  81   2.0000      -6.009400      -163.5241
  82   2.0000      -6.008395      -163.4967
  83   2.0000      -6.007341      -163.4681
  84   2.0000      -6.005212      -163.4101
  85   2.0000      -6.002915      -163.3476
  86   2.0000      -6.002121      -163.3260
  87   2.0000      -6.002064      -163.3245
  88   2.0000      -5.998405      -163.2249
  89   2.0000      -5.997911      -163.2115
  90   2.0000      -5.993346      -163.0872
  91   2.0000      -1.337240       -36.3881
  92   2.0000      -1.330937       -36.2166
  93   2.0000      -1.324912       -36.0527
  94   2.0000      -1.314840       -35.7786
  95   2.0000      -1.310442       -35.6590
  96   2.0000      -1.203249       -32.7421
  97   2.0000      -1.144174       -31.1346
  98   2.0000      -1.142475       -31.0883
  99   2.0000      -1.096861       -29.8471
 100   2.0000      -1.003788       -27.3145
 101   2.0000      -0.995721       -27.0949
 102   2.0000      -0.992010       -26.9940
 103   2.0000      -0.983789       -26.7703
 104   2.0000      -0.969447       -26.3800
 105   2.0000      -0.964478       -26.2448
 106   2.0000      -0.955214       -25.9927
 107   2.0000      -0.950785       -25.8722
 108   2.0000      -0.923867       -25.1397
 109   2.0000      -0.916840       -24.9485
 110   2.0000      -0.911422       -24.8011
 111   2.0000      -0.904254       -24.6060
 112   2.0000      -0.897329       -24.4176
 113   2.0000      -0.877391       -23.8750
 114   2.0000      -0.865480       -23.5509
 115   2.0000      -0.864679       -23.5291
 116   2.0000      -0.863636       -23.5007
 117   2.0000      -0.861849       -23.4521
 118   2.0000      -0.856368       -23.3030
 119   2.0000      -0.853896       -23.2357
 120   2.0000      -0.838027       -22.8039
 121   2.0000      -0.835130       -22.7251
 122   2.0000      -0.823956       -22.4210
 123   2.0000      -0.818548       -22.2738
 124   2.0000      -0.809015       -22.0144
 125   2.0000      -0.802169       -21.8281
 126   2.0000      -0.799433       -21.7537
 127   2.0000      -0.798172       -21.7194
 128   2.0000      -0.790353       -21.5066
 129   2.0000      -0.783445       -21.3186
 130   2.0000      -0.772912       -21.0320
 131   2.0000      -0.764198       -20.7949
 132   2.0000      -0.751761       -20.4565
 133   2.0000      -0.748393       -20.3648
 134   2.0000      -0.739951       -20.1351
 135   2.0000      -0.735111       -20.0034
 136   2.0000      -0.723985       -19.7006
 137   2.0000      -0.711519       -19.3614
 138   2.0000      -0.709855       -19.3161
 139   2.0000      -0.703106       -19.1325
 140   2.0000      -0.692076       -18.8323
 141   2.0000      -0.684376       -18.6228
 142   2.0000      -0.677417       -18.4335
 143   2.0000      -0.674619       -18.3573
 144   2.0000      -0.667549       -18.1649
 145   2.0000      -0.659109       -17.9353
 146   2.0000      -0.656945       -17.8764
 147   2.0000      -0.650696       -17.7063
 148   2.0000      -0.649596       -17.6764
 149   2.0000      -0.645032       -17.5522
 150   2.0000      -0.636883       -17.3305
 151   2.0000      -0.631868       -17.1940
 152   2.0000      -0.628968       -17.1151
 153   2.0000      -0.628186       -17.0938
 154   2.0000      -0.626874       -17.0581
 155   2.0000      -0.621087       -16.9006
 156   2.0000      -0.617140       -16.7932
 157   2.0000      -0.613933       -16.7060
 158   2.0000      -0.607606       -16.5338
 159   2.0000      -0.603354       -16.4181
 160   2.0000      -0.602458       -16.3937
 161   2.0000      -0.597545       -16.2600
 162   2.0000      -0.592298       -16.1173
 163   2.0000      -0.588158       -16.0046
 164   2.0000      -0.583877       -15.8881
 165   2.0000      -0.580299       -15.7907
 166   2.0000      -0.576319       -15.6825
 167   2.0000      -0.574947       -15.6451
 168   2.0000      -0.571769       -15.5586
 169   2.0000      -0.564078       -15.3494
 170   2.0000      -0.558403       -15.1949
 171   2.0000      -0.556056       -15.1310
 172   2.0000      -0.553050       -15.0493
 173   2.0000      -0.552628       -15.0378
 174   2.0000      -0.550173       -14.9710
 175   2.0000      -0.547981       -14.9113
 176   2.0000      -0.546737       -14.8775
 177   2.0000      -0.545615       -14.8469
 178   2.0000      -0.538769       -14.6607
 179   2.0000      -0.537066       -14.6143
 180   2.0000      -0.531179       -14.4541
 181   2.0000      -0.528842       -14.3905
 182   2.0000      -0.525408       -14.2971
 183   2.0000      -0.521039       -14.1782
 184   2.0000      -0.519937       -14.1482
 185   2.0000      -0.516124       -14.0444
 186   2.0000      -0.515324       -14.0227
 187   2.0000      -0.512144       -13.9361
 188   2.0000      -0.509785       -13.8720
 189   2.0000      -0.504356       -13.7242
 190   2.0000      -0.502836       -13.6829
 191   2.0000      -0.501671       -13.6512
 192   2.0000      -0.499080       -13.5807
 193   2.0000      -0.498456       -13.5637
 194   2.0000      -0.497968       -13.5504
 195   2.0000      -0.496508       -13.5107
 196   2.0000      -0.494792       -13.4640
 197   2.0000      -0.489780       -13.3276
 198   2.0000      -0.488241       -13.2857
 199   2.0000      -0.482308       -13.1243
 200   2.0000      -0.481156       -13.0929
 201   2.0000      -0.477521       -12.9940
 202   2.0000      -0.474647       -12.9158
 203   2.0000      -0.471436       -12.8284
 204   2.0000      -0.470064       -12.7911
 205   2.0000      -0.467540       -12.7224
 206   2.0000      -0.465879       -12.6772
 207   2.0000      -0.463902       -12.6234
 208   2.0000      -0.461678       -12.5629
 209   2.0000      -0.455138       -12.3849
 210   2.0000      -0.453268       -12.3340
 211   2.0000      -0.449239       -12.2244
 212   2.0000      -0.444861       -12.1053
 213   2.0000      -0.443767       -12.0755
 214   2.0000      -0.440971       -11.9994
 215   2.0000      -0.438711       -11.9379
 216   2.0000      -0.437409       -11.9025
 217   2.0000      -0.437191       -11.8966
 218   2.0000      -0.433655       -11.8004
 219   2.0000      -0.431615       -11.7448
 220   2.0000      -0.425518       -11.5789
 221   2.0000      -0.424959       -11.5637
 222   2.0000      -0.423218       -11.5163
 223   2.0000      -0.421144       -11.4599
 224   2.0000      -0.418744       -11.3946
 225   2.0000      -0.415405       -11.3038
 226   2.0000      -0.414886       -11.2896
 227   2.0000      -0.407247       -11.0817
 228   2.0000      -0.404201       -10.9989
 229   2.0000      -0.402642       -10.9564
 230   2.0000      -0.402184       -10.9440
 231   2.0000      -0.400348       -10.8940
 232   2.0000      -0.399835       -10.8801
 233   2.0000      -0.387791       -10.5523
 234   2.0000      -0.386272       -10.5110
 235   2.0000      -0.381895       -10.3919
 236   2.0000      -0.377257       -10.2657
 237   2.0000      -0.366559        -9.9746
 238   2.0000      -0.364886        -9.9290
 239   2.0000      -0.336554        -9.1581
 240   2.0000      -0.331808        -9.0290
 241   2.0000      -0.329489        -8.9659
 242   2.0000      -0.327788        -8.9196
 243   2.0000      -0.325997        -8.8708
 244   2.0000      -0.323268        -8.7966
 245   2.0000      -0.319197        -8.6858
 246   2.0000      -0.312130        -8.4935
 247   2.0000      -0.307634        -8.3712
 248   2.0000      -0.307015        -8.3543
 249   2.0000      -0.287311        -7.8181
 250   2.0000      -0.285860        -7.7787
 251   2.0000      -0.272295        -7.4095
 252   2.0000      -0.261049        -7.1035
 253   2.0000      -0.237573        -6.4647
 254   2.0000      -0.223034        -6.0691
 255   2.0000      -0.202834        -5.5194
 256   0.0000      -0.059143        -1.6094
 257   0.0000      -0.041356        -1.1254
 258   0.0000      -0.023433        -0.6377
 259   0.0000      -0.016380        -0.4457
 260   0.0000      -0.011639        -0.3167

MULLIKEN ATOMIC CHARGES
-----------------------
   0 C :    0.179063
   1 F :   -0.158127
   2 C :    0.127872
   3 F :   -0.153497
   4 C :    0.180572
   5 F :   -0.157958
   6 C :    0.154332
   7 F :   -0.163473
   8 C :   -0.030889
   9 C :    0.157132
  10 F :   -0.161291
  11 C :   -0.110840
  12 C :   -0.008380
  13 C :    0.019787
  14 C :    0.063198
  15 C :   -0.135775
  16 S :    0.151009
  17 C :   -0.106132
  18 C :    0.048664
  19 C :    0.008853
  20 C :   -0.071017
  21 S :    0.122970
  22 C :    0.088954
  23 C :   -0.038118
  24 C :    0.003089
  25 C :    0.004525
  26 C :   -0.052114
  27 C :    0.060151
  28 C :   -0.110636
  29 S :    0.046561
  30 C :    0.105772
  31 O :   -0.311758
  32 C :    0.172934
  33 C :    0.051810
  34 C :   -0.105973
  35 C :    0.099409
  36 O :   -0.314615
  37 C :    0.169727
  38 S :    0.061402
  39 C :   -0.014329
  40 C :   -0.055399
  41 C :   -0.020222
  42 C :   -0.066194
  43 C :    0.044728
  44 C :    0.068994
  45 C :   -0.131990
  46 S :    0.117692
  47 C :   -0.119518
  48 C :    0.055486
  49 C :   -0.008843
  50 C :   -0.070069
  51 S :    0.117264
  52 C :    0.091988
  53 C :   -0.004123
  54 C :   -0.071643
  55 C :    0.030150
  56 C :   -0.072312
  57 O :   -0.199313
  58 C :    0.171099
  59 C :   -0.030329
  60 C :    0.036886
  61 C :    0.035061
  62 C :   -0.008971
  63 C :   -0.048115
  64 C :    0.169544
  65 O :   -0.206148
  66 C :    0.093987
  67 H :   -0.009084
  68 H :    0.035435
  69 H :   -0.016568
  70 H :    0.025169
  71 H :   -0.014034
  72 H :   -0.017844
  73 H :   -0.022102
  74 H :    0.030942
  75 H :    0.032928
  76 H :    0.038611
  77 H :    0.035442
  78 H :    0.034896
  79 H :    0.034427
  80 H :   -0.001739
  81 H :   -0.003818
  82 H :    0.031006
  83 H :   -0.018069
  84 H :    0.018197
  85 H :   -0.011972
  86 H :   -0.082688
  87 H :   -0.018877
  88 H :   -0.006726
  89 H :   -0.011614
  90 H :   -0.003991
  91 H :    0.051345
  92 H :    0.048722
  93 H :    0.029449
Sum of atomic charges:    0.0000000

LOEWDIN ATOMIC CHARGES
----------------------
   0 C :    0.028785
   1 F :   -0.037361
   2 C :    0.039152
   3 F :   -0.032389
   4 C :    0.028273
   5 F :   -0.037427
   6 C :    0.054712
   7 F :   -0.043678
   8 C :   -0.088142
   9 C :    0.064750
  10 F :   -0.036410
  11 C :   -0.183365
  12 C :   -0.004437
  13 C :   -0.031915
  14 C :   -0.048672
  15 C :   -0.143082
  16 S :    0.456121
  17 C :   -0.202793
  18 C :   -0.040448
  19 C :   -0.063541
  20 C :   -0.166355
  21 S :    0.416650
  22 C :   -0.043661
  23 C :   -0.026990
  24 C :   -0.042430
  25 C :   -0.153170
  26 C :   -0.043883
  27 C :   -0.061378
  28 C :   -0.183490
  29 S :    0.383058
  30 C :    0.025376
  31 O :   -0.102133
  32 C :    0.065469
  33 C :   -0.058882
  34 C :   -0.185127
  35 C :    0.025130
  36 O :   -0.105178
  37 C :    0.064783
  38 S :    0.380775
  39 C :   -0.176992
  40 C :   -0.037193
  41 C :   -0.181912
  42 C :   -0.011976
  43 C :   -0.020537
  44 C :   -0.050870
  45 C :   -0.145381
  46 S :    0.432586
  47 C :   -0.202622
  48 C :   -0.037292
  49 C :   -0.069454
  50 C :   -0.171871
  51 S :    0.414390
  52 C :   -0.052513
  53 C :   -0.006311
  54 C :   -0.052127
  55 C :   -0.106307
  56 C :    0.076358
  57 O :   -0.000070
  58 C :    0.059448
  59 C :   -0.041328
  60 C :   -0.003501
  61 C :   -0.033824
  62 C :    0.019834
  63 C :   -0.085946
  64 C :    0.080339
  65 O :   -0.186049
  66 C :   -0.056023
  67 H :    0.035920
  68 H :    0.036053
  69 H :    0.030346
  70 H :    0.022612
  71 H :    0.021512
  72 H :    0.030069
  73 H :    0.030783
  74 H :    0.011253
  75 H :    0.012032
  76 H :    0.030572
  77 H :    0.029327
  78 H :    0.011523
  79 H :    0.013187
  80 H :    0.035836
  81 H :    0.043524
  82 H :    0.033947
  83 H :    0.025164
  84 H :    0.020633
  85 H :    0.026995
  86 H :    0.017281
  87 H :    0.034334
  88 H :    0.031908
  89 H :    0.029542
  90 H :    0.036423
  91 H :    0.045524
  92 H :    0.044676
  93 H :    0.039469

  Mayer bond orders larger than 0.100000
B(  0-C ,  1-F ) :   1.1705 B(  0-C ,  2-C ) :   1.2719 B(  0-C ,  9-C ) :   1.2934
B(  2-C ,  3-F ) :   1.1798 B(  2-C ,  4-C ) :   1.2727 B(  2-C ,  8-C ) :   0.1014
B(  4-C ,  5-F ) :   1.1728 B(  4-C ,  6-C ) :   1.2893 B(  6-C ,  7-F ) :   1.1587
B(  6-C ,  8-C ) :   1.3036 B(  8-C ,  9-C ) :   1.3280 B(  8-C , 11-C ) :   1.0194
B(  9-C , 10-F ) :   1.1474 B( 11-C , 12-C ) :   1.5805 B( 11-C , 16-S ) :   1.0494
B( 12-C , 13-C ) :   1.2341 B( 12-C , 67-H ) :   0.9629 B( 13-C , 14-C ) :   1.0466
B( 13-C , 22-C ) :   1.4112 B( 14-C , 15-C ) :   1.6016 B( 14-C , 17-C ) :   1.1862
B( 15-C , 16-S ) :   1.1450 B( 15-C , 68-H ) :   0.9414 B( 17-C , 18-C ) :   1.4381
B( 17-C , 21-S ) :   1.0722 B( 18-C , 19-C ) :   1.2163 B( 18-C , 22-C ) :   1.1108
B( 19-C , 20-C ) :   1.5883 B( 19-C , 69-H ) :   0.9972 B( 20-C , 21-S ) :   1.1520
B( 20-C , 70-H ) :   0.9662 B( 22-C , 23-C ) :   1.1388 B( 23-C , 24-C ) :   1.6307
B( 23-C , 71-H ) :   0.9549 B( 24-C , 25-C ) :   1.1559 B( 24-C , 72-H ) :   0.9775
B( 25-C , 26-C ) :   1.5159 B( 25-C , 29-S ) :   1.0403 B( 26-C , 27-C ) :   1.1698
B( 26-C , 73-H ) :   1.0128 B( 27-C , 28-C ) :   1.3100 B( 27-C , 33-C ) :   0.1001
B( 27-C , 35-C ) :   1.3028 B( 28-C , 29-S ) :   1.0022 B( 28-C , 30-C ) :   1.3835
B( 30-C , 31-O ) :   1.2088 B( 30-C , 33-C ) :   1.2930 B( 31-O , 32-C ) :   0.9502
B( 32-C , 74-H ) :   0.9676 B( 32-C , 75-H ) :   0.9674 B( 32-C , 76-H ) :   0.9761
B( 33-C , 34-C ) :   1.3136 B( 33-C , 40-C ) :   1.1858 B( 34-C , 35-C ) :   1.3737
B( 34-C , 38-S ) :   1.0057 B( 35-C , 36-O ) :   1.2117 B( 36-O , 37-C ) :   0.9514
B( 37-C , 77-H ) :   0.9761 B( 37-C , 78-H ) :   0.9665 B( 37-C , 79-H ) :   0.9681
B( 38-S , 39-C ) :   1.0455 B( 39-C , 40-C ) :   1.5720 B( 39-C , 41-C ) :   1.0901
B( 40-C , 80-H ) :   0.9992 B( 41-C , 42-C ) :   1.5821 B( 41-C , 46-S ) :   1.0335
B( 42-C , 43-C ) :   1.2203 B( 42-C , 81-H ) :   0.9725 B( 43-C , 44-C ) :   1.0441
B( 43-C , 52-C ) :   1.4034 B( 44-C , 45-C ) :   1.6103 B( 44-C , 47-C ) :   1.1818
B( 45-C , 46-S ) :   1.1343 B( 45-C , 82-H ) :   0.9411 B( 47-C , 48-C ) :   1.4515
B( 47-C , 51-S ) :   1.0719 B( 48-C , 49-C ) :   1.2115 B( 48-C , 52-C ) :   1.0691
B( 49-C , 50-C ) :   1.5836 B( 49-C , 83-H ) :   0.9982 B( 50-C , 51-S ) :   1.1534
B( 50-C , 84-H ) :   0.9646 B( 52-C , 53-C ) :   1.1282 B( 53-C , 54-C ) :   1.6714
B( 53-C , 85-H ) :   0.9501 B( 54-C , 55-C ) :   1.0910 B( 54-C , 86-H ) :   0.9676
B( 55-C , 56-C ) :   1.5211 B( 55-C , 64-C ) :   0.9882 B( 56-C , 57-O ) :   1.1389
B( 56-C , 66-C ) :   1.1024 B( 57-O , 58-C ) :   1.0945 B( 58-C , 59-C ) :   1.3443
B( 58-C , 63-C ) :   1.3297 B( 59-C , 60-C ) :   1.4183 B( 59-C , 87-H ) :   0.9947
B( 60-C , 61-C ) :   1.3215 B( 60-C , 88-H ) :   0.9908 B( 61-C , 62-C ) :   1.4048
B( 61-C , 89-H ) :   0.9943 B( 62-C , 63-C ) :   1.3350 B( 62-C , 90-H ) :   0.9957
B( 63-C , 64-C ) :   1.0003 B( 64-C , 65-O ) :   2.0964 B( 65-O , 85-H ) :   0.1019
B( 66-C , 91-H ) :   0.9402 B( 66-C , 92-H ) :   0.9419 B( 66-C , 93-H ) :   0.9430

-----------------------------------------------------------------------------
         ABSORPTION SPECTRUM VIA TRANSITION ELECTRIC DIPOLE MOMENTS
-----------------------------------------------------------------------------
State   Energy  Wavelength   fosc         T2         TX        TY        TZ
        (cm-1)    (nm)                  (au**2)     (au)      (au)      (au)
-----------------------------------------------------------------------------
   0   17875.0    559.4   1.532696664  28.22839  -0.38086   1.58729  -5.05607
   1   20400.3    490.2   0.032477692   0.52411  -0.51239   0.49456   0.13033
   2   22301.8    448.4   0.061222956   0.90375   0.59574   0.55192  -0.49419
   3   23433.6    426.7   0.095690107   1.34432   0.34711  -0.68209  -0.87097
   4   23955.2    417.4   0.098207810   1.34965  -0.36503   0.69876  -0.85331
   5   24194.9    413.3   0.419285839   5.70509   0.70316   1.22156   1.92833
   6   26952.2    371.0   0.026265603   0.32083   0.00800   0.10716  -0.55613
   7   28150.1    355.2   0.157949954   1.84720   0.05628   1.29497   0.40875
   8   29181.2    342.7   0.457951362   5.16645  -0.45566  -1.80950   1.29790
   9   29300.8    341.3   0.326661880   3.67024   0.26886   1.82487  -0.51749
  10   30039.3    332.9   0.134309427   1.47194  -0.31396  -0.69969   0.94011
  11   30828.6    324.4   0.138183136   1.47563   0.13518  -1.05451  -0.58767
  12   31236.5    320.1   0.054511106   0.57451  -0.18807  -0.21400  -0.70238
  13   31828.7    314.2   0.412003979   4.26146   0.21258  -2.05309  -0.03279
  14   32818.3    304.7   0.050421641   0.50580  -0.17558   0.32281   0.60890
  15   33586.6    297.7   0.257159344   2.52064   0.26232   0.65063  -1.42426
  16   34392.7    290.8   0.009042094   0.08655  -0.09397   0.04948   0.27436
  17   34663.3    288.5   0.008339169   0.07920   0.00411   0.09768  -0.26390
  18   34779.0    287.5   0.004619686   0.04373   0.01353  -0.10970   0.17751
  19   35382.4    282.6   0.015091313   0.14042  -0.14041  -0.19280   0.28902
  20   35814.3    279.2   0.004592798   0.04222  -0.16936   0.08998   0.07376
  21   36055.3    277.4   0.234691742   2.14291  -0.00409   1.35979   0.54210
  22   36889.8    271.1   0.031216527   0.27858   0.09206   0.49119  -0.16982
  23   37129.9    269.3   0.105019641   0.93116  -0.37813  -0.28930  -0.83933
  24   37665.0    265.5   0.276671994   2.41826   0.89435   0.53325   1.15501
  25   37890.3    263.9   0.070486864   0.61243  -0.47559  -0.52197  -0.33732
  26   38004.4    263.1   0.174126590   1.50836  -0.06009  -0.30001   1.18943
  27   38521.4    259.6   0.374357012   3.19934   1.07626   1.42858  -0.01328
  28   39279.2    254.6   0.196779471   1.64927  -0.27252   0.17078  -1.24332
  29   39489.4    253.2   0.194272974   1.61960   0.75293   0.77817   0.66869
  30   39856.2    250.9   0.302820455   2.50129   0.26356   0.33142   1.52381
  31   40087.8    249.5   0.061592460   0.50581  -0.29831  -0.19159  -0.61654

FINAL SINGLE POINT ENERGY     -5182.821605689380

DIPOLE MOMENT
-------------
                                X             Y             Z
Electronic contribution:     30.24025       9.00871     127.41236
Nuclear contribution   :    -30.53407      -9.90205    -128.36765
                        -----------------------------------------
Total Dipole Moment    :     -0.29382      -0.89333      -0.95529
                        -----------------------------------------
Magnitude (a.u.)       :      1.34050
Magnitude (Debye)      :      3.40728

Rotational constants in cm-1:     0.001335     0.000284     0.000247
Rotational constants in MHz :    40.025158     8.517095     7.414215

                             ****ORCA TERMINATED NORMALLY****
TOTAL RUN TIME: 0 days 0 hours 7 minutes 49 seconds 387 msec
