                         Program Version 4.2.0 -  RELEASE  -
|  1> # ORCA input file
|  2> # SCF done       -184.916491541556          0.000918298305
|  3> ! CAM-B3LYP def2-SVP def2/J RIJCOSX Grid4 TightSCF
|  4> %maxcore 5000
|  5> %tddft
|  6>     Mode sTDDFT
|  7>     Ethresh 5.0
|  8>     maxcore 5000
|  9> end
| 10>
| 11> %pal
| 12>   nprocs 6
| 13>   end
| 14> * xyz 0 1
| 15>    C       -3.17487         2.70367         2.64925
| 16>    C       -3.83396         3.42641         3.60926
| 17>    C       -3.18847         4.24860         4.55481
| 18>    N       -2.71281         4.91446         5.36044
| 19>    C       -5.23693         3.49139         3.75500
| 20>    N       -6.36398         3.64476         3.91046
| 21>    C       -1.74274         2.74589         2.37857
| 22>    C       -1.47439         1.94582         1.24021
| 23>    C       -0.20513         1.75776         0.75180
| 24>    C        0.85047         2.39252         1.41512
| 25>    C        0.57144         3.20003         2.54293
| 26>    C       -0.71297         3.38966         3.03794
| 27>    S        2.02148         3.87498         3.22029
| 28>    C        2.96974         3.06461         2.00497
| 29>    C        2.24108         2.33435         1.12838
| 30>   Br        4.83242         3.26052         2.00474
| 31>    C       -2.73260         1.34368         0.75926
| 32>    O       -2.84990         0.54106        -0.14964
| 33>    C       -3.77961         1.81308         1.67952
| 34>    C       -5.05272         1.30889         1.75158
| 35>    C       -5.73248         0.54543         0.78829
| 36>    C       -5.67283         0.48726        -0.59847
| 37>    S       -4.71694         1.31646        -1.76200
| 38>    C       -5.59639         0.53847        -3.06617
| 39>    C       -5.22265         0.84269        -4.46974
| 40>    C       -6.55452        -0.31358        -2.62681
| 41>    C       -6.64189        -0.35547        -1.20902
| 42>    C       -7.43532        -1.01720        -0.27304
| 43>    S       -7.02715        -0.49588         1.34357
| 44>    C       -8.44237        -2.00448        -0.44551
| 45>    C       -8.89648        -2.74898         0.62352
| 46>    C       -9.86111        -3.74278         0.55989
| 47>    C      -10.55425        -4.06057        -0.68835
| 48>    C      -10.27674        -3.45963        -1.86707
| 49>    S       -9.07926        -2.24484        -2.06484
| 50>    C      -11.48181        -5.08459        -0.34875
| 51>    C      -11.37080        -5.40561         1.00770
| 52>    C      -12.26894        -6.43069         1.37778
| 53>    C      -13.01769        -6.84796         0.32302
| 54>    S      -12.66916        -6.02514        -1.15776
| 55>    C      -10.34652        -4.57991         1.59475
| 56>    C       -9.82334        -4.57021         2.89498
| 57>    C      -10.20103        -5.29582         3.98885
| 58>    C       -9.51450        -5.17464         5.20900
| 59>    C       -9.79607        -5.73296         6.44760
| 60>    S      -11.06105        -6.77620         7.00623
| 61>    C      -10.38452        -6.75078         8.62398
| 62>    C      -11.05869        -7.51798         9.69968
| 63>    C       -9.26458        -5.98900         8.71722
| 64>    C       -8.90081        -5.39313         7.48484
| 65>    C       -7.87982        -4.52653         7.06610
| 66>    S       -8.06708        -4.20307         5.34992
| 67>    C       -6.79591        -4.06969         7.81347
| 68>    C       -5.83210        -3.15561         7.44793
| 69>    C       -5.82497        -2.15624         6.41698
| 70>    C       -6.91076        -1.43287         5.97379
| 71>    C       -6.83593        -0.48040         4.94966
| 72>    N       -6.81247         0.26020         4.06991
| 73>    C       -8.18854        -1.55195         6.55522
| 74>    N       -9.22290        -1.59914         7.05189
| 75>    C       -4.43069        -1.83084         6.13126
| 76>    C       -3.62128        -2.42070         7.13344
| 77>    C       -4.48157        -3.21755         8.04354
| 78>    O       -4.13693        -3.83455         9.02814
| 79>    C       -2.25880        -2.25679         7.16614
| 80>    C       -1.66786        -1.49291         6.15155
| 81>    C       -2.48556        -0.92929         5.14662
| 82>    C       -3.86682        -1.07859         5.12130
| 83>    S       -1.54953        -0.04972         3.97475
| 84>    C       -0.09073        -0.43962         4.84703
| 85>    C       -0.29087        -1.19050         5.95412
| 86>   Br        1.55505         0.17469         4.19924
| 87>    H       -0.02917         1.13257        -0.10946
| 88>    H       -0.87376         4.00287         3.90894
| 89>    H        2.66571         1.77021         0.31843
| 90>    H       -5.60796         1.45345         2.67154
| 91>    H       -5.31736         1.91026        -4.66658
| 92>    H       -5.86283         0.29651        -5.15834
| 93>    H       -4.18513         0.56372        -4.65336
| 94>    H       -7.18107        -0.88329        -3.28760
| 95>    H       -8.44063        -2.53040         1.57975
| 96>    H      -10.78563        -3.71004        -2.78430
| 97>    H      -12.36840        -6.84603         2.36346
| 98>    H      -13.77459        -7.60773         0.31699
| 99>    H       -8.99151        -3.89230         3.04791
|100>    H      -11.04398        -5.96964         3.96712
|101>    H      -11.13097        -8.57183         9.43085
|102>    H      -12.07156        -7.14575         9.85458
|103>    H      -10.50357        -7.42627        10.63002
|104>    H       -8.71821        -5.85251         9.63256
|105>    H       -6.62037        -4.57852         8.75556
|106>    H       -1.66293        -2.70403         7.94620
|107>    H       -4.45026        -0.63688         4.33039
|108>    H        0.49723        -1.52142         6.60582
|109> *
|110>
|111>                          ****END OF INPUT****

CARTESIAN COORDINATES (ANGSTROEM)
---------------------------------
  C     -3.174870    2.703670    2.649250
  C     -3.833960    3.426410    3.609260
  C     -3.188470    4.248600    4.554810
  N     -2.712810    4.914460    5.360440
  C     -5.236930    3.491390    3.755000
  N     -6.363980    3.644760    3.910460
  C     -1.742740    2.745890    2.378570
  C     -1.474390    1.945820    1.240210
  C     -0.205130    1.757760    0.751800
  C      0.850470    2.392520    1.415120
  C      0.571440    3.200030    2.542930
  C     -0.712970    3.389660    3.037940
  S      2.021480    3.874980    3.220290
  C      2.969740    3.064610    2.004970
  C      2.241080    2.334350    1.128380
  Br     4.832420    3.260520    2.004740
  C     -2.732600    1.343680    0.759260
  O     -2.849900    0.541060   -0.149640
  C     -3.779610    1.813080    1.679520
  C     -5.052720    1.308890    1.751580
  C     -5.732480    0.545430    0.788290
  C     -5.672830    0.487260   -0.598470
  S     -4.716940    1.316460   -1.762000
  C     -5.596390    0.538470   -3.066170
  C     -5.222650    0.842690   -4.469740
  C     -6.554520   -0.313580   -2.626810
  C     -6.641890   -0.355470   -1.209020
  C     -7.435320   -1.017200   -0.273040
  S     -7.027150   -0.495880    1.343570
  C     -8.442370   -2.004480   -0.445510
  C     -8.896480   -2.748980    0.623520
  C     -9.861110   -3.742780    0.559890
  C    -10.554250   -4.060570   -0.688350
  C    -10.276740   -3.459630   -1.867070
  S     -9.079260   -2.244840   -2.064840
  C    -11.481810   -5.084590   -0.348750
  C    -11.370800   -5.405610    1.007700
  C    -12.268940   -6.430690    1.377780
  C    -13.017690   -6.847960    0.323020
  S    -12.669160   -6.025140   -1.157760
  C    -10.346520   -4.579910    1.594750
  C     -9.823340   -4.570210    2.894980
  C    -10.201030   -5.295820    3.988850
  C     -9.514500   -5.174640    5.209000
  C     -9.796070   -5.732960    6.447600
  S    -11.061050   -6.776200    7.006230
  C    -10.384520   -6.750780    8.623980
  C    -11.058690   -7.517980    9.699680
  C     -9.264580   -5.989000    8.717220
  C     -8.900810   -5.393130    7.484840
  C     -7.879820   -4.526530    7.066100
  S     -8.067080   -4.203070    5.349920
  C     -6.795910   -4.069690    7.813470
  C     -5.832100   -3.155610    7.447930
  C     -5.824970   -2.156240    6.416980
  C     -6.910760   -1.432870    5.973790
  C     -6.835930   -0.480400    4.949660
  N     -6.812470    0.260200    4.069910
  C     -8.188540   -1.551950    6.555220
  N     -9.222900   -1.599140    7.051890
  C     -4.430690   -1.830840    6.131260
  C     -3.621280   -2.420700    7.133440
  C     -4.481570   -3.217550    8.043540
  O     -4.136930   -3.834550    9.028140
  C     -2.258800   -2.256790    7.166140
  C     -1.667860   -1.492910    6.151550
  C     -2.485560   -0.929290    5.146620
  C     -3.866820   -1.078590    5.121300
  S     -1.549530   -0.049720    3.974750
  C     -0.090730   -0.439620    4.847030
  C     -0.290870   -1.190500    5.954120
  Br     1.555050    0.174690    4.199240
  H     -0.029170    1.132570   -0.109460
  H     -0.873760    4.002870    3.908940
  H      2.665710    1.770210    0.318430
  H     -5.607960    1.453450    2.671540
  H     -5.317360    1.910260   -4.666580
  H     -5.862830    0.296510   -5.158340
  H     -4.185130    0.563720   -4.653360
  H     -7.181070   -0.883290   -3.287600
  H     -8.440630   -2.530400    1.579750
  H    -10.785630   -3.710040   -2.784300
  H    -12.368400   -6.846030    2.363460
  H    -13.774590   -7.607730    0.316990
  H     -8.991510   -3.892300    3.047910
  H    -11.043980   -5.969640    3.967120
  H    -11.130970   -8.571830    9.430850
  H    -12.071560   -7.145750    9.854580
  H    -10.503570   -7.426270   10.630020
  H     -8.718210   -5.852510    9.632560
  H     -6.620370   -4.578520    8.755560
  H     -1.662930   -2.704030    7.946200
  H     -4.450260   -0.636880    4.330390
  H      0.497230   -1.521420    6.605820

 Total Charge           Charge          ....    0
 Multiplicity           Mult            ....    1
 Number of Electrons    NEL             ....  600
 Basis Dimension        Dim             .... 1186

ORBITAL ENERGIES
----------------

  NO   OCC          E(Eh)            E(eV)
   0   2.0000    -482.881494    -13139.8735
   1   2.0000    -482.879031    -13139.8065
   2   2.0000     -88.990779     -2421.5622
   3   2.0000     -88.969091     -2420.9720
   4   2.0000     -88.967628     -2420.9322
   5   2.0000     -88.966278     -2420.8955
   6   2.0000     -88.965992     -2420.8877
   7   2.0000     -88.959922     -2420.7225
   8   2.0000     -88.957529     -2420.6574
   9   2.0000     -88.954449     -2420.5736
  10   2.0000     -62.559271     -1702.3243
  11   2.0000     -62.556320     -1702.2440
  12   2.0000     -56.393208     -1534.5372
  13   2.0000     -56.390503     -1534.4636
  14   2.0000     -56.390494     -1534.4633
  15   2.0000     -56.390292     -1534.4579
  16   2.0000     -56.387589     -1534.3843
  17   2.0000     -56.387509     -1534.3821
  18   2.0000     -19.206658      -522.6397
  19   2.0000     -19.196742      -522.3699
  20   2.0000     -14.411409      -392.1544
  21   2.0000     -14.405329      -391.9889
  22   2.0000     -14.399912      -391.8415
  23   2.0000     -14.395156      -391.7121
  24   2.0000     -10.354712      -281.7661
  25   2.0000     -10.352987      -281.7191
  26   2.0000     -10.349318      -281.6193
  27   2.0000     -10.349063      -281.6123
  28   2.0000     -10.341552      -281.4079
  29   2.0000     -10.340177      -281.3705
  30   2.0000     -10.331491      -281.1342
  31   2.0000     -10.329120      -281.0697
  32   2.0000     -10.327195      -281.0173
  33   2.0000     -10.326741      -281.0049
  34   2.0000     -10.326214      -280.9906
  35   2.0000     -10.323091      -280.9056
  36   2.0000     -10.319734      -280.8142
  37   2.0000     -10.318091      -280.7695
  38   2.0000     -10.317436      -280.7517
  39   2.0000     -10.315334      -280.6945
  40   2.0000     -10.314437      -280.6701
  41   2.0000     -10.311203      -280.5821
  42   2.0000     -10.310842      -280.5723
  43   2.0000     -10.310004      -280.5495
  44   2.0000     -10.308189      -280.5001
  45   2.0000     -10.307436      -280.4796
  46   2.0000     -10.307101      -280.4705
  47   2.0000     -10.306523      -280.4547
  48   2.0000     -10.305470      -280.4261
  49   2.0000     -10.305348      -280.4228
  50   2.0000     -10.303500      -280.3725
  51   2.0000     -10.301975      -280.3310
  52   2.0000     -10.301969      -280.3308
  53   2.0000     -10.299596      -280.2663
  54   2.0000     -10.298766      -280.2437
  55   2.0000     -10.298472      -280.2357
  56   2.0000     -10.298181      -280.2278
  57   2.0000     -10.298016      -280.2233
  58   2.0000     -10.296687      -280.1871
  59   2.0000     -10.296287      -280.1762
  60   2.0000     -10.295888      -280.1654
  61   2.0000     -10.295815      -280.1634
  62   2.0000     -10.294634      -280.1312
  63   2.0000     -10.294408      -280.1251
  64   2.0000     -10.292524      -280.0738
  65   2.0000     -10.291067      -280.0342
  66   2.0000     -10.289198      -279.9833
  67   2.0000     -10.287876      -279.9473
  68   2.0000     -10.287608      -279.9400
  69   2.0000     -10.287225      -279.9296
  70   2.0000     -10.286573      -279.9119
  71   2.0000     -10.285837      -279.8919
  72   2.0000     -10.285138      -279.8728
  73   2.0000     -10.283941      -279.8403
  74   2.0000     -10.283327      -279.8235
  75   2.0000     -10.281760      -279.7809
  76   2.0000     -10.280417      -279.7444
  77   2.0000     -10.279654      -279.7236
  78   2.0000     -10.276877      -279.6480
  79   2.0000     -10.274274      -279.5772
  80   2.0000      -8.788727      -239.1534
  81   2.0000      -8.785635      -239.0693
  82   2.0000      -8.085564      -220.0194
  83   2.0000      -8.065012      -219.4601
  84   2.0000      -8.062704      -219.3973
  85   2.0000      -8.061473      -219.3638
  86   2.0000      -8.060365      -219.3337
  87   2.0000      -8.054286      -219.1683
  88   2.0000      -8.053553      -219.1483
  89   2.0000      -8.049610      -219.0410
  90   2.0000      -6.624964      -180.2744
  91   2.0000      -6.621824      -180.1890
  92   2.0000      -6.610505      -179.8810
  93   2.0000      -6.610298      -179.8753
  94   2.0000      -6.607417      -179.7969
  95   2.0000      -6.607241      -179.7922
  96   2.0000      -6.055158      -164.7692
  97   2.0000      -6.050459      -164.6413
  98   2.0000      -6.047637      -164.5646
  99   2.0000      -6.034728      -164.2133
 100   2.0000      -6.032474      -164.1520
 101   2.0000      -6.030881      -164.1086
 102   2.0000      -6.030417      -164.0960
 103   2.0000      -6.029942      -164.0831
 104   2.0000      -6.028119      -164.0334
 105   2.0000      -6.026645      -163.9933
 106   2.0000      -6.026233      -163.9821
 107   2.0000      -6.025483      -163.9617
 108   2.0000      -6.024024      -163.9220
 109   2.0000      -6.023800      -163.9159
 110   2.0000      -6.023528      -163.9085
 111   2.0000      -6.023253      -163.9010
 112   2.0000      -6.022238      -163.8734
 113   2.0000      -6.019738      -163.8054
 114   2.0000      -6.019231      -163.7916
 115   2.0000      -6.019065      -163.7871
 116   2.0000      -6.015953      -163.7024
 117   2.0000      -6.014801      -163.6711
 118   2.0000      -6.014781      -163.6705
 119   2.0000      -6.011230      -163.5739
 120   2.0000      -2.740844       -74.5822
 121   2.0000      -2.737778       -74.4987
 122   2.0000      -2.736792       -74.4719
 123   2.0000      -2.736651       -74.4681
 124   2.0000      -2.733645       -74.3863
 125   2.0000      -2.733539       -74.3834
 126   2.0000      -2.725145       -74.1550
 127   2.0000      -2.725125       -74.1544
 128   2.0000      -2.722081       -74.0716
 129   2.0000      -2.722064       -74.0711
 130   2.0000      -1.121015       -30.5044
 131   2.0000      -1.111409       -30.2430
 132   2.0000      -1.021308       -27.7912
 133   2.0000      -1.015012       -27.6199
 134   2.0000      -1.014582       -27.6082
 135   2.0000      -1.012637       -27.5552
 136   2.0000      -1.010640       -27.5009
 137   2.0000      -1.003674       -27.3114
 138   2.0000      -1.002814       -27.2880
 139   2.0000      -0.984019       -26.7765
 140   2.0000      -0.982976       -26.7481
 141   2.0000      -0.981725       -26.7141
 142   2.0000      -0.978913       -26.6376
 143   2.0000      -0.974518       -26.5180
 144   2.0000      -0.956244       -26.0207
 145   2.0000      -0.953739       -25.9526
 146   2.0000      -0.940308       -25.5871
 147   2.0000      -0.934641       -25.4329
 148   2.0000      -0.931496       -25.3473
 149   2.0000      -0.915852       -24.9216
 150   2.0000      -0.907112       -24.6838
 151   2.0000      -0.900604       -24.5067
 152   2.0000      -0.897128       -24.4121
 153   2.0000      -0.888484       -24.1769
 154   2.0000      -0.881876       -23.9971
 155   2.0000      -0.877812       -23.8865
 156   2.0000      -0.874801       -23.8045
 157   2.0000      -0.866491       -23.5784
 158   2.0000      -0.865248       -23.5446
 159   2.0000      -0.856407       -23.3040
 160   2.0000      -0.853264       -23.2185
 161   2.0000      -0.841990       -22.9117
 162   2.0000      -0.836594       -22.7649
 163   2.0000      -0.834803       -22.7162
 164   2.0000      -0.822281       -22.3754
 165   2.0000      -0.820843       -22.3363
 166   2.0000      -0.818231       -22.2652
 167   2.0000      -0.809133       -22.0176
 168   2.0000      -0.793129       -21.5821
 169   2.0000      -0.781466       -21.2648
 170   2.0000      -0.779884       -21.2217
 171   2.0000      -0.778805       -21.1924
 172   2.0000      -0.762104       -20.7379
 173   2.0000      -0.751284       -20.4435
 174   2.0000      -0.748986       -20.3810
 175   2.0000      -0.744241       -20.2518
 176   2.0000      -0.729422       -19.8486
 177   2.0000      -0.719288       -19.5728
 178   2.0000      -0.701437       -19.0871
 179   2.0000      -0.694894       -18.9090
 180   2.0000      -0.686166       -18.6715
 181   2.0000      -0.681321       -18.5397
 182   2.0000      -0.677594       -18.4383
 183   2.0000      -0.673935       -18.3387
 184   2.0000      -0.663681       -18.0597
 185   2.0000      -0.663650       -18.0588
 186   2.0000      -0.654849       -17.8194
 187   2.0000      -0.650418       -17.6988
 188   2.0000      -0.649108       -17.6631
 189   2.0000      -0.641162       -17.4469
 190   2.0000      -0.638865       -17.3844
 191   2.0000      -0.632469       -17.2104
 192   2.0000      -0.630994       -17.1702
 193   2.0000      -0.625865       -17.0307
 194   2.0000      -0.620459       -16.8835
 195   2.0000      -0.613966       -16.7069
 196   2.0000      -0.611671       -16.6444
 197   2.0000      -0.604042       -16.4368
 198   2.0000      -0.592595       -16.1253
 199   2.0000      -0.590664       -16.0728
 200   2.0000      -0.588220       -16.0063
 201   2.0000      -0.582414       -15.8483
 202   2.0000      -0.576515       -15.6878
 203   2.0000      -0.574052       -15.6208
 204   2.0000      -0.572673       -15.5832
 205   2.0000      -0.565753       -15.3949
 206   2.0000      -0.557680       -15.1752
 207   2.0000      -0.551286       -15.0013
 208   2.0000      -0.544716       -14.8225
 209   2.0000      -0.540879       -14.7181
 210   2.0000      -0.535702       -14.5772
 211   2.0000      -0.534788       -14.5523
 212   2.0000      -0.533061       -14.5053
 213   2.0000      -0.532174       -14.4812
 214   2.0000      -0.527052       -14.3418
 215   2.0000      -0.526692       -14.3320
 216   2.0000      -0.526289       -14.3210
 217   2.0000      -0.524723       -14.2785
 218   2.0000      -0.523781       -14.2528
 219   2.0000      -0.519769       -14.1436
 220   2.0000      -0.518320       -14.1042
 221   2.0000      -0.515869       -14.0375
 222   2.0000      -0.514813       -14.0088
 223   2.0000      -0.509350       -13.8601
 224   2.0000      -0.506294       -13.7770
 225   2.0000      -0.504179       -13.7194
 226   2.0000      -0.503317       -13.6960
 227   2.0000      -0.500751       -13.6261
 228   2.0000      -0.498768       -13.5722
 229   2.0000      -0.498456       -13.5637
 230   2.0000      -0.496903       -13.5214
 231   2.0000      -0.495455       -13.4820
 232   2.0000      -0.489914       -13.3312
 233   2.0000      -0.487021       -13.2525
 234   2.0000      -0.485800       -13.2193
 235   2.0000      -0.484951       -13.1962
 236   2.0000      -0.480421       -13.0729
 237   2.0000      -0.478430       -13.0187
 238   2.0000      -0.477164       -12.9843
 239   2.0000      -0.471054       -12.8180
 240   2.0000      -0.470583       -12.8052
 241   2.0000      -0.466354       -12.6901
 242   2.0000      -0.464767       -12.6470
 243   2.0000      -0.460735       -12.5372
 244   2.0000      -0.458130       -12.4664
 245   2.0000      -0.454986       -12.3808
 246   2.0000      -0.453702       -12.3458
 247   2.0000      -0.452795       -12.3212
 248   2.0000      -0.450588       -12.2611
 249   2.0000      -0.446889       -12.1605
 250   2.0000      -0.443924       -12.0798
 251   2.0000      -0.441575       -12.0159
 252   2.0000      -0.437507       -11.9052
 253   2.0000      -0.437349       -11.9009
 254   2.0000      -0.435831       -11.8596
 255   2.0000      -0.434996       -11.8368
 256   2.0000      -0.432755       -11.7759
 257   2.0000      -0.430924       -11.7260
 258   2.0000      -0.429674       -11.6920
 259   2.0000      -0.427673       -11.6376
 260   2.0000      -0.426351       -11.6016
 261   2.0000      -0.425133       -11.5685
 262   2.0000      -0.423230       -11.5167
 263   2.0000      -0.423078       -11.5125
 264   2.0000      -0.420689       -11.4475
 265   2.0000      -0.418402       -11.3853
 266   2.0000      -0.413029       -11.2391
 267   2.0000      -0.412653       -11.2289
 268   2.0000      -0.410428       -11.1683
 269   2.0000      -0.407903       -11.0996
 270   2.0000      -0.404944       -11.0191
 271   2.0000      -0.402653       -10.9568
 272   2.0000      -0.398610       -10.8467
 273   2.0000      -0.397660       -10.8209
 274   2.0000      -0.396254       -10.7826
 275   2.0000      -0.392029       -10.6677
 276   2.0000      -0.387354       -10.5404
 277   2.0000      -0.378838       -10.3087
 278   2.0000      -0.376201       -10.2369
 279   2.0000      -0.371233       -10.1018
 280   2.0000      -0.370665       -10.0863
 281   2.0000      -0.365268        -9.9395
 282   2.0000      -0.359234        -9.7753
 283   2.0000      -0.351928        -9.5765
 284   2.0000      -0.350423        -9.5355
 285   2.0000      -0.333149        -9.0654
 286   2.0000      -0.331956        -9.0330
 287   2.0000      -0.328017        -8.9258
 288   2.0000      -0.314997        -8.5715
 289   2.0000      -0.313049        -8.5185
 290   2.0000      -0.307631        -8.3711
 291   2.0000      -0.303866        -8.2686
 292   2.0000      -0.302759        -8.2385
 293   2.0000      -0.301164        -8.1951
 294   2.0000      -0.295478        -8.0404
 295   2.0000      -0.285031        -7.7561
 296   2.0000      -0.283842        -7.7237
 297   2.0000      -0.278702        -7.5839
 298   2.0000      -0.256136        -6.9698
 299   2.0000      -0.224006        -6.0955
 300   0.0000      -0.104021        -2.8305
 301   0.0000      -0.082005        -2.2315
 302   0.0000      -0.063524        -1.7286
 303   0.0000      -0.049375        -1.3436
 304   0.0000      -0.044213        -1.2031

MULLIKEN ATOMIC CHARGES
-----------------------
   0 C :    0.294380
   1 C :   -0.339642
   2 C :   -0.187567
   3 N :    0.146852
   4 C :   -0.208842
   5 N :    0.175827
   6 C :    0.013467
   7 C :   -0.012731
   8 C :   -0.079290
   9 C :    0.125998
  10 C :   -0.088927
  11 C :   -0.027382
  12 S :    0.183428
  13 C :   -0.130719
  14 C :    0.033676
  15 Br:    0.017930
  16 C :    0.125804
  17 O :   -0.164358
  18 C :   -0.090493
  19 C :   -0.017030
  20 C :   -0.143243
  21 C :    0.000079
  22 S :    0.181889
  23 C :   -0.210165
  24 C :    0.116296
  25 C :   -0.011894
  26 C :    0.081356
  27 C :   -0.075269
  28 S :    0.155057
  29 C :   -0.038751
  30 C :   -0.085036
  31 C :    0.072041
  32 C :    0.062640
  33 C :   -0.112392
  34 S :    0.139456
  35 C :   -0.115776
  36 C :    0.052732
  37 C :   -0.001096
  38 C :   -0.065499
  39 S :    0.135846
  40 C :    0.114086
  41 C :   -0.027280
  42 C :   -0.019140
  43 C :   -0.075418
  44 C :   -0.054729
  45 S :    0.118467
  46 C :   -0.193433
  47 C :    0.113758
  48 C :   -0.002566
  49 C :    0.178045
  50 C :   -0.107898
  51 S :    0.099546
  52 C :    0.028186
  53 C :   -0.152544
  54 C :    0.241986
  55 C :   -0.345648
  56 C :   -0.116594
  57 N :    0.109751
  58 C :   -0.211340
  59 N :    0.162042
  60 C :    0.014133
  61 C :   -0.000838
  62 C :    0.139324
  63 O :   -0.156139
  64 C :   -0.074886
  65 C :    0.104519
  66 C :   -0.064913
  67 C :   -0.018522
  68 S :    0.148674
  69 C :   -0.114231
  70 C :    0.040175
  71 Br:    0.020393
  72 H :   -0.015633
  73 H :   -0.008961
  74 H :   -0.005899
  75 H :    0.050492
  76 H :    0.038593
  77 H :    0.022224
  78 H :    0.041375
  79 H :   -0.018559
  80 H :    0.011161
  81 H :    0.039380
  82 H :   -0.013558
  83 H :    0.030429
  84 H :   -0.010247
  85 H :   -0.028478
  86 H :    0.040884
  87 H :    0.044832
  88 H :    0.028843
  89 H :   -0.012996
  90 H :    0.010551
  91 H :   -0.012479
  92 H :   -0.031994
  93 H :   -0.005577
Sum of atomic charges:   -0.0000000

LOEWDIN ATOMIC CHARGES
----------------------
   0 C :    0.066911
   1 C :   -0.136678
   2 C :   -0.016604
   3 N :   -0.057250
   4 C :   -0.029845
   5 N :   -0.039521
   6 C :   -0.028561
   7 C :   -0.054651
   8 C :    0.015900
   9 C :   -0.037270
  10 C :   -0.148227
  11 C :   -0.013693
  12 S :    0.431073
  13 C :   -0.279214
  14 C :   -0.072715
  15 Br:    0.132559
  16 C :    0.063618
  17 O :   -0.163520
  18 C :   -0.108880
  19 C :    0.038948
  20 C :   -0.186387
  21 C :   -0.159704
  22 S :    0.462377
  23 C :   -0.140301
  24 C :   -0.058863
  25 C :   -0.091917
  26 C :   -0.072578
  27 C :   -0.173471
  28 S :    0.498550
  29 C :   -0.171689
  30 C :   -0.022650
  31 C :    0.000428
  32 C :   -0.047666
  33 C :   -0.138401
  34 S :    0.482463
  35 C :   -0.201422
  36 C :   -0.033830
  37 C :   -0.063349
  38 C :   -0.161008
  39 S :    0.429347
  40 C :   -0.056772
  41 C :    0.013044
  42 C :   -0.071492
  43 C :   -0.126664
  44 C :   -0.207274
  45 S :    0.391468
  46 C :   -0.124913
  47 C :   -0.058206
  48 C :   -0.069389
  49 C :   -0.022341
  50 C :   -0.190471
  51 S :    0.464164
  52 C :    0.049599
  53 C :   -0.125790
  54 C :    0.062350
  55 C :   -0.173466
  56 C :    0.012134
  57 N :   -0.087251
  58 C :   -0.040718
  59 N :   -0.058566
  60 C :   -0.014109
  61 C :   -0.048675
  62 C :    0.080422
  63 O :   -0.158254
  64 C :    0.019062
  65 C :   -0.036806
  66 C :   -0.144465
  67 C :   -0.021504
  68 S :    0.441788
  69 C :   -0.276388
  70 C :   -0.068425
  71 Br:    0.143052
  72 H :    0.038901
  73 H :    0.040293
  74 H :    0.037569
  75 H :    0.042413
  76 H :    0.040599
  77 H :    0.038589
  78 H :    0.041867
  79 H :    0.016487
  80 H :    0.030187
  81 H :    0.038426
  82 H :    0.030154
  83 H :    0.025380
  84 H :    0.021717
  85 H :    0.029326
  86 H :    0.041901
  87 H :    0.043865
  88 H :    0.041912
  89 H :    0.033403
  90 H :    0.047156
  91 H :    0.039896
  92 H :    0.034301
  93 H :    0.038208

  Mayer bond orders larger than 0.100000
B(  0-C ,  1-C ) :   1.6515 B(  0-C ,  6-C ) :   0.9950 B(  0-C , 18-C ) :   1.0671
B(  1-C ,  2-C ) :   1.1436 B(  1-C ,  4-C ) :   1.1388 B(  2-C ,  3-N ) :   2.9679
B(  4-C ,  5-N ) :   2.9993 B(  6-C ,  7-C ) :   1.2681 B(  6-C , 11-C ) :   1.4127
B(  7-C ,  8-C ) :   1.4302 B(  7-C , 16-C ) :   0.9367 B(  8-C ,  9-C ) :   1.2393
B(  8-C , 72-H ) :   1.0173 B(  9-C , 10-C ) :   1.3078 B(  9-C , 14-C ) :   1.1604
B( 10-C , 11-C ) :   1.3249 B( 10-C , 12-S ) :   1.0818 B( 11-C , 73-H ) :   0.9822
B( 12-S , 13-C ) :   1.0863 B( 13-C , 14-C ) :   1.6153 B( 13-C , 15-Br) :   1.0147
B( 14-C , 74-H ) :   1.0012 B( 16-C , 17-O ) :   2.1775 B( 16-C , 18-C ) :   0.9788
B( 18-C , 19-C ) :   1.5343 B( 19-C , 20-C ) :   1.2504 B( 19-C , 75-H ) :   0.9044
B( 20-C , 21-C ) :   1.4199 B( 20-C , 28-S ) :   1.1118 B( 21-C , 22-S ) :   1.1030
B( 21-C , 26-C ) :   1.2650 B( 22-S , 23-C ) :   1.0954 B( 23-C , 24-C ) :   1.0716
B( 23-C , 25-C ) :   1.6642 B( 24-C , 76-H ) :   0.9472 B( 24-C , 77-H ) :   0.9567
B( 24-C , 78-H ) :   0.9475 B( 25-C , 26-C ) :   1.1423 B( 25-C , 79-H ) :   0.9841
B( 26-C , 27-C ) :   1.3642 B( 27-C , 28-S ) :   1.1317 B( 27-C , 29-C ) :   1.1660
B( 29-C , 30-C ) :   1.4803 B( 29-C , 34-S ) :   1.0709 B( 30-C , 31-C ) :   1.2786
B( 30-C , 80-H ) :   0.9584 B( 31-C , 32-C ) :   1.0610 B( 31-C , 40-C ) :   1.3249
B( 32-C , 33-C ) :   1.5982 B( 32-C , 35-C ) :   1.1757 B( 33-C , 34-S ) :   1.1461
B( 33-C , 81-H ) :   0.9396 B( 35-C , 36-C ) :   1.4476 B( 35-C , 39-S ) :   1.0802
B( 36-C , 37-C ) :   1.2222 B( 36-C , 40-C ) :   1.0727 B( 37-C , 38-C ) :   1.5827
B( 37-C , 82-H ) :   1.0020 B( 38-C , 39-S ) :   1.1589 B( 38-C , 83-H ) :   0.9652
B( 40-C , 41-C ) :   1.2283 B( 41-C , 42-C ) :   1.5260 B( 41-C , 84-H ) :   0.9511
B( 42-C , 43-C ) :   1.2277 B( 42-C , 85-H ) :   0.9835 B( 43-C , 44-C ) :   1.4128
B( 43-C , 51-S ) :   1.1406 B( 44-C , 45-S ) :   1.0280 B( 44-C , 49-C ) :   1.2897
B( 45-S , 46-C ) :   1.1034 B( 46-C , 47-C ) :   1.0717 B( 46-C , 48-C ) :   1.6343
B( 47-C , 86-H ) :   0.9476 B( 47-C , 87-H ) :   0.9469 B( 47-C , 88-H ) :   0.9566
B( 48-C , 49-C ) :   1.1795 B( 48-C , 89-H ) :   0.9927 B( 49-C , 50-C ) :   1.2862
B( 50-C , 51-S ) :   1.0559 B( 50-C , 52-C ) :   1.2956 B( 52-C , 53-C ) :   1.4870
B( 52-C , 90-H ) :   0.9469 B( 53-C , 54-C ) :   1.1045 B( 53-C , 62-C ) :   0.9714
B( 54-C , 55-C ) :   1.5775 B( 54-C , 60-C ) :   1.0143 B( 55-C , 56-C ) :   1.1649
B( 55-C , 58-C ) :   1.1488 B( 56-C , 57-N ) :   2.8774 B( 58-C , 59-N ) :   3.0296
B( 60-C , 61-C ) :   1.2790 B( 60-C , 67-C ) :   1.4259 B( 61-C , 62-C ) :   0.9130
B( 61-C , 64-C ) :   1.4388 B( 62-C , 63-O ) :   2.2574 B( 64-C , 65-C ) :   1.2432
B( 64-C , 91-H ) :   1.0148 B( 65-C , 66-C ) :   1.3256 B( 65-C , 70-C ) :   1.1586
B( 66-C , 67-C ) :   1.3146 B( 66-C , 68-S ) :   1.0769 B( 67-C , 92-H ) :   0.9820
B( 68-S , 69-C ) :   1.0870 B( 69-C , 70-C ) :   1.6250 B( 69-C , 71-Br) :   1.0175
B( 70-C , 93-H ) :   0.9997

-----------------------------------------------------------------------------
         ABSORPTION SPECTRUM VIA TRANSITION ELECTRIC DIPOLE MOMENTS
-----------------------------------------------------------------------------
State   Energy  Wavelength   fosc         T2         TX        TY        TZ
        (cm-1)    (nm)                  (au**2)     (au)      (au)      (au)
-----------------------------------------------------------------------------
   0   10524.5    950.2   0.210260466   6.57706  -0.02787  -1.04909   2.34002
   1   16564.3    603.7   0.563893390  11.20728   2.39030   2.15425   0.92356
   2   18230.3    548.5   1.023305179  18.47933   3.09798   2.86824   0.80935
   3   20330.2    491.9   0.095747426   1.55046  -0.28148  -0.59616   1.05633
   4   22191.9    450.6   0.122540760   1.81786  -0.20765   0.21968  -1.31396
   5   22702.7    440.5   0.259949841   3.76954  -0.35541   0.28169  -1.88782
   6   23455.9    426.3   0.010008827   0.14048   0.29747  -0.18212  -0.13719
   7   23634.5    423.1   0.272233511   3.79202  -1.23350  -0.17636  -1.49646
   8   24860.1    402.3   0.246876760   3.26929   1.66710   0.68152   0.15999
   9   25252.3    396.0   0.073582996   0.95930  -0.33577   0.24421   0.88708
  10   26192.0    381.8   0.061654377   0.77495   0.84694  -0.02435   0.23883
  11   26640.1    375.4   0.010987056   0.13578   0.18501   0.26746  -0.17325
  12   27014.7    370.2   0.099427780   1.21167   1.04944   0.32384   0.07394
  13   27302.5    366.3   0.050332691   0.60691   0.51600   0.28226  -0.51087
  14   27459.3    364.2   0.046970286   0.56313   0.27166  -0.31264   0.62577
  15   27808.2    359.6   0.278043737   3.29167   0.59080  -0.81749   1.50809
  16   28052.5    356.5   0.014526056   0.17047   0.30706   0.12946  -0.24378
  17   28308.8    353.2   0.091555038   1.06472   0.72099   0.36616  -0.64095
  18   28863.9    346.5   0.021183458   0.24161  -0.34231   0.33192  -0.11943
  19   29115.6    343.5   0.238264710   2.69407   0.94402   0.79736  -1.08033
  20   29482.3    339.2   0.073308215   0.81859   0.82837   0.26562   0.24868
  21   30206.6    331.1   0.134632031   1.46731  -0.03920  -0.58078   1.06229
  22   30947.6    323.1   0.032994052   0.35098  -0.26114   0.04664   0.52973
  23   31211.1    320.4   0.135528595   1.42955   1.11854  -0.33847  -0.25267
  24   31283.3    319.7   0.071256839   0.74988   0.47403   0.57723   0.43815
  25   31602.2    316.4   0.310102161   3.23045   1.66612   0.40881  -0.53607
  26   31858.7    313.9   0.048011810   0.49613  -0.58954   0.16773   0.34705
  27   32010.6    312.4   0.025707300   0.26439   0.45795   0.11983   0.20076
  28   32221.2    310.4   0.312581631   3.19373  -1.41134  -0.45672   0.99662
  29   32346.1    309.2   0.040447036   0.41166   0.02735  -0.62755  -0.13077
  30   32453.7    308.1   0.030414628   0.30853   0.53758  -0.13745  -0.02536
  31   32710.4    305.7   0.004315383   0.04343  -0.12266  -0.15277   0.07104
  32   32785.4    305.0   0.235139950   2.36114  -1.15075  -0.58821   0.83122
  33   32870.1    304.2   0.130292425   1.30495   1.14095   0.04656   0.03197
  34   33325.5    300.1   0.039339856   0.38863   0.50273   0.31849   0.18562
  35   33534.5    298.2   0.034093007   0.33469   0.26172   0.46969   0.21351
  36   34036.5    293.8   0.074363215   0.71926  -0.84784   0.00598   0.01998
  37   34485.3    290.0   0.053364568   0.50944  -0.65270  -0.02901   0.28736
  38   34628.2    288.8   0.069075310   0.65670   0.61634   0.31587  -0.42078
  39   35253.9    283.7   0.014060504   0.13130   0.14080  -0.29205  -0.16181
  40   35437.8    282.2   0.228451277   2.12228   1.24011   0.19404   0.73943
  41   35566.1    281.2   0.085714606   0.79340   0.04212  -0.19141  -0.86890
  42   35883.5    278.7   0.150317187   1.37908  -0.69371   0.91360   0.25136
  43   36222.9    276.1   0.065053046   0.59124   0.20368  -0.55862   0.48754
  44   36349.0    275.1   0.009443714   0.08553   0.05013  -0.19358  -0.21341
  45   36452.7    274.3   0.055647406   0.50256  -0.57439   0.24800  -0.33337
  46   36839.3    271.4   0.429901326   3.84178  -0.74784  -1.42776   1.11535
  47   37107.1    269.5   0.010938399   0.09704   0.10529  -0.13886  -0.25822
  48   37295.9    268.1   0.060700628   0.53581  -0.07129  -0.00904   0.72845
  49   37613.6    265.9   0.117947626   1.03233  -0.70904   0.07535   0.72382
  50   37923.1    263.7   0.025742606   0.22347   0.20410   0.28019  -0.32142
  51   38141.0    262.2   0.011232237   0.09695  -0.10569  -0.18436   0.22758
  52   38246.9    261.5   0.067708222   0.58280   0.72705  -0.22945  -0.03941
  53   38523.0    259.6   0.177473618   1.51667  -1.01059  -0.31778  -0.62801
  54   38570.6    259.3   0.116123311   0.99115   0.81754   0.16984  -0.54216
  55   38598.9    259.1   0.038579079   0.32904  -0.25930  -0.27928   0.42873
  56   38767.0    258.0   0.081024304   0.68806   0.23899   0.36973  -0.70303
  57   38856.8    257.4   0.030652499   0.25970   0.05702   0.21859   0.45680
  58   39037.5    256.2   0.029208641   0.24632   0.39967   0.17194   0.23879
  59   39428.3    253.6   0.048066575   0.40134   0.17854  -0.18327   0.57955
  60   40089.9    249.4   0.022532285   0.18503  -0.34116  -0.18542   0.18509
  61   40298.9    248.1   0.057790274   0.47210  -0.00235   0.47920  -0.49240

FINAL SINGLE POINT ENERGY    -10845.837576658381

DIPOLE MOMENT
-------------
                                X             Y             Z
Electronic contribution:    185.98037      81.04918      -0.44744
Nuclear contribution   :   -186.50943     -84.70133      -2.86968
                        -----------------------------------------
Total Dipole Moment    :     -0.52906      -3.65216      -3.31712
                        -----------------------------------------
Magnitude (a.u.)       :      4.96200
Magnitude (Debye)      :     12.61240

Rotational constants in cm-1:     0.001067     0.000409     0.000325
Rotational constants in MHz :    31.978177    12.269521     9.737999

                             ****ORCA TERMINATED NORMALLY****
TOTAL RUN TIME: 0 days 0 hours 12 minutes 29 seconds 928 msec
