                         Program Version 4.2.0 -  RELEASE  -
|  1> # ORCA input file
|  2> # SCF done       -165.159455326507          0.000366500389
|  3> ! CAM-B3LYP def2-SVP def2/J RIJCOSX Grid4 TightSCF
|  4> %maxcore 5000
|  5> %tddft
|  6>     Mode sTDDFT
|  7>     Ethresh 5.0
|  8>     maxcore 5000
|  9> end
| 10>
| 11> %pal
| 12>   nprocs 6
| 13>   end
| 14> * xyz 0 1
| 15>    C        1.94162         4.49067        -1.91891
| 16>    C        1.93450         3.53057        -2.90214
| 17>    C        3.07145         2.79451        -3.29408
| 18>    N        3.95943         2.16893        -3.66710
| 19>    C        0.81724         3.11690        -3.65184
| 20>    N       -0.02588         2.69793        -4.31180
| 21>    C        3.10048         4.84399        -1.10554
| 22>    C        2.70003         5.80565        -0.14828
| 23>    C        3.56501         6.34322         0.77269
| 24>    C        4.89348         5.90552         0.75215
| 25>    C        5.28601         4.94348        -0.20784
| 26>    C        4.41015         4.40322        -1.14192
| 27>    S        6.97056         4.54304        -0.05884
| 28>    C        7.12093         5.65686         1.27432
| 29>    C        5.97139         6.29743         1.59260
| 30>   Br        8.78164         5.86963         2.11986
| 31>    C        1.26218         6.10162        -0.31611
| 32>    O        0.63192         6.91368         0.32929
| 33>    C        0.81387         5.27208        -1.45747
| 34>    C       -0.39924         5.33641        -2.10266
| 35>    C       -1.62221         5.91634        -1.71171
| 36>    C       -2.00222         6.23521        -0.41354
| 37>    C       -3.29732         6.77081        -0.25822
| 38>    C       -4.05919         6.89673        -1.41243
| 39>   Si       -3.04837         6.28568        -2.86383
| 40>    C       -5.37517         7.39853        -1.47256
| 41>    C       -5.97578         8.21898        -0.52036
| 42>    C       -7.28532         8.62992        -0.79904
| 43>    C       -7.85898         8.14711        -1.98217
| 44>   Si       -6.59334         7.06756        -2.84653
| 45>    C       -9.15142         8.49636        -2.37114
| 46>    C       -9.81134         7.99058        -3.47833
| 47>    C      -11.10077         8.31720        -3.94786
| 48>    C      -11.50164         7.60307        -5.04637
| 49>    C      -10.54737         6.66589        -5.47904
| 50>    S       -9.11240         6.75159        -4.48665
| 51>    C      -10.60911         5.68036        -6.45780
| 52>    C      -11.61696         5.31816        -7.36690
| 53>    C      -11.33438         4.17497        -8.06637
| 54>    C      -10.11205         3.56170        -7.71137
| 55>    S       -9.28044         4.55091        -6.54802
| 56>    C       -9.58738         2.37818        -8.21684
| 57>    C       -8.45798         1.68954        -7.78970
| 58>    C       -7.73138         1.73957        -6.60509
| 59>    C       -6.30560         1.32843        -6.63753
| 60>    O       -5.72025         0.79939        -7.55642
| 61>    C       -5.74264         1.74310        -5.32940
| 62>    C       -4.45572         1.69397        -4.88041
| 63>    C       -4.16212         2.16891        -3.57860
| 64>    C       -5.21574         2.67889        -2.76752
| 65>    C       -4.91939         3.15875        -1.47666
| 66>    C       -3.63568         3.12374        -1.00974
| 67>    C       -2.59622         2.61664        -1.81036
| 68>    C       -2.84926         2.14911        -3.06984
| 69>    F       -1.34414         2.60237        -1.31919
| 70>    F       -3.35663         3.57853         0.22429
| 71>    C       -6.54263         2.70261        -3.25718
| 72>    C       -6.79912         2.24753        -4.52086
| 73>    C       -8.04774         2.14984        -5.27495
| 74>    C       -9.30621         2.30926        -4.72618
| 75>    C      -10.49053         1.93612        -5.38363
| 76>    N      -11.47987         1.62566        -5.87857
| 77>    C       -9.55365         2.82608        -3.44341
| 78>    N       -9.82629         3.30195        -2.43282
| 79>    H        3.22703         7.07570         1.48892
| 80>    H        4.76139         3.67637        -1.85472
| 81>    H        5.88484         7.01668         2.38648
| 82>    H       -0.43043         4.88550        -3.08837
| 83>    H       -1.38070         6.05235         0.44628
| 84>    H       -3.67539         7.00587         0.72513
| 85>    H       -2.74526         7.35564        -3.81748
| 86>    H       -3.61296         5.12258        -3.54696
| 87>    H       -5.46098         8.56791         0.36234
| 88>    H       -7.82237         9.28507        -0.12809
| 89>    H       -6.16491         7.60431        -4.13851
| 90>    H       -6.91884         5.64338        -2.91453
| 91>    H       -9.70117         9.20984        -1.76669
| 92>    H      -11.70422         9.06399        -3.46210
| 93>    H      -12.45582         7.71425        -5.52907
| 94>    H      -12.52179         5.88836        -7.47620
| 95>    H      -11.99422         3.72859        -8.78833
| 96>    H      -10.09137         1.98682        -9.09150
| 97>    H       -8.01296         1.02373        -8.52476
| 98>    H       -3.66592         1.30119        -5.50212
| 99>    H       -5.70604         3.54943        -0.85036
|100>    H       -2.03298         1.78569        -3.67514
|101>    H       -7.32253         3.08223        -2.61707
|102> *
|103>
|104>                          ****END OF INPUT****

CARTESIAN COORDINATES (ANGSTROEM)
---------------------------------
  C      1.941620    4.490670   -1.918910
  C      1.934500    3.530570   -2.902140
  C      3.071450    2.794510   -3.294080
  N      3.959430    2.168930   -3.667100
  C      0.817240    3.116900   -3.651840
  N     -0.025880    2.697930   -4.311800
  C      3.100480    4.843990   -1.105540
  C      2.700030    5.805650   -0.148280
  C      3.565010    6.343220    0.772690
  C      4.893480    5.905520    0.752150
  C      5.286010    4.943480   -0.207840
  C      4.410150    4.403220   -1.141920
  S      6.970560    4.543040   -0.058840
  C      7.120930    5.656860    1.274320
  C      5.971390    6.297430    1.592600
  Br     8.781640    5.869630    2.119860
  C      1.262180    6.101620   -0.316110
  O      0.631920    6.913680    0.329290
  C      0.813870    5.272080   -1.457470
  C     -0.399240    5.336410   -2.102660
  C     -1.622210    5.916340   -1.711710
  C     -2.002220    6.235210   -0.413540
  C     -3.297320    6.770810   -0.258220
  C     -4.059190    6.896730   -1.412430
  Si    -3.048370    6.285680   -2.863830
  C     -5.375170    7.398530   -1.472560
  C     -5.975780    8.218980   -0.520360
  C     -7.285320    8.629920   -0.799040
  C     -7.858980    8.147110   -1.982170
  Si    -6.593340    7.067560   -2.846530
  C     -9.151420    8.496360   -2.371140
  C     -9.811340    7.990580   -3.478330
  C    -11.100770    8.317200   -3.947860
  C    -11.501640    7.603070   -5.046370
  C    -10.547370    6.665890   -5.479040
  S     -9.112400    6.751590   -4.486650
  C    -10.609110    5.680360   -6.457800
  C    -11.616960    5.318160   -7.366900
  C    -11.334380    4.174970   -8.066370
  C    -10.112050    3.561700   -7.711370
  S     -9.280440    4.550910   -6.548020
  C     -9.587380    2.378180   -8.216840
  C     -8.457980    1.689540   -7.789700
  C     -7.731380    1.739570   -6.605090
  C     -6.305600    1.328430   -6.637530
  O     -5.720250    0.799390   -7.556420
  C     -5.742640    1.743100   -5.329400
  C     -4.455720    1.693970   -4.880410
  C     -4.162120    2.168910   -3.578600
  C     -5.215740    2.678890   -2.767520
  C     -4.919390    3.158750   -1.476660
  C     -3.635680    3.123740   -1.009740
  C     -2.596220    2.616640   -1.810360
  C     -2.849260    2.149110   -3.069840
  F     -1.344140    2.602370   -1.319190
  F     -3.356630    3.578530    0.224290
  C     -6.542630    2.702610   -3.257180
  C     -6.799120    2.247530   -4.520860
  C     -8.047740    2.149840   -5.274950
  C     -9.306210    2.309260   -4.726180
  C    -10.490530    1.936120   -5.383630
  N    -11.479870    1.625660   -5.878570
  C     -9.553650    2.826080   -3.443410
  N     -9.826290    3.301950   -2.432820
  H      3.227030    7.075700    1.488920
  H      4.761390    3.676370   -1.854720
  H      5.884840    7.016680    2.386480
  H     -0.430430    4.885500   -3.088370
  H     -1.380700    6.052350    0.446280
  H     -3.675390    7.005870    0.725130
  H     -2.745260    7.355640   -3.817480
  H     -3.612960    5.122580   -3.546960
  H     -5.460980    8.567910    0.362340
  H     -7.822370    9.285070   -0.128090
  H     -6.164910    7.604310   -4.138510
  H     -6.918840    5.643380   -2.914530
  H     -9.701170    9.209840   -1.766690
  H    -11.704220    9.063990   -3.462100
  H    -12.455820    7.714250   -5.529070
  H    -12.521790    5.888360   -7.476200
  H    -11.994220    3.728590   -8.788330
  H    -10.091370    1.986820   -9.091500
  H     -8.012960    1.023730   -8.524760
  H     -3.665920    1.301190   -5.502120
  H     -5.706040    3.549430   -0.850360
  H     -2.032980    1.785690   -3.675140
  H     -7.322530    3.082230   -2.617070

 Total Charge           Charge          ....    0
 Multiplicity           Mult            ....    1
 Number of Electrons    NEL             ....  496
 Basis Dimension        Dim             .... 1049

ORBITAL ENERGIES
----------------

  NO   OCC          E(Eh)            E(eV)
   0   2.0000    -482.882403    -13139.8982
   1   2.0000     -88.971961     -2421.0501
   2   2.0000     -88.971433     -2421.0358
   3   2.0000     -88.967421     -2420.9266
   4   2.0000     -66.206963     -1801.5831
   5   2.0000     -66.201520     -1801.4349
   6   2.0000     -62.560145     -1702.3481
   7   2.0000     -56.394091     -1534.5612
   8   2.0000     -56.391383     -1534.4875
   9   2.0000     -56.391344     -1534.4865
  10   2.0000     -24.794026      -674.6797
  11   2.0000     -24.790001      -674.5702
  12   2.0000     -19.210065      -522.7324
  13   2.0000     -19.198482      -522.4173
  14   2.0000     -14.412984      -392.1972
  15   2.0000     -14.407461      -392.0469
  16   2.0000     -14.402032      -391.8992
  17   2.0000     -14.400359      -391.8537
  18   2.0000     -10.370909      -282.2068
  19   2.0000     -10.366998      -282.1004
  20   2.0000     -10.361579      -281.9529
  21   2.0000     -10.355065      -281.7756
  22   2.0000     -10.349085      -281.6129
  23   2.0000     -10.343281      -281.4550
  24   2.0000     -10.334335      -281.2116
  25   2.0000     -10.332732      -281.1679
  26   2.0000     -10.328211      -281.0449
  27   2.0000     -10.327694      -281.0308
  28   2.0000     -10.324830      -280.9529
  29   2.0000     -10.323812      -280.9252
  30   2.0000     -10.320641      -280.8389
  31   2.0000     -10.318747      -280.7874
  32   2.0000     -10.318457      -280.7795
  33   2.0000     -10.312655      -280.6216
  34   2.0000     -10.312026      -280.6045
  35   2.0000     -10.311273      -280.5840
  36   2.0000     -10.310384      -280.5598
  37   2.0000     -10.308427      -280.5066
  38   2.0000     -10.307183      -280.4727
  39   2.0000     -10.306855      -280.4638
  40   2.0000     -10.302875      -280.3555
  41   2.0000     -10.302815      -280.3538
  42   2.0000     -10.302438      -280.3436
  43   2.0000     -10.301995      -280.3315
  44   2.0000     -10.301928      -280.3297
  45   2.0000     -10.301834      -280.3272
  46   2.0000     -10.300067      -280.2791
  47   2.0000     -10.296825      -280.1908
  48   2.0000     -10.296394      -280.1791
  49   2.0000     -10.295749      -280.1616
  50   2.0000     -10.294659      -280.1319
  51   2.0000     -10.293867      -280.1104
  52   2.0000     -10.293552      -280.1018
  53   2.0000     -10.293063      -280.0885
  54   2.0000     -10.291586      -280.0483
  55   2.0000     -10.290305      -280.0134
  56   2.0000     -10.288971      -279.9771
  57   2.0000     -10.288167      -279.9553
  58   2.0000     -10.287402      -279.9344
  59   2.0000     -10.286572      -279.9119
  60   2.0000     -10.286280      -279.9039
  61   2.0000     -10.286106      -279.8992
  62   2.0000     -10.285300      -279.8772
  63   2.0000     -10.283959      -279.8408
  64   2.0000     -10.283103      -279.8175
  65   2.0000     -10.279450      -279.7180
  66   2.0000     -10.277059      -279.6530
  67   2.0000     -10.272472      -279.5282
  68   2.0000      -8.789590      -239.1769
  69   2.0000      -8.068107      -219.5443
  70   2.0000      -8.067393      -219.5249
  71   2.0000      -8.062541      -219.3929
  72   2.0000      -6.625886      -180.2995
  73   2.0000      -6.611313      -179.9030
  74   2.0000      -6.611148      -179.8985
  75   2.0000      -6.037798      -164.2968
  76   2.0000      -6.037074      -164.2771
  77   2.0000      -6.033630      -164.1834
  78   2.0000      -6.032816      -164.1613
  79   2.0000      -6.032008      -164.1393
  80   2.0000      -6.029211      -164.0632
  81   2.0000      -6.028626      -164.0473
  82   2.0000      -6.027735      -164.0230
  83   2.0000      -6.024312      -163.9299
  84   2.0000      -5.378044      -146.3440
  85   2.0000      -5.372159      -146.1839
  86   2.0000      -3.740968      -101.7969
  87   2.0000      -3.739701      -101.7624
  88   2.0000      -3.739074      -101.7454
  89   2.0000      -3.735050      -101.6359
  90   2.0000      -3.733743      -101.6003
  91   2.0000      -3.733403      -101.5911
  92   2.0000      -2.741739       -74.6065
  93   2.0000      -2.737695       -74.4965
  94   2.0000      -2.737515       -74.4916
  95   2.0000      -2.725967       -74.1773
  96   2.0000      -2.725950       -74.1769
  97   2.0000      -1.312333       -35.7104
  98   2.0000      -1.296988       -35.2928
  99   2.0000      -1.125054       -30.6143
 100   2.0000      -1.112897       -30.2835
 101   2.0000      -1.020132       -27.7592
 102   2.0000      -1.017734       -27.6940
 103   2.0000      -1.009144       -27.4602
 104   2.0000      -1.005362       -27.3573
 105   2.0000      -0.993541       -27.0356
 106   2.0000      -0.989710       -26.9314
 107   2.0000      -0.989245       -26.9187
 108   2.0000      -0.983378       -26.7591
 109   2.0000      -0.979647       -26.6575
 110   2.0000      -0.965959       -26.2851
 111   2.0000      -0.955464       -25.9995
 112   2.0000      -0.941654       -25.6237
 113   2.0000      -0.933767       -25.4091
 114   2.0000      -0.920478       -25.0475
 115   2.0000      -0.909890       -24.7594
 116   2.0000      -0.903346       -24.5813
 117   2.0000      -0.897112       -24.4116
 118   2.0000      -0.889552       -24.2059
 119   2.0000      -0.881321       -23.9820
 120   2.0000      -0.880644       -23.9635
 121   2.0000      -0.876025       -23.8379
 122   2.0000      -0.871187       -23.7062
 123   2.0000      -0.862516       -23.4702
 124   2.0000      -0.847378       -23.0583
 125   2.0000      -0.841011       -22.8851
 126   2.0000      -0.831208       -22.6183
 127   2.0000      -0.825819       -22.4717
 128   2.0000      -0.824393       -22.4329
 129   2.0000      -0.813267       -22.1301
 130   2.0000      -0.793982       -21.6054
 131   2.0000      -0.783411       -21.3177
 132   2.0000      -0.759651       -20.6711
 133   2.0000      -0.754356       -20.5271
 134   2.0000      -0.749569       -20.3968
 135   2.0000      -0.741532       -20.1781
 136   2.0000      -0.734018       -19.9736
 137   2.0000      -0.721235       -19.6258
 138   2.0000      -0.714544       -19.4437
 139   2.0000      -0.703091       -19.1321
 140   2.0000      -0.700672       -19.0663
 141   2.0000      -0.694345       -18.8941
 142   2.0000      -0.684421       -18.6241
 143   2.0000      -0.681384       -18.5414
 144   2.0000      -0.671335       -18.2680
 145   2.0000      -0.667943       -18.1756
 146   2.0000      -0.661311       -17.9952
 147   2.0000      -0.655402       -17.8344
 148   2.0000      -0.651574       -17.7302
 149   2.0000      -0.645086       -17.5537
 150   2.0000      -0.641735       -17.4625
 151   2.0000      -0.633667       -17.2430
 152   2.0000      -0.632201       -17.2031
 153   2.0000      -0.628566       -17.1042
 154   2.0000      -0.620102       -16.8738
 155   2.0000      -0.612934       -16.6788
 156   2.0000      -0.608120       -16.5478
 157   2.0000      -0.605451       -16.4752
 158   2.0000      -0.599499       -16.3132
 159   2.0000      -0.596463       -16.2306
 160   2.0000      -0.593000       -16.1363
 161   2.0000      -0.588682       -16.0189
 162   2.0000      -0.579089       -15.7578
 163   2.0000      -0.576585       -15.6897
 164   2.0000      -0.575270       -15.6539
 165   2.0000      -0.568317       -15.4647
 166   2.0000      -0.562935       -15.3182
 167   2.0000      -0.552131       -15.0243
 168   2.0000      -0.550518       -14.9804
 169   2.0000      -0.541932       -14.7467
 170   2.0000      -0.541439       -14.7333
 171   2.0000      -0.539496       -14.6804
 172   2.0000      -0.538480       -14.6528
 173   2.0000      -0.535047       -14.5594
 174   2.0000      -0.533530       -14.5181
 175   2.0000      -0.530981       -14.4487
 176   2.0000      -0.527539       -14.3551
 177   2.0000      -0.524351       -14.2683
 178   2.0000      -0.520559       -14.1651
 179   2.0000      -0.519213       -14.1285
 180   2.0000      -0.517879       -14.0922
 181   2.0000      -0.513859       -13.9828
 182   2.0000      -0.510776       -13.8989
 183   2.0000      -0.510125       -13.8812
 184   2.0000      -0.505780       -13.7630
 185   2.0000      -0.503773       -13.7084
 186   2.0000      -0.501712       -13.6523
 187   2.0000      -0.500129       -13.6092
 188   2.0000      -0.498602       -13.5676
 189   2.0000      -0.493882       -13.4392
 190   2.0000      -0.492005       -13.3881
 191   2.0000      -0.488470       -13.2919
 192   2.0000      -0.486036       -13.2257
 193   2.0000      -0.484795       -13.1919
 194   2.0000      -0.480031       -13.0623
 195   2.0000      -0.478850       -13.0302
 196   2.0000      -0.474908       -12.9229
 197   2.0000      -0.469315       -12.7707
 198   2.0000      -0.467151       -12.7118
 199   2.0000      -0.465523       -12.6675
 200   2.0000      -0.460913       -12.5421
 201   2.0000      -0.456394       -12.4191
 202   2.0000      -0.454437       -12.3658
 203   2.0000      -0.452786       -12.3209
 204   2.0000      -0.451274       -12.2798
 205   2.0000      -0.448032       -12.1916
 206   2.0000      -0.443547       -12.0695
 207   2.0000      -0.442711       -12.0468
 208   2.0000      -0.440058       -11.9746
 209   2.0000      -0.438067       -11.9204
 210   2.0000      -0.435410       -11.8481
 211   2.0000      -0.433234       -11.7889
 212   2.0000      -0.431244       -11.7347
 213   2.0000      -0.429730       -11.6936
 214   2.0000      -0.427060       -11.6209
 215   2.0000      -0.423577       -11.5261
 216   2.0000      -0.422656       -11.5011
 217   2.0000      -0.420259       -11.4358
 218   2.0000      -0.417489       -11.3604
 219   2.0000      -0.416937       -11.3454
 220   2.0000      -0.413877       -11.2622
 221   2.0000      -0.413066       -11.2401
 222   2.0000      -0.410344       -11.1660
 223   2.0000      -0.405287       -11.0284
 224   2.0000      -0.402915       -10.9639
 225   2.0000      -0.401857       -10.9351
 226   2.0000      -0.398719       -10.8497
 227   2.0000      -0.394486       -10.7345
 228   2.0000      -0.388359       -10.5678
 229   2.0000      -0.382822       -10.4171
 230   2.0000      -0.378399       -10.2968
 231   2.0000      -0.372509       -10.1365
 232   2.0000      -0.371918       -10.1204
 233   2.0000      -0.365560        -9.9474
 234   2.0000      -0.357689        -9.7332
 235   2.0000      -0.357345        -9.7239
 236   2.0000      -0.347299        -9.4505
 237   2.0000      -0.334926        -9.1138
 238   2.0000      -0.332721        -9.0538
 239   2.0000      -0.325373        -8.8539
 240   2.0000      -0.318874        -8.6770
 241   2.0000      -0.310835        -8.4583
 242   2.0000      -0.302152        -8.2220
 243   2.0000      -0.295352        -8.0369
 244   2.0000      -0.289228        -7.8703
 245   2.0000      -0.282801        -7.6954
 246   2.0000      -0.265602        -7.2274
 247   2.0000      -0.227121        -6.1803
 248   0.0000      -0.128554        -3.4981
 249   0.0000      -0.089932        -2.4472
 250   0.0000      -0.066134        -1.7996
 251   0.0000      -0.055059        -1.4982
 252   0.0000      -0.044724        -1.2170

MULLIKEN ATOMIC CHARGES
-----------------------
   0 C :    0.317735
   1 C :   -0.362141
   2 C :   -0.189492
   3 N :    0.144053
   4 C :   -0.164815
   5 N :    0.128776
   6 C :    0.014516
   7 C :   -0.017595
   8 C :   -0.076827
   9 C :    0.122738
  10 C :   -0.091883
  11 C :   -0.023062
  12 S :    0.184725
  13 C :   -0.122294
  14 C :    0.034382
  15 Br:    0.020420
  16 C :    0.142566
  17 O :   -0.161606
  18 C :   -0.078216
  19 C :    0.014973
  20 C :   -0.213882
  21 C :    0.090642
  22 C :   -0.011815
  23 C :   -0.134214
  24 Si:    0.487576
  25 C :   -0.138911
  26 C :    0.019150
  27 C :    0.011971
  28 C :   -0.151978
  29 Si:    0.479552
  30 C :    0.026750
  31 C :   -0.021126
  32 C :    0.046530
  33 C :    0.031110
  34 C :    0.010794
  35 S :    0.043459
  36 C :   -0.055288
  37 C :    0.039796
  38 C :    0.067935
  39 C :   -0.059286
  40 S :    0.113019
  41 C :    0.021535
  42 C :    0.016784
  43 C :   -0.145764
  44 C :    0.134198
  45 O :   -0.145537
  46 C :    0.022395
  47 C :   -0.096245
  48 C :    0.112304
  49 C :    0.108815
  50 C :   -0.119963
  51 C :    0.250220
  52 C :    0.226708
  53 C :   -0.097190
  54 F :   -0.181690
  55 F :   -0.183262
  56 C :   -0.104170
  57 C :    0.039092
  58 C :    0.287911
  59 C :   -0.354715
  60 C :   -0.211567
  61 N :    0.156216
  62 C :   -0.169395
  63 N :    0.126380
  64 H :   -0.014026
  65 H :   -0.007458
  66 H :   -0.004040
  67 H :    0.009391
  68 H :    0.015861
  69 H :   -0.009694
  70 H :   -0.058251
  71 H :   -0.043132
  72 H :   -0.006470
  73 H :   -0.004737
  74 H :   -0.048153
  75 H :   -0.041223
  76 H :   -0.005918
  77 H :    0.001135
  78 H :   -0.002063
  79 H :   -0.008288
  80 H :   -0.002393
  81 H :    0.000769
  82 H :    0.027258
  83 H :   -0.004444
  84 H :   -0.004453
  85 H :    0.009454
  86 H :   -0.010924
Sum of atomic charges:    0.0000000

LOEWDIN ATOMIC CHARGES
----------------------
   0 C :    0.080588
   1 C :   -0.151533
   2 C :   -0.018384
   3 N :   -0.060799
   4 C :   -0.006101
   5 N :   -0.068378
   6 C :   -0.020691
   7 C :   -0.049096
   8 C :    0.019096
   9 C :   -0.033616
  10 C :   -0.144916
  11 C :   -0.010515
  12 S :    0.431079
  13 C :   -0.272796
  14 C :   -0.071010
  15 Br:    0.134105
  16 C :    0.082418
  17 O :   -0.150986
  18 C :   -0.105004
  19 C :    0.060811
  20 C :   -0.206478
  21 C :    0.070779
  22 C :   -0.017090
  23 C :   -0.144191
  24 Si:    0.545509
  25 C :   -0.169152
  26 C :   -0.004240
  27 C :    0.005370
  28 C :   -0.176177
  29 Si:    0.506918
  30 C :   -0.018088
  31 C :   -0.157662
  32 C :   -0.006559
  33 C :   -0.037325
  34 C :   -0.137575
  35 S :    0.427612
  36 C :   -0.191064
  37 C :   -0.021017
  38 C :   -0.025037
  39 C :   -0.117072
  40 S :    0.467859
  41 C :   -0.064560
  42 C :    0.036824
  43 C :   -0.115341
  44 C :    0.080925
  45 O :   -0.147905
  46 C :   -0.052952
  47 C :    0.030202
  48 C :   -0.015100
  49 C :   -0.010665
  50 C :   -0.039415
  51 C :    0.059671
  52 C :    0.055823
  53 C :   -0.023062
  54 F :   -0.052788
  55 F :   -0.054045
  56 C :   -0.002833
  57 C :   -0.014415
  58 C :    0.035324
  59 C :   -0.169045
  60 C :   -0.022208
  61 N :   -0.061578
  62 C :   -0.020735
  63 N :   -0.077023
  64 H :    0.039395
  65 H :    0.040750
  66 H :    0.038246
  67 H :    0.039147
  68 H :    0.035158
  69 H :    0.027577
  70 H :   -0.082424
  71 H :   -0.076951
  72 H :    0.028957
  73 H :    0.030412
  74 H :   -0.076824
  75 H :   -0.076861
  76 H :    0.036541
  77 H :    0.039064
  78 H :    0.037760
  79 H :    0.035484
  80 H :    0.038787
  81 H :    0.041238
  82 H :    0.046222
  83 H :    0.042903
  84 H :    0.043042
  85 H :    0.042798
  86 H :    0.034891

  Mayer bond orders larger than 0.100000
B(  0-C ,  1-C ) :   1.5978 B(  0-C ,  6-C ) :   0.9932 B(  0-C , 18-C ) :   1.1062
B(  1-C ,  2-C ) :   1.1432 B(  1-C ,  4-C ) :   1.1608 B(  2-C ,  3-N ) :   2.9665
B(  4-C ,  5-N ) :   2.9061 B(  6-C ,  7-C ) :   1.2755 B(  6-C , 11-C ) :   1.4096
B(  7-C ,  8-C ) :   1.4255 B(  7-C , 16-C ) :   0.9390 B(  8-C ,  9-C ) :   1.2399
B(  8-C , 64-H ) :   1.0179 B(  9-C , 10-C ) :   1.3099 B(  9-C , 14-C ) :   1.1607
B( 10-C , 11-C ) :   1.3259 B( 10-C , 12-S ) :   1.0853 B( 11-C , 65-H ) :   0.9810
B( 12-S , 13-C ) :   1.0861 B( 13-C , 14-C ) :   1.6191 B( 13-C , 15-Br) :   1.0168
B( 14-C , 66-H ) :   1.0011 B( 16-C , 17-O ) :   2.1987 B( 16-C , 18-C ) :   0.9539
B( 18-C , 19-C ) :   1.5063 B( 19-C , 20-C ) :   1.2395 B( 19-C , 67-H ) :   0.9388
B( 20-C , 21-C ) :   1.5278 B( 20-C , 24-Si) :   0.9265 B( 21-C , 22-C ) :   1.1810
B( 21-C , 68-H ) :   0.9817 B( 22-C , 23-C ) :   1.5613 B( 22-C , 69-H ) :   0.9981
B( 23-C , 24-Si) :   0.9099 B( 23-C , 25-C ) :   1.1738 B( 24-Si, 70-H ) :   0.9566
B( 24-Si, 71-H ) :   0.9622 B( 25-C , 26-C ) :   1.5471 B( 25-C , 29-Si) :   0.9149
B( 26-C , 27-C ) :   1.1962 B( 26-C , 72-H ) :   0.9947 B( 27-C , 28-C ) :   1.5056
B( 27-C , 73-H ) :   0.9998 B( 28-C , 29-Si) :   0.8994 B( 28-C , 30-C ) :   1.2232
B( 29-Si, 74-H ) :   0.9598 B( 29-Si, 75-H ) :   0.9544 B( 30-C , 31-C ) :   1.4892
B( 30-C , 76-H ) :   0.9790 B( 31-C , 32-C ) :   1.1832 B( 31-C , 35-S ) :   1.0315
B( 32-C , 33-C ) :   1.5400 B( 32-C , 77-H ) :   0.9990 B( 33-C , 34-C ) :   1.2285
B( 33-C , 78-H ) :   0.9951 B( 34-C , 35-S ) :   1.0924 B( 34-C , 36-C ) :   1.4199
B( 36-C , 37-C ) :   1.2328 B( 36-C , 40-S ) :   1.0524 B( 37-C , 38-C ) :   1.5374
B( 37-C , 79-H ) :   0.9934 B( 38-C , 39-C ) :   1.1933 B( 38-C , 80-H ) :   0.9967
B( 39-C , 40-S ) :   1.1310 B( 39-C , 41-C ) :   1.4017 B( 41-C , 42-C ) :   1.3675
B( 41-C , 81-H ) :   0.9562 B( 42-C , 43-C ) :   1.4246 B( 42-C , 82-H ) :   0.9328
B( 43-C , 44-C ) :   0.9615 B( 43-C , 58-C ) :   1.1554 B( 44-C , 45-O ) :   2.2658
B( 44-C , 46-C ) :   0.9051 B( 46-C , 47-C ) :   1.4756 B( 46-C , 57-C ) :   1.2209
B( 47-C , 48-C ) :   1.1760 B( 47-C , 83-H ) :   1.0203 B( 48-C , 49-C ) :   1.2629
B( 48-C , 53-C ) :   1.1925 B( 49-C , 50-C ) :   1.1935 B( 49-C , 56-C ) :   1.1962
B( 50-C , 51-C ) :   1.4314 B( 50-C , 53-C ) :   0.1106 B( 50-C , 84-H ) :   1.0088
B( 51-C , 52-C ) :   1.2059 B( 51-C , 55-F ) :   1.0908 B( 52-C , 53-C ) :   1.4384
B( 52-C , 54-F ) :   1.0875 B( 53-C , 85-H ) :   0.9908 B( 56-C , 57-C ) :   1.4758
B( 56-C , 86-H ) :   0.9832 B( 57-C , 58-C ) :   0.9948 B( 58-C , 59-C ) :   1.5308
B( 59-C , 60-C ) :   1.1812 B( 59-C , 62-C ) :   1.1455 B( 60-C , 61-N ) :   2.9880
B( 62-C , 63-N ) :   2.9500

-----------------------------------------------------------------------------
         ABSORPTION SPECTRUM VIA TRANSITION ELECTRIC DIPOLE MOMENTS
-----------------------------------------------------------------------------
State   Energy  Wavelength   fosc         T2         TX        TY        TZ
        (cm-1)    (nm)                  (au**2)     (au)      (au)      (au)
-----------------------------------------------------------------------------
   0    7376.2   1355.7   0.376893006  16.82133   3.12462   1.75405   1.99534
   1   14799.0    675.7   0.018544954   0.41254  -0.31501   0.55898   0.02909
   2   16428.1    608.7   1.180480128  23.65626  -3.97968   2.78436  -0.25634
   3   17881.2    559.2   0.256145532   4.71590   1.90338  -1.03859   0.11990
   4   20619.9    485.0   0.047588406   0.75978   0.47394  -0.52581  -0.50861
   5   21631.9    462.3   0.073064330   1.11195   0.61742  -0.06167  -0.85261
   6   22483.0    444.8   0.216918667   3.17628   0.10127   0.80035   1.58917
   7   23271.0    429.7   0.073704723   1.04269  -0.42322  -0.13441  -0.91952
   8   23863.3    419.1   0.230447305   3.17919  -1.37632   0.16748  -1.12111
   9   24434.7    409.3   0.024964495   0.33635  -0.37814  -0.25440   0.35866
  10   24826.1    402.8   0.030508437   0.40456   0.35030   0.02436   0.53034
  11   25450.0    392.9   0.021584364   0.27921  -0.41547   0.32055   0.06195
  12   26274.7    380.6   0.015590601   0.19534   0.35564  -0.14758  -0.21699
  13   26699.2    374.5   0.045894372   0.56590  -0.45101   0.18993   0.57132
  14   26939.3    371.2   0.118494652   1.44807   0.12407  -0.56673  -1.05427
  15   27630.0    361.9   0.007629047   0.09090  -0.26216  -0.14768  -0.01903
  16   27679.8    361.3   0.056485215   0.67181   0.37424   0.54133   0.48859
  17   28404.6    352.1   0.065711790   0.76161  -0.82845  -0.27090   0.04342
  18   29795.5    335.6   0.053967756   0.59629  -0.41306  -0.15737  -0.63318
  19   29862.9    334.9   0.036548260   0.40291  -0.06179  -0.31286  -0.54883
  20   30286.6    330.2   0.003724426   0.04048  -0.15265  -0.11113  -0.06951
  21   30712.9    325.6   0.153148628   1.64160   1.15800   0.27132   0.47648
  22   31092.8    321.6   0.003602601   0.03814  -0.18519  -0.01104  -0.06104
  23   31342.0    319.1   0.285556523   2.99945  -0.85925  -0.84331  -1.24498
  24   31446.7    318.0   0.190811019   1.99758   1.27584  -0.09620   0.60046
  25   31748.3    315.0   0.066978758   0.69453   0.74243  -0.21853   0.30916
  26   31993.9    312.6   0.443061811   4.55903  -1.62622  -0.52572  -1.27987
  27   32597.1    306.8   0.036557698   0.36921   0.08620  -0.30444  -0.51875
  28   32639.7    306.4   0.264983280   2.67268   1.40132   0.17788   0.82301
  29   32805.8    304.8   0.026056907   0.26149  -0.50155   0.06641  -0.07430
  30   32997.0    303.1   0.050056127   0.49941   0.03012   0.39076   0.58806
  31   33177.0    301.4   0.069864711   0.69326  -0.16487   0.47588   0.66304
  32   33581.1    297.8   0.045543386   0.44648   0.66652  -0.00411  -0.04712
  33   33755.4    296.2   0.061628104   0.60105  -0.06928   0.32863   0.69875
  34   34186.8    292.5   0.027607031   0.26585   0.43464  -0.22643  -0.16023
  35   34799.0    287.4   0.101674126   0.96188   0.74793   0.05956   0.63161
  36   35166.8    284.4   0.260441038   2.43810  -1.28675  -0.17706  -0.86661
  37   35557.0    281.2   0.101847877   0.94298  -0.20025  -0.70163  -0.64078
  38   35823.0    279.2   0.010550388   0.09696   0.15353   0.15835   0.21980
  39   35864.1    278.8   0.053978719   0.49549  -0.04709   0.45905   0.53155
  40   36164.2    276.5   0.029327229   0.26697   0.35369   0.19338   0.32323
  41   36548.9    273.6   0.183559908   1.65341  -1.21357   0.41144   0.10660
  42   36804.6    271.7   0.044326905   0.39650   0.59394  -0.08451  -0.19129
  43   37128.5    269.3   0.016774630   0.14874  -0.26360  -0.03262  -0.27962
  44   37864.5    264.1   0.005441323   0.04731  -0.00031  -0.16943  -0.13639
  45   38059.9    262.7   0.044676199   0.38644   0.44421   0.22456   0.37242
  46   38148.8    262.1   0.014192063   0.12247  -0.21480  -0.04360  -0.27282
  47   38490.4    259.8   0.022301705   0.19075  -0.40247   0.06235  -0.15773
  48   38626.2    258.9   0.100470983   0.85632  -0.02299   0.54830   0.74509
  49   38949.6    256.7   0.032522848   0.27489  -0.45870  -0.03172  -0.25195
  50   39054.9    256.0   0.020434819   0.17225   0.12162   0.12353   0.37710
  51   39284.9    254.6   0.015517179   0.13004  -0.16838  -0.10331   0.30168
  52   39616.1    252.4   0.002904694   0.02414   0.08169   0.11822   0.05907
  53   39952.0    250.3   0.037260955   0.30704  -0.55128  -0.04039  -0.03874
  54   40123.7    249.2   0.146605565   1.20289  -0.53189   0.56127   0.77779
  55   40269.1    248.3   0.055031006   0.44990  -0.35571   0.54709   0.15513
  56   40299.6    248.1   0.043901507   0.35864   0.38119  -0.37124  -0.27479

FINAL SINGLE POINT ENERGY     -6831.980654200771

DIPOLE MOMENT
-------------
                                X             Y             Z
Electronic contribution:    156.33642      -5.43201      59.04372
Nuclear contribution   :   -158.13305       9.84072     -57.81409
                        -----------------------------------------
Total Dipole Moment    :     -1.79663       4.40871       1.22963
                        -----------------------------------------
Magnitude (a.u.)       :      4.91696
Magnitude (Debye)      :     12.49793

Rotational constants in cm-1:     0.002472     0.000369     0.000337
Rotational constants in MHz :    74.118392    11.049696    10.095330

                             ****ORCA TERMINATED NORMALLY****
TOTAL RUN TIME: 0 days 0 hours 11 minutes 7 seconds 962 msec
