                         Program Version 4.2.0 -  RELEASE  -
|  1> # ORCA input file
|  2> # SCF done       -183.422617300490          0.000899086511
|  3> ! CAM-B3LYP def2-SVP def2/J RIJCOSX Grid4 TightSCF
|  4> %maxcore 5000
|  5> %tddft
|  6>     Mode sTDDFT
|  7>     Ethresh 5.0
|  8>     maxcore 5000
|  9> end
| 10>
| 11> %pal
| 12>   nprocs 6
| 13>   end
| 14> * xyz 0 1
| 15>    C       -8.25681        -2.17159         1.23330
| 16>    C       -9.34803        -2.84012         0.74770
| 17>    C       -9.84216        -4.04407         1.29574
| 18>    N      -10.28887        -5.02289         1.69491
| 19>    C      -10.15654        -2.42716        -0.33425
| 20>    N      -10.87776        -2.16632        -1.18835
| 21>    C       -7.46464        -2.57100         2.39106
| 22>    C       -6.49923        -1.56656         2.65281
| 23>    C       -5.59762        -1.65137         3.68630
| 24>    C       -5.64590        -2.78750         4.50018
| 25>    C       -6.61077        -3.78888         4.23079
| 26>    C       -7.52481        -3.69949         3.18801
| 27>    S       -6.49170        -5.10841         5.35319
| 28>    C       -5.16642        -4.31046         6.15823
| 29>    C       -4.82917        -3.11561         5.61597
| 30>   Br       -4.35412        -5.12924         7.63569
| 31>    C       -6.63685        -0.49144         1.65850
| 32>    O       -5.99233         0.53923         1.61521
| 33>    C       -7.69937        -0.92316         0.73297
| 34>    C       -8.03055        -0.31133        -0.44126
| 35>    C       -7.51358         0.86221        -1.02561
| 36>    N       -7.91300         1.18814        -2.23746
| 37>    C       -7.33026         2.29350        -2.65236
| 38>    C       -6.43537         2.91083        -1.74266
| 39>    S       -6.34009         1.99296        -0.30147
| 40>    N       -5.83114         4.01381        -2.17992
| 41>    C       -6.19780         4.30068        -3.39527
| 42>    S       -7.38943         3.18613        -4.12026
| 43>    C       -5.66243         5.38871        -4.12511
| 44>    C       -4.75312         6.31782        -3.64339
| 45>    C       -4.35703         7.20788        -4.63707
| 46>    C       -4.97084         6.95060        -5.87898
| 47>    S       -6.04690         5.62943        -5.81577
| 48>    C       -4.45261         7.85675        -6.83871
| 49>    C       -3.50840         8.68687        -6.20207
| 50>    C       -3.43886         8.32628        -4.79449
| 51>    C       -2.68199         8.91851        -3.82840
| 52>    C       -2.70364         8.49327        -2.48207
| 53>    N       -2.71550         8.16176        -1.38501
| 54>    C       -1.83369        10.01228        -4.10768
| 55>    N       -1.14703        10.90265        -4.33020
| 56>    C       -2.88809         9.56995        -7.08181
| 57>    C       -3.35930         9.41426        -8.37387
| 58>    S       -4.59372         8.17901        -8.50824
| 59>    C       -2.91804        10.07234        -9.54414
| 60>    N       -3.45069         9.89485       -10.71830
| 61>    C       -2.78949        10.58137       -11.64672
| 62>    C       -1.68165        11.33288       -11.19710
| 63>    S       -1.50588        11.16091        -9.49854
| 64>    N       -0.98408        11.96890       -12.12699
| 65>    C       -1.49079        11.76981       -13.31243
| 66>    S       -2.95124        10.74858       -13.34012
| 67>    C       -0.98515        12.30128       -14.52309
| 68>    C        0.24792        12.82319       -14.73982
| 69>    C        1.45490        12.83928       -13.93391
| 70>    C        1.86277        11.87146       -13.05863
| 71>    C        3.09103        11.90810       -12.36526
| 72>    N        4.07295        11.89765       -11.77147
| 73>    C        1.16854        10.66464       -12.82884
| 74>    N        0.70218         9.62961       -12.65983
| 75>    C        2.28023        13.93652       -14.42548
| 76>    C        1.72806        14.41671       -15.64153
| 77>    C        0.48175        13.68635       -15.93645
| 78>    O       -0.23354        13.78581       -16.90420
| 79>    C        2.31736        15.42055       -16.37265
| 80>    C        3.49837        15.98231       -15.87740
| 81>    C        4.03291        15.50605       -14.65486
| 82>    C        3.44204        14.48700       -13.91835
| 83>    S        5.49031        16.34578       -14.22459
| 84>    C        5.36873        17.30893       -15.67332
| 85>    C        4.29055        17.01969       -16.44050
| 86>   Br        6.67369        18.60510       -16.03397
| 87>    H       -4.87661        -0.86779         3.85848
| 88>    H       -8.23639        -4.49100         3.02340
| 89>    H       -4.03678        -2.49108         5.98601
| 90>    H       -8.77278        -0.77967        -1.07662
| 91>    H       -4.41317         6.30566        -2.62443
| 92>    H       -2.12789        10.28407        -6.82087
| 93>    H       -1.68061        12.34797       -15.35348
| 94>    H        1.88141        15.76091       -17.29867
| 95>    H        3.87997        14.15996       -12.98987
| 96>    H        4.06187        17.51643       -17.36553
| 97> *
| 98>
| 99>                          ****END OF INPUT****

CARTESIAN COORDINATES (ANGSTROEM)
---------------------------------
  C     -8.256810   -2.171590    1.233300
  C     -9.348030   -2.840120    0.747700
  C     -9.842160   -4.044070    1.295740
  N    -10.288870   -5.022890    1.694910
  C    -10.156540   -2.427160   -0.334250
  N    -10.877760   -2.166320   -1.188350
  C     -7.464640   -2.571000    2.391060
  C     -6.499230   -1.566560    2.652810
  C     -5.597620   -1.651370    3.686300
  C     -5.645900   -2.787500    4.500180
  C     -6.610770   -3.788880    4.230790
  C     -7.524810   -3.699490    3.188010
  S     -6.491700   -5.108410    5.353190
  C     -5.166420   -4.310460    6.158230
  C     -4.829170   -3.115610    5.615970
  Br    -4.354120   -5.129240    7.635690
  C     -6.636850   -0.491440    1.658500
  O     -5.992330    0.539230    1.615210
  C     -7.699370   -0.923160    0.732970
  C     -8.030550   -0.311330   -0.441260
  C     -7.513580    0.862210   -1.025610
  N     -7.913000    1.188140   -2.237460
  C     -7.330260    2.293500   -2.652360
  C     -6.435370    2.910830   -1.742660
  S     -6.340090    1.992960   -0.301470
  N     -5.831140    4.013810   -2.179920
  C     -6.197800    4.300680   -3.395270
  S     -7.389430    3.186130   -4.120260
  C     -5.662430    5.388710   -4.125110
  C     -4.753120    6.317820   -3.643390
  C     -4.357030    7.207880   -4.637070
  C     -4.970840    6.950600   -5.878980
  S     -6.046900    5.629430   -5.815770
  C     -4.452610    7.856750   -6.838710
  C     -3.508400    8.686870   -6.202070
  C     -3.438860    8.326280   -4.794490
  C     -2.681990    8.918510   -3.828400
  C     -2.703640    8.493270   -2.482070
  N     -2.715500    8.161760   -1.385010
  C     -1.833690   10.012280   -4.107680
  N     -1.147030   10.902650   -4.330200
  C     -2.888090    9.569950   -7.081810
  C     -3.359300    9.414260   -8.373870
  S     -4.593720    8.179010   -8.508240
  C     -2.918040   10.072340   -9.544140
  N     -3.450690    9.894850  -10.718300
  C     -2.789490   10.581370  -11.646720
  C     -1.681650   11.332880  -11.197100
  S     -1.505880   11.160910   -9.498540
  N     -0.984080   11.968900  -12.126990
  C     -1.490790   11.769810  -13.312430
  S     -2.951240   10.748580  -13.340120
  C     -0.985150   12.301280  -14.523090
  C      0.247920   12.823190  -14.739820
  C      1.454900   12.839280  -13.933910
  C      1.862770   11.871460  -13.058630
  C      3.091030   11.908100  -12.365260
  N      4.072950   11.897650  -11.771470
  C      1.168540   10.664640  -12.828840
  N      0.702180    9.629610  -12.659830
  C      2.280230   13.936520  -14.425480
  C      1.728060   14.416710  -15.641530
  C      0.481750   13.686350  -15.936450
  O     -0.233540   13.785810  -16.904200
  C      2.317360   15.420550  -16.372650
  C      3.498370   15.982310  -15.877400
  C      4.032910   15.506050  -14.654860
  C      3.442040   14.487000  -13.918350
  S      5.490310   16.345780  -14.224590
  C      5.368730   17.308930  -15.673320
  C      4.290550   17.019690  -16.440500
  Br     6.673690   18.605100  -16.033970
  H     -4.876610   -0.867790    3.858480
  H     -8.236390   -4.491000    3.023400
  H     -4.036780   -2.491080    5.986010
  H     -8.772780   -0.779670   -1.076620
  H     -4.413170    6.305660   -2.624430
  H     -2.127890   10.284070   -6.820870
  H     -1.680610   12.347970  -15.353480
  H      1.881410   15.760910  -17.298670
  H      3.879970   14.159960  -12.989870
  H      4.061870   17.516430  -17.365530

 Total Charge           Charge          ....    0
 Multiplicity           Mult            ....    1
 Number of Electrons    NEL             ....  594
 Basis Dimension        Dim             .... 1126

ORBITAL ENERGIES
----------------

  NO   OCC          E(Eh)            E(eV)
   0   2.0000    -482.889559    -13140.0929
   1   2.0000    -482.888614    -13140.0672
   2   2.0000     -89.006005     -2421.9765
   3   2.0000     -89.002818     -2421.8898
   4   2.0000     -88.987231     -2421.4657
   5   2.0000     -88.985666     -2421.4231
   6   2.0000     -88.982340     -2421.3326
   7   2.0000     -88.980776     -2421.2900
   8   2.0000     -88.980181     -2421.2738
   9   2.0000     -88.979419     -2421.2531
  10   2.0000     -62.567278     -1702.5422
  11   2.0000     -62.566319     -1702.5161
  12   2.0000     -56.401234     -1534.7556
  13   2.0000     -56.400274     -1534.7295
  14   2.0000     -56.398506     -1534.6814
  15   2.0000     -56.398475     -1534.6805
  16   2.0000     -56.397550     -1534.6554
  17   2.0000     -56.397520     -1534.6545
  18   2.0000     -19.232171      -523.3340
  19   2.0000     -19.223165      -523.0889
  20   2.0000     -14.443051      -393.0154
  21   2.0000     -14.440427      -392.9440
  22   2.0000     -14.438690      -392.8967
  23   2.0000     -14.437945      -392.8765
  24   2.0000     -14.436988      -392.8504
  25   2.0000     -14.434924      -392.7943
  26   2.0000     -14.420903      -392.4127
  27   2.0000     -14.420795      -392.4098
  28   2.0000     -14.420268      -392.3954
  29   2.0000     -14.416019      -392.2798
  30   2.0000     -10.379497      -282.4405
  31   2.0000     -10.375135      -282.3218
  32   2.0000     -10.373945      -282.2894
  33   2.0000     -10.372372      -282.2466
  34   2.0000     -10.371737      -282.2293
  35   2.0000     -10.363853      -282.0148
  36   2.0000     -10.362440      -281.9763
  37   2.0000     -10.361661      -281.9551
  38   2.0000     -10.361083      -281.9394
  39   2.0000     -10.354300      -281.7548
  40   2.0000     -10.350516      -281.6519
  41   2.0000     -10.350326      -281.6467
  42   2.0000     -10.348494      -281.5968
  43   2.0000     -10.348371      -281.5935
  44   2.0000     -10.348098      -281.5861
  45   2.0000     -10.346692      -281.5478
  46   2.0000     -10.346076      -281.5310
  47   2.0000     -10.345246      -281.5085
  48   2.0000     -10.341582      -281.4087
  49   2.0000     -10.340192      -281.3709
  50   2.0000     -10.338479      -281.3243
  51   2.0000     -10.338072      -281.3132
  52   2.0000     -10.337287      -281.2919
  53   2.0000     -10.336466      -281.2695
  54   2.0000     -10.331633      -281.1380
  55   2.0000     -10.330673      -281.1119
  56   2.0000     -10.327620      -281.0288
  57   2.0000     -10.326897      -281.0092
  58   2.0000     -10.323343      -280.9124
  59   2.0000     -10.322585      -280.8918
  60   2.0000     -10.322115      -280.8790
  61   2.0000     -10.319394      -280.8050
  62   2.0000     -10.318620      -280.7839
  63   2.0000     -10.317014      -280.7402
  64   2.0000     -10.316948      -280.7384
  65   2.0000     -10.315147      -280.6894
  66   2.0000     -10.315099      -280.6881
  67   2.0000     -10.314296      -280.6663
  68   2.0000     -10.313573      -280.6466
  69   2.0000     -10.311921      -280.6016
  70   2.0000     -10.311652      -280.5943
  71   2.0000     -10.310968      -280.5757
  72   2.0000     -10.310035      -280.5503
  73   2.0000     -10.309925      -280.5473
  74   2.0000     -10.308006      -280.4951
  75   2.0000     -10.306614      -280.4572
  76   2.0000     -10.301441      -280.3164
  77   2.0000     -10.300228      -280.2835
  78   2.0000     -10.299826      -280.2725
  79   2.0000     -10.298643      -280.2403
  80   2.0000      -8.796718      -239.3709
  81   2.0000      -8.795742      -239.3443
  82   2.0000      -8.100661      -220.4302
  83   2.0000      -8.096978      -220.3300
  84   2.0000      -8.083108      -219.9525
  85   2.0000      -8.081455      -219.9076
  86   2.0000      -8.078529      -219.8280
  87   2.0000      -8.076779      -219.7803
  88   2.0000      -8.075441      -219.7439
  89   2.0000      -8.073597      -219.6937
  90   2.0000      -6.633060      -180.4947
  91   2.0000      -6.632066      -180.4677
  92   2.0000      -6.618424      -180.0965
  93   2.0000      -6.618230      -180.0912
  94   2.0000      -6.617478      -180.0707
  95   2.0000      -6.617254      -180.0646
  96   2.0000      -6.069868      -165.1695
  97   2.0000      -6.066286      -165.0720
  98   2.0000      -6.065731      -165.0569
  99   2.0000      -6.063060      -164.9842
 100   2.0000      -6.061965      -164.9545
 101   2.0000      -6.059355      -164.8834
 102   2.0000      -6.052052      -164.6847
 103   2.0000      -6.050663      -164.6469
 104   2.0000      -6.048431      -164.5862
 105   2.0000      -6.047720      -164.5668
 106   2.0000      -6.046994      -164.5471
 107   2.0000      -6.046466      -164.5327
 108   2.0000      -6.045198      -164.4982
 109   2.0000      -6.045126      -164.4962
 110   2.0000      -6.044087      -164.4680
 111   2.0000      -6.043043      -164.4395
 112   2.0000      -6.042822      -164.4335
 113   2.0000      -6.042172      -164.4159
 114   2.0000      -6.040847      -164.3798
 115   2.0000      -6.040082      -164.3590
 116   2.0000      -6.038594      -164.3185
 117   2.0000      -6.038012      -164.3027
 118   2.0000      -6.036662      -164.2659
 119   2.0000      -6.035782      -164.2420
 120   2.0000      -2.748930       -74.8022
 121   2.0000      -2.747938       -74.7752
 122   2.0000      -2.744860       -74.6915
 123   2.0000      -2.744622       -74.6850
 124   2.0000      -2.743827       -74.6633
 125   2.0000      -2.743686       -74.6595
 126   2.0000      -2.733044       -74.3699
 127   2.0000      -2.733028       -74.3695
 128   2.0000      -2.732085       -74.3438
 129   2.0000      -2.732070       -74.3434
 130   2.0000      -1.148176       -31.2435
 131   2.0000      -1.138919       -30.9916
 132   2.0000      -1.113760       -30.3069
 133   2.0000      -1.107515       -30.1370
 134   2.0000      -1.074400       -29.2359
 135   2.0000      -1.067960       -29.0607
 136   2.0000      -1.055381       -28.7184
 137   2.0000      -1.030117       -28.0309
 138   2.0000      -1.029235       -28.0069
 139   2.0000      -1.027186       -27.9512
 140   2.0000      -1.018842       -27.7241
 141   2.0000      -1.016334       -27.6559
 142   2.0000      -1.015226       -27.6257
 143   2.0000      -1.009626       -27.4733
 144   2.0000      -0.999186       -27.1892
 145   2.0000      -0.996765       -27.1233
 146   2.0000      -0.996636       -27.1198
 147   2.0000      -0.994443       -27.0602
 148   2.0000      -0.970399       -26.4059
 149   2.0000      -0.949977       -25.8502
 150   2.0000      -0.948734       -25.8164
 151   2.0000      -0.937841       -25.5199
 152   2.0000      -0.932006       -25.3612
 153   2.0000      -0.925483       -25.1837
 154   2.0000      -0.914956       -24.8972
 155   2.0000      -0.912563       -24.8321
 156   2.0000      -0.911804       -24.8114
 157   2.0000      -0.906685       -24.6721
 158   2.0000      -0.897406       -24.4197
 159   2.0000      -0.893658       -24.3177
 160   2.0000      -0.891921       -24.2704
 161   2.0000      -0.890254       -24.2250
 162   2.0000      -0.882756       -24.0210
 163   2.0000      -0.876615       -23.8539
 164   2.0000      -0.871886       -23.7252
 165   2.0000      -0.866721       -23.5847
 166   2.0000      -0.856719       -23.3125
 167   2.0000      -0.835650       -22.7392
 168   2.0000      -0.834211       -22.7000
 169   2.0000      -0.831038       -22.6137
 170   2.0000      -0.807023       -21.9602
 171   2.0000      -0.796675       -21.6786
 172   2.0000      -0.786596       -21.4044
 173   2.0000      -0.771447       -20.9922
 174   2.0000      -0.768577       -20.9140
 175   2.0000      -0.761786       -20.7293
 176   2.0000      -0.748078       -20.3562
 177   2.0000      -0.733260       -19.9530
 178   2.0000      -0.714718       -19.4485
 179   2.0000      -0.713261       -19.4088
 180   2.0000      -0.707334       -19.2475
 181   2.0000      -0.703861       -19.1530
 182   2.0000      -0.698133       -18.9972
 183   2.0000      -0.695977       -18.9385
 184   2.0000      -0.690965       -18.8021
 185   2.0000      -0.688498       -18.7350
 186   2.0000      -0.683327       -18.5943
 187   2.0000      -0.675233       -18.3740
 188   2.0000      -0.669565       -18.2198
 189   2.0000      -0.665598       -18.1119
 190   2.0000      -0.662216       -18.0198
 191   2.0000      -0.659412       -17.9435
 192   2.0000      -0.641745       -17.4628
 193   2.0000      -0.636786       -17.3278
 194   2.0000      -0.632178       -17.2024
 195   2.0000      -0.629620       -17.1328
 196   2.0000      -0.628617       -17.1056
 197   2.0000      -0.626548       -17.0492
 198   2.0000      -0.611583       -16.6420
 199   2.0000      -0.609656       -16.5896
 200   2.0000      -0.605365       -16.4728
 201   2.0000      -0.598979       -16.2990
 202   2.0000      -0.590545       -16.0695
 203   2.0000      -0.588284       -16.0080
 204   2.0000      -0.573922       -15.6172
 205   2.0000      -0.567455       -15.4412
 206   2.0000      -0.565287       -15.3822
 207   2.0000      -0.563284       -15.3277
 208   2.0000      -0.561497       -15.2791
 209   2.0000      -0.559303       -15.2194
 210   2.0000      -0.555413       -15.1136
 211   2.0000      -0.554519       -15.0892
 212   2.0000      -0.549012       -14.9394
 213   2.0000      -0.547940       -14.9102
 214   2.0000      -0.547382       -14.8950
 215   2.0000      -0.546199       -14.8628
 216   2.0000      -0.540459       -14.7066
 217   2.0000      -0.536615       -14.6020
 218   2.0000      -0.531894       -14.4736
 219   2.0000      -0.527609       -14.3570
 220   2.0000      -0.524860       -14.2822
 221   2.0000      -0.521834       -14.1998
 222   2.0000      -0.519735       -14.1427
 223   2.0000      -0.517042       -14.0694
 224   2.0000      -0.516606       -14.0576
 225   2.0000      -0.515216       -14.0197
 226   2.0000      -0.512367       -13.9422
 227   2.0000      -0.511228       -13.9112
 228   2.0000      -0.509150       -13.8547
 229   2.0000      -0.507782       -13.8175
 230   2.0000      -0.505578       -13.7575
 231   2.0000      -0.503169       -13.6919
 232   2.0000      -0.500628       -13.6228
 233   2.0000      -0.498895       -13.5756
 234   2.0000      -0.498231       -13.5575
 235   2.0000      -0.494889       -13.4666
 236   2.0000      -0.489293       -13.3143
 237   2.0000      -0.487011       -13.2523
 238   2.0000      -0.480363       -13.0713
 239   2.0000      -0.476599       -12.9689
 240   2.0000      -0.472223       -12.8498
 241   2.0000      -0.468523       -12.7492
 242   2.0000      -0.465650       -12.6710
 243   2.0000      -0.465283       -12.6610
 244   2.0000      -0.464253       -12.6330
 245   2.0000      -0.462356       -12.5813
 246   2.0000      -0.455003       -12.3813
 247   2.0000      -0.454765       -12.3748
 248   2.0000      -0.453218       -12.3327
 249   2.0000      -0.452396       -12.3103
 250   2.0000      -0.451217       -12.2782
 251   2.0000      -0.448464       -12.2033
 252   2.0000      -0.447329       -12.1725
 253   2.0000      -0.447292       -12.1714
 254   2.0000      -0.446937       -12.1618
 255   2.0000      -0.444460       -12.0944
 256   2.0000      -0.442648       -12.0451
 257   2.0000      -0.441062       -12.0019
 258   2.0000      -0.434721       -11.8294
 259   2.0000      -0.433567       -11.7980
 260   2.0000      -0.432645       -11.7729
 261   2.0000      -0.432526       -11.7696
 262   2.0000      -0.429890       -11.6979
 263   2.0000      -0.426987       -11.6189
 264   2.0000      -0.422446       -11.4954
 265   2.0000      -0.421613       -11.4727
 266   2.0000      -0.414170       -11.2701
 267   2.0000      -0.413704       -11.2575
 268   2.0000      -0.413017       -11.2388
 269   2.0000      -0.409973       -11.1559
 270   2.0000      -0.406853       -11.0710
 271   2.0000      -0.399426       -10.8689
 272   2.0000      -0.394029       -10.7221
 273   2.0000      -0.393841       -10.7170
 274   2.0000      -0.391964       -10.6659
 275   2.0000      -0.389473       -10.5981
 276   2.0000      -0.386458       -10.5161
 277   2.0000      -0.378751       -10.3063
 278   2.0000      -0.377978       -10.2853
 279   2.0000      -0.375737       -10.2243
 280   2.0000      -0.365791        -9.9537
 281   2.0000      -0.362507        -9.8643
 282   2.0000      -0.361600        -9.8396
 283   2.0000      -0.358763        -9.7624
 284   2.0000      -0.351088        -9.5536
 285   2.0000      -0.343979        -9.3602
 286   2.0000      -0.343091        -9.3360
 287   2.0000      -0.339887        -9.2488
 288   2.0000      -0.336233        -9.1494
 289   2.0000      -0.331646        -9.0246
 290   2.0000      -0.322681        -8.7806
 291   2.0000      -0.319575        -8.6961
 292   2.0000      -0.319388        -8.6910
 293   2.0000      -0.299519        -8.1503
 294   2.0000      -0.297287        -8.0896
 295   2.0000      -0.287417        -7.8210
 296   2.0000      -0.259322        -7.0565
 297   0.0000      -0.120848        -3.2885
 298   0.0000      -0.102407        -2.7866
 299   0.0000      -0.101511        -2.7623
 300   0.0000      -0.072167        -1.9638
 301   0.0000      -0.067318        -1.8318

MULLIKEN ATOMIC CHARGES
-----------------------
   0 C :    0.309852
   1 C :   -0.341314
   2 C :   -0.185680
   3 N :    0.159531
   4 C :   -0.202746
   5 N :    0.169144
   6 C :    0.013987
   7 C :   -0.013970
   8 C :   -0.066851
   9 C :    0.116513
  10 C :   -0.092106
  11 C :   -0.018621
  12 S :    0.191859
  13 C :   -0.121618
  14 C :    0.037792
  15 Br:    0.029294
  16 C :    0.172858
  17 O :   -0.174218
  18 C :   -0.086212
  19 C :    0.007900
  20 C :   -0.110198
  21 N :   -0.014710
  22 C :   -0.061848
  23 C :   -0.035203
  24 S :    0.204094
  25 N :   -0.030081
  26 C :   -0.099422
  27 S :    0.125863
  28 C :   -0.047379
  29 C :   -0.024229
  30 C :    0.011944
  31 C :   -0.095521
  32 S :    0.212199
  33 C :   -0.101304
  34 C :    0.013310
  35 C :    0.297821
  36 C :   -0.285235
  37 C :   -0.192579
  38 N :    0.187944
  39 C :   -0.191762
  40 N :    0.178457
  41 C :   -0.043485
  42 C :   -0.051993
  43 S :    0.259723
  44 C :   -0.094763
  45 N :   -0.042439
  46 C :   -0.046377
  47 C :   -0.044343
  48 S :    0.146743
  49 N :   -0.034445
  50 C :   -0.127551
  51 S :    0.163504
  52 C :    0.085221
  53 C :   -0.100246
  54 C :    0.279832
  55 C :   -0.300415
  56 C :   -0.188933
  57 N :    0.156895
  58 C :   -0.184758
  59 N :    0.159148
  60 C :    0.004375
  61 C :   -0.004709
  62 C :    0.131962
  63 O :   -0.136260
  64 C :   -0.062957
  65 C :    0.110829
  66 C :   -0.087267
  67 C :   -0.016859
  68 S :    0.189442
  69 C :   -0.126103
  70 C :    0.043763
  71 Br:    0.026828
  72 H :   -0.006192
  73 H :   -0.003058
  74 H :   -0.001007
  75 H :    0.034977
  76 H :    0.028235
  77 H :    0.022043
  78 H :    0.025680
  79 H :   -0.007980
  80 H :   -0.001647
  81 H :   -0.002966
Sum of atomic charges:   -0.0000000

LOEWDIN ATOMIC CHARGES
----------------------
   0 C :    0.073842
   1 C :   -0.131448
   2 C :   -0.017450
   3 N :   -0.047649
   4 C :   -0.025452
   5 N :   -0.037984
   6 C :   -0.020045
   7 C :   -0.052048
   8 C :    0.024679
   9 C :   -0.031577
  10 C :   -0.142705
  11 C :   -0.008444
  12 S :    0.437044
  13 C :   -0.270153
  14 C :   -0.069739
  15 Br:    0.141226
  16 C :    0.085405
  17 O :   -0.159491
  18 C :   -0.092102
  19 C :    0.050353
  20 C :   -0.143745
  21 N :   -0.070774
  22 C :   -0.213510
  23 C :   -0.203615
  24 S :    0.501244
  25 N :   -0.099896
  26 C :   -0.118209
  27 S :    0.396738
  28 C :   -0.201838
  29 C :    0.008279
  30 C :   -0.065056
  31 C :   -0.173648
  32 S :    0.488458
  33 C :   -0.176002
  34 C :   -0.066030
  35 C :    0.077124
  36 C :   -0.093134
  37 C :   -0.019742
  38 N :   -0.020404
  39 C :   -0.017029
  40 N :   -0.025804
  41 C :   -0.018083
  42 C :   -0.196479
  43 S :    0.522039
  44 C :   -0.121246
  45 N :   -0.110712
  46 C :   -0.196226
  47 C :   -0.203023
  48 S :    0.429611
  49 N :   -0.071429
  50 C :   -0.131969
  51 S :    0.448313
  52 C :    0.026226
  53 C :   -0.059590
  54 C :    0.068950
  55 C :   -0.117410
  56 C :   -0.018485
  57 N :   -0.046717
  58 C :   -0.016981
  59 N :   -0.052785
  60 C :   -0.015053
  61 C :   -0.055184
  62 C :    0.083582
  63 O :   -0.136187
  64 C :    0.025109
  65 C :   -0.033141
  66 C :   -0.141096
  67 C :   -0.011438
  68 S :    0.435231
  69 C :   -0.271228
  70 C :   -0.069468
  71 Br:    0.139697
  72 H :    0.042525
  73 H :    0.041867
  74 H :    0.039814
  75 H :    0.059206
  76 H :    0.050315
  77 H :    0.040431
  78 H :    0.048450
  79 H :    0.042046
  80 H :    0.041615
  81 H :    0.039232

  Mayer bond orders larger than 0.100000
B(  0-C ,  1-C ) :   1.6486 B(  0-C ,  6-C ) :   1.0060 B(  0-C , 18-C ) :   1.0607
B(  1-C ,  2-C ) :   1.1419 B(  1-C ,  4-C ) :   1.1402 B(  2-C ,  3-N ) :   2.9722
B(  4-C ,  5-N ) :   2.9791 B(  6-C ,  7-C ) :   1.2711 B(  6-C , 11-C ) :   1.4110
B(  7-C ,  8-C ) :   1.4198 B(  7-C , 16-C ) :   0.9631 B(  8-C ,  9-C ) :   1.2477
B(  8-C , 72-H ) :   1.0169 B(  9-C , 10-C ) :   1.3014 B(  9-C , 14-C ) :   1.1652
B( 10-C , 11-C ) :   1.3309 B( 10-C , 12-S ) :   1.0903 B( 11-C , 73-H ) :   0.9793
B( 12-S , 13-C ) :   1.0866 B( 13-C , 14-C ) :   1.6161 B( 13-C , 15-Br) :   1.0221
B( 14-C , 74-H ) :   1.0004 B( 16-C , 17-O ) :   2.1279 B( 16-C , 18-C ) :   0.9637
B( 18-C , 19-C ) :   1.5616 B( 19-C , 20-C ) :   1.1956 B( 19-C , 75-H ) :   0.9417
B( 20-C , 21-N ) :   1.5882 B( 20-C , 24-S ) :   1.0698 B( 21-N , 22-C ) :   1.4964
B( 21-N , 24-S ) :   0.1157 B( 22-C , 23-C ) :   1.2212 B( 22-C , 27-S ) :   1.0814
B( 23-C , 24-S ) :   1.1004 B( 23-C , 25-N ) :   1.3963 B( 25-N , 26-C ) :   1.7313
B( 25-N , 27-S ) :   0.1029 B( 26-C , 27-S ) :   1.0787 B( 26-C , 28-C ) :   1.1117
B( 28-C , 29-C ) :   1.4600 B( 28-C , 32-S ) :   1.1033 B( 29-C , 30-C ) :   1.2836
B( 29-C , 76-H ) :   1.0086 B( 30-C , 31-C ) :   1.4236 B( 30-C , 35-C ) :   0.9879
B( 31-C , 32-S ) :   1.1428 B( 31-C , 33-C ) :   1.1982 B( 33-C , 34-C ) :   1.4254
B( 33-C , 43-S ) :   1.1329 B( 34-C , 35-C ) :   0.9974 B( 34-C , 41-C ) :   1.3221
B( 35-C , 36-C ) :   1.7241 B( 36-C , 37-C ) :   1.1326 B( 36-C , 39-C ) :   1.1317
B( 37-C , 38-N ) :   3.0003 B( 39-C , 40-N ) :   2.9933 B( 41-C , 42-C ) :   1.4505
B( 41-C , 77-H ) :   0.9839 B( 42-C , 43-S ) :   1.1073 B( 42-C , 44-C ) :   1.1546
B( 44-C , 45-N ) :   1.7120 B( 44-C , 48-S ) :   1.0994 B( 45-N , 46-C ) :   1.4036
B( 46-C , 47-C ) :   1.2665 B( 46-C , 51-S ) :   1.1335 B( 47-C , 48-S ) :   1.0928
B( 47-C , 49-N ) :   1.4234 B( 49-N , 50-C ) :   1.6152 B( 49-N , 51-S ) :   0.1128
B( 50-C , 51-S ) :   1.0744 B( 50-C , 52-C ) :   1.1014 B( 52-C , 53-C ) :   1.7079
B( 52-C , 78-H ) :   0.9309 B( 53-C , 54-C ) :   1.0208 B( 53-C , 62-C ) :   0.9307
B( 54-C , 55-C ) :   1.6827 B( 54-C , 60-C ) :   1.0164 B( 55-C , 56-C ) :   1.1363
B( 55-C , 58-C ) :   1.1580 B( 56-C , 57-N ) :   2.9868 B( 58-C , 59-N ) :   2.9873
B( 60-C , 61-C ) :   1.2726 B( 60-C , 67-C ) :   1.4119 B( 61-C , 62-C ) :   0.9234
B( 61-C , 64-C ) :   1.4222 B( 62-C , 63-O ) :   2.2768 B( 64-C , 65-C ) :   1.2576
B( 64-C , 79-H ) :   1.0155 B( 65-C , 66-C ) :   1.3021 B( 65-C , 70-C ) :   1.1629
B( 66-C , 67-C ) :   1.3313 B( 66-C , 68-S ) :   1.0870 B( 67-C , 80-H ) :   0.9826
B( 68-S , 69-C ) :   1.0864 B( 69-C , 70-C ) :   1.6186 B( 69-C , 71-Br) :   1.0206
B( 70-C , 81-H ) :   1.0005

-----------------------------------------------------------------------------
         ABSORPTION SPECTRUM VIA TRANSITION ELECTRIC DIPOLE MOMENTS
-----------------------------------------------------------------------------
State   Energy  Wavelength   fosc         T2         TX        TY        TZ
        (cm-1)    (nm)                  (au**2)     (au)      (au)      (au)
-----------------------------------------------------------------------------
   0   13281.7    752.9   0.530647406  13.15313   1.39530   2.37281  -2.36136
   1   18931.5    528.2   2.183759824  37.97481  -2.66663  -3.86934   3.98650
   2   20834.2    480.0   0.330485378   5.22217   0.38649  -2.14578   0.68440
   3   22812.8    438.4   0.002641702   0.03812  -0.15566   0.08217   0.08450
   4   25426.1    393.3   0.108114855   1.39985  -0.44208  -1.03883   0.35390
   5   26257.7    380.8   0.052253640   0.65514  -0.74663  -0.15817  -0.26956
   6   26856.2    372.4   0.432136432   5.29726   0.29654  -1.08093   2.01020
   7   28072.4    356.2   0.020097479   0.23569   0.47836   0.05389  -0.06290
   8   28216.6    354.4   0.042117192   0.49139  -0.17126   0.29389  -0.61293
   9   28332.9    352.9   0.083523862   0.97050  -0.81658  -0.48477   0.26208
  10   28906.9    345.9   0.108852761   1.23969  -0.31130   0.75361  -0.75819
  11   28956.6    345.3   0.086717443   0.98590   0.74073   0.39349  -0.53139
  12   29313.5    341.1   0.006949414   0.07805  -0.03325  -0.27707  -0.01320
  13   29517.3    338.8   0.039575942   0.44140  -0.23443  -0.46584   0.41163
  14   29964.9    333.7   0.243902528   2.67966   0.50384   0.82762  -1.31941
  15   30736.7    325.3   0.322453082   3.45370  -1.15030  -1.34192  -0.57426
  16   31314.6    319.3   0.044653042   0.46944   0.17436   0.36482  -0.55312
  17   31395.4    318.5   0.045156955   0.47352   0.50439   0.45232   0.12047
  18   31972.6    312.8   0.094313461   0.97112  -0.06476   0.00178   0.98332
  19   32343.8    309.2   0.570056276   5.80233  -1.38652   0.22106  -1.95730
  20   32597.1    306.8   0.007608164   0.07684   0.08891  -0.07873   0.25047
  21   32765.3    305.2   0.175208585   1.76042   0.77566   1.06448   0.16016
  22   33085.3    302.2   0.365153548   3.63343   0.81926   1.48791  -0.86508
  23   33110.8    302.0   0.358937827   3.56883   1.04880  -0.16526   1.56254
  24   33800.6    295.9   0.250619032   2.44099   0.98372   1.01204   0.67011
  25   33841.7    295.5   0.020027545   0.19483   0.13869  -0.15684   0.38858
  26   33953.7    294.5   0.009868556   0.09568  -0.20007  -0.22957  -0.05438
  27   34374.6    290.9   0.038973330   0.37325  -0.25959  -0.48329   0.26888
  28   34472.3    290.1   0.091464524   0.87349  -0.80106  -0.46954  -0.10642
  29   34832.2    287.1   0.065258578   0.61678   0.23595  -0.15902   0.73200
  30   35331.2    283.0   0.030573914   0.28488  -0.23073  -0.09021  -0.47277
  31   35557.0    281.2   0.039276393   0.36365   0.49314   0.34103  -0.06451
  32   35726.5    279.9   0.010109312   0.09316   0.28381   0.10466   0.04065
  33   36122.3    276.8   0.025321377   0.23077  -0.14072  -0.37654   0.26303
  34   36503.0    274.0   0.126090433   1.13718   0.69015  -0.19350   0.78958
  35   36666.1    272.7   0.001952294   0.01753  -0.13040  -0.01060   0.02030
  36   36825.2    271.6   0.098691091   0.88228   0.47984   0.73893  -0.32561
  37   36999.3    270.3   0.038694036   0.34429  -0.26848  -0.19372  -0.48444
  38   37250.3    268.5   0.061235708   0.54119   0.49447   0.05513   0.54189
  39   37526.4    266.5   0.030410824   0.26679  -0.33029  -0.34312  -0.19991
  40   37837.6    264.3   0.012641110   0.10999   0.28487   0.14615   0.08647
  41   37944.7    263.5   0.004538386   0.03938   0.05212   0.18735  -0.03947
  42   38220.9    261.6   0.033679798   0.29010  -0.42692  -0.31157  -0.10375
  43   38462.7    260.0   0.013853124   0.11857   0.09090  -0.28600   0.16886
  44   38786.2    257.8   0.085605406   0.72661   0.23683  -0.61343   0.54242
  45   38977.0    256.6   0.028771786   0.24302   0.11279   0.45613  -0.14912
  46   39549.0    252.9   0.037476140   0.31196   0.34877   0.42750  -0.08696
  47   39839.7    251.0   0.056778395   0.46918  -0.55747  -0.17026  -0.35975
  48   40087.8    249.5   0.112248676   0.92182   0.73202   0.19152   0.59100

FINAL SINGLE POINT ENERGY    -10938.386988352910

DIPOLE MOMENT
-------------
                                X             Y             Z
Electronic contribution:     70.21621       3.46242      31.77404
Nuclear contribution   :    -69.54367      -1.85433     -32.43374
                        -----------------------------------------
Total Dipole Moment    :      0.67254       1.60809      -0.65970
                        -----------------------------------------
Magnitude (a.u.)       :      1.86372
Magnitude (Debye)      :      4.73720

Rotational constants in cm-1:     0.001710     0.000109     0.000105
Rotational constants in MHz :    51.252158     3.261354     3.135885

                             ****ORCA TERMINATED NORMALLY****
TOTAL RUN TIME: 0 days 0 hours 8 minutes 29 seconds 446 msec
