                         Program Version 4.2.0 -  RELEASE  -
|  1> # ORCA input file
|  2> # SCF done       -202.356577437068          0.000601233517
|  3> ! CAM-B3LYP def2-SVP def2/J RIJCOSX Grid4 TightSCF
|  4> %maxcore 5000
|  5> %tddft
|  6>     Mode sTDDFT
|  7>     Ethresh 5.0
|  8>     maxcore 5000
|  9> end
| 10>
| 11> %pal
| 12>   nprocs 6
| 13>   end
| 14> * xyz 0 1
| 15>    C       -0.38244         6.16028         4.34495
| 16>    C        0.29027         7.31252         4.64482
| 17>    C        1.47091         7.36094         5.41798
| 18>    N        2.43143         7.46026         6.03757
| 19>    C       -0.11493         8.60935         4.25884
| 20>    N       -0.39132         9.69327         4.00306
| 21>    C       -0.04082         4.82366         4.80857
| 22>    C       -1.05286         3.92060         4.39706
| 23>    C       -1.01414         2.57908         4.69407
| 24>    C        0.07208         2.10527         5.43569
| 25>    C        1.08276         3.01357         5.83756
| 26>    C        1.04555         4.36828         5.53495
| 27>    S        2.33849         2.21564         6.73337
| 28>    C        1.50053         0.69573         6.56347
| 29>    C        0.33982         0.77879         5.86960
| 30>   Br        2.23656        -0.85519         7.31509
| 31>    C       -2.07266         4.63807         3.61318
| 32>    O       -3.01618         4.14677         3.03670
| 33>    C       -1.62014         6.06151         3.58164
| 34>    C       -2.19021         7.02621         2.82523
| 35>    C       -3.48369         6.89695         2.19920
| 36>    C       -3.72036         7.34850         0.91211
| 37>    F       -2.72570         7.93455         0.23658
| 38>    C       -4.94775         7.17703         0.24620
| 39>    F       -5.05151         7.69034        -0.98438
| 40>    C       -6.03303         6.54796         0.83621
| 41>    C       -5.86075         6.18446         2.19723
| 42>    C       -4.60559         6.35321         2.87253
| 43>    N       -4.67777         5.98930         4.15001
| 44>    S       -6.15455         5.44822         4.45467
| 45>    N       -6.79197         5.67195         2.99773
| 46>    C       -7.28134         6.28260         0.16968
| 47>    C       -7.49767         5.98284        -1.16630
| 48>    C       -6.45729         5.70428        -2.07240
| 49>    N       -5.60853         5.39040        -2.77473
| 50>    C       -8.87465         5.78631        -1.45542
| 51>    C       -9.65373         5.91852        -0.30930
| 52>    S       -8.75091         6.27167         1.10963
| 53>    S      -11.34996         5.64078        -0.54264
| 54>    C      -11.02109         5.34768        -2.22086
| 55>    C       -9.68277         5.46661        -2.58533
| 56>    C       -9.51002         5.25067        -3.97882
| 57>    C       -8.32220         5.51748        -4.68493
| 58>    N       -7.40077         5.82141        -5.29409
| 59>    C      -10.70447         4.94679        -4.61192
| 60>    S      -12.07063         4.97785        -3.53027
| 61>    C      -10.92581         4.64622        -6.00326
| 62>    C      -10.03320         3.94886        -6.79961
| 63>    F       -8.90903         3.44768        -6.27757
| 64>    C      -10.28157         3.66838        -8.15504
| 65>    F       -9.32559         3.00038        -8.81767
| 66>    C      -11.43341         4.05667        -8.81862
| 67>    C      -12.36551         4.77976        -8.03190
| 68>    C      -12.12960         5.04054        -6.64052
| 69>    N      -13.14536         5.69047        -6.07737
| 70>    S      -14.28122         5.93793        -7.18501
| 71>    N      -13.54607         5.24575        -8.43063
| 72>    C      -11.70910         3.81390       -10.20993
| 73>    C      -11.35514         2.77051       -10.99033
| 74>    C      -10.77286         1.46850       -10.71072
| 75>    C      -10.93657         0.73288        -9.56921
| 76>    C      -10.44391        -0.57996        -9.40467
| 77>    N      -10.06611        -1.64795        -9.22522
| 78>    C      -11.68425         1.16653        -8.45657
| 79>    N      -12.30063         1.47631        -7.53891
| 80>    C      -10.18799         0.98515       -11.95386
| 81>    C      -10.60989         1.82385       -13.01787
| 82>    C      -11.43963         2.91610       -12.47973
| 83>    O      -12.02883         3.77820       -13.08372
| 84>    C      -10.24307         1.59793       -14.32322
| 85>    C       -9.41359         0.50356       -14.58780
| 86>    C       -8.98360        -0.31674       -13.51516
| 87>    C       -9.36060        -0.09498       -12.19681
| 88>    S       -7.95369        -1.60108       -14.06628
| 89>    C       -8.11537        -1.03300       -15.70699
| 90>    C       -8.89860         0.06454       -15.83775
| 91>   Br       -7.23629        -1.94101       -17.09075
| 92>    H       -1.79917         1.91695         4.36411
| 93>    H        1.84263         5.01770         5.85623
| 94>    H       -0.30112        -0.06038         5.66985
| 95>    H       -1.66161         7.95012         2.62629
| 96>    H      -12.25999         4.60714       -10.70591
| 97>    H      -10.58316         2.24645       -15.11520
| 98>    H       -9.00159        -0.73707       -11.40960
| 99>    H       -9.10493         0.54604       -16.77606
|100> *
|101>
|102>                          ****END OF INPUT****

CARTESIAN COORDINATES (ANGSTROEM)
---------------------------------
  C     -0.382440    6.160280    4.344950
  C      0.290270    7.312520    4.644820
  C      1.470910    7.360940    5.417980
  N      2.431430    7.460260    6.037570
  C     -0.114930    8.609350    4.258840
  N     -0.391320    9.693270    4.003060
  C     -0.040820    4.823660    4.808570
  C     -1.052860    3.920600    4.397060
  C     -1.014140    2.579080    4.694070
  C      0.072080    2.105270    5.435690
  C      1.082760    3.013570    5.837560
  C      1.045550    4.368280    5.534950
  S      2.338490    2.215640    6.733370
  C      1.500530    0.695730    6.563470
  C      0.339820    0.778790    5.869600
  Br     2.236560   -0.855190    7.315090
  C     -2.072660    4.638070    3.613180
  O     -3.016180    4.146770    3.036700
  C     -1.620140    6.061510    3.581640
  C     -2.190210    7.026210    2.825230
  C     -3.483690    6.896950    2.199200
  C     -3.720360    7.348500    0.912110
  F     -2.725700    7.934550    0.236580
  C     -4.947750    7.177030    0.246200
  F     -5.051510    7.690340   -0.984380
  C     -6.033030    6.547960    0.836210
  C     -5.860750    6.184460    2.197230
  C     -4.605590    6.353210    2.872530
  N     -4.677770    5.989300    4.150010
  S     -6.154550    5.448220    4.454670
  N     -6.791970    5.671950    2.997730
  C     -7.281340    6.282600    0.169680
  C     -7.497670    5.982840   -1.166300
  C     -6.457290    5.704280   -2.072400
  N     -5.608530    5.390400   -2.774730
  C     -8.874650    5.786310   -1.455420
  C     -9.653730    5.918520   -0.309300
  S     -8.750910    6.271670    1.109630
  S    -11.349960    5.640780   -0.542640
  C    -11.021090    5.347680   -2.220860
  C     -9.682770    5.466610   -2.585330
  C     -9.510020    5.250670   -3.978820
  C     -8.322200    5.517480   -4.684930
  N     -7.400770    5.821410   -5.294090
  C    -10.704470    4.946790   -4.611920
  S    -12.070630    4.977850   -3.530270
  C    -10.925810    4.646220   -6.003260
  C    -10.033200    3.948860   -6.799610
  F     -8.909030    3.447680   -6.277570
  C    -10.281570    3.668380   -8.155040
  F     -9.325590    3.000380   -8.817670
  C    -11.433410    4.056670   -8.818620
  C    -12.365510    4.779760   -8.031900
  C    -12.129600    5.040540   -6.640520
  N    -13.145360    5.690470   -6.077370
  S    -14.281220    5.937930   -7.185010
  N    -13.546070    5.245750   -8.430630
  C    -11.709100    3.813900  -10.209930
  C    -11.355140    2.770510  -10.990330
  C    -10.772860    1.468500  -10.710720
  C    -10.936570    0.732880   -9.569210
  C    -10.443910   -0.579960   -9.404670
  N    -10.066110   -1.647950   -9.225220
  C    -11.684250    1.166530   -8.456570
  N    -12.300630    1.476310   -7.538910
  C    -10.187990    0.985150  -11.953860
  C    -10.609890    1.823850  -13.017870
  C    -11.439630    2.916100  -12.479730
  O    -12.028830    3.778200  -13.083720
  C    -10.243070    1.597930  -14.323220
  C     -9.413590    0.503560  -14.587800
  C     -8.983600   -0.316740  -13.515160
  C     -9.360600   -0.094980  -12.196810
  S     -7.953690   -1.601080  -14.066280
  C     -8.115370   -1.033000  -15.706990
  C     -8.898600    0.064540  -15.837750
  Br    -7.236290   -1.941010  -17.090750
  H     -1.799170    1.916950    4.364110
  H      1.842630    5.017700    5.856230
  H     -0.301120   -0.060380    5.669850
  H     -1.661610    7.950120    2.626290
  H    -12.259990    4.607140  -10.705910
  H    -10.583160    2.246450  -15.115200
  H     -9.001590   -0.737070  -11.409600
  H     -9.104930    0.546040  -16.776060

 Total Charge           Charge          ....    0
 Multiplicity           Mult            ....    1
 Number of Electrons    NEL             ....  624
 Basis Dimension        Dim             .... 1182

ORBITAL ENERGIES
----------------

  NO   OCC          E(Eh)            E(eV)
   0   2.0000    -482.890487    -13140.1182
   1   2.0000    -482.889103    -13140.0805
   2   2.0000     -89.039863     -2422.8978
   3   2.0000     -89.038332     -2422.8562
   4   2.0000     -88.989247     -2421.5205
   5   2.0000     -88.987801     -2421.4812
   6   2.0000     -88.987761     -2421.4801
   7   2.0000     -88.981391     -2421.3067
   8   2.0000     -88.980171     -2421.2735
   9   2.0000     -62.568191     -1702.5670
  10   2.0000     -62.566791     -1702.5289
  11   2.0000     -56.402149     -1534.7805
  12   2.0000     -56.400751     -1534.7425
  13   2.0000     -56.399416     -1534.7061
  14   2.0000     -56.399393     -1534.7055
  15   2.0000     -56.398019     -1534.6681
  16   2.0000     -56.397993     -1534.6674
  17   2.0000     -24.820552      -675.4016
  18   2.0000     -24.814283      -675.2310
  19   2.0000     -24.810134      -675.1181
  20   2.0000     -24.810070      -675.1163
  21   2.0000     -19.224987      -523.1385
  22   2.0000     -19.224438      -523.1236
  23   2.0000     -14.455494      -393.3540
  24   2.0000     -14.454522      -393.3275
  25   2.0000     -14.453966      -393.3124
  26   2.0000     -14.450620      -393.2214
  27   2.0000     -14.426733      -392.5714
  28   2.0000     -14.423609      -392.4863
  29   2.0000     -14.422863      -392.4660
  30   2.0000     -14.422834      -392.4653
  31   2.0000     -14.402519      -391.9125
  32   2.0000     -14.402215      -391.9042
  33   2.0000     -10.401263      -283.0328
  34   2.0000     -10.399899      -282.9956
  35   2.0000     -10.397812      -282.9388
  36   2.0000     -10.397808      -282.9387
  37   2.0000     -10.376015      -282.3457
  38   2.0000     -10.374759      -282.3115
  39   2.0000     -10.364979      -282.0454
  40   2.0000     -10.363314      -282.0001
  41   2.0000     -10.353184      -281.7245
  42   2.0000     -10.353073      -281.7215
  43   2.0000     -10.349656      -281.6285
  44   2.0000     -10.349568      -281.6261
  45   2.0000     -10.346840      -281.5518
  46   2.0000     -10.345419      -281.5132
  47   2.0000     -10.345021      -281.5023
  48   2.0000     -10.343159      -281.4517
  49   2.0000     -10.341383      -281.4034
  50   2.0000     -10.340863      -281.3892
  51   2.0000     -10.339583      -281.3544
  52   2.0000     -10.339249      -281.3453
  53   2.0000     -10.333458      -281.1877
  54   2.0000     -10.332640      -281.1654
  55   2.0000     -10.332251      -281.1548
  56   2.0000     -10.331672      -281.1391
  57   2.0000     -10.329324      -281.0752
  58   2.0000     -10.328745      -281.0594
  59   2.0000     -10.328601      -281.0555
  60   2.0000     -10.328062      -281.0409
  61   2.0000     -10.325996      -280.9846
  62   2.0000     -10.325589      -280.9736
  63   2.0000     -10.325559      -280.9727
  64   2.0000     -10.324825      -280.9528
  65   2.0000     -10.324723      -280.9500
  66   2.0000     -10.323225      -280.9092
  67   2.0000     -10.316113      -280.7157
  68   2.0000     -10.315595      -280.7016
  69   2.0000     -10.314702      -280.6773
  70   2.0000     -10.313254      -280.6379
  71   2.0000     -10.312979      -280.6304
  72   2.0000     -10.312815      -280.6260
  73   2.0000     -10.311827      -280.5991
  74   2.0000     -10.311489      -280.5899
  75   2.0000     -10.311212      -280.5824
  76   2.0000     -10.311129      -280.5801
  77   2.0000     -10.307925      -280.4929
  78   2.0000     -10.307615      -280.4845
  79   2.0000     -10.302233      -280.3380
  80   2.0000     -10.301997      -280.3316
  81   2.0000     -10.301917      -280.3294
  82   2.0000     -10.300810      -280.2993
  83   2.0000     -10.299964      -280.2763
  84   2.0000     -10.299919      -280.2751
  85   2.0000      -8.797617      -239.3953
  86   2.0000      -8.796199      -239.3568
  87   2.0000      -8.131597      -221.2720
  88   2.0000      -8.129923      -221.2265
  89   2.0000      -8.084347      -219.9863
  90   2.0000      -8.082361      -219.9322
  91   2.0000      -8.082296      -219.9305
  92   2.0000      -8.077435      -219.7982
  93   2.0000      -8.076239      -219.7656
  94   2.0000      -6.633947      -180.5189
  95   2.0000      -6.632536      -180.4805
  96   2.0000      -6.619361      -180.1220
  97   2.0000      -6.619105      -180.1150
  98   2.0000      -6.617939      -180.0833
  99   2.0000      -6.617682      -180.0763
 100   2.0000      -6.102840      -166.0667
 101   2.0000      -6.101117      -166.0198
 102   2.0000      -6.095059      -165.8550
 103   2.0000      -6.093932      -165.8243
 104   2.0000      -6.093436      -165.8108
 105   2.0000      -6.092311      -165.7802
 106   2.0000      -6.054356      -164.7474
 107   2.0000      -6.051997      -164.6832
 108   2.0000      -6.051908      -164.6808
 109   2.0000      -6.050075      -164.6309
 110   2.0000      -6.047509      -164.5611
 111   2.0000      -6.047452      -164.5595
 112   2.0000      -6.047134      -164.5509
 113   2.0000      -6.045921      -164.5179
 114   2.0000      -6.045140      -164.4966
 115   2.0000      -6.044069      -164.4675
 116   2.0000      -6.044005      -164.4657
 117   2.0000      -6.042832      -164.4338
 118   2.0000      -6.041644      -164.4015
 119   2.0000      -6.038633      -164.3196
 120   2.0000      -6.037443      -164.2872
 121   2.0000      -2.749830       -74.8267
 122   2.0000      -2.748422       -74.7884
 123   2.0000      -2.745695       -74.7142
 124   2.0000      -2.745571       -74.7108
 125   2.0000      -2.744262       -74.6752
 126   2.0000      -2.744164       -74.6725
 127   2.0000      -2.733950       -74.3946
 128   2.0000      -2.733924       -74.3939
 129   2.0000      -2.732527       -74.3559
 130   2.0000      -2.732515       -74.3555
 131   2.0000      -1.340508       -36.4771
 132   2.0000      -1.337081       -36.3838
 133   2.0000      -1.320858       -35.9424
 134   2.0000      -1.319517       -35.9059
 135   2.0000      -1.144139       -31.1336
 136   2.0000      -1.143522       -31.1168
 137   2.0000      -1.140282       -31.0287
 138   2.0000      -1.137877       -30.9632
 139   2.0000      -1.044983       -28.4354
 140   2.0000      -1.030373       -28.0379
 141   2.0000      -1.030287       -28.0355
 142   2.0000      -1.020807       -27.7776
 143   2.0000      -1.020507       -27.7694
 144   2.0000      -1.018610       -27.7178
 145   2.0000      -1.004059       -27.3218
 146   2.0000      -1.001793       -27.2602
 147   2.0000      -1.000749       -27.2318
 148   2.0000      -0.999415       -27.1955
 149   2.0000      -0.998181       -27.1619
 150   2.0000      -0.994995       -27.0752
 151   2.0000      -0.993057       -27.0224
 152   2.0000      -0.988715       -26.9043
 153   2.0000      -0.988141       -26.8887
 154   2.0000      -0.977964       -26.6117
 155   2.0000      -0.951644       -25.8956
 156   2.0000      -0.949483       -25.8367
 157   2.0000      -0.946621       -25.7589
 158   2.0000      -0.919868       -25.0309
 159   2.0000      -0.916595       -24.9418
 160   2.0000      -0.915152       -24.9025
 161   2.0000      -0.914038       -24.8722
 162   2.0000      -0.898388       -24.4464
 163   2.0000      -0.892835       -24.2953
 164   2.0000      -0.892043       -24.2737
 165   2.0000      -0.890209       -24.2238
 166   2.0000      -0.884378       -24.0651
 167   2.0000      -0.878874       -23.9154
 168   2.0000      -0.876404       -23.8482
 169   2.0000      -0.870801       -23.6957
 170   2.0000      -0.855085       -23.2681
 171   2.0000      -0.853538       -23.2260
 172   2.0000      -0.836010       -22.7490
 173   2.0000      -0.835178       -22.7264
 174   2.0000      -0.822465       -22.3804
 175   2.0000      -0.814728       -22.1699
 176   2.0000      -0.793398       -21.5895
 177   2.0000      -0.779400       -21.2086
 178   2.0000      -0.772196       -21.0125
 179   2.0000      -0.768490       -20.9117
 180   2.0000      -0.759827       -20.6759
 181   2.0000      -0.757515       -20.6130
 182   2.0000      -0.742108       -20.1938
 183   2.0000      -0.736407       -20.0387
 184   2.0000      -0.732137       -19.9225
 185   2.0000      -0.723288       -19.6817
 186   2.0000      -0.713500       -19.4153
 187   2.0000      -0.709898       -19.3173
 188   2.0000      -0.704082       -19.1590
 189   2.0000      -0.699068       -19.0226
 190   2.0000      -0.697682       -18.9849
 191   2.0000      -0.693704       -18.8767
 192   2.0000      -0.683632       -18.6026
 193   2.0000      -0.680183       -18.5087
 194   2.0000      -0.674690       -18.3592
 195   2.0000      -0.667762       -18.1707
 196   2.0000      -0.665501       -18.1092
 197   2.0000      -0.659725       -17.9520
 198   2.0000      -0.656528       -17.8650
 199   2.0000      -0.652002       -17.7419
 200   2.0000      -0.646947       -17.6043
 201   2.0000      -0.643658       -17.5148
 202   2.0000      -0.639694       -17.4070
 203   2.0000      -0.637493       -17.3471
 204   2.0000      -0.634105       -17.2549
 205   2.0000      -0.630943       -17.1688
 206   2.0000      -0.630130       -17.1467
 207   2.0000      -0.612261       -16.6605
 208   2.0000      -0.609396       -16.5825
 209   2.0000      -0.606751       -16.5105
 210   2.0000      -0.602655       -16.3991
 211   2.0000      -0.601966       -16.3803
 212   2.0000      -0.599279       -16.3072
 213   2.0000      -0.589023       -16.0281
 214   2.0000      -0.588432       -16.0121
 215   2.0000      -0.579302       -15.7636
 216   2.0000      -0.574672       -15.6376
 217   2.0000      -0.570563       -15.5258
 218   2.0000      -0.565156       -15.3787
 219   2.0000      -0.563462       -15.3326
 220   2.0000      -0.561133       -15.2692
 221   2.0000      -0.560352       -15.2479
 222   2.0000      -0.557760       -15.1774
 223   2.0000      -0.554666       -15.0932
 224   2.0000      -0.553414       -15.0592
 225   2.0000      -0.546378       -14.8677
 226   2.0000      -0.545800       -14.8520
 227   2.0000      -0.543938       -14.8013
 228   2.0000      -0.542631       -14.7657
 229   2.0000      -0.539902       -14.6915
 230   2.0000      -0.534384       -14.5413
 231   2.0000      -0.531382       -14.4597
 232   2.0000      -0.530392       -14.4327
 233   2.0000      -0.526502       -14.3268
 234   2.0000      -0.524978       -14.2854
 235   2.0000      -0.521993       -14.2042
 236   2.0000      -0.517898       -14.0927
 237   2.0000      -0.516401       -14.0520
 238   2.0000      -0.514968       -14.0130
 239   2.0000      -0.512380       -13.9426
 240   2.0000      -0.511047       -13.9063
 241   2.0000      -0.508378       -13.8337
 242   2.0000      -0.506211       -13.7747
 243   2.0000      -0.502900       -13.6846
 244   2.0000      -0.500183       -13.6107
 245   2.0000      -0.499401       -13.5894
 246   2.0000      -0.499168       -13.5831
 247   2.0000      -0.496515       -13.5108
 248   2.0000      -0.491336       -13.3699
 249   2.0000      -0.489270       -13.3137
 250   2.0000      -0.481969       -13.1151
 251   2.0000      -0.480777       -13.0826
 252   2.0000      -0.476087       -12.9550
 253   2.0000      -0.473907       -12.8957
 254   2.0000      -0.467618       -12.7245
 255   2.0000      -0.466949       -12.7063
 256   2.0000      -0.465275       -12.6608
 257   2.0000      -0.464476       -12.6390
 258   2.0000      -0.461174       -12.5492
 259   2.0000      -0.459646       -12.5076
 260   2.0000      -0.458772       -12.4838
 261   2.0000      -0.455648       -12.3988
 262   2.0000      -0.454794       -12.3756
 263   2.0000      -0.452767       -12.3204
 264   2.0000      -0.451653       -12.2901
 265   2.0000      -0.450550       -12.2601
 266   2.0000      -0.449380       -12.2283
 267   2.0000      -0.446437       -12.1482
 268   2.0000      -0.444074       -12.0839
 269   2.0000      -0.443421       -12.0661
 270   2.0000      -0.437921       -11.9164
 271   2.0000      -0.437666       -11.9095
 272   2.0000      -0.435293       -11.8449
 273   2.0000      -0.433906       -11.8072
 274   2.0000      -0.433113       -11.7856
 275   2.0000      -0.432222       -11.7614
 276   2.0000      -0.430332       -11.7099
 277   2.0000      -0.429353       -11.6833
 278   2.0000      -0.425657       -11.5827
 279   2.0000      -0.421316       -11.4646
 280   2.0000      -0.420532       -11.4433
 281   2.0000      -0.417812       -11.3693
 282   2.0000      -0.416277       -11.3275
 283   2.0000      -0.414874       -11.2893
 284   2.0000      -0.413977       -11.2649
 285   2.0000      -0.411258       -11.1909
 286   2.0000      -0.400629       -10.9017
 287   2.0000      -0.395509       -10.7623
 288   2.0000      -0.393244       -10.7007
 289   2.0000      -0.389480       -10.5983
 290   2.0000      -0.385384       -10.4868
 291   2.0000      -0.383446       -10.4341
 292   2.0000      -0.379634       -10.3304
 293   2.0000      -0.379344       -10.3225
 294   2.0000      -0.378791       -10.3074
 295   2.0000      -0.378349       -10.2954
 296   2.0000      -0.368889       -10.0380
 297   2.0000      -0.357924        -9.7396
 298   2.0000      -0.352592        -9.5945
 299   2.0000      -0.351101        -9.5539
 300   2.0000      -0.343505        -9.3472
 301   2.0000      -0.339627        -9.2417
 302   2.0000      -0.336132        -9.1466
 303   2.0000      -0.335256        -9.1228
 304   2.0000      -0.321938        -8.7604
 305   2.0000      -0.320929        -8.7329
 306   2.0000      -0.319576        -8.6961
 307   2.0000      -0.313020        -8.5177
 308   2.0000      -0.299797        -8.1579
 309   2.0000      -0.298949        -8.1348
 310   2.0000      -0.283324        -7.7096
 311   2.0000      -0.281296        -7.6545
 312   0.0000      -0.106836        -2.9072
 313   0.0000      -0.104163        -2.8344
 314   0.0000      -0.077685        -2.1139
 315   0.0000      -0.076298        -2.0762
 316   0.0000      -0.054575        -1.4851

MULLIKEN ATOMIC CHARGES
-----------------------
   0 C :    0.293981
   1 C :   -0.331458
   2 C :   -0.184741
   3 N :    0.159110
   4 C :   -0.200313
   5 N :    0.170924
   6 C :    0.018566
   7 C :   -0.016542
   8 C :   -0.065933
   9 C :    0.118322
  10 C :   -0.090140
  11 C :   -0.019557
  12 S :    0.191689
  13 C :   -0.122493
  14 C :    0.039103
  15 Br:    0.030147
  16 C :    0.155436
  17 O :   -0.142856
  18 C :   -0.051581
  19 C :   -0.050639
  20 C :   -0.011737
  21 C :    0.190253
  22 F :   -0.151172
  23 C :    0.159504
  24 F :   -0.146194
  25 C :    0.012631
  26 C :    0.017228
  27 C :    0.048706
  28 N :   -0.267123
  29 S :    0.527994
  30 N :   -0.294852
  31 C :   -0.151648
  32 C :    0.031118
  33 C :   -0.328996
  34 N :    0.218435
  35 C :    0.113651
  36 C :   -0.223943
  37 S :    0.226637
  38 S :    0.188084
  39 C :   -0.227177
  40 C :    0.113673
  41 C :    0.035818
  42 C :   -0.330191
  43 N :    0.219579
  44 C :   -0.157005
  45 S :    0.235337
  46 C :    0.019248
  47 C :    0.183399
  48 F :   -0.146325
  49 C :    0.172670
  50 F :   -0.157134
  51 C :   -0.012085
  52 C :    0.019423
  53 C :    0.004700
  54 N :   -0.284163
  55 S :    0.530925
  56 N :   -0.257759
  57 C :    0.009437
  58 C :   -0.097517
  59 C :    0.276986
  60 C :   -0.326806
  61 C :   -0.183637
  62 N :    0.166362
  63 C :   -0.185384
  64 N :    0.158100
  65 C :    0.006792
  66 C :    0.003979
  67 C :    0.130458
  68 O :   -0.130783
  69 C :   -0.065307
  70 C :    0.111484
  71 C :   -0.087371
  72 C :   -0.016803
  73 S :    0.191430
  74 C :   -0.124501
  75 C :    0.042162
  76 Br:    0.028834
  77 H :   -0.008634
  78 H :   -0.004028
  79 H :   -0.001010
  80 H :    0.047125
  81 H :    0.042749
  82 H :   -0.006048
  83 H :    0.000781
  84 H :   -0.001391
Sum of atomic charges:   -0.0000000

LOEWDIN ATOMIC CHARGES
----------------------
   0 C :    0.073634
   1 C :   -0.126516
   2 C :   -0.017485
   3 N :   -0.044099
   4 C :   -0.023072
   5 N :   -0.039809
   6 C :   -0.020999
   7 C :   -0.049474
   8 C :    0.024405
   9 C :   -0.030020
  10 C :   -0.142145
  11 C :   -0.008164
  12 S :    0.436396
  13 C :   -0.269234
  14 C :   -0.070047
  15 Br:    0.142208
  16 C :    0.087045
  17 O :   -0.132907
  18 C :   -0.060409
  19 C :    0.074526
  20 C :   -0.059171
  21 C :    0.093039
  22 F :   -0.032012
  23 C :    0.076240
  24 F :   -0.020875
  25 C :   -0.060809
  26 C :   -0.047779
  27 C :   -0.034950
  28 N :   -0.273511
  29 S :    0.660867
  30 N :   -0.300185
  31 C :   -0.137917
  32 C :   -0.081728
  33 C :   -0.046111
  34 N :   -0.026036
  35 C :   -0.064881
  36 C :   -0.332127
  37 S :    0.497967
  38 S :    0.423899
  39 C :   -0.331255
  40 C :   -0.064707
  41 C :   -0.082605
  42 C :   -0.045655
  43 N :   -0.028606
  44 C :   -0.135945
  45 S :    0.500041
  46 C :   -0.060739
  47 C :    0.083910
  48 F :   -0.019580
  49 C :    0.088941
  50 F :   -0.028270
  51 C :   -0.063563
  52 C :   -0.037624
  53 C :   -0.045475
  54 N :   -0.295035
  55 S :    0.662078
  56 N :   -0.276283
  57 C :    0.072083
  58 C :   -0.066806
  59 C :    0.069204
  60 C :   -0.130227
  61 C :   -0.019068
  62 N :   -0.042302
  63 C :   -0.014135
  64 N :   -0.050293
  65 C :   -0.016791
  66 C :   -0.053901
  67 C :    0.086557
  68 O :   -0.129143
  69 C :    0.025850
  70 C :   -0.031323
  71 C :   -0.141171
  72 C :   -0.008619
  73 S :    0.437070
  74 C :   -0.269970
  75 C :   -0.069562
  76 Br:    0.141362
  77 H :    0.041964
  78 H :    0.041713
  79 H :    0.039860
  80 H :    0.050014
  81 H :    0.055372
  82 H :    0.042770
  83 H :    0.042383
  84 H :    0.039728

  Mayer bond orders larger than 0.100000
B(  0-C ,  1-C ) :   1.6650 B(  0-C ,  6-C ) :   1.0162 B(  0-C , 18-C ) :   1.0396
B(  1-C ,  2-C ) :   1.1374 B(  1-C ,  4-C ) :   1.1397 B(  2-C ,  3-N ) :   2.9739
B(  4-C ,  5-N ) :   2.9888 B(  6-C ,  7-C ) :   1.2702 B(  6-C , 11-C ) :   1.4021
B(  7-C ,  8-C ) :   1.4205 B(  7-C , 16-C ) :   0.9517 B(  8-C ,  9-C ) :   1.2511
B(  8-C , 77-H ) :   1.0163 B(  9-C , 10-C ) :   1.2973 B(  9-C , 14-C ) :   1.1632
B( 10-C , 11-C ) :   1.3383 B( 10-C , 12-S ) :   1.0883 B( 11-C , 78-H ) :   0.9790
B( 12-S , 13-C ) :   1.0862 B( 13-C , 14-C ) :   1.6174 B( 13-C , 15-Br) :   1.0230
B( 14-C , 79-H ) :   1.0001 B( 16-C , 17-O ) :   2.2243 B( 16-C , 18-C ) :   0.9228
B( 18-C , 19-C ) :   1.7274 B( 19-C , 20-C ) :   1.0405 B( 19-C , 80-H ) :   0.9390
B( 20-C , 21-C ) :   1.4224 B( 20-C , 25-C ) :   0.1221 B( 20-C , 27-C ) :   1.1862
B( 21-C , 22-F ) :   1.1894 B( 21-C , 23-C ) :   1.1091 B( 23-C , 24-F ) :   1.1881
B( 23-C , 25-C ) :   1.4162 B( 25-C , 26-C ) :   1.1825 B( 25-C , 31-C ) :   1.0742
B( 26-C , 27-C ) :   1.1617 B( 26-C , 30-N ) :   1.5311 B( 27-C , 28-N ) :   1.5426
B( 28-N , 29-S ) :   1.2764 B( 28-N , 30-N ) :   0.1446 B( 29-S , 30-N ) :   1.2597
B( 31-C , 32-C ) :   1.5038 B( 31-C , 37-S ) :   1.1659 B( 32-C , 33-C ) :   1.1479
B( 32-C , 35-C ) :   1.2692 B( 33-C , 34-N ) :   3.0073 B( 35-C , 36-C ) :   1.4057
B( 35-C , 40-C ) :   1.0767 B( 36-C , 37-S ) :   1.0962 B( 36-C , 38-S ) :   1.0836
B( 38-S , 39-C ) :   1.0819 B( 39-C , 40-C ) :   1.4091 B( 39-C , 45-S ) :   1.1010
B( 40-C , 41-C ) :   1.2659 B( 41-C , 42-C ) :   1.1460 B( 41-C , 44-C ) :   1.5084
B( 42-C , 43-N ) :   3.0118 B( 44-C , 45-S ) :   1.1680 B( 44-C , 46-C ) :   1.0669
B( 46-C , 47-C ) :   1.4333 B( 46-C , 51-C ) :   0.1249 B( 46-C , 53-C ) :   1.1808
B( 47-C , 48-F ) :   1.1897 B( 47-C , 49-C ) :   1.1217 B( 49-C , 50-F ) :   1.1460
B( 49-C , 51-C ) :   1.3948 B( 51-C , 52-C ) :   1.1799 B( 51-C , 57-C ) :   1.0524
B( 52-C , 53-C ) :   1.1556 B( 52-C , 56-N ) :   1.5887 B( 53-C , 54-N ) :   1.5481
B( 54-N , 55-S ) :   1.2617 B( 54-N , 56-N ) :   0.1434 B( 55-S , 56-N ) :   1.2681
B( 57-C , 58-C ) :   1.7366 B( 57-C , 81-H ) :   0.9390 B( 58-C , 59-C ) :   1.0123
B( 58-C , 67-C ) :   0.9226 B( 59-C , 60-C ) :   1.6669 B( 59-C , 65-C ) :   1.0210
B( 60-C , 61-C ) :   1.1301 B( 60-C , 63-C ) :   1.1726 B( 61-C , 62-N ) :   2.9960
B( 63-C , 64-N ) :   2.9865 B( 65-C , 66-C ) :   1.2692 B( 65-C , 72-C ) :   1.4111
B( 66-C , 67-C ) :   0.9245 B( 66-C , 69-C ) :   1.4205 B( 67-C , 68-O ) :   2.2789
B( 69-C , 70-C ) :   1.2583 B( 69-C , 82-H ) :   1.0155 B( 70-C , 71-C ) :   1.3000
B( 70-C , 75-C ) :   1.1637 B( 71-C , 72-C ) :   1.3335 B( 71-C , 73-S ) :   1.0867
B( 72-C , 83-H ) :   0.9829 B( 73-S , 74-C ) :   1.0875 B( 74-C , 75-C ) :   1.6175
B( 74-C , 76-Br) :   1.0221 B( 75-C , 84-H ) :   1.0006

-----------------------------------------------------------------------------
         ABSORPTION SPECTRUM VIA TRANSITION ELECTRIC DIPOLE MOMENTS
-----------------------------------------------------------------------------
State   Energy  Wavelength   fosc         T2         TX        TY        TZ
        (cm-1)    (nm)                  (au**2)     (au)      (au)      (au)
-----------------------------------------------------------------------------
   0   21747.4    459.8   1.427247368  21.60563  -2.62805  -1.04032  -3.69008
   1   22797.0    438.7   0.382753928   5.52735   1.78896  -1.21347  -0.92437
   2   25618.6    390.3   0.002182391   0.02804  -0.11555   0.00104   0.12121
   3   26067.1    383.6   0.028984879   0.36606   0.46558  -0.02876  -0.38532
   4   26386.9    379.0   0.107393442   1.33988   0.60954  -0.19031  -0.96547
   5   26426.8    378.4   0.206139049   2.56798   0.37184  -1.48063   0.48729
   6   27118.3    368.8   0.023253863   0.28230   0.22626   0.07980   0.47407
   7   28433.9    351.7   0.075260173   0.87137   0.10415  -0.16007   0.91373
   8   28544.5    350.3   0.035728414   0.41207  -0.05367  -0.20682   0.60532
   9   29052.0    344.2   0.057171351   0.64785   0.47865  -0.64695   0.01408
  10   29299.5    341.3   0.013694381   0.15387  -0.29784  -0.05861  -0.24845
  11   29997.6    333.4   0.014052700   0.15422   0.07932  -0.16514  -0.34736
  12   30817.0    324.5   0.304002068   3.24760  -0.72671   1.42694  -0.82663
  13   31444.7    318.0   0.231696926   2.42576  -0.04808   0.45391   1.48910
  14   31773.3    314.7   0.017583899   0.18219  -0.09043   0.40163   0.11273
  15   32440.7    308.3   0.316814335   3.21507   0.25593  -1.77400  -0.04989
  16   32511.8    307.6   0.415495334   4.20728   0.57662   0.32745  -1.94102
  17   32573.1    307.0   0.268561233   2.71431   0.18869  -1.62391  -0.20399
  18   32781.6    305.0   0.244308455   2.45349  -1.29605   0.37087   0.79762
  19   33156.8    301.6   0.086610411   0.85995   0.23441  -0.72367  -0.53038
  20   33258.4    300.7   0.067504767   0.66820   0.72838  -0.35378   0.11185
  21   33446.7    299.0   0.095708099   0.94204   0.58845   0.39202  -0.66489
  22   33824.4    295.6   0.230980733   2.24813   0.15968  -0.31738  -1.45667
  23   33951.9    294.5   0.050707534   0.49168   0.14714  -0.08395  -0.68043
  24   34112.6    293.1   0.004809789   0.04642   0.09789   0.13293  -0.13844
  25   34426.6    290.5   0.002768658   0.02648   0.15141  -0.02010   0.05610
  26   35552.5    281.3   0.031733455   0.29385   0.01961   0.06298   0.53805
  27   35688.0    280.2   0.081162694   0.74870  -0.56100  -0.65454  -0.07457
  28   35950.9    278.2   0.003378442   0.03094  -0.12066  -0.08148  -0.09869
  29   36689.1    272.6   0.062731094   0.56289   0.57185   0.14640   0.46308
  30   36782.0    271.9   0.002527366   0.02262  -0.14610  -0.00558  -0.03529
  31   36891.8    271.1   0.004443443   0.03965  -0.09799   0.17315   0.00837
  32   37188.0    268.9   0.007493778   0.06634   0.10110  -0.22927   0.05963
  33   37611.6    265.9   0.230797226   2.02015   0.93839   0.69963   0.80629
  34   37771.3    264.8   0.009603691   0.08371  -0.20774  -0.06615  -0.19019
  35   37995.6    263.2   0.101081867   0.87582   0.70417   0.58253  -0.20155
  36   38434.3    260.2   0.219919913   1.88374   0.97474   0.00302   0.96624
  37   38615.9    259.0   0.115448000   0.98423   0.74743  -0.55685   0.33985
  38   38753.2    258.0   0.032402299   0.27526  -0.33670  -0.10505  -0.38840
  39   38870.5    257.3   0.039922759   0.33812   0.09617  -0.55905   0.12783
  40   39044.4    256.1   0.074372570   0.62709   0.10413  -0.66305   0.42025
  41   39091.4    255.8   0.094303739   0.79419  -0.46438   0.37523  -0.66162
  42   39554.3    252.8   0.076988415   0.64078  -0.57903  -0.53261  -0.14773
  43   39932.4    250.4   0.075023606   0.61851   0.39563  -0.38002   0.56353
  44   40091.5    249.4   0.057155899   0.46934  -0.14752  -0.36324   0.56181

FINAL SINGLE POINT ENERGY    -11014.168145708103

DIPOLE MOMENT
-------------
                                X             Y             Z
Electronic contribution:     62.47197     -79.45461     -24.38689
Nuclear contribution   :    -64.54864      77.98413      24.71336
                        -----------------------------------------
Total Dipole Moment    :     -2.07666      -1.47048       0.32647
                        -----------------------------------------
Magnitude (a.u.)       :      2.56543
Magnitude (Debye)      :      6.52080

Rotational constants in cm-1:     0.000772     0.000171     0.000150
Rotational constants in MHz :    23.146601     5.136135     4.498193

                             ****ORCA TERMINATED NORMALLY****
TOTAL RUN TIME: 0 days 0 hours 9 minutes 20 seconds 513 msec
