                         Program Version 4.2.0 -  RELEASE  -
|  1> # ORCA input file
|  2> # SCF done       -208.439667698354          0.000507418177
|  3> ! CAM-B3LYP def2-SVP def2/J RIJCOSX Grid4 TightSCF
|  4> %maxcore 5000
|  5> %tddft
|  6>     Mode sTDDFT
|  7>     Ethresh 5.0
|  8>     maxcore 5000
|  9> end
| 10>
| 11> %pal
| 12>   nprocs 6
| 13>   end
| 14> * xyz 0 1
| 15>    C        1.24695         4.79363         3.06929
| 16>    C        1.42586         4.13537         4.25911
| 17>    C        2.67561         3.97996         4.89489
| 18>    N        3.65979         3.82596         5.46531
| 19>    C        0.41156         3.49425         5.00101
| 20>    N       -0.35094         2.93257         5.65105
| 21>    C        2.31061         5.36798         2.25496
| 22>    C        1.74897         5.83439         1.04216
| 23>    C        2.49788         6.42577         0.05412
| 24>    C        3.87193         6.56426         0.27415
| 25>    C        4.42584         6.09928         1.49139
| 26>    C        3.66693         5.50091         2.48963
| 27>    S        6.13975         6.37541         1.55923
| 28>    C        6.09020         7.09927        -0.02657
| 29>    C        4.85469         7.13416        -0.58024
| 30>   Br        7.67285         7.74230        -0.79936
| 31>    C        0.29468         5.58868         1.04111
| 32>    O       -0.47685         5.90075         0.15966
| 33>    C       -0.00605         4.97145         2.35622
| 34>    C       -1.24330         4.76757         2.90450
| 35>    C       -2.51131         4.80839         2.29253
| 36>    C       -2.90022         4.73777         0.96070
| 37>    C       -4.27899         4.78629         0.81405
| 38>    C       -4.96638         4.89954         2.04416
| 39>    S       -3.91013         4.90594         3.37480
| 40>    C       -6.35182         4.99586         1.77535
| 41>    C       -6.54700         4.93864         0.38413
| 42>    C       -5.25268         4.78298        -0.26465
| 43>    C       -5.01491         4.64290        -1.59924
| 44>    C       -3.72191         4.44353        -2.13151
| 45>    N       -2.68765         4.25313        -2.58689
| 46>    C       -6.06023         4.65987        -2.54806
| 47>    N       -6.90909         4.67347        -3.31845
| 48>    C       -7.88660         5.05188         0.01848
| 49>    C       -8.71306         5.19766         1.11888
| 50>    S       -7.82161         5.18330         2.63071
| 51>    C      -10.12039         5.37370         1.11432
| 52>    C      -10.95805         5.53177         2.19851
| 53>    C      -12.28348         5.71900         1.80607
| 54>    C      -12.46631         5.70415         0.41719
| 55>    S      -10.98046         5.44723        -0.41569
| 56>    C      -13.79845         5.92020         0.05568
| 57>    C      -14.62888         6.09989         1.16938
| 58>    S      -13.76582         5.99244         2.67778
| 59>    C      -15.96264         6.34286         0.84013
| 60>    C      -16.15986         6.35078        -0.52467
| 61>    S      -14.67957         6.04567        -1.41949
| 62>    C      -17.36731         6.59141        -1.22939
| 63>    C      -17.54676         6.59848        -2.60113
| 64>    C      -18.86142         6.89840        -2.95261
| 65>    C      -19.69046         7.12256        -1.83942
| 66>    S      -18.84857         6.95761        -0.36099
| 67>    C      -20.99215         7.44277        -2.29787
| 68>    C      -20.98293         7.41600        -3.70788
| 69>    C      -19.64652         7.07843        -4.16398
| 70>    C      -19.22190         6.98882        -5.45666
| 71>    C      -17.89114         6.66055        -5.79111
| 72>    N      -16.81156         6.38463        -6.05999
| 73>    C      -20.10197         7.22192        -6.53488
| 74>    N      -20.83213         7.40985        -7.39882
| 75>    C      -22.20638         7.76182        -4.26389
| 76>    C      -23.15745         8.06043        -3.29865
| 77>    S      -22.51538         7.86586        -1.67012
| 78>    C      -24.50553         8.43860        -3.47577
| 79>    C      -25.10332         8.94323        -4.59110
| 80>    C      -24.59243         9.51056        -5.82177
| 81>    C      -23.42425        10.20953        -5.98561
| 82>    C      -23.06147        10.86358        -7.18199
| 83>    N      -22.72274        11.41843        -8.12741
| 84>    C      -22.49356        10.44519        -4.95549
| 85>    N      -21.71965        10.68752        -4.14237
| 86>    C      -25.67386         9.46010        -6.80025
| 87>    C      -26.87654         9.11287        -6.13409
| 88>    C      -26.58695         8.86119        -4.70950
| 89>    O      -27.36681         8.59548        -3.82454
| 90>    C      -28.08114         9.02440        -6.78889
| 91>    C      -28.09568         9.27636        -8.16498
| 92>    C      -26.88491         9.60238        -8.82323
| 93>    C      -25.66773         9.70157        -8.16027
| 94>    S      -27.12955         9.85666       -10.52336
| 95>    C      -28.83205         9.53297       -10.33080
| 96>    C      -29.20029         9.24593        -9.05938
| 97>   Br      -29.96149         9.60174       -11.82567
| 98>    H        2.03723         6.76763        -0.85938
| 99>    H        4.13578         5.16821         3.40044
|100>    H        4.64280         7.54471        -1.55055
|101>    H       -1.27953         4.57199         3.97002
|102>    H       -2.19834         4.66080         0.15179
|103>    H       -8.26031         5.03824        -0.98957
|104>    H      -10.61723         5.51655         3.21760
|105>    H      -16.74891         6.51069         1.55320
|106>    H      -16.74859         6.39751        -3.29307
|107>    H      -22.42207         7.76064        -5.31671
|108>    H      -25.17591         8.24674        -2.64361
|109>    H      -28.98422         8.76778        -6.25780
|110>    H      -24.76810         9.94234        -8.70214
|111>    H      -30.20852         9.02126        -8.76291
|112> *
|113>
|114>                          ****END OF INPUT****

CARTESIAN COORDINATES (ANGSTROEM)
---------------------------------
  C      1.246950    4.793630    3.069290
  C      1.425860    4.135370    4.259110
  C      2.675610    3.979960    4.894890
  N      3.659790    3.825960    5.465310
  C      0.411560    3.494250    5.001010
  N     -0.350940    2.932570    5.651050
  C      2.310610    5.367980    2.254960
  C      1.748970    5.834390    1.042160
  C      2.497880    6.425770    0.054120
  C      3.871930    6.564260    0.274150
  C      4.425840    6.099280    1.491390
  C      3.666930    5.500910    2.489630
  S      6.139750    6.375410    1.559230
  C      6.090200    7.099270   -0.026570
  C      4.854690    7.134160   -0.580240
  Br     7.672850    7.742300   -0.799360
  C      0.294680    5.588680    1.041110
  O     -0.476850    5.900750    0.159660
  C     -0.006050    4.971450    2.356220
  C     -1.243300    4.767570    2.904500
  C     -2.511310    4.808390    2.292530
  C     -2.900220    4.737770    0.960700
  C     -4.278990    4.786290    0.814050
  C     -4.966380    4.899540    2.044160
  S     -3.910130    4.905940    3.374800
  C     -6.351820    4.995860    1.775350
  C     -6.547000    4.938640    0.384130
  C     -5.252680    4.782980   -0.264650
  C     -5.014910    4.642900   -1.599240
  C     -3.721910    4.443530   -2.131510
  N     -2.687650    4.253130   -2.586890
  C     -6.060230    4.659870   -2.548060
  N     -6.909090    4.673470   -3.318450
  C     -7.886600    5.051880    0.018480
  C     -8.713060    5.197660    1.118880
  S     -7.821610    5.183300    2.630710
  C    -10.120390    5.373700    1.114320
  C    -10.958050    5.531770    2.198510
  C    -12.283480    5.719000    1.806070
  C    -12.466310    5.704150    0.417190
  S    -10.980460    5.447230   -0.415690
  C    -13.798450    5.920200    0.055680
  C    -14.628880    6.099890    1.169380
  S    -13.765820    5.992440    2.677780
  C    -15.962640    6.342860    0.840130
  C    -16.159860    6.350780   -0.524670
  S    -14.679570    6.045670   -1.419490
  C    -17.367310    6.591410   -1.229390
  C    -17.546760    6.598480   -2.601130
  C    -18.861420    6.898400   -2.952610
  C    -19.690460    7.122560   -1.839420
  S    -18.848570    6.957610   -0.360990
  C    -20.992150    7.442770   -2.297870
  C    -20.982930    7.416000   -3.707880
  C    -19.646520    7.078430   -4.163980
  C    -19.221900    6.988820   -5.456660
  C    -17.891140    6.660550   -5.791110
  N    -16.811560    6.384630   -6.059990
  C    -20.101970    7.221920   -6.534880
  N    -20.832130    7.409850   -7.398820
  C    -22.206380    7.761820   -4.263890
  C    -23.157450    8.060430   -3.298650
  S    -22.515380    7.865860   -1.670120
  C    -24.505530    8.438600   -3.475770
  C    -25.103320    8.943230   -4.591100
  C    -24.592430    9.510560   -5.821770
  C    -23.424250   10.209530   -5.985610
  C    -23.061470   10.863580   -7.181990
  N    -22.722740   11.418430   -8.127410
  C    -22.493560   10.445190   -4.955490
  N    -21.719650   10.687520   -4.142370
  C    -25.673860    9.460100   -6.800250
  C    -26.876540    9.112870   -6.134090
  C    -26.586950    8.861190   -4.709500
  O    -27.366810    8.595480   -3.824540
  C    -28.081140    9.024400   -6.788890
  C    -28.095680    9.276360   -8.164980
  C    -26.884910    9.602380   -8.823230
  C    -25.667730    9.701570   -8.160270
  S    -27.129550    9.856660  -10.523360
  C    -28.832050    9.532970  -10.330800
  C    -29.200290    9.245930   -9.059380
  Br   -29.961490    9.601740  -11.825670
  H      2.037230    6.767630   -0.859380
  H      4.135780    5.168210    3.400440
  H      4.642800    7.544710   -1.550550
  H     -1.279530    4.571990    3.970020
  H     -2.198340    4.660800    0.151790
  H     -8.260310    5.038240   -0.989570
  H    -10.617230    5.516550    3.217600
  H    -16.748910    6.510690    1.553200
  H    -16.748590    6.397510   -3.293070
  H    -22.422070    7.760640   -5.316710
  H    -25.175910    8.246740   -2.643610
  H    -28.984220    8.767780   -6.257800
  H    -24.768100    9.942340   -8.702140
  H    -30.208520    9.021260   -8.762910

 Total Charge           Charge          ....    0
 Multiplicity           Mult            ....    1
 Number of Electrons    NEL             ....  672
 Basis Dimension        Dim             .... 1304

ORBITAL ENERGIES
----------------

  NO   OCC          E(Eh)            E(eV)
   0   2.0000    -482.886232    -13140.0024
   1   2.0000    -482.885764    -13139.9897
   2   2.0000     -89.000494     -2421.8266
   3   2.0000     -88.999491     -2421.7993
   4   2.0000     -88.999141     -2421.7898
   5   2.0000     -88.998641     -2421.7761
   6   2.0000     -88.981269     -2421.3034
   7   2.0000     -88.980706     -2421.2881
   8   2.0000     -88.976525     -2421.1743
   9   2.0000     -88.975870     -2421.1565
  10   2.0000     -88.975692     -2421.1517
  11   2.0000     -62.563937     -1702.4513
  12   2.0000     -62.563477     -1702.4388
  13   2.0000     -56.397889     -1534.6646
  14   2.0000     -56.397427     -1534.6520
  15   2.0000     -56.395169     -1534.5906
  16   2.0000     -56.395138     -1534.5897
  17   2.0000     -56.394709     -1534.5780
  18   2.0000     -56.394679     -1534.5772
  19   2.0000     -19.219225      -522.9817
  20   2.0000     -19.217640      -522.9386
  21   2.0000     -14.436488      -392.8368
  22   2.0000     -14.435705      -392.8155
  23   2.0000     -14.435341      -392.8056
  24   2.0000     -14.432651      -392.7324
  25   2.0000     -14.419590      -392.3770
  26   2.0000     -14.417531      -392.3210
  27   2.0000     -14.415378      -392.2624
  28   2.0000     -14.415292      -392.2600
  29   2.0000     -10.371836      -282.2320
  30   2.0000     -10.371525      -282.2235
  31   2.0000     -10.370989      -282.2089
  32   2.0000     -10.369014      -282.1552
  33   2.0000     -10.359685      -281.9014
  34   2.0000     -10.359322      -281.8915
  35   2.0000     -10.358249      -281.8623
  36   2.0000     -10.358060      -281.8571
  37   2.0000     -10.349681      -281.6291
  38   2.0000     -10.346805      -281.5509
  39   2.0000     -10.345809      -281.5238
  40   2.0000     -10.345218      -281.5077
  41   2.0000     -10.343160      -281.4517
  42   2.0000     -10.342578      -281.4358
  43   2.0000     -10.342189      -281.4253
  44   2.0000     -10.339884      -281.3625
  45   2.0000     -10.339838      -281.3613
  46   2.0000     -10.339471      -281.3513
  47   2.0000     -10.336623      -281.2738
  48   2.0000     -10.335579      -281.2454
  49   2.0000     -10.335280      -281.2373
  50   2.0000     -10.333354      -281.1849
  51   2.0000     -10.333097      -281.1779
  52   2.0000     -10.331843      -281.1437
  53   2.0000     -10.329760      -281.0871
  54   2.0000     -10.329706      -281.0856
  55   2.0000     -10.329124      -281.0698
  56   2.0000     -10.327225      -281.0181
  57   2.0000     -10.327162      -281.0164
  58   2.0000     -10.326219      -280.9907
  59   2.0000     -10.325901      -280.9821
  60   2.0000     -10.325154      -280.9617
  61   2.0000     -10.321843      -280.8716
  62   2.0000     -10.321786      -280.8701
  63   2.0000     -10.321058      -280.8503
  64   2.0000     -10.320702      -280.8406
  65   2.0000     -10.318452      -280.7793
  66   2.0000     -10.317742      -280.7600
  67   2.0000     -10.317312      -280.7483
  68   2.0000     -10.314942      -280.6838
  69   2.0000     -10.314813      -280.6803
  70   2.0000     -10.310711      -280.5687
  71   2.0000     -10.310435      -280.5612
  72   2.0000     -10.310236      -280.5558
  73   2.0000     -10.310196      -280.5547
  74   2.0000     -10.309848      -280.5452
  75   2.0000     -10.309399      -280.5330
  76   2.0000     -10.308854      -280.5182
  77   2.0000     -10.308769      -280.5159
  78   2.0000     -10.308149      -280.4990
  79   2.0000     -10.307120      -280.4710
  80   2.0000     -10.307005      -280.4679
  81   2.0000     -10.306401      -280.4514
  82   2.0000     -10.305962      -280.4395
  83   2.0000     -10.303185      -280.3639
  84   2.0000     -10.302307      -280.3400
  85   2.0000     -10.302261      -280.3388
  86   2.0000     -10.301394      -280.3152
  87   2.0000     -10.297460      -280.2081
  88   2.0000     -10.296921      -280.1935
  89   2.0000     -10.294968      -280.1403
  90   2.0000     -10.292868      -280.0832
  91   2.0000      -8.793363      -239.2796
  92   2.0000      -8.792912      -239.2673
  93   2.0000      -8.095037      -220.2772
  94   2.0000      -8.094017      -220.2494
  95   2.0000      -8.093768      -220.2426
  96   2.0000      -8.093335      -220.2308
  97   2.0000      -8.076220      -219.7651
  98   2.0000      -8.075642      -219.7494
  99   2.0000      -8.072521      -219.6645
 100   2.0000      -8.071909      -219.6478
 101   2.0000      -8.070848      -219.6189
 102   2.0000      -6.629660      -180.4022
 103   2.0000      -6.629208      -180.3899
 104   2.0000      -6.615108      -180.0062
 105   2.0000      -6.614888      -180.0003
 106   2.0000      -6.614658      -179.9940
 107   2.0000      -6.614436      -179.9880
 108   2.0000      -6.064371      -165.0199
 109   2.0000      -6.063345      -164.9920
 110   2.0000      -6.062961      -164.9816
 111   2.0000      -6.062472      -164.9683
 112   2.0000      -6.060189      -164.9061
 113   2.0000      -6.059147      -164.8778
 114   2.0000      -6.058767      -164.8674
 115   2.0000      -6.058313      -164.8551
 116   2.0000      -6.057227      -164.8255
 117   2.0000      -6.056275      -164.7996
 118   2.0000      -6.056233      -164.7985
 119   2.0000      -6.055877      -164.7888
 120   2.0000      -6.045850      -164.5159
 121   2.0000      -6.045281      -164.5005
 122   2.0000      -6.042205      -164.4168
 123   2.0000      -6.041752      -164.4044
 124   2.0000      -6.041594      -164.4001
 125   2.0000      -6.041178      -164.3888
 126   2.0000      -6.040611      -164.3734
 127   2.0000      -6.037925      -164.3003
 128   2.0000      -6.037634      -164.2924
 129   2.0000      -6.037325      -164.2840
 130   2.0000      -6.037056      -164.2766
 131   2.0000      -6.036731      -164.2678
 132   2.0000      -6.033745      -164.1865
 133   2.0000      -6.033114      -164.1694
 134   2.0000      -6.031791      -164.1334
 135   2.0000      -2.745563       -74.7106
 136   2.0000      -2.745104       -74.6981
 137   2.0000      -2.741423       -74.5979
 138   2.0000      -2.741296       -74.5945
 139   2.0000      -2.740974       -74.5857
 140   2.0000      -2.740847       -74.5822
 141   2.0000      -2.729721       -74.2795
 142   2.0000      -2.729696       -74.2788
 143   2.0000      -2.729271       -74.2672
 144   2.0000      -2.729244       -74.2665
 145   2.0000      -1.135147       -30.8889
 146   2.0000      -1.133251       -30.8373
 147   2.0000      -1.054259       -28.6879
 148   2.0000      -1.053883       -28.6776
 149   2.0000      -1.038030       -28.2462
 150   2.0000      -1.028055       -27.9748
 151   2.0000      -1.026837       -27.9417
 152   2.0000      -1.025229       -27.8979
 153   2.0000      -1.023974       -27.8637
 154   2.0000      -1.016425       -27.6583
 155   2.0000      -1.014659       -27.6103
 156   2.0000      -1.013564       -27.5805
 157   2.0000      -1.012968       -27.5642
 158   2.0000      -1.010846       -27.5065
 159   2.0000      -1.007057       -27.4034
 160   2.0000      -0.996045       -27.1038
 161   2.0000      -0.995338       -27.0845
 162   2.0000      -0.993953       -27.0468
 163   2.0000      -0.991130       -26.9700
 164   2.0000      -0.989977       -26.9386
 165   2.0000      -0.969613       -26.3845
 166   2.0000      -0.965018       -26.2595
 167   2.0000      -0.945182       -25.7197
 168   2.0000      -0.944486       -25.7008
 169   2.0000      -0.943306       -25.6687
 170   2.0000      -0.924635       -25.1606
 171   2.0000      -0.921743       -25.0819
 172   2.0000      -0.910299       -24.7705
 173   2.0000      -0.909233       -24.7415
 174   2.0000      -0.899199       -24.4684
 175   2.0000      -0.898017       -24.4363
 176   2.0000      -0.887455       -24.1489
 177   2.0000      -0.886494       -24.1227
 178   2.0000      -0.884616       -24.0716
 179   2.0000      -0.880085       -23.9483
 180   2.0000      -0.877548       -23.8793
 181   2.0000      -0.867341       -23.6016
 182   2.0000      -0.866564       -23.5804
 183   2.0000      -0.864461       -23.5232
 184   2.0000      -0.860032       -23.4027
 185   2.0000      -0.850876       -23.1535
 186   2.0000      -0.836915       -22.7736
 187   2.0000      -0.830751       -22.6059
 188   2.0000      -0.829840       -22.5811
 189   2.0000      -0.818568       -22.2744
 190   2.0000      -0.800391       -21.7797
 191   2.0000      -0.798010       -21.7150
 192   2.0000      -0.790652       -21.5147
 193   2.0000      -0.781602       -21.2685
 194   2.0000      -0.775834       -21.1115
 195   2.0000      -0.765886       -20.8408
 196   2.0000      -0.761352       -20.7174
 197   2.0000      -0.755813       -20.5667
 198   2.0000      -0.739772       -20.1302
 199   2.0000      -0.723032       -19.6747
 200   2.0000      -0.717463       -19.5232
 201   2.0000      -0.708360       -19.2755
 202   2.0000      -0.704510       -19.1707
 203   2.0000      -0.697668       -18.9845
 204   2.0000      -0.695494       -18.9254
 205   2.0000      -0.693320       -18.8662
 206   2.0000      -0.690243       -18.7825
 207   2.0000      -0.686874       -18.6908
 208   2.0000      -0.684743       -18.6328
 209   2.0000      -0.678033       -18.4502
 210   2.0000      -0.669417       -18.2158
 211   2.0000      -0.663175       -18.0459
 212   2.0000      -0.660661       -17.9775
 213   2.0000      -0.651092       -17.7171
 214   2.0000      -0.646973       -17.6050
 215   2.0000      -0.643684       -17.5155
 216   2.0000      -0.639821       -17.4104
 217   2.0000      -0.634862       -17.2755
 218   2.0000      -0.630740       -17.1633
 219   2.0000      -0.627092       -17.0640
 220   2.0000      -0.625761       -17.0278
 221   2.0000      -0.625149       -17.0112
 222   2.0000      -0.622041       -16.9266
 223   2.0000      -0.619847       -16.8669
 224   2.0000      -0.603698       -16.4275
 225   2.0000      -0.601860       -16.3774
 226   2.0000      -0.598134       -16.2761
 227   2.0000      -0.594486       -16.1768
 228   2.0000      -0.588346       -16.0097
 229   2.0000      -0.584624       -15.9084
 230   2.0000      -0.573620       -15.6090
 231   2.0000      -0.571854       -15.5609
 232   2.0000      -0.557433       -15.1685
 233   2.0000      -0.556489       -15.1428
 234   2.0000      -0.555980       -15.1290
 235   2.0000      -0.553001       -15.0479
 236   2.0000      -0.550527       -14.9806
 237   2.0000      -0.549126       -14.9425
 238   2.0000      -0.543760       -14.7965
 239   2.0000      -0.542800       -14.7703
 240   2.0000      -0.541562       -14.7366
 241   2.0000      -0.539242       -14.6735
 242   2.0000      -0.536561       -14.6006
 243   2.0000      -0.536261       -14.5924
 244   2.0000      -0.531717       -14.4688
 245   2.0000      -0.526146       -14.3172
 246   2.0000      -0.523654       -14.2493
 247   2.0000      -0.521033       -14.1780
 248   2.0000      -0.518400       -14.1064
 249   2.0000      -0.515124       -14.0172
 250   2.0000      -0.514252       -13.9935
 251   2.0000      -0.513274       -13.9669
 252   2.0000      -0.511557       -13.9202
 253   2.0000      -0.510842       -13.9007
 254   2.0000      -0.508164       -13.8279
 255   2.0000      -0.506651       -13.7867
 256   2.0000      -0.505275       -13.7492
 257   2.0000      -0.503427       -13.6989
 258   2.0000      -0.501063       -13.6346
 259   2.0000      -0.500167       -13.6102
 260   2.0000      -0.497281       -13.5317
 261   2.0000      -0.494949       -13.4682
 262   2.0000      -0.493608       -13.4318
 263   2.0000      -0.493004       -13.4153
 264   2.0000      -0.491048       -13.3621
 265   2.0000      -0.487946       -13.2777
 266   2.0000      -0.485355       -13.2072
 267   2.0000      -0.483694       -13.1620
 268   2.0000      -0.477032       -12.9807
 269   2.0000      -0.475475       -12.9383
 270   2.0000      -0.474771       -12.9192
 271   2.0000      -0.471962       -12.8427
 272   2.0000      -0.469221       -12.7682
 273   2.0000      -0.466445       -12.6926
 274   2.0000      -0.465169       -12.6579
 275   2.0000      -0.463227       -12.6051
 276   2.0000      -0.460555       -12.5323
 277   2.0000      -0.459537       -12.5046
 278   2.0000      -0.458343       -12.4721
 279   2.0000      -0.455939       -12.4067
 280   2.0000      -0.454030       -12.3548
 281   2.0000      -0.452644       -12.3171
 282   2.0000      -0.450217       -12.2510
 283   2.0000      -0.449105       -12.2208
 284   2.0000      -0.448855       -12.2140
 285   2.0000      -0.448524       -12.2050
 286   2.0000      -0.447978       -12.1901
 287   2.0000      -0.445756       -12.1296
 288   2.0000      -0.445538       -12.1237
 289   2.0000      -0.444536       -12.0965
 290   2.0000      -0.444320       -12.0906
 291   2.0000      -0.443657       -12.0725
 292   2.0000      -0.443342       -12.0639
 293   2.0000      -0.442662       -12.0455
 294   2.0000      -0.439718       -11.9653
 295   2.0000      -0.439180       -11.9507
 296   2.0000      -0.436533       -11.8787
 297   2.0000      -0.431982       -11.7548
 298   2.0000      -0.431241       -11.7347
 299   2.0000      -0.429469       -11.6864
 300   2.0000      -0.429110       -11.6767
 301   2.0000      -0.427899       -11.6437
 302   2.0000      -0.426705       -11.6112
 303   2.0000      -0.425035       -11.5658
 304   2.0000      -0.424214       -11.5435
 305   2.0000      -0.416767       -11.3408
 306   2.0000      -0.413258       -11.2453
 307   2.0000      -0.412005       -11.2112
 308   2.0000      -0.411601       -11.2002
 309   2.0000      -0.409256       -11.1364
 310   2.0000      -0.398440       -10.8421
 311   2.0000      -0.394332       -10.7303
 312   2.0000      -0.389563       -10.6006
 313   2.0000      -0.387266       -10.5380
 314   2.0000      -0.382732       -10.4147
 315   2.0000      -0.375534       -10.2188
 316   2.0000      -0.375074       -10.2063
 317   2.0000      -0.370476       -10.0812
 318   2.0000      -0.360516        -9.8101
 319   2.0000      -0.359401        -9.7798
 320   2.0000      -0.356164        -9.6917
 321   2.0000      -0.351177        -9.5560
 322   2.0000      -0.348757        -9.4902
 323   2.0000      -0.342833        -9.3289
 324   2.0000      -0.337540        -9.1849
 325   2.0000      -0.331024        -9.0076
 326   2.0000      -0.328967        -8.9517
 327   2.0000      -0.323677        -8.8077
 328   2.0000      -0.316652        -8.6165
 329   2.0000      -0.316319        -8.6075
 330   2.0000      -0.302236        -8.2243
 331   2.0000      -0.299555        -8.1513
 332   2.0000      -0.295294        -8.0353
 333   2.0000      -0.293415        -7.9842
 334   2.0000      -0.271430        -7.3860
 335   2.0000      -0.245707        -6.6860
 336   0.0000      -0.118600        -3.2273
 337   0.0000      -0.113867        -3.0985
 338   0.0000      -0.091499        -2.4898
 339   0.0000      -0.090488        -2.4623
 340   0.0000      -0.066649        -1.8136

MULLIKEN ATOMIC CHARGES
-----------------------
   0 C :    0.304398
   1 C :   -0.348889
   2 C :   -0.182469
   3 N :    0.146541
   4 C :   -0.201953
   5 N :    0.155413
   6 C :    0.017679
   7 C :   -0.016778
   8 C :   -0.069862
   9 C :    0.120081
  10 C :   -0.091956
  11 C :   -0.022188
  12 S :    0.187205
  13 C :   -0.123624
  14 C :    0.040380
  15 Br:    0.025458
  16 C :    0.150955
  17 O :   -0.153166
  18 C :   -0.093690
  19 C :    0.033271
  20 C :   -0.115926
  21 C :    0.028337
  22 C :   -0.022489
  23 C :   -0.078884
  24 S :    0.205418
  25 C :   -0.108920
  26 C :    0.026290
  27 C :    0.302785
  28 C :   -0.288134
  29 C :   -0.186418
  30 N :    0.187770
  31 C :   -0.193357
  32 N :    0.179521
  33 C :   -0.067623
  34 C :   -0.033707
  35 S :    0.192611
  36 C :   -0.053762
  37 C :   -0.062302
  38 C :   -0.024100
  39 C :   -0.070713
  40 S :    0.166619
  41 C :   -0.070904
  42 C :   -0.022660
  43 S :    0.164628
  44 C :   -0.064629
  45 C :   -0.052170
  46 S :    0.166885
  47 C :   -0.037028
  48 C :   -0.065314
  49 C :    0.025041
  50 C :   -0.108373
  51 S :    0.192930
  52 C :   -0.070101
  53 C :   -0.002242
  54 C :    0.301704
  55 C :   -0.284849
  56 C :   -0.187978
  57 N :    0.180353
  58 C :   -0.185169
  59 N :    0.171352
  60 C :   -0.005022
  61 C :   -0.113726
  62 S :    0.214105
  63 C :    0.078728
  64 C :   -0.132970
  65 C :    0.267096
  66 C :   -0.336101
  67 C :   -0.171684
  68 N :    0.159404
  69 C :   -0.196822
  70 N :    0.164888
  71 C :   -0.003204
  72 C :    0.008139
  73 C :    0.131195
  74 O :   -0.145856
  75 C :   -0.070625
  76 C :    0.111844
  77 C :   -0.089284
  78 C :   -0.015647
  79 S :    0.189540
  80 C :   -0.126523
  81 C :    0.041848
  82 Br:    0.025226
  83 H :   -0.007219
  84 H :   -0.005664
  85 H :   -0.002595
  86 H :    0.017591
  87 H :    0.035183
  88 H :    0.018359
  89 H :   -0.004592
  90 H :   -0.004852
  91 H :    0.018884
  92 H :    0.026359
  93 H :    0.021144
  94 H :   -0.009101
  95 H :    0.002874
  96 H :   -0.002217
Sum of atomic charges:   -0.0000000

LOEWDIN ATOMIC CHARGES
----------------------
   0 C :    0.076263
   1 C :   -0.143941
   2 C :   -0.018259
   3 N :   -0.054088
   4 C :   -0.024810
   5 N :   -0.054505
   6 C :   -0.021610
   7 C :   -0.050374
   8 C :    0.024013
   9 C :   -0.031862
  10 C :   -0.143729
  11 C :   -0.009642
  12 S :    0.433152
  13 C :   -0.271064
  14 C :   -0.069434
  15 Br:    0.138184
  16 C :    0.085000
  17 O :   -0.139149
  18 C :   -0.097798
  19 C :    0.042799
  20 C :   -0.179276
  21 C :    0.024308
  22 C :   -0.076992
  23 C :   -0.157107
  24 S :    0.492681
  25 C :   -0.193017
  26 C :   -0.049668
  27 C :    0.076244
  28 C :   -0.091708
  29 C :   -0.020004
  30 N :   -0.016963
  31 C :   -0.016355
  32 N :   -0.027843
  33 C :   -0.040334
  34 C :   -0.163885
  35 S :    0.479616
  36 C :   -0.179079
  37 C :   -0.065761
  38 C :   -0.189663
  39 C :   -0.212106
  40 S :    0.445220
  41 C :   -0.213976
  42 C :   -0.188329
  43 S :    0.412926
  44 C :   -0.068372
  45 C :   -0.176334
  46 S :    0.444827
  47 C :   -0.167822
  48 C :   -0.037774
  49 C :   -0.053882
  50 C :   -0.186985
  51 S :    0.480998
  52 C :   -0.157238
  53 C :   -0.068152
  54 C :    0.082109
  55 C :   -0.095153
  56 C :   -0.017333
  57 N :   -0.026578
  58 C :   -0.012691
  59 N :   -0.030485
  60 C :    0.009070
  61 C :   -0.183326
  62 S :    0.498320
  63 C :    0.042205
  64 C :   -0.091876
  65 C :    0.065640
  66 C :   -0.138043
  67 C :   -0.019658
  68 N :   -0.046248
  69 C :   -0.015711
  70 N :   -0.048222
  71 C :   -0.017681
  72 C :   -0.053421
  73 C :    0.083459
  74 O :   -0.144399
  75 C :    0.023015
  76 C :   -0.033083
  77 C :   -0.142507
  78 C :   -0.008903
  79 S :    0.435961
  80 C :   -0.271514
  81 C :   -0.070538
  82 Br:    0.138110
  83 H :    0.042304
  84 H :    0.041124
  85 H :    0.039394
  86 H :    0.043399
  87 H :    0.045034
  88 H :    0.037685
  89 H :    0.031666
  90 H :    0.031456
  91 H :    0.037975
  92 H :    0.042741
  93 H :    0.045852
  94 H :    0.041490
  95 H :    0.042992
  96 H :    0.039026

  Mayer bond orders larger than 0.100000
B(  0-C ,  1-C ) :   1.6253 B(  0-C ,  6-C ) :   1.0027 B(  0-C , 18-C ) :   1.0795
B(  1-C ,  2-C ) :   1.1442 B(  1-C ,  4-C ) :   1.1402 B(  2-C ,  3-N ) :   2.9683
B(  4-C ,  5-N ) :   2.9857 B(  6-C ,  7-C ) :   1.2719 B(  6-C , 11-C ) :   1.4082
B(  7-C ,  8-C ) :   1.4256 B(  7-C , 16-C ) :   0.9464 B(  8-C ,  9-C ) :   1.2436
B(  8-C , 83-H ) :   1.0167 B(  9-C , 10-C ) :   1.3029 B(  9-C , 14-C ) :   1.1642
B( 10-C , 11-C ) :   1.3323 B( 10-C , 12-S ) :   1.0868 B( 11-C , 84-H ) :   0.9796
B( 12-S , 13-C ) :   1.0859 B( 13-C , 14-C ) :   1.6187 B( 13-C , 15-Br) :   1.0202
B( 14-C , 85-H ) :   0.9997 B( 16-C , 17-O ) :   2.1896 B( 16-C , 18-C ) :   0.9449
B( 18-C , 19-C ) :   1.5906 B( 19-C , 20-C ) :   1.2060 B( 19-C , 86-H ) :   0.9217
B( 20-C , 21-C ) :   1.4023 B( 20-C , 24-S ) :   1.0701 B( 21-C , 22-C ) :   1.3426
B( 21-C , 87-H ) :   0.9723 B( 22-C , 23-C ) :   1.3757 B( 22-C , 27-C ) :   0.9968
B( 23-C , 24-S ) :   1.1668 B( 23-C , 25-C ) :   1.2100 B( 25-C , 26-C ) :   1.4403
B( 25-C , 35-S ) :   1.1026 B( 26-C , 27-C ) :   0.9928 B( 26-C , 33-C ) :   1.3069
B( 27-C , 28-C ) :   1.7205 B( 28-C , 29-C ) :   1.1333 B( 28-C , 31-C ) :   1.1347
B( 29-C , 30-N ) :   2.9939 B( 31-C , 32-N ) :   2.9915 B( 33-C , 34-C ) :   1.4446
B( 33-C , 88-H ) :   0.9880 B( 34-C , 35-S ) :   1.1189 B( 34-C , 36-C ) :   1.1785
B( 36-C , 37-C ) :   1.5025 B( 36-C , 40-S ) :   1.0977 B( 37-C , 38-C ) :   1.2793
B( 37-C , 89-H ) :   0.9953 B( 38-C , 39-C ) :   1.4594 B( 38-C , 43-S ) :   1.0514
B( 39-C , 40-S ) :   1.0730 B( 39-C , 41-C ) :   1.3069 B( 41-C , 42-C ) :   1.4603
B( 41-C , 46-S ) :   1.0717 B( 42-C , 43-S ) :   1.0523 B( 42-C , 44-C ) :   1.2773
B( 44-C , 45-C ) :   1.5084 B( 44-C , 90-H ) :   0.9940 B( 45-C , 46-S ) :   1.0991
B( 45-C , 47-C ) :   1.1750 B( 47-C , 48-C ) :   1.4527 B( 47-C , 51-S ) :   1.1161
B( 48-C , 49-C ) :   1.3034 B( 48-C , 91-H ) :   0.9867 B( 49-C , 50-C ) :   1.4452
B( 49-C , 54-C ) :   0.9933 B( 50-C , 51-S ) :   1.1093 B( 50-C , 52-C ) :   1.1986
B( 52-C , 53-C ) :   1.4084 B( 52-C , 62-S ) :   1.1558 B( 53-C , 54-C ) :   0.9991
B( 53-C , 60-C ) :   1.3578 B( 54-C , 55-C ) :   1.7206 B( 55-C , 56-C ) :   1.1312
B( 55-C , 58-C ) :   1.1355 B( 56-C , 57-N ) :   2.9934 B( 58-C , 59-N ) :   2.9812
B( 60-C , 61-C ) :   1.3979 B( 60-C , 92-H ) :   0.9807 B( 61-C , 62-S ) :   1.0848
B( 61-C , 63-C ) :   1.1348 B( 63-C , 64-C ) :   1.6696 B( 63-C , 93-H ) :   0.9305
B( 64-C , 65-C ) :   1.0364 B( 64-C , 73-C ) :   0.9442 B( 65-C , 66-C ) :   1.6500
B( 65-C , 71-C ) :   1.0112 B( 66-C , 67-C ) :   1.1257 B( 66-C , 69-C ) :   1.1705
B( 67-C , 68-N ) :   2.9940 B( 69-C , 70-N ) :   2.9970 B( 71-C , 72-C ) :   1.2744
B( 71-C , 78-C ) :   1.4170 B( 72-C , 73-C ) :   0.9214 B( 72-C , 75-C ) :   1.4243
B( 73-C , 74-O ) :   2.2631 B( 75-C , 76-C ) :   1.2532 B( 75-C , 94-H ) :   1.0162
B( 76-C , 77-C ) :   1.3058 B( 76-C , 81-C ) :   1.1639 B( 77-C , 78-C ) :   1.3282
B( 77-C , 79-S ) :   1.0854 B( 78-C , 95-H ) :   0.9835 B( 79-S , 80-C ) :   1.0884
B( 80-C , 81-C ) :   1.6174 B( 80-C , 82-Br) :   1.0205 B( 81-C , 96-H ) :   1.0001

-----------------------------------------------------------------------------
         ABSORPTION SPECTRUM VIA TRANSITION ELECTRIC DIPOLE MOMENTS
-----------------------------------------------------------------------------
State   Energy  Wavelength   fosc         T2         TX        TY        TZ
        (cm-1)    (nm)                  (au**2)     (au)      (au)      (au)
-----------------------------------------------------------------------------
   0   12064.7    828.9   0.799834667  21.82527  -4.37806   0.78234  -1.43031
   1   12833.1    779.2   0.064187803   1.64663   1.26947   0.15628  -0.10322
   2   18809.2    531.7   1.818545309  31.82949  -5.11656   1.23253  -2.03254
   3   20252.6    493.8   0.303322690   4.93060   2.16151   0.49894  -0.09761
   4   21047.5    475.1   0.113126329   1.76945  -1.25193  -0.42371   0.15030
   5   21791.9    458.9   0.246925667   3.73033  -1.75388   0.28278  -0.75782
   6   25143.0    397.7   0.167301767   2.19058  -1.40012   0.41449  -0.24173
   7   25571.1    391.1   0.082909627   1.06741  -0.71895   0.08996  -0.73649
   8   25934.4    385.6   0.503823844   6.39555  -2.51358  -0.22258  -0.16716
   9   26517.8    377.1   0.001249614   0.01551   0.01468  -0.01621   0.12262
  10   26896.4    371.8   0.010970192   0.13428  -0.14855   0.09525   0.32114
  11   27146.7    368.4   0.065337667   0.79236  -0.33991  -0.56939   0.59382
  12   27439.0    364.4   0.007259463   0.08710   0.26646   0.06743  -0.10747
  13   27738.5    360.5   0.059746448   0.70910  -0.66496  -0.02690  -0.51595
  14   28001.6    357.1   0.015320548   0.18012  -0.32277  -0.05019  -0.27096
  15   28419.0    351.9   0.231016992   2.67615   1.18021  -0.65675   0.92300
  16   28811.9    347.1   0.070561719   0.80626  -0.03346  -0.24785  -0.86239
  17   28899.6    346.0   0.081064828   0.92346   0.76164  -0.14923   0.56664
  18   29157.8    343.0   0.022257822   0.25131   0.42746   0.04972  -0.25713
  19   29538.7    338.5   0.048487899   0.54040  -0.55380  -0.25823   0.40869
  20   29732.1    336.3   0.187861421   2.08011  -1.29818  -0.17689  -0.60296
  21   30207.0    331.0   0.110022242   1.19908  -0.73736  -0.21380  -0.78081
  22   30333.2    329.7   0.268902288   2.91844  -1.39978  -0.74416   0.63661
  23   31004.8    322.5   0.048491250   0.51488   0.62447  -0.32403   0.14116
  24   31190.0    320.6   1.010824633  10.66931   0.87264  -0.22045  -3.13994
  25   31878.5    313.7   0.057359072   0.59235  -0.12868   0.34986   0.67335
  26   32363.0    309.0   0.079949508   0.81329  -0.18779  -0.44226   0.76317
  27   32580.0    306.9   0.033739977   0.34093   0.40445   0.06429  -0.41620
  28   32701.6    305.8   0.204479410   2.05852   0.07146  -0.33642   1.39292
  29   32772.9    305.1   0.384668080   3.86409  -1.90078  -0.32878  -0.37820
  30   33312.1    300.2   0.020418517   0.20179  -0.31736  -0.28372   0.14346
  31   33626.1    297.4   0.000751221   0.00735   0.07158  -0.03631   0.03021
  32   33724.1    296.5   0.009791941   0.09559   0.12062   0.25031   0.13559
  33   34123.9    293.0   0.203485012   1.96313   1.39700   0.09241   0.05450
  34   34212.9    292.3   0.005360651   0.05158  -0.10453  -0.16788   0.11169
  35   34324.8    291.3   0.010329466   0.09907   0.30773  -0.04194  -0.05114
  36   34400.2    290.7   0.017133204   0.16397   0.27546  -0.27856   0.10244
  37   34504.0    289.8   0.332910441   3.17639  -0.26802  -0.85133   1.54266
  38   34586.9    289.1   0.051776275   0.49283   0.43310   0.13474   0.53581
  39   34779.4    287.5   0.198842433   1.88219   0.90696   0.01469  -1.02927
  40   34883.4    286.7   0.303868603   2.86776  -1.01484  -0.34722  -1.31046
  41   34977.5    285.9   0.163490476   1.53879  -0.08396   0.05548   1.23639
  42   35356.1    282.8   0.078481161   0.73076  -0.84551  -0.12549  -0.01098
  43   35450.8    282.1   0.225924987   2.09804  -1.43050  -0.11759   0.19462
  44   35981.6    277.9   0.008265310   0.07562  -0.25146  -0.03205   0.10661
  45   36608.9    273.2   0.010340998   0.09299  -0.29484   0.07545   0.01924
  46   36650.9    272.8   0.007372495   0.06622  -0.20019   0.12349   0.10439
  47   36686.1    272.6   0.036925501   0.33136   0.09723   0.11081  -0.55644
  48   37330.5    267.9   0.109989048   0.96998   0.11536  -0.01113  -0.97803
  49   37602.7    265.9   0.006956774   0.06091  -0.15837  -0.01769  -0.18845
  50   37924.0    263.7   0.015363482   0.13337   0.32323   0.12660   0.11341
  51   38167.0    262.0   0.011311565   0.09757   0.12517  -0.08905  -0.27197
  52   38239.8    261.5   0.001817835   0.01565  -0.06032   0.01355   0.10876
  53   38698.4    258.4   0.060352308   0.51342   0.70820  -0.01268  -0.10827
  54   38738.5    258.1   0.019384646   0.16474   0.15218   0.03894   0.37425
  55   38954.1    256.7   0.008117468   0.06860   0.06282   0.15472  -0.20179
  56   39134.9    255.5   0.040514028   0.34081   0.40097  -0.20099  -0.37368
  57   39236.2    254.9   0.079931421   0.67067   0.26703   0.07120  -0.77090
  58   39440.6    253.5   0.049097537   0.40982  -0.25273   0.24478  -0.53482
  59   39456.7    253.4   0.119604286   0.99793  -0.31513   0.08393  -0.94424
  60   39672.4    252.1   0.093284414   0.77410  -0.13088   0.21257  -0.84367
  61   39962.2    250.2   0.026251226   0.21626   0.00335  -0.41085   0.21784
  62   40083.1    249.5   0.064888981   0.53295   0.69220  -0.08954   0.21400

FINAL SINGLE POINT ENERGY    -11686.109844985867

DIPOLE MOMENT
-------------
                                X             Y             Z
Electronic contribution:     22.27590      33.71764     -79.53193
Nuclear contribution   :    -24.77595     -33.55894      81.17569
                        -----------------------------------------
Total Dipole Moment    :     -2.50004       0.15870       1.64376
                        -----------------------------------------
Magnitude (a.u.)       :      2.99622
Magnitude (Debye)      :      7.61579

Rotational constants in cm-1:     0.001369     0.000079     0.000076
Rotational constants in MHz :    41.050999     2.373967     2.271737

                             ****ORCA TERMINATED NORMALLY****
TOTAL RUN TIME: 0 days 0 hours 12 minutes 29 seconds 926 msec
