                         Program Version 4.2.0 -  RELEASE  -
|  1> # ORCA input file
|  2> # SCF done       -176.832637797007          0.000591579781
|  3> ! CAM-B3LYP def2-SVP def2/J RIJCOSX Grid4 TightSCF
|  4> %maxcore 5000
|  5> %tddft
|  6>     Mode sTDDFT
|  7>     Ethresh 5.0
|  8>     maxcore 5000
|  9> end
| 10>
| 11> %pal
| 12>   nprocs 6
| 13>   end
| 14> * xyz 0 1
| 15>    C       -1.83424        -0.06479         0.41201
| 16>    C       -2.06946        -1.20805         1.12669
| 17>    C       -1.13200        -2.25203         1.28275
| 18>    N       -0.41374        -3.13103         1.45176
| 19>    C       -3.27902        -1.53080         1.78010
| 20>    N       -4.22922        -1.88615         2.31720
| 21>    C       -0.62571         0.23052        -0.34423
| 22>    C       -0.80371         1.45561        -1.03178
| 23>    C        0.16156         1.99267        -1.84902
| 24>    C        1.35628         1.28283        -2.00409
| 25>    C        1.52729         0.06071        -1.30947
| 26>    C        0.55560        -0.47812        -0.47680
| 27>    S        3.07623        -0.65261        -1.64318
| 28>    C        3.46535         0.67817        -2.70035
| 29>    C        2.48908         1.61189        -2.79744
| 30>   Br        5.12189         0.70866        -3.57779
| 31>    C       -2.13487         2.01456        -0.72452
| 32>    O       -2.55938         3.08362        -1.09633
| 33>    C       -2.77288         1.02794         0.19720
| 34>    C       -3.95086         1.20493         0.84140
| 35>    C       -4.90722         2.22898         0.52278
| 36>    C       -5.60799         2.89825         1.51426
| 37>    F       -5.44375         2.54049         2.79531
| 38>    C       -6.43574         4.00032         1.25472
| 39>    F       -7.04715         4.56992         2.30926
| 40>    C       -6.61020         4.52875        -0.01483
| 41>    C       -6.04497         3.76174        -1.06618
| 42>    C       -5.21345         2.62008        -0.80399
| 43>    N       -4.83026         2.01873        -1.92653
| 44>    S       -5.40369         2.84003        -3.17787
| 45>    N       -6.19441         3.97946        -2.37064
| 46>    C       -7.32326         5.74901        -0.31092
| 47>    C       -7.33677         6.94748         0.37803
| 48>    C       -8.21021         7.90706        -0.24515
| 49>    C       -8.48096         9.22534         0.11587
| 50>    C       -9.36596         9.97392        -0.64648
| 51>    C       -9.98762         9.43232        -1.78440
| 52>    C       -9.70870         8.14270        -2.16976
| 53>    C       -8.82280         7.39077        -1.40637
| 54>    S       -8.31258         5.77186        -1.74788
| 55>    C       -9.64354        11.30936        -0.27307
| 56>    N       -9.86694        12.39238         0.02867
| 57>    C       -6.52604         7.21083         1.53679
| 58>    C       -5.29774         6.66440         1.84126
| 59>    C       -4.83508         7.05623         3.09935
| 60>    C       -5.70427         7.95456         3.74287
| 61>    S       -7.10294         8.26608         2.82395
| 62>    C       -5.13177         8.32890         4.98172
| 63>    C       -3.91075         7.65305         5.13480
| 64>    C       -3.71208         6.78946         3.97431
| 65>    C       -2.74531         5.83922         3.81540
| 66>    C       -2.75532         4.91902         2.74767
| 67>    N       -2.77624         4.12688         1.91773
| 68>    C       -1.70529         5.66286         4.75179
| 69>    N       -0.84737         5.52399         5.50008
| 70>    C       -3.27005         7.95293         6.33127
| 71>    C       -3.98371         8.86398         7.10351
| 72>    S       -5.48306         9.33720         6.31721
| 73>    C       -3.58094         9.36627         8.36182
| 74>    C       -4.19212        10.28325         9.23306
| 75>    C       -3.42084        10.50644        10.41822
| 76>    C       -3.89461        11.40199        11.39983
| 77>    C       -5.08221        12.04652        11.20884
| 78>    C       -5.84062        11.82874        10.04321
| 79>    C       -5.41293        10.96806         9.07216
| 80>    C       -2.23268         9.76704        10.45061
| 81>    S       -2.07599         8.80639         9.02617
| 82>    C       -1.23931         9.75352        11.47820
| 83>    C       -0.12376         9.02138        11.45218
| 84>    H       -0.00339         2.92936        -2.35797
| 85>    H        0.73585        -1.40895         0.03435
| 86>    H        2.56295         2.49617        -3.40373
| 87>    H       -4.19866         0.58274         1.69231
| 88>    H       -8.01079         9.67778         0.97468
| 89>    H      -10.67378        10.04147        -2.35254
| 90>    H      -10.16205         7.71318        -3.04886
| 91>    H       -4.75232         6.02860         1.16690
| 92>    H       -2.32640         7.54499         6.64608
| 93>    H       -3.31537        11.57112        12.29411
| 94>    H       -5.45195        12.73335        11.95507
| 95>    H       -6.77566        12.35378         9.92005
| 96>    H       -6.00873        10.81556         8.18730
| 97>    H       -1.43996        10.39644        12.32444
| 98>    H        0.10434         8.37093        10.62402
| 99>    H        0.58860         9.05267        12.25662
|100> *
|101>
|102>                          ****END OF INPUT****

CARTESIAN COORDINATES (ANGSTROEM)
---------------------------------
  C     -1.834240   -0.064790    0.412010
  C     -2.069460   -1.208050    1.126690
  C     -1.132000   -2.252030    1.282750
  N     -0.413740   -3.131030    1.451760
  C     -3.279020   -1.530800    1.780100
  N     -4.229220   -1.886150    2.317200
  C     -0.625710    0.230520   -0.344230
  C     -0.803710    1.455610   -1.031780
  C      0.161560    1.992670   -1.849020
  C      1.356280    1.282830   -2.004090
  C      1.527290    0.060710   -1.309470
  C      0.555600   -0.478120   -0.476800
  S      3.076230   -0.652610   -1.643180
  C      3.465350    0.678170   -2.700350
  C      2.489080    1.611890   -2.797440
  Br     5.121890    0.708660   -3.577790
  C     -2.134870    2.014560   -0.724520
  O     -2.559380    3.083620   -1.096330
  C     -2.772880    1.027940    0.197200
  C     -3.950860    1.204930    0.841400
  C     -4.907220    2.228980    0.522780
  C     -5.607990    2.898250    1.514260
  F     -5.443750    2.540490    2.795310
  C     -6.435740    4.000320    1.254720
  F     -7.047150    4.569920    2.309260
  C     -6.610200    4.528750   -0.014830
  C     -6.044970    3.761740   -1.066180
  C     -5.213450    2.620080   -0.803990
  N     -4.830260    2.018730   -1.926530
  S     -5.403690    2.840030   -3.177870
  N     -6.194410    3.979460   -2.370640
  C     -7.323260    5.749010   -0.310920
  C     -7.336770    6.947480    0.378030
  C     -8.210210    7.907060   -0.245150
  C     -8.480960    9.225340    0.115870
  C     -9.365960    9.973920   -0.646480
  C     -9.987620    9.432320   -1.784400
  C     -9.708700    8.142700   -2.169760
  C     -8.822800    7.390770   -1.406370
  S     -8.312580    5.771860   -1.747880
  C     -9.643540   11.309360   -0.273070
  N     -9.866940   12.392380    0.028670
  C     -6.526040    7.210830    1.536790
  C     -5.297740    6.664400    1.841260
  C     -4.835080    7.056230    3.099350
  C     -5.704270    7.954560    3.742870
  S     -7.102940    8.266080    2.823950
  C     -5.131770    8.328900    4.981720
  C     -3.910750    7.653050    5.134800
  C     -3.712080    6.789460    3.974310
  C     -2.745310    5.839220    3.815400
  C     -2.755320    4.919020    2.747670
  N     -2.776240    4.126880    1.917730
  C     -1.705290    5.662860    4.751790
  N     -0.847370    5.523990    5.500080
  C     -3.270050    7.952930    6.331270
  C     -3.983710    8.863980    7.103510
  S     -5.483060    9.337200    6.317210
  C     -3.580940    9.366270    8.361820
  C     -4.192120   10.283250    9.233060
  C     -3.420840   10.506440   10.418220
  C     -3.894610   11.401990   11.399830
  C     -5.082210   12.046520   11.208840
  C     -5.840620   11.828740   10.043210
  C     -5.412930   10.968060    9.072160
  C     -2.232680    9.767040   10.450610
  S     -2.075990    8.806390    9.026170
  C     -1.239310    9.753520   11.478200
  C     -0.123760    9.021380   11.452180
  H     -0.003390    2.929360   -2.357970
  H      0.735850   -1.408950    0.034350
  H      2.562950    2.496170   -3.403730
  H     -4.198660    0.582740    1.692310
  H     -8.010790    9.677780    0.974680
  H    -10.673780   10.041470   -2.352540
  H    -10.162050    7.713180   -3.048860
  H     -4.752320    6.028600    1.166900
  H     -2.326400    7.544990    6.646080
  H     -3.315370   11.571120   12.294110
  H     -5.451950   12.733350   11.955070
  H     -6.775660   12.353780    9.920050
  H     -6.008730   10.815560    8.187300
  H     -1.439960   10.396440   12.324440
  H      0.104340    8.370930   10.624020
  H      0.588600    9.052670   12.256620

 Total Charge           Charge          ....    0
 Multiplicity           Mult            ....    1
 Number of Electrons    NEL             ....  534
 Basis Dimension        Dim             .... 1088

ORBITAL ENERGIES
----------------

  NO   OCC          E(Eh)            E(eV)
   0   2.0000    -482.886696    -13140.0150
   1   2.0000     -89.032724     -2422.7036
   2   2.0000     -88.989422     -2421.5253
   3   2.0000     -88.988004     -2421.4867
   4   2.0000     -88.976576     -2421.1757
   5   2.0000     -88.970136     -2421.0005
   6   2.0000     -88.967195     -2420.9205
   7   2.0000     -62.564438     -1702.4649
   8   2.0000     -56.398391     -1534.6782
   9   2.0000     -56.395666     -1534.6041
  10   2.0000     -56.395637     -1534.6033
  11   2.0000     -24.811295      -675.1497
  12   2.0000     -24.809612      -675.1039
  13   2.0000     -19.216488      -522.9072
  14   2.0000     -14.447619      -393.1397
  15   2.0000     -14.444074      -393.0432
  16   2.0000     -14.434449      -392.7813
  17   2.0000     -14.429314      -392.6416
  18   2.0000     -14.417619      -392.3234
  19   2.0000     -14.417138      -392.3103
  20   2.0000     -14.403047      -391.9268
  21   2.0000     -10.394428      -282.8468
  22   2.0000     -10.392489      -282.7940
  23   2.0000     -10.367341      -282.1097
  24   2.0000     -10.363460      -282.0041
  25   2.0000     -10.360319      -281.9186
  26   2.0000     -10.352275      -281.6997
  27   2.0000     -10.346131      -281.5325
  28   2.0000     -10.343070      -281.4492
  29   2.0000     -10.339436      -281.3504
  30   2.0000     -10.336999      -281.2840
  31   2.0000     -10.335792      -281.2512
  32   2.0000     -10.331309      -281.1292
  33   2.0000     -10.330348      -281.1031
  34   2.0000     -10.329885      -281.0905
  35   2.0000     -10.328919      -281.0642
  36   2.0000     -10.327966      -281.0382
  37   2.0000     -10.326966      -281.0110
  38   2.0000     -10.323742      -280.9233
  39   2.0000     -10.322229      -280.8821
  40   2.0000     -10.320959      -280.8476
  41   2.0000     -10.320131      -280.8250
  42   2.0000     -10.319929      -280.8195
  43   2.0000     -10.319338      -280.8035
  44   2.0000     -10.317014      -280.7402
  45   2.0000     -10.316663      -280.7307
  46   2.0000     -10.315219      -280.6914
  47   2.0000     -10.312533      -280.6183
  48   2.0000     -10.309504      -280.5359
  49   2.0000     -10.309254      -280.5291
  50   2.0000     -10.308041      -280.4961
  51   2.0000     -10.306905      -280.4651
  52   2.0000     -10.304765      -280.4069
  53   2.0000     -10.303907      -280.3836
  54   2.0000     -10.303492      -280.3723
  55   2.0000     -10.302686      -280.3503
  56   2.0000     -10.301658      -280.3224
  57   2.0000     -10.301465      -280.3171
  58   2.0000     -10.300177      -280.2821
  59   2.0000     -10.298982      -280.2495
  60   2.0000     -10.298553      -280.2379
  61   2.0000     -10.298073      -280.2248
  62   2.0000     -10.297864      -280.2191
  63   2.0000     -10.296090      -280.1708
  64   2.0000     -10.293132      -280.0904
  65   2.0000     -10.289072      -279.9799
  66   2.0000     -10.286619      -279.9131
  67   2.0000     -10.286067      -279.8981
  68   2.0000     -10.280474      -279.7459
  69   2.0000     -10.279909      -279.7306
  70   2.0000     -10.277845      -279.6744
  71   2.0000     -10.275915      -279.6219
  72   2.0000     -10.271855      -279.5114
  73   2.0000      -8.793889      -239.2939
  74   2.0000      -8.124363      -221.0752
  75   2.0000      -8.083669      -219.9678
  76   2.0000      -8.081897      -219.9196
  77   2.0000      -8.072588      -219.6663
  78   2.0000      -8.065143      -219.4637
  79   2.0000      -8.062580      -219.3940
  80   2.0000      -6.630219      -180.4174
  81   2.0000      -6.615616      -180.0201
  82   2.0000      -6.615402      -180.0142
  83   2.0000      -6.095541      -165.8681
  84   2.0000      -6.087835      -165.6584
  85   2.0000      -6.086801      -165.6303
  86   2.0000      -6.052881      -164.7073
  87   2.0000      -6.051255      -164.6630
  88   2.0000      -6.048643      -164.5919
  89   2.0000      -6.047034      -164.5482
  90   2.0000      -6.046215      -164.5259
  91   2.0000      -6.044189      -164.4707
  92   2.0000      -6.042298      -164.4193
  93   2.0000      -6.037991      -164.3021
  94   2.0000      -6.034157      -164.1978
  95   2.0000      -6.033790      -164.1878
  96   2.0000      -6.032114      -164.1422
  97   2.0000      -6.030065      -164.0864
  98   2.0000      -6.027894      -164.0273
  99   2.0000      -6.027864      -164.0265
 100   2.0000      -6.024097      -163.9240
 101   2.0000      -2.746036       -74.7234
 102   2.0000      -2.742018       -74.6141
 103   2.0000      -2.741850       -74.6095
 104   2.0000      -2.730231       -74.2934
 105   2.0000      -2.730224       -74.2932
 106   2.0000      -1.333157       -36.2771
 107   2.0000      -1.315622       -35.7999
 108   2.0000      -1.137454       -30.9517
 109   2.0000      -1.129711       -30.7410
 110   2.0000      -1.043033       -28.3824
 111   2.0000      -1.024396       -27.8752
 112   2.0000      -1.024122       -27.8678
 113   2.0000      -1.019452       -27.7407
 114   2.0000      -1.015079       -27.6217
 115   2.0000      -1.009160       -27.4606
 116   2.0000      -1.005636       -27.3647
 117   2.0000      -0.995873       -27.0991
 118   2.0000      -0.994236       -27.0545
 119   2.0000      -0.993166       -27.0254
 120   2.0000      -0.989588       -26.9281
 121   2.0000      -0.987131       -26.8612
 122   2.0000      -0.983908       -26.7735
 123   2.0000      -0.957982       -26.0680
 124   2.0000      -0.949557       -25.8387
 125   2.0000      -0.943737       -25.6804
 126   2.0000      -0.934370       -25.4255
 127   2.0000      -0.916953       -24.9516
 128   2.0000      -0.912767       -24.8377
 129   2.0000      -0.909816       -24.7574
 130   2.0000      -0.895777       -24.3753
 131   2.0000      -0.887206       -24.1421
 132   2.0000      -0.885564       -24.0974
 133   2.0000      -0.882379       -24.0108
 134   2.0000      -0.872017       -23.7288
 135   2.0000      -0.867289       -23.6001
 136   2.0000      -0.859217       -23.3805
 137   2.0000      -0.853593       -23.2274
 138   2.0000      -0.850308       -23.1381
 139   2.0000      -0.841524       -22.8990
 140   2.0000      -0.833080       -22.6693
 141   2.0000      -0.830176       -22.5902
 142   2.0000      -0.828428       -22.5427
 143   2.0000      -0.809688       -22.0327
 144   2.0000      -0.790981       -21.5237
 145   2.0000      -0.776517       -21.1301
 146   2.0000      -0.769000       -20.9256
 147   2.0000      -0.763499       -20.7759
 148   2.0000      -0.754740       -20.5375
 149   2.0000      -0.741391       -20.1743
 150   2.0000      -0.733942       -19.9716
 151   2.0000      -0.727123       -19.7860
 152   2.0000      -0.715799       -19.4779
 153   2.0000      -0.712868       -19.3981
 154   2.0000      -0.708439       -19.2776
 155   2.0000      -0.706686       -19.2299
 156   2.0000      -0.693536       -18.8721
 157   2.0000      -0.692137       -18.8340
 158   2.0000      -0.688105       -18.7243
 159   2.0000      -0.684355       -18.6222
 160   2.0000      -0.675707       -18.3869
 161   2.0000      -0.665641       -18.1130
 162   2.0000      -0.660709       -17.9788
 163   2.0000      -0.656648       -17.8683
 164   2.0000      -0.654329       -17.8052
 165   2.0000      -0.644213       -17.5299
 166   2.0000      -0.639106       -17.3909
 167   2.0000      -0.638270       -17.3682
 168   2.0000      -0.635238       -17.2857
 169   2.0000      -0.625164       -17.0116
 170   2.0000      -0.619368       -16.8539
 171   2.0000      -0.616377       -16.7725
 172   2.0000      -0.608609       -16.5611
 173   2.0000      -0.603163       -16.4129
 174   2.0000      -0.599740       -16.3198
 175   2.0000      -0.595201       -16.1962
 176   2.0000      -0.594082       -16.1658
 177   2.0000      -0.588309       -16.0087
 178   2.0000      -0.580999       -15.8098
 179   2.0000      -0.574547       -15.6342
 180   2.0000      -0.570014       -15.5109
 181   2.0000      -0.566824       -15.4241
 182   2.0000      -0.559650       -15.2288
 183   2.0000      -0.557907       -15.1814
 184   2.0000      -0.555134       -15.1060
 185   2.0000      -0.548642       -14.9293
 186   2.0000      -0.547351       -14.8942
 187   2.0000      -0.545355       -14.8399
 188   2.0000      -0.544012       -14.8033
 189   2.0000      -0.539834       -14.6896
 190   2.0000      -0.536850       -14.6084
 191   2.0000      -0.535502       -14.5717
 192   2.0000      -0.531511       -14.4631
 193   2.0000      -0.527903       -14.3650
 194   2.0000      -0.523618       -14.2484
 195   2.0000      -0.522724       -14.2241
 196   2.0000      -0.519043       -14.1239
 197   2.0000      -0.515187       -14.0189
 198   2.0000      -0.511426       -13.9166
 199   2.0000      -0.511053       -13.9065
 200   2.0000      -0.509319       -13.8593
 201   2.0000      -0.508117       -13.8266
 202   2.0000      -0.506082       -13.7712
 203   2.0000      -0.499291       -13.5864
 204   2.0000      -0.497456       -13.5365
 205   2.0000      -0.496087       -13.4992
 206   2.0000      -0.495009       -13.4699
 207   2.0000      -0.494482       -13.4555
 208   2.0000      -0.490570       -13.3491
 209   2.0000      -0.488069       -13.2810
 210   2.0000      -0.480637       -13.0788
 211   2.0000      -0.476995       -12.9797
 212   2.0000      -0.476541       -12.9673
 213   2.0000      -0.475393       -12.9361
 214   2.0000      -0.470820       -12.8117
 215   2.0000      -0.467464       -12.7203
 216   2.0000      -0.463050       -12.6002
 217   2.0000      -0.460421       -12.5287
 218   2.0000      -0.459832       -12.5127
 219   2.0000      -0.457451       -12.4479
 220   2.0000      -0.454667       -12.3721
 221   2.0000      -0.450667       -12.2633
 222   2.0000      -0.450235       -12.2515
 223   2.0000      -0.448111       -12.1937
 224   2.0000      -0.446833       -12.1589
 225   2.0000      -0.444786       -12.1032
 226   2.0000      -0.443586       -12.0706
 227   2.0000      -0.441315       -12.0088
 228   2.0000      -0.440572       -11.9886
 229   2.0000      -0.438807       -11.9406
 230   2.0000      -0.437101       -11.8941
 231   2.0000      -0.433720       -11.8021
 232   2.0000      -0.431576       -11.7438
 233   2.0000      -0.430764       -11.7217
 234   2.0000      -0.429728       -11.6935
 235   2.0000      -0.428142       -11.6503
 236   2.0000      -0.427106       -11.6221
 237   2.0000      -0.425386       -11.5753
 238   2.0000      -0.419756       -11.4221
 239   2.0000      -0.418266       -11.3816
 240   2.0000      -0.414430       -11.2772
 241   2.0000      -0.410581       -11.1725
 242   2.0000      -0.410299       -11.1648
 243   2.0000      -0.408336       -11.1114
 244   2.0000      -0.407124       -11.0784
 245   2.0000      -0.400624       -10.9015
 246   2.0000      -0.397499       -10.8165
 247   2.0000      -0.390383       -10.6229
 248   2.0000      -0.384908       -10.4739
 249   2.0000      -0.376167       -10.2360
 250   2.0000      -0.375612       -10.2209
 251   2.0000      -0.369797       -10.0627
 252   2.0000      -0.356101        -9.6900
 253   2.0000      -0.347741        -9.4625
 254   2.0000      -0.347027        -9.4431
 255   2.0000      -0.343464        -9.3461
 256   2.0000      -0.339464        -9.2373
 257   2.0000      -0.328110        -8.9283
 258   2.0000      -0.324279        -8.8241
 259   2.0000      -0.322106        -8.7650
 260   2.0000      -0.319314        -8.6890
 261   2.0000      -0.315611        -8.5882
 262   2.0000      -0.310398        -8.4464
 263   2.0000      -0.297249        -8.0886
 264   2.0000      -0.293005        -7.9731
 265   2.0000      -0.273360        -7.4385
 266   2.0000      -0.229933        -6.2568
 267   0.0000      -0.106129        -2.8879
 268   0.0000      -0.100571        -2.7367
 269   0.0000      -0.072118        -1.9624
 270   0.0000      -0.061692        -1.6787
 271   0.0000      -0.046556        -1.2669

MULLIKEN ATOMIC CHARGES
-----------------------
   0 C :    0.296952
   1 C :   -0.342360
   2 C :   -0.182452
   3 N :    0.153315
   4 C :   -0.199269
   5 N :    0.167838
   6 C :    0.020149
   7 C :   -0.019256
   8 C :   -0.071124
   9 C :    0.122168
  10 C :   -0.091460
  11 C :   -0.019684
  12 S :    0.188389
  13 C :   -0.122376
  14 C :    0.036925
  15 Br:    0.025600
  16 C :    0.173496
  17 O :   -0.141085
  18 C :   -0.040023
  19 C :   -0.057462
  20 C :    0.027167
  21 C :    0.199004
  22 F :   -0.158068
  23 C :    0.127839
  24 F :   -0.159620
  25 C :    0.000269
  26 C :    0.024438
  27 C :    0.026429
  28 N :   -0.261830
  29 S :    0.524359
  30 N :   -0.283122
  31 C :   -0.198873
  32 C :    0.218119
  33 C :    0.078526
  34 C :   -0.049619
  35 C :   -0.096536
  36 C :    0.038808
  37 C :    0.010071
  38 C :   -0.063571
  39 S :    0.201070
  40 C :   -0.146867
  41 N :    0.100864
  42 C :   -0.185739
  43 C :   -0.020442
  44 C :   -0.006171
  45 C :   -0.077609
  46 S :    0.185124
  47 C :   -0.098124
  48 C :    0.030892
  49 C :    0.309592
  50 C :   -0.306197
  51 C :   -0.185322
  52 N :    0.170838
  53 C :   -0.187866
  54 N :    0.171962
  55 C :   -0.082701
  56 C :   -0.053990
  57 S :    0.158907
  58 C :   -0.102745
  59 C :    0.098540
  60 C :    0.100435
  61 C :   -0.026353
  62 C :    0.023856
  63 C :    0.026851
  64 C :   -0.046187
  65 C :   -0.105334
  66 S :    0.148362
  67 C :    0.001546
  68 C :   -0.025094
  69 H :   -0.012329
  70 H :   -0.006681
  71 H :   -0.002584
  72 H :    0.038654
  73 H :   -0.004082
  74 H :    0.001805
  75 H :   -0.011212
  76 H :    0.022406
  77 H :    0.015083
  78 H :   -0.025398
  79 H :   -0.012290
  80 H :   -0.011891
  81 H :   -0.016544
  82 H :   -0.006378
  83 H :    0.027868
  84 H :    0.029401
Sum of atomic charges:   -0.0000000

LOEWDIN ATOMIC CHARGES
----------------------
   0 C :    0.076263
   1 C :   -0.130251
   2 C :   -0.016920
   3 N :   -0.048466
   4 C :   -0.023112
   5 N :   -0.043454
   6 C :   -0.021129
   7 C :   -0.046331
   8 C :    0.021981
   9 C :   -0.030683
  10 C :   -0.143058
  11 C :   -0.008684
  12 S :    0.433457
  13 C :   -0.270512
  14 C :   -0.070670
  15 Br:    0.138446
  16 C :    0.089682
  17 O :   -0.129220
  18 C :   -0.058279
  19 C :    0.079232
  20 C :   -0.051231
  21 C :    0.090391
  22 F :   -0.035848
  23 C :    0.068122
  24 F :   -0.036899
  25 C :   -0.064024
  26 C :   -0.050232
  27 C :   -0.034690
  28 N :   -0.271752
  29 S :    0.660472
  30 N :   -0.296380
  31 C :   -0.148906
  32 C :   -0.058479
  33 C :   -0.045089
  34 C :    0.006836
  35 C :   -0.073518
  36 C :    0.008282
  37 C :   -0.030144
  38 C :   -0.143924
  39 S :    0.468338
  40 C :   -0.030355
  41 N :   -0.059648
  42 C :   -0.170401
  43 C :   -0.027120
  44 C :   -0.080486
  45 C :   -0.171760
  46 S :    0.493532
  47 C :   -0.197668
  48 C :   -0.062092
  49 C :    0.088849
  50 C :   -0.107716
  51 C :   -0.007454
  52 N :   -0.042309
  53 C :   -0.016911
  54 N :   -0.034231
  55 C :   -0.044864
  56 C :   -0.169494
  57 S :    0.486333
  58 C :   -0.196544
  59 C :   -0.046259
  60 C :   -0.043349
  61 C :   -0.010303
  62 C :   -0.026381
  63 C :   -0.017035
  64 C :   -0.030496
  65 C :   -0.172633
  66 S :    0.494834
  67 C :   -0.040936
  68 C :   -0.042412
  69 H :    0.040445
  70 H :    0.041080
  71 H :    0.039056
  72 H :    0.048329
  73 H :    0.022913
  74 H :    0.041152
  75 H :    0.035783
  76 H :    0.039956
  77 H :    0.032814
  78 H :    0.028253
  79 H :    0.030237
  80 H :    0.030797
  81 H :    0.012104
  82 H :    0.034730
  83 H :    0.019378
  84 H :    0.028667

  Mayer bond orders larger than 0.100000
B(  0-C ,  1-C ) :   1.6545 B(  0-C ,  6-C ) :   1.0122 B(  0-C , 18-C ) :   1.0499
B(  1-C ,  2-C ) :   1.1371 B(  1-C ,  4-C ) :   1.1428 B(  2-C ,  3-N ) :   2.9715
B(  4-C ,  5-N ) :   2.9851 B(  6-C ,  7-C ) :   1.2737 B(  6-C , 11-C ) :   1.3980
B(  7-C ,  8-C ) :   1.4221 B(  7-C , 16-C ) :   0.9525 B(  8-C ,  9-C ) :   1.2469
B(  8-C , 69-H ) :   1.0169 B(  9-C , 10-C ) :   1.3012 B(  9-C , 14-C ) :   1.1628
B( 10-C , 11-C ) :   1.3397 B( 10-C , 12-S ) :   1.0862 B( 11-C , 70-H ) :   0.9797
B( 12-S , 13-C ) :   1.0859 B( 13-C , 14-C ) :   1.6177 B( 13-C , 15-Br) :   1.0195
B( 14-C , 71-H ) :   1.0003 B( 16-C , 17-O ) :   2.2122 B( 16-C , 18-C ) :   0.9215
B( 18-C , 19-C ) :   1.7102 B( 19-C , 20-C ) :   1.0548 B( 19-C , 72-H ) :   0.9362
B( 20-C , 21-C ) :   1.4120 B( 20-C , 25-C ) :   0.1264 B( 20-C , 27-C ) :   1.1905
B( 21-C , 22-F ) :   1.1719 B( 21-C , 23-C ) :   1.1279 B( 23-C , 24-F ) :   1.1561
B( 23-C , 25-C ) :   1.4308 B( 25-C , 26-C ) :   1.1951 B( 25-C , 31-C ) :   1.0228
B( 26-C , 27-C ) :   1.1578 B( 26-C , 30-N ) :   1.5347 B( 27-C , 28-N ) :   1.5423
B( 28-N , 29-S ) :   1.2757 B( 28-N , 30-N ) :   0.1455 B( 29-S , 30-N ) :   1.2657
B( 31-C , 32-C ) :   1.5696 B( 31-C , 39-S ) :   1.1145 B( 32-C , 33-C ) :   1.1332
B( 32-C , 42-C ) :   1.0379 B( 33-C , 34-C ) :   1.2889 B( 33-C , 38-C ) :   1.3102
B( 34-C , 35-C ) :   1.4411 B( 34-C , 73-H ) :   0.9743 B( 35-C , 36-C ) :   1.3207
B( 35-C , 40-C ) :   1.0587 B( 36-C , 37-C ) :   1.4359 B( 36-C , 74-H ) :   0.9932
B( 37-C , 38-C ) :   1.3265 B( 37-C , 75-H ) :   0.9950 B( 38-C , 39-S ) :   1.0768
B( 40-C , 41-N ) :   3.0522 B( 42-C , 43-C ) :   1.5082 B( 42-C , 46-S ) :   1.0972
B( 43-C , 44-C ) :   1.2832 B( 43-C , 76-H ) :   0.9775 B( 44-C , 45-C ) :   1.4332
B( 44-C , 49-C ) :   0.9982 B( 45-C , 46-S ) :   1.1353 B( 45-C , 47-C ) :   1.1764
B( 47-C , 48-C ) :   1.4425 B( 47-C , 57-S ) :   1.1047 B( 48-C , 49-C ) :   0.9846
B( 48-C , 55-C ) :   1.3165 B( 49-C , 50-C ) :   1.7006 B( 50-C , 51-C ) :   1.1377
B( 50-C , 53-C ) :   1.1365 B( 51-C , 52-N ) :   2.9768 B( 53-C , 54-N ) :   2.9921
B( 55-C , 56-C ) :   1.4196 B( 55-C , 77-H ) :   0.9848 B( 56-C , 57-S ) :   1.1140
B( 56-C , 58-C ) :   1.1955 B( 58-C , 59-C ) :   1.3502 B( 58-C , 65-C ) :   0.1118
B( 58-C , 66-S ) :   1.1612 B( 59-C , 60-C ) :   1.2036 B( 59-C , 64-C ) :   1.1930
B( 60-C , 61-C ) :   1.2044 B( 60-C , 65-C ) :   1.3500 B( 61-C , 62-C ) :   1.5586
B( 61-C , 78-H ) :   0.9915 B( 62-C , 63-C ) :   1.2128 B( 62-C , 79-H ) :   0.9858
B( 63-C , 64-C ) :   1.5703 B( 63-C , 80-H ) :   0.9835 B( 64-C , 81-H ) :   0.9782
B( 65-C , 66-S ) :   1.1453 B( 65-C , 67-C ) :   1.1442 B( 67-C , 68-C ) :   1.9021
B( 67-C , 82-H ) :   0.9590 B( 68-C , 83-H ) :   0.9573 B( 68-C , 84-H ) :   0.9490

-----------------------------------------------------------------------------
         ABSORPTION SPECTRUM VIA TRANSITION ELECTRIC DIPOLE MOMENTS
-----------------------------------------------------------------------------
State   Energy  Wavelength   fosc         T2         TX        TY        TZ
        (cm-1)    (nm)                  (au**2)     (au)      (au)      (au)
-----------------------------------------------------------------------------
   0    9781.5   1022.3   0.142278076   4.78861  -0.53738  -0.89852  -1.92159
   1   15423.9    648.3   0.238416776   5.08884  -0.15759   1.69649   1.47849
   2   20102.5    497.4   0.038758576   0.63474  -0.53347   0.26989  -0.52660
   3   21168.6    472.4   0.835961967  13.00079   1.30624   1.08293   3.18148
   4   22769.8    439.2   0.359763864   5.20157   1.50620  -1.66025   0.42013
   5   23929.8    417.9   0.182645942   2.51273   1.19863  -0.99064   0.30767
   6   25406.6    393.6   0.019493118   0.25259  -0.09715   0.49303   0.00821
   7   25876.9    386.4   0.051880415   0.66003  -0.13196   0.32685  -0.73198
   8   26420.7    378.5   0.139388755   1.73684   1.11694   0.36845  -0.59459
   9   26908.4    371.6   0.272542310   3.33443  -1.56622   0.91762   0.19843
  10   28672.4    348.8   0.041618001   0.47785  -0.57388  -0.18041  -0.34054
  11   28757.6    347.7   0.036591802   0.41890  -0.46733   0.20536  -0.39791
  12   28908.2    345.9   0.015756890   0.17944   0.11465  -0.24719  -0.32434
  13   29637.2    337.4   0.055999287   0.62204  -0.57908  -0.13684  -0.51767
  14   30017.4    333.1   0.081885437   0.89807  -0.49684   0.24723  -0.76817
  15   30721.8    325.5   0.081762304   0.87616  -0.79807  -0.21139   0.44109
  16   30949.6    323.1   0.200804410   2.13597  -1.13282   0.64891   0.65696
  17   31059.2    322.0   0.032088449   0.34012  -0.28186   0.48155   0.16967
  18   31423.8    318.2   0.230741416   2.41737  -1.25563   0.75918   0.51422
  19   31881.7    313.7   0.026875333   0.27752   0.47841   0.04421   0.21608
  20   32067.9    311.8   0.087417847   0.89744   0.73424  -0.49150   0.34169
  21   32491.9    307.8   0.470374728   4.76589   1.37274   1.13569  -1.26163
  22   32584.9    306.9   0.198783052   2.00834   1.36327  -0.27364   0.27376
  23   32647.7    306.3   0.134257040   1.35382  -0.89630   0.72660  -0.15008
  24   33095.8    302.2   0.072835742   0.72452  -0.38088   0.71305   0.26646
  25   33152.0    301.6   0.041983955   0.41692   0.18141   0.14173  -0.60326
  26   33318.1    300.1   0.089834624   0.88764  -0.50044   0.32211   0.73038
  27   33408.8    299.3   0.164887890   1.62481   0.80473  -0.87076  -0.46797
  28   33899.2    295.0   0.079799694   0.77497  -0.60446  -0.50081  -0.39849
  29   34132.6    293.0   0.062750426   0.60523  -0.17307  -0.49770  -0.57234
  30   34482.4    290.0   0.017375284   0.16589  -0.24215   0.31139   0.10141
  31   34920.7    286.4   0.065055595   0.61331  -0.09020  -0.31387   0.71180
  32   35000.6    285.7   0.197178672   1.85464  -0.52156  -0.40244  -1.19192
  33   35701.9    280.1   0.101731553   0.93808   0.14768   0.69099  -0.66243
  34   35913.2    278.4   0.045479149   0.41690  -0.21592   0.23552  -0.56108
  35   36107.9    276.9   0.038595211   0.35189   0.47857  -0.27858   0.21273
  36   36374.6    274.9   0.032567866   0.29476  -0.13352  -0.05550   0.52331
  37   36498.2    274.0   0.056735380   0.51175  -0.41120   0.42902  -0.39826
  38   36872.0    271.2   0.042027084   0.37524  -0.10323   0.01920   0.60350
  39   37094.4    269.6   0.013414390   0.11905  -0.00037  -0.02082   0.34441
  40   37464.2    266.9   0.021726794   0.19092   0.07921   0.42924   0.01995
  41   38125.7    262.3   0.219837861   1.89828   0.60362  -1.14729   0.46654
  42   38424.3    260.3   0.077725284   0.66594   0.35818  -0.62750  -0.37932
  43   38503.6    259.7   0.034137653   0.29188  -0.09823   0.50447  -0.16657
  44   38740.7    258.1   0.014853326   0.12622   0.13203   0.03620   0.32784
  45   39094.0    255.8   0.067283345   0.56660   0.59753  -0.25592  -0.37954
  46   39169.1    255.3   0.094548999   0.79467   0.18367   0.48653   0.72403
  47   39266.9    254.7   0.066806607   0.56010   0.51681  -0.54001  -0.03746
  48   39595.7    252.6   0.003296430   0.02741   0.03048  -0.15967   0.03134
  49   39744.6    251.6   0.003610743   0.02991  -0.03294   0.09034  -0.14374
  50   39814.2    251.2   0.018101270   0.14967  -0.00929  -0.04942  -0.38360
  51   39997.6    250.0   0.075462685   0.62112  -0.48637   0.57172  -0.24021
  52   40144.1    249.1   0.022170746   0.18182   0.28144   0.18113  -0.26420
  53   40304.2    248.1   0.020776606   0.16971  -0.01652   0.15760  -0.38026

FINAL SINGLE POINT ENERGY     -7608.264733226742

DIPOLE MOMENT
-------------
                                X             Y             Z
Electronic contribution:     78.32954     -79.03105     -93.92914
Nuclear contribution   :    -78.10114      80.78069      93.22707
                        -----------------------------------------
Total Dipole Moment    :      0.22840       1.74964      -0.70207
                        -----------------------------------------
Magnitude (a.u.)       :      1.89903
Magnitude (Debye)      :      4.82695

Rotational constants in cm-1:     0.000899     0.000428     0.000332
Rotational constants in MHz :    26.941470    12.831180     9.949045

                             ****ORCA TERMINATED NORMALLY****
TOTAL RUN TIME: 0 days 0 hours 8 minutes 30 seconds 937 msec
