                         Program Version 4.2.0 -  RELEASE  -
|  1> # ORCA input file
|  2> # SCF done       -214.755535277768          0.000878269222
|  3> ! CAM-B3LYP def2-SVP def2/J RIJCOSX Grid4 TightSCF
|  4> %maxcore 5000
|  5> %tddft
|  6>     Mode sTDDFT
|  7>     Ethresh 5.0
|  8>     maxcore 5000
|  9> end
| 10>
| 11> %pal
| 12>   nprocs 6
| 13>   end
| 14> * xyz 0 1
| 15>    C       -2.44819        -1.50923        -2.82962
| 16>    C       -2.82727        -2.79001        -2.52093
| 17>    C       -2.17235        -3.94368        -3.00083
| 18>    N       -1.68545        -4.91653        -3.36646
| 19>    C       -3.89026        -3.13412        -1.65910
| 20>    N       -4.72453        -3.48744        -0.95365
| 21>    C       -1.28905        -1.13469        -3.62841
| 22>    C       -1.14467         0.27334        -3.58283
| 23>    C       -0.13660         0.93793        -4.23800
| 24>    C        0.77315         0.17501        -4.97707
| 25>    C        0.61860        -1.23190        -5.02185
| 26>    C       -0.39994        -1.90328        -4.35694
| 27>    S        1.84504        -1.97808        -5.99987
| 28>    C        2.54043        -0.41316        -6.32946
| 29>    C        1.88918         0.61690        -5.73838
| 30>   Br        4.05732        -0.28740        -7.42406
| 31>    C       -2.22183         0.85800        -2.76175
| 32>    O       -2.39354         2.03772        -2.54512
| 33>    C       -3.07250        -0.28790        -2.35225
| 34>    C       -4.33126        -0.21555        -1.82422
| 35>    C       -4.99309         0.89942        -1.26996
| 36>    C       -4.50937         2.08264        -0.72685
| 37>    C       -5.53159         2.91265        -0.28675
| 38>    C       -6.81719         2.36603        -0.49701
| 39>    S       -6.75761         0.81387        -1.18679
| 40>    C       -7.77943         3.31807        -0.09199
| 41>    C       -7.11534         4.46244         0.38782
| 42>    C       -5.67927         4.23136         0.31021
| 43>    C       -4.68397         5.06113         0.73033
| 44>    C       -3.31755         4.71328         0.64104
| 45>    N       -2.20467         4.44291         0.59886
| 46>    C       -4.94065         6.31651         1.32495
| 47>    N       -5.12695         7.33472         1.81668
| 48>    C       -7.98945         5.48019         0.76027
| 49>    C       -9.31687         5.12640         0.57188
| 50>    S       -9.47624         3.49504        -0.07028
| 51>    C      -10.44099         5.97503         0.74918
| 52>    C      -11.79400         5.77059         0.73835
| 53>    C      -12.47608         7.05130         0.79259
| 54>    N      -11.53171         8.03394         0.88774
| 55>    C      -10.26566         7.45682         0.88656
| 56>    O       -9.24474         8.09392         0.97503
| 57>    C      -11.70517         9.45130         1.06431
| 58>    C      -13.82823         6.84790         0.73002
| 59>    C      -14.00367         5.35888         0.70779
| 60>    O      -15.02414         4.71550         0.69869
| 61>    N      -12.73681         4.78380         0.69427
| 62>    C      -12.56315         3.35656         0.74924
| 63>    C      -14.95040         7.70853         0.60656
| 64>    C      -16.28142         7.32586         0.67640
| 65>    C      -17.14804         8.38241         0.41077
| 66>    C      -16.47625         9.58739         0.13126
| 67>    S      -14.78166         9.41541         0.20699
| 68>    C      -17.43120        10.58462        -0.17660
| 69>    C      -18.71496        10.00668        -0.09725
| 70>    C      -18.57947         8.60942         0.28083
| 71>    C      -19.59156         7.71085         0.44145
| 72>    C      -19.37805         6.37046         0.82979
| 73>    N      -19.22785         5.28444         1.16314
| 74>    C      -20.93711         8.08356         0.23303
| 75>    N      -22.02508         8.40266         0.06132
| 76>    C      -19.72594        10.88991        -0.45039
| 77>    C      -19.23395        12.13916        -0.80153
| 78>    S      -17.48271        12.21887        -0.64672
| 79>    C      -19.94354        13.28785        -1.21480
| 80>    C      -21.19808        13.37153        -1.73729
| 81>    C      -22.11451        12.39554        -2.29036
| 82>    C      -21.78804        11.23124        -2.93673
| 83>    C      -22.72917        10.39703        -3.57682
| 84>    N      -23.45065         9.68849        -4.11868
| 85>    C      -20.46959        10.77783        -3.13407
| 86>    N      -19.41315        10.38286        -3.34963
| 87>    C      -23.44000        13.00619        -2.29977
| 88>    C      -23.30988        14.38597        -1.99883
| 89>    C      -21.89509        14.68970        -1.71521
| 90>    O      -21.39552        15.76304        -1.47017
| 91>    C      -24.38545        15.24076        -1.98160
| 92>    C      -25.64756        14.70687        -2.26241
| 93>    C      -25.76876        13.32346        -2.54082
| 94>    C      -24.68061        12.45967        -2.56581
| 95>    S      -27.41811        12.87485        -2.84598
| 96>    C      -27.91649        14.52867        -2.60716
| 97>    C      -26.90146        15.37481        -2.30965
| 98>   Br      -29.72820        14.98178        -2.77132
| 99>    H       -0.05322         2.01185        -4.18069
|100>    H       -0.47912        -2.97529        -4.42650
|101>    H        2.18158         1.64652        -5.83489
|102>    H       -4.93867        -1.11236        -1.86950
|103>    H       -3.46226         2.31084        -0.66465
|104>    H       -7.70444         6.44641         1.13509
|105>    H      -12.38156         9.65596         1.89387
|106>    H      -12.08721         9.91816         0.15551
|107>    H      -10.72035         9.86291         1.28675
|108>    H      -13.55158         2.92478         0.90820
|109>    H      -11.90734         3.08091         1.57482
|110>    H      -12.15585         2.97207        -0.18685
|111>    H      -16.57446         6.31541         0.89689
|112>    H      -20.77614        10.66289        -0.42410
|113>    H      -19.45473        14.24309        -1.04768
|114>    H      -24.25791        16.28865        -1.75999
|115>    H      -24.82015        11.41165        -2.77323
|116>    H      -27.02995        16.42671        -2.13106
|117> *
|118>
|119>                          ****END OF INPUT****

CARTESIAN COORDINATES (ANGSTROEM)
---------------------------------
  C     -2.448190   -1.509230   -2.829620
  C     -2.827270   -2.790010   -2.520930
  C     -2.172350   -3.943680   -3.000830
  N     -1.685450   -4.916530   -3.366460
  C     -3.890260   -3.134120   -1.659100
  N     -4.724530   -3.487440   -0.953650
  C     -1.289050   -1.134690   -3.628410
  C     -1.144670    0.273340   -3.582830
  C     -0.136600    0.937930   -4.238000
  C      0.773150    0.175010   -4.977070
  C      0.618600   -1.231900   -5.021850
  C     -0.399940   -1.903280   -4.356940
  S      1.845040   -1.978080   -5.999870
  C      2.540430   -0.413160   -6.329460
  C      1.889180    0.616900   -5.738380
  Br     4.057320   -0.287400   -7.424060
  C     -2.221830    0.858000   -2.761750
  O     -2.393540    2.037720   -2.545120
  C     -3.072500   -0.287900   -2.352250
  C     -4.331260   -0.215550   -1.824220
  C     -4.993090    0.899420   -1.269960
  C     -4.509370    2.082640   -0.726850
  C     -5.531590    2.912650   -0.286750
  C     -6.817190    2.366030   -0.497010
  S     -6.757610    0.813870   -1.186790
  C     -7.779430    3.318070   -0.091990
  C     -7.115340    4.462440    0.387820
  C     -5.679270    4.231360    0.310210
  C     -4.683970    5.061130    0.730330
  C     -3.317550    4.713280    0.641040
  N     -2.204670    4.442910    0.598860
  C     -4.940650    6.316510    1.324950
  N     -5.126950    7.334720    1.816680
  C     -7.989450    5.480190    0.760270
  C     -9.316870    5.126400    0.571880
  S     -9.476240    3.495040   -0.070280
  C    -10.440990    5.975030    0.749180
  C    -11.794000    5.770590    0.738350
  C    -12.476080    7.051300    0.792590
  N    -11.531710    8.033940    0.887740
  C    -10.265660    7.456820    0.886560
  O     -9.244740    8.093920    0.975030
  C    -11.705170    9.451300    1.064310
  C    -13.828230    6.847900    0.730020
  C    -14.003670    5.358880    0.707790
  O    -15.024140    4.715500    0.698690
  N    -12.736810    4.783800    0.694270
  C    -12.563150    3.356560    0.749240
  C    -14.950400    7.708530    0.606560
  C    -16.281420    7.325860    0.676400
  C    -17.148040    8.382410    0.410770
  C    -16.476250    9.587390    0.131260
  S    -14.781660    9.415410    0.206990
  C    -17.431200   10.584620   -0.176600
  C    -18.714960   10.006680   -0.097250
  C    -18.579470    8.609420    0.280830
  C    -19.591560    7.710850    0.441450
  C    -19.378050    6.370460    0.829790
  N    -19.227850    5.284440    1.163140
  C    -20.937110    8.083560    0.233030
  N    -22.025080    8.402660    0.061320
  C    -19.725940   10.889910   -0.450390
  C    -19.233950   12.139160   -0.801530
  S    -17.482710   12.218870   -0.646720
  C    -19.943540   13.287850   -1.214800
  C    -21.198080   13.371530   -1.737290
  C    -22.114510   12.395540   -2.290360
  C    -21.788040   11.231240   -2.936730
  C    -22.729170   10.397030   -3.576820
  N    -23.450650    9.688490   -4.118680
  C    -20.469590   10.777830   -3.134070
  N    -19.413150   10.382860   -3.349630
  C    -23.440000   13.006190   -2.299770
  C    -23.309880   14.385970   -1.998830
  C    -21.895090   14.689700   -1.715210
  O    -21.395520   15.763040   -1.470170
  C    -24.385450   15.240760   -1.981600
  C    -25.647560   14.706870   -2.262410
  C    -25.768760   13.323460   -2.540820
  C    -24.680610   12.459670   -2.565810
  S    -27.418110   12.874850   -2.845980
  C    -27.916490   14.528670   -2.607160
  C    -26.901460   15.374810   -2.309650
  Br   -29.728200   14.981780   -2.771320
  H     -0.053220    2.011850   -4.180690
  H     -0.479120   -2.975290   -4.426500
  H      2.181580    1.646520   -5.834890
  H     -4.938670   -1.112360   -1.869500
  H     -3.462260    2.310840   -0.664650
  H     -7.704440    6.446410    1.135090
  H    -12.381560    9.655960    1.893870
  H    -12.087210    9.918160    0.155510
  H    -10.720350    9.862910    1.286750
  H    -13.551580    2.924780    0.908200
  H    -11.907340    3.080910    1.574820
  H    -12.155850    2.972070   -0.186850
  H    -16.574460    6.315410    0.896890
  H    -20.776140   10.662890   -0.424100
  H    -19.454730   14.243090   -1.047680
  H    -24.257910   16.288650   -1.759990
  H    -24.820150   11.411650   -2.773230
  H    -27.029950   16.426710   -2.131060

 Total Charge           Charge          ....    0
 Multiplicity           Mult            ....    1
 Number of Electrons    NEL             ....  658
 Basis Dimension        Dim             .... 1326

ORBITAL ENERGIES
----------------

  NO   OCC          E(Eh)            E(eV)
   0   2.0000    -482.887249    -13140.0301
   1   2.0000    -482.887058    -13140.0249
   2   2.0000     -89.001513     -2421.8543
   3   2.0000     -89.000925     -2421.8383
   4   2.0000     -89.000245     -2421.8198
   5   2.0000     -88.999342     -2421.7952
   6   2.0000     -88.977834     -2421.2099
   7   2.0000     -88.977399     -2421.1981
   8   2.0000     -62.564963     -1702.4792
   9   2.0000     -62.564752     -1702.4734
  10   2.0000     -56.398918     -1534.6926
  11   2.0000     -56.398706     -1534.6868
  12   2.0000     -56.396194     -1534.6185
  13   2.0000     -56.396163     -1534.6176
  14   2.0000     -56.395984     -1534.6128
  15   2.0000     -56.395954     -1534.6119
  16   2.0000     -19.230386      -523.2854
  17   2.0000     -19.229788      -523.2691
  18   2.0000     -19.221118      -523.0332
  19   2.0000     -19.219582      -522.9914
  20   2.0000     -14.485035      -394.1579
  21   2.0000     -14.484822      -394.1521
  22   2.0000     -14.436368      -392.8335
  23   2.0000     -14.432810      -392.7367
  24   2.0000     -14.432644      -392.7322
  25   2.0000     -14.432544      -392.7295
  26   2.0000     -14.421291      -392.4233
  27   2.0000     -14.418535      -392.3483
  28   2.0000     -14.417144      -392.3104
  29   2.0000     -14.417108      -392.3094
  30   2.0000     -10.411102      -283.3005
  31   2.0000     -10.410636      -283.2878
  32   2.0000     -10.372872      -282.2602
  33   2.0000     -10.371496      -282.2228
  34   2.0000     -10.371308      -282.2176
  35   2.0000     -10.370709      -282.2013
  36   2.0000     -10.363027      -281.9923
  37   2.0000     -10.362319      -281.9730
  38   2.0000     -10.360957      -281.9360
  39   2.0000     -10.360739      -281.9300
  40   2.0000     -10.357547      -281.8432
  41   2.0000     -10.357274      -281.8358
  42   2.0000     -10.349222      -281.6167
  43   2.0000     -10.347785      -281.5775
  44   2.0000     -10.347199      -281.5616
  45   2.0000     -10.347046      -281.5574
  46   2.0000     -10.344912      -281.4994
  47   2.0000     -10.344159      -281.4789
  48   2.0000     -10.342042      -281.4213
  49   2.0000     -10.341102      -281.3957
  50   2.0000     -10.341039      -281.3940
  51   2.0000     -10.340481      -281.3788
  52   2.0000     -10.336424      -281.2684
  53   2.0000     -10.332111      -281.1510
  54   2.0000     -10.331923      -281.1459
  55   2.0000     -10.331905      -281.1454
  56   2.0000     -10.331829      -281.1434
  57   2.0000     -10.331073      -281.1228
  58   2.0000     -10.330695      -281.1125
  59   2.0000     -10.328985      -281.0660
  60   2.0000     -10.328599      -281.0555
  61   2.0000     -10.327859      -281.0353
  62   2.0000     -10.327845      -281.0349
  63   2.0000     -10.327688      -281.0307
  64   2.0000     -10.324541      -280.9450
  65   2.0000     -10.324001      -280.9303
  66   2.0000     -10.322891      -280.9002
  67   2.0000     -10.321551      -280.8637
  68   2.0000     -10.320003      -280.8215
  69   2.0000     -10.319577      -280.8100
  70   2.0000     -10.316136      -280.7163
  71   2.0000     -10.315285      -280.6932
  72   2.0000     -10.313250      -280.6378
  73   2.0000     -10.312207      -280.6094
  74   2.0000     -10.312186      -280.6088
  75   2.0000     -10.311697      -280.5955
  76   2.0000     -10.311696      -280.5955
  77   2.0000     -10.310610      -280.5660
  78   2.0000     -10.310303      -280.5576
  79   2.0000     -10.309791      -280.5437
  80   2.0000     -10.308503      -280.5086
  81   2.0000     -10.308072      -280.4969
  82   2.0000     -10.305522      -280.4275
  83   2.0000     -10.304736      -280.4061
  84   2.0000     -10.304681      -280.4046
  85   2.0000     -10.304633      -280.4033
  86   2.0000     -10.304430      -280.3978
  87   2.0000     -10.303155      -280.3631
  88   2.0000     -10.298784      -280.2442
  89   2.0000     -10.298315      -280.2314
  90   2.0000     -10.296480      -280.1815
  91   2.0000     -10.294950      -280.1398
  92   2.0000      -8.794393      -239.3076
  93   2.0000      -8.794167      -239.3014
  94   2.0000      -8.095797      -220.2978
  95   2.0000      -8.095134      -220.2798
  96   2.0000      -8.094977      -220.2755
  97   2.0000      -8.094264      -220.2561
  98   2.0000      -8.073819      -219.6998
  99   2.0000      -8.073415      -219.6888
 100   2.0000      -6.630717      -180.4310
 101   2.0000      -6.630479      -180.4245
 102   2.0000      -6.616112      -180.0336
 103   2.0000      -6.615912      -180.0281
 104   2.0000      -6.615898      -180.0277
 105   2.0000      -6.615690      -180.0221
 106   2.0000      -6.065132      -165.0406
 107   2.0000      -6.064465      -165.0225
 108   2.0000      -6.064158      -165.0141
 109   2.0000      -6.063401      -164.9935
 110   2.0000      -6.060895      -164.9253
 111   2.0000      -6.060218      -164.9069
 112   2.0000      -6.059980      -164.9004
 113   2.0000      -6.059249      -164.8805
 114   2.0000      -6.058085      -164.8489
 115   2.0000      -6.057460      -164.8319
 116   2.0000      -6.057439      -164.8313
 117   2.0000      -6.056740      -164.8123
 118   2.0000      -6.043501      -164.4520
 119   2.0000      -6.043082      -164.4406
 120   2.0000      -6.039227      -164.3357
 121   2.0000      -6.038834      -164.3250
 122   2.0000      -6.035052      -164.2221
 123   2.0000      -6.034645      -164.2110
 124   2.0000      -2.746579       -74.7382
 125   2.0000      -2.746366       -74.7324
 126   2.0000      -2.742512       -74.6276
 127   2.0000      -2.742318       -74.6223
 128   2.0000      -2.742254       -74.6205
 129   2.0000      -2.742095       -74.6162
 130   2.0000      -2.730734       -74.3070
 131   2.0000      -2.730717       -74.3066
 132   2.0000      -2.730514       -74.3011
 133   2.0000      -2.730496       -74.3006
 134   2.0000      -1.174842       -31.9691
 135   2.0000      -1.167786       -31.7771
 136   2.0000      -1.137034       -30.9403
 137   2.0000      -1.135227       -30.8911
 138   2.0000      -1.107457       -30.1354
 139   2.0000      -1.075053       -29.2537
 140   2.0000      -1.053788       -28.6750
 141   2.0000      -1.053720       -28.6732
 142   2.0000      -1.027434       -27.9579
 143   2.0000      -1.026408       -27.9300
 144   2.0000      -1.025799       -27.9134
 145   2.0000      -1.025181       -27.8966
 146   2.0000      -1.017375       -27.6842
 147   2.0000      -1.015904       -27.6442
 148   2.0000      -1.011646       -27.5283
 149   2.0000      -1.010283       -27.4912
 150   2.0000      -1.007995       -27.4290
 151   2.0000      -1.007383       -27.4123
 152   2.0000      -0.997605       -27.1462
 153   2.0000      -0.996738       -27.1226
 154   2.0000      -0.993035       -27.0219
 155   2.0000      -0.992435       -27.0055
 156   2.0000      -0.969720       -26.3874
 157   2.0000      -0.968664       -26.3587
 158   2.0000      -0.946511       -25.7559
 159   2.0000      -0.945988       -25.7417
 160   2.0000      -0.945478       -25.7278
 161   2.0000      -0.937539       -25.5117
 162   2.0000      -0.923236       -25.1225
 163   2.0000      -0.916545       -24.9405
 164   2.0000      -0.911752       -24.8100
 165   2.0000      -0.910788       -24.7838
 166   2.0000      -0.898944       -24.4615
 167   2.0000      -0.895693       -24.3730
 168   2.0000      -0.888982       -24.1904
 169   2.0000      -0.888137       -24.1674
 170   2.0000      -0.878622       -23.9085
 171   2.0000      -0.877539       -23.8791
 172   2.0000      -0.867026       -23.5930
 173   2.0000      -0.864799       -23.5324
 174   2.0000      -0.863487       -23.4967
 175   2.0000      -0.861433       -23.4408
 176   2.0000      -0.837986       -22.8028
 177   2.0000      -0.834378       -22.7046
 178   2.0000      -0.831854       -22.6359
 179   2.0000      -0.831050       -22.6140
 180   2.0000      -0.806554       -21.9475
 181   2.0000      -0.800929       -21.7944
 182   2.0000      -0.788984       -21.4694
 183   2.0000      -0.786360       -21.3980
 184   2.0000      -0.782308       -21.2877
 185   2.0000      -0.775918       -21.1138
 186   2.0000      -0.765986       -20.8435
 187   2.0000      -0.762431       -20.7468
 188   2.0000      -0.755344       -20.5540
 189   2.0000      -0.735084       -20.0027
 190   2.0000      -0.728587       -19.8259
 191   2.0000      -0.716507       -19.4971
 192   2.0000      -0.714386       -19.4394
 193   2.0000      -0.707959       -19.2645
 194   2.0000      -0.703583       -19.1455
 195   2.0000      -0.697474       -18.9792
 196   2.0000      -0.695777       -18.9330
 197   2.0000      -0.693473       -18.8704
 198   2.0000      -0.690024       -18.7765
 199   2.0000      -0.685126       -18.6432
 200   2.0000      -0.682998       -18.5853
 201   2.0000      -0.677225       -18.4282
 202   2.0000      -0.664077       -18.0705
 203   2.0000      -0.662076       -18.0160
 204   2.0000      -0.651695       -17.7335
 205   2.0000      -0.649354       -17.6698
 206   2.0000      -0.643667       -17.5151
 207   2.0000      -0.639434       -17.3999
 208   2.0000      -0.637011       -17.3339
 209   2.0000      -0.629254       -17.1229
 210   2.0000      -0.627383       -17.0720
 211   2.0000      -0.625740       -17.0272
 212   2.0000      -0.624370       -16.9900
 213   2.0000      -0.621969       -16.9246
 214   2.0000      -0.616671       -16.7805
 215   2.0000      -0.612370       -16.6634
 216   2.0000      -0.608832       -16.5672
 217   2.0000      -0.602751       -16.4017
 218   2.0000      -0.601153       -16.3582
 219   2.0000      -0.594122       -16.1669
 220   2.0000      -0.591827       -16.1044
 221   2.0000      -0.586732       -15.9658
 222   2.0000      -0.583311       -15.8727
 223   2.0000      -0.577390       -15.7116
 224   2.0000      -0.568606       -15.4726
 225   2.0000      -0.567250       -15.4356
 226   2.0000      -0.556470       -15.1423
 227   2.0000      -0.555710       -15.1216
 228   2.0000      -0.554567       -15.0905
 229   2.0000      -0.552871       -15.0444
 230   2.0000      -0.551139       -14.9973
 231   2.0000      -0.546233       -14.8638
 232   2.0000      -0.544757       -14.8236
 233   2.0000      -0.543906       -14.8004
 234   2.0000      -0.540937       -14.7196
 235   2.0000      -0.539046       -14.6682
 236   2.0000      -0.537658       -14.6304
 237   2.0000      -0.533797       -14.5254
 238   2.0000      -0.529838       -14.4176
 239   2.0000      -0.527060       -14.3420
 240   2.0000      -0.525071       -14.2879
 241   2.0000      -0.521115       -14.1803
 242   2.0000      -0.520330       -14.1589
 243   2.0000      -0.519882       -14.1467
 244   2.0000      -0.518515       -14.1095
 245   2.0000      -0.516186       -14.0461
 246   2.0000      -0.512345       -13.9416
 247   2.0000      -0.511830       -13.9276
 248   2.0000      -0.511524       -13.9193
 249   2.0000      -0.509848       -13.8737
 250   2.0000      -0.506743       -13.7892
 251   2.0000      -0.504997       -13.7417
 252   2.0000      -0.504109       -13.7175
 253   2.0000      -0.502847       -13.6832
 254   2.0000      -0.502285       -13.6679
 255   2.0000      -0.498634       -13.5685
 256   2.0000      -0.496668       -13.5150
 257   2.0000      -0.494748       -13.4628
 258   2.0000      -0.493354       -13.4249
 259   2.0000      -0.490745       -13.3539
 260   2.0000      -0.487735       -13.2719
 261   2.0000      -0.485351       -13.2071
 262   2.0000      -0.484363       -13.1802
 263   2.0000      -0.480514       -13.0755
 264   2.0000      -0.479169       -13.0389
 265   2.0000      -0.475978       -12.9520
 266   2.0000      -0.473564       -12.8863
 267   2.0000      -0.465754       -12.6738
 268   2.0000      -0.462873       -12.5954
 269   2.0000      -0.462205       -12.5772
 270   2.0000      -0.461357       -12.5542
 271   2.0000      -0.461118       -12.5477
 272   2.0000      -0.460212       -12.5230
 273   2.0000      -0.459253       -12.4969
 274   2.0000      -0.458035       -12.4638
 275   2.0000      -0.457582       -12.4514
 276   2.0000      -0.454440       -12.3659
 277   2.0000      -0.451334       -12.2814
 278   2.0000      -0.450196       -12.2504
 279   2.0000      -0.450043       -12.2463
 280   2.0000      -0.448942       -12.2163
 281   2.0000      -0.448318       -12.1994
 282   2.0000      -0.446043       -12.1374
 283   2.0000      -0.445940       -12.1346
 284   2.0000      -0.443983       -12.0814
 285   2.0000      -0.443195       -12.0599
 286   2.0000      -0.442757       -12.0480
 287   2.0000      -0.441842       -12.0231
 288   2.0000      -0.441680       -12.0187
 289   2.0000      -0.441131       -12.0038
 290   2.0000      -0.438903       -11.9432
 291   2.0000      -0.433931       -11.8079
 292   2.0000      -0.431022       -11.7287
 293   2.0000      -0.430385       -11.7114
 294   2.0000      -0.429345       -11.6831
 295   2.0000      -0.428513       -11.6604
 296   2.0000      -0.426497       -11.6056
 297   2.0000      -0.425962       -11.5910
 298   2.0000      -0.417644       -11.3647
 299   2.0000      -0.414344       -11.2749
 300   2.0000      -0.413546       -11.2532
 301   2.0000      -0.411992       -11.2109
 302   2.0000      -0.410976       -11.1832
 303   2.0000      -0.398011       -10.8304
 304   2.0000      -0.394158       -10.7256
 305   2.0000      -0.389092       -10.5877
 306   2.0000      -0.388390       -10.5686
 307   2.0000      -0.383718       -10.4415
 308   2.0000      -0.376579       -10.2472
 309   2.0000      -0.376336       -10.2406
 310   2.0000      -0.375132       -10.2079
 311   2.0000      -0.373634       -10.1671
 312   2.0000      -0.366898        -9.9838
 313   2.0000      -0.359632        -9.7861
 314   2.0000      -0.356337        -9.6964
 315   2.0000      -0.355798        -9.6818
 316   2.0000      -0.351417        -9.5625
 317   2.0000      -0.343505        -9.3472
 318   2.0000      -0.339765        -9.2455
 319   2.0000      -0.329766        -8.9734
 320   2.0000      -0.328481        -8.9384
 321   2.0000      -0.318091        -8.6557
 322   2.0000      -0.317931        -8.6513
 323   2.0000      -0.314771        -8.5654
 324   2.0000      -0.312072        -8.4919
 325   2.0000      -0.296760        -8.0753
 326   2.0000      -0.295734        -8.0473
 327   2.0000      -0.269088        -7.3222
 328   2.0000      -0.260561        -7.0902
 329   0.0000      -0.122487        -3.3330
 330   0.0000      -0.114121        -3.1054
 331   0.0000      -0.093358        -2.5404
 332   0.0000      -0.091227        -2.4824
 333   0.0000      -0.083335        -2.2677

MULLIKEN ATOMIC CHARGES
-----------------------
   0 C :    0.295447
   1 C :   -0.341732
   2 C :   -0.185355
   3 N :    0.154906
   4 C :   -0.206254
   5 N :    0.156819
   6 C :    0.017689
   7 C :   -0.018552
   8 C :   -0.069415
   9 C :    0.117757
  10 C :   -0.090499
  11 C :   -0.020870
  12 S :    0.187840
  13 C :   -0.122175
  14 C :    0.038752
  15 Br:    0.026121
  16 C :    0.151716
  17 O :   -0.149824
  18 C :   -0.096299
  19 C :    0.026472
  20 C :   -0.112975
  21 C :    0.037039
  22 C :   -0.023405
  23 C :   -0.078086
  24 S :    0.203821
  25 C :   -0.091071
  26 C :    0.047968
  27 C :    0.305444
  28 C :   -0.291089
  29 C :   -0.188509
  30 N :    0.185082
  31 C :   -0.193671
  32 N :    0.190388
  33 C :   -0.058781
  34 C :   -0.112909
  35 S :    0.153530
  36 C :   -0.089708
  37 C :    0.124663
  38 C :    0.124539
  39 N :   -0.238297
  40 C :    0.161037
  41 O :   -0.162137
  42 C :    0.113761
  43 C :   -0.088508
  44 C :    0.161021
  45 O :   -0.159479
  46 N :   -0.236285
  47 C :    0.113414
  48 C :   -0.113935
  49 C :   -0.061704
  50 C :    0.051224
  51 C :   -0.091831
  52 S :    0.151768
  53 C :   -0.067436
  54 C :   -0.001811
  55 C :    0.305317
  56 C :   -0.285905
  57 C :   -0.192565
  58 N :    0.192749
  59 C :   -0.186517
  60 N :    0.168926
  61 C :   -0.003922
  62 C :   -0.112421
  63 S :    0.213051
  64 C :    0.075577
  65 C :   -0.129274
  66 C :    0.266897
  67 C :   -0.333249
  68 C :   -0.174590
  69 N :    0.161744
  70 C :   -0.199727
  71 N :    0.168002
  72 C :   -0.004803
  73 C :    0.003103
  74 C :    0.132066
  75 O :   -0.143709
  76 C :   -0.069166
  77 C :    0.111989
  78 C :   -0.090181
  79 C :   -0.013364
  80 S :    0.190612
  81 C :   -0.124998
  82 C :    0.040492
  83 Br:    0.026104
  84 H :   -0.005899
  85 H :   -0.003968
  86 H :   -0.001568
  87 H :    0.023403
  88 H :    0.031862
  89 H :    0.034833
  90 H :    0.040541
  91 H :    0.049018
  92 H :    0.067581
  93 H :    0.068196
  94 H :    0.041274
  95 H :    0.049209
  96 H :    0.036059
  97 H :    0.025424
  98 H :    0.022743
  99 H :   -0.007977
 100 H :    0.003540
 101 H :   -0.002124
Sum of atomic charges:    0.0000000

LOEWDIN ATOMIC CHARGES
----------------------
   0 C :    0.075439
   1 C :   -0.142012
   2 C :   -0.018995
   3 N :   -0.051907
   4 C :   -0.025305
   5 N :   -0.052744
   6 C :   -0.021491
   7 C :   -0.050374
   8 C :    0.023937
   9 C :   -0.031727
  10 C :   -0.143515
  11 C :   -0.009433
  12 S :    0.434013
  13 C :   -0.270876
  14 C :   -0.069644
  15 Br:    0.138868
  16 C :    0.084744
  17 O :   -0.137412
  18 C :   -0.094887
  19 C :    0.042208
  20 C :   -0.177794
  21 C :    0.024356
  22 C :   -0.072667
  23 C :   -0.161102
  24 S :    0.490498
  25 C :   -0.189258
  26 C :   -0.054028
  27 C :    0.074650
  28 C :   -0.088767
  29 C :   -0.018471
  30 N :   -0.019371
  31 C :   -0.020079
  32 N :   -0.019387
  33 C :   -0.017578
  34 C :   -0.155203
  35 S :    0.482707
  36 C :   -0.121358
  37 C :    0.045890
  38 C :    0.043347
  39 N :   -0.019885
  40 C :    0.105475
  41 O :   -0.150816
  42 C :    0.025068
  43 C :   -0.118399
  44 C :    0.106606
  45 O :   -0.148146
  46 N :   -0.019370
  47 C :    0.025608
  48 C :   -0.158913
  49 C :   -0.015200
  50 C :   -0.057395
  51 C :   -0.183250
  52 S :    0.483412
  53 C :   -0.160575
  54 C :   -0.063965
  55 C :    0.079854
  56 C :   -0.091708
  57 C :   -0.021280
  58 N :   -0.017343
  59 C :   -0.011888
  60 N :   -0.031740
  61 C :    0.007538
  62 C :   -0.181296
  63 S :    0.497365
  64 C :    0.041732
  65 C :   -0.090187
  66 C :    0.066208
  67 C :   -0.137097
  68 C :   -0.019745
  69 N :   -0.045369
  70 C :   -0.015396
  71 N :   -0.048272
  72 C :   -0.017705
  73 C :   -0.053948
  74 C :    0.083426
  75 O :   -0.143166
  76 C :    0.023477
  77 C :   -0.032787
  78 C :   -0.142483
  79 C :   -0.008738
  80 S :    0.436358
  81 C :   -0.271185
  82 C :   -0.070196
  83 Br:    0.138781
  84 H :    0.042518
  85 H :    0.041445
  86 H :    0.039567
  87 H :    0.044027
  88 H :    0.045546
  89 H :    0.045386
  90 H :    0.025835
  91 H :    0.020546
  92 H :    0.045400
  93 H :    0.045722
  94 H :    0.026667
  95 H :    0.020271
  96 H :    0.045408
  97 H :    0.042807
  98 H :    0.046106
  99 H :    0.041812
 100 H :    0.043009
 101 H :    0.039190

  Mayer bond orders larger than 0.100000
B(  0-C ,  1-C ) :   1.6356 B(  0-C ,  6-C ) :   1.0061 B(  0-C , 18-C ) :   1.0709
B(  1-C ,  2-C ) :   1.1399 B(  1-C ,  4-C ) :   1.1410 B(  2-C ,  3-N ) :   2.9744
B(  4-C ,  5-N ) :   2.9925 B(  6-C ,  7-C ) :   1.2717 B(  6-C , 11-C ) :   1.4098
B(  7-C ,  8-C ) :   1.4251 B(  7-C , 16-C ) :   0.9466 B(  8-C ,  9-C ) :   1.2453
B(  8-C , 84-H ) :   1.0168 B(  9-C , 10-C ) :   1.3034 B(  9-C , 14-C ) :   1.1648
B( 10-C , 11-C ) :   1.3312 B( 10-C , 12-S ) :   1.0870 B( 11-C , 85-H ) :   0.9802
B( 12-S , 13-C ) :   1.0867 B( 13-C , 14-C ) :   1.6156 B( 13-C , 15-Br) :   1.0202
B( 14-C , 86-H ) :   1.0009 B( 16-C , 17-O ) :   2.1984 B( 16-C , 18-C ) :   0.9452
B( 18-C , 19-C ) :   1.6035 B( 19-C , 20-C ) :   1.1912 B( 19-C , 87-H ) :   0.9273
B( 20-C , 21-C ) :   1.4098 B( 20-C , 24-S ) :   1.0732 B( 21-C , 22-C ) :   1.3372
B( 21-C , 88-H ) :   0.9757 B( 22-C , 23-C ) :   1.3851 B( 22-C , 27-C ) :   0.9918
B( 23-C , 24-S ) :   1.1610 B( 23-C , 25-C ) :   1.2006 B( 25-C , 26-C ) :   1.4283
B( 25-C , 35-S ) :   1.1121 B( 26-C , 27-C ) :   0.9875 B( 26-C , 33-C ) :   1.2530
B( 27-C , 28-C ) :   1.7251 B( 28-C , 29-C ) :   1.1332 B( 28-C , 31-C ) :   1.1357
B( 29-C , 30-N ) :   2.9928 B( 31-C , 32-N ) :   2.9957 B( 33-C , 34-C ) :   1.4561
B( 33-C , 89-H ) :   0.9919 B( 34-C , 35-S ) :   1.0959 B( 34-C , 36-C ) :   1.1524
B( 36-C , 37-C ) :   1.5392 B( 36-C , 40-C ) :   0.9281 B( 37-C , 38-C ) :   1.0694
B( 37-C , 46-N ) :   1.1562 B( 38-C , 39-N ) :   1.1524 B( 38-C , 43-C ) :   1.5411
B( 39-N , 40-C ) :   1.0526 B( 39-N , 42-C ) :   0.9494 B( 40-C , 41-O ) :   2.1294
B( 42-C , 90-H ) :   0.9745 B( 42-C , 91-H ) :   0.9683 B( 42-C , 92-H ) :   0.9510
B( 43-C , 44-C ) :   0.9273 B( 43-C , 48-C ) :   1.1549 B( 44-C , 45-O ) :   2.1299
B( 44-C , 46-N ) :   1.0511 B( 46-N , 47-C ) :   0.9484 B( 47-C , 93-H ) :   0.9514
B( 47-C , 94-H ) :   0.9749 B( 47-C , 95-H ) :   0.9679 B( 48-C , 49-C ) :   1.4590
B( 48-C , 52-S ) :   1.0914 B( 49-C , 50-C ) :   1.2477 B( 49-C , 96-H ) :   0.9914
B( 50-C , 51-C ) :   1.4311 B( 50-C , 55-C ) :   0.9893 B( 51-C , 52-S ) :   1.1162
B( 51-C , 53-C ) :   1.1946 B( 53-C , 54-C ) :   1.4107 B( 53-C , 63-S ) :   1.1502
B( 54-C , 55-C ) :   0.9959 B( 54-C , 61-C ) :   1.3561 B( 55-C , 56-C ) :   1.7231
B( 56-C , 57-C ) :   1.1329 B( 56-C , 59-C ) :   1.1349 B( 57-C , 58-N ) :   2.9981
B( 59-C , 60-N ) :   2.9810 B( 61-C , 62-C ) :   1.3999 B( 61-C , 97-H ) :   0.9819
B( 62-C , 63-S ) :   1.0886 B( 62-C , 64-C ) :   1.1256 B( 64-C , 65-C ) :   1.6772
B( 64-C , 98-H ) :   0.9292 B( 65-C , 66-C ) :   1.0343 B( 65-C , 74-C ) :   0.9423
B( 66-C , 67-C ) :   1.6477 B( 66-C , 72-C ) :   1.0143 B( 67-C , 68-C ) :   1.1251
B( 67-C , 70-C ) :   1.1748 B( 68-C , 69-N ) :   2.9944 B( 70-C , 71-N ) :   2.9967
B( 72-C , 73-C ) :   1.2726 B( 72-C , 79-C ) :   1.4161 B( 73-C , 74-C ) :   0.9231
B( 73-C , 76-C ) :   1.4244 B( 74-C , 75-O ) :   2.2655 B( 76-C , 77-C ) :   1.2534
B( 76-C , 99-H ) :   1.0161 B( 77-C , 78-C ) :   1.3031 B( 77-C , 82-C ) :   1.1660
B( 78-C , 79-C ) :   1.3280 B( 78-C , 80-S ) :   1.0870 B( 79-C ,100-H ) :   0.9826
B( 80-S , 81-C ) :   1.0873 B( 81-C , 82-C ) :   1.6187 B( 81-C , 83-Br) :   1.0198
B( 82-C ,101-H ) :   0.9994

-----------------------------------------------------------------------------
         ABSORPTION SPECTRUM VIA TRANSITION ELECTRIC DIPOLE MOMENTS
-----------------------------------------------------------------------------
State   Energy  Wavelength   fosc         T2         TX        TY        TZ
        (cm-1)    (nm)                  (au**2)     (au)      (au)      (au)
-----------------------------------------------------------------------------
   0   13346.0    749.3   0.716370790  17.67109  -3.56757   2.22046  -0.11424
   1   14108.0    708.8   0.124328032   2.90122  -1.13715   0.86355   0.92865
   2   18815.1    531.5   0.603428678  10.55831  -2.86055   1.38918  -0.66765
   3   19335.5    517.2   0.944303775  16.07799  -3.46478   1.98817   0.34705
   4   20983.8    476.6   0.151866528   2.38262   0.13659  -0.30267  -1.50743
   5   22223.2    450.0   0.439090836   6.50464   1.46342  -1.80267  -1.05518
   6   24213.3    413.0   0.062838273   0.85437  -0.78366   0.46298   0.16093
   7   24595.1    406.6   0.060585148   0.81095  -0.68236  -0.30474  -0.50246
   8   25070.8    398.9   0.011307378   0.14848   0.25290   0.28980   0.02327
   9   25315.6    395.0   0.246549881   3.20621   1.78206  -0.04108  -0.16962
  10   26185.3    381.9   0.023634788   0.29715  -0.11643  -0.31673   0.42811
  11   26275.2    380.6   0.020403264   0.25564  -0.20955   0.00521   0.46011
  12   27391.5    365.1   0.047515260   0.57108   0.47803   0.13477  -0.56956
  13   28504.9    350.8   0.104310492   1.20471  -0.48997  -0.76774   0.61255
  14   28689.7    348.6   0.122204678   1.40229  -0.97436   0.60794  -0.28867
  15   29040.1    344.4   0.012528507   0.14203  -0.22577  -0.29451   0.06573
  16   29125.4    343.3   0.068137412   0.77017   0.54461  -0.44558  -0.52444
  17   29421.3    339.9   0.161063831   1.80224   0.66943  -1.16314  -0.03455
  18   29776.7    335.8   0.025963535   0.28705   0.25123   0.03200  -0.47213
  19   30091.8    332.3   0.354889583   3.88259   1.78233  -0.77568  -0.32281
  20   30244.3    330.6   0.180039067   1.95974  -1.25249  -0.49097  -0.38724
  21   30406.4    328.9   0.100188046   1.08474   0.41598   0.95472  -0.01442
  22   30584.6    327.0   0.065558357   0.70567  -0.08267  -0.20449  -0.81057
  23   30732.7    325.4   0.567686101   6.08111   2.05618   1.13328  -0.75425
  24   31534.2    317.1   0.043950872   0.45884   0.26440  -0.61793   0.08422
  25   31866.5    313.8   0.132959766   1.37360   0.16209   1.14956   0.16080
  26   32335.7    309.3   0.208443601   2.12218   1.05369  -0.64483   0.77208
  27   32391.7    308.7   0.079282909   0.80579  -0.30059  -0.72094   0.44236
  28   32473.9    307.9   0.588656319   5.96764   2.23219  -0.69551  -0.70798
  29   32604.7    306.7   0.050710844   0.51203   0.31874  -0.38657  -0.51088
  30   32904.8    303.9   0.024280886   0.24293  -0.48011  -0.03892   0.10443
  31   33134.7    301.8   0.085504825   0.84954  -0.90480   0.17564  -0.00426
  32   33370.6    299.7   0.017351230   0.17118  -0.23058  -0.22118   0.26284
  33   33526.0    298.3   0.093140194   0.91460  -0.41293  -0.77827  -0.37200
  34   33584.8    297.8   0.023800442   0.23330   0.37477   0.08365   0.29300
  35   33750.6    296.3   0.047101104   0.45944  -0.24694  -0.60849  -0.16792
  36   33784.8    296.0   0.105263142   1.02572   0.91027   0.40016  -0.19239
  37   34368.1    291.0   0.204614156   1.96000   1.28060  -0.54464   0.15312
  38   34488.8    289.9   0.100513634   0.95945   0.51463  -0.53430  -0.63963
  39   34612.7    288.9   0.423034919   4.02361   1.03273   1.70475  -0.22557
  40   35074.3    285.1   0.126976311   1.19182  -0.73123  -0.80195  -0.11830
  41   35121.3    284.7   0.025424369   0.23832   0.13811  -0.40702   0.23146
  42   35378.2    282.7   0.116046815   1.07987   1.02310   0.18200   0.00436
  43   35442.0    282.2   0.038683252   0.35932  -0.58306  -0.13663  -0.02633
  44   35859.3    278.9   0.083047659   0.76243  -0.09145   0.86659   0.05562
  45   36256.1    275.8   0.030054560   0.27290  -0.44345  -0.10194   0.25664
  46   36869.3    271.2   0.022725269   0.20292   0.29372  -0.30356  -0.15652
  47   37170.3    269.0   0.012924477   0.11447  -0.25642   0.16649  -0.14492
  48   37257.6    268.4   0.013088443   0.11565  -0.09188  -0.28936  -0.15324
  49   37625.1    265.8   0.062338395   0.54545  -0.50127  -0.50182  -0.20580
  50   37793.3    264.6   0.039479456   0.34390  -0.57709  -0.09183  -0.04937
  51   37948.6    263.5   0.017113129   0.14846   0.13211  -0.34651  -0.10458
  52   38062.2    262.7   0.013037176   0.11276  -0.05650  -0.32696  -0.05162
  53   38369.3    260.6   0.000795508   0.00683  -0.04320  -0.05551   0.04333
  54   38485.6    259.8   0.002224817   0.01903   0.02960  -0.09705   0.09347
  55   38624.0    258.9   0.009480529   0.08081   0.04587  -0.23117  -0.15895
  56   38760.6    258.0   0.115597652   0.98183   0.97051  -0.14187   0.14075
  57   39074.6    255.9   0.190499918   1.60500  -0.71063   0.90700   0.52665
  58   39298.5    254.5   0.120873404   1.01258  -0.77091  -0.64272   0.07212
  59   39512.9    253.1   0.035609233   0.29669   0.12151   0.51484  -0.12987
  60   39593.8    252.6   0.096571977   0.80297   0.31189  -0.83870   0.04777
  61   39797.3    251.3   0.005784472   0.04785   0.13271  -0.11775  -0.12796
  62   39950.4    250.3   0.032131627   0.26478  -0.19264   0.42986   0.20711
  63   40021.2    249.9   0.057481202   0.47284   0.58273  -0.08315   0.35545
  64   40265.1    248.4   0.058518941   0.47846  -0.37507   0.52875   0.24126

FINAL SINGLE POINT ENERGY    -10753.984454976027

DIPOLE MOMENT
-------------
                                X             Y             Z
Electronic contribution:    -11.51265      14.06814     -75.53559
Nuclear contribution   :     11.10595     -11.18358      75.54915
                        -----------------------------------------
Total Dipole Moment    :     -0.40671       2.88455       0.01356
                        -----------------------------------------
Magnitude (a.u.)       :      2.91312
Magnitude (Debye)      :      7.40455

Rotational constants in cm-1:     0.001383     0.000095     0.000094
Rotational constants in MHz :    41.452042     2.847469     2.826607

                             ****ORCA TERMINATED NORMALLY****
TOTAL RUN TIME: 0 days 0 hours 11 minutes 56 seconds 946 msec
