                         Program Version 4.2.0 -  RELEASE  -
|  1> # ORCA input file
|  2> # SCF done       -196.843644708314          0.000388841279
|  3> ! CAM-B3LYP def2-SVP def2/J RIJCOSX Grid4 TightSCF
|  4> %maxcore 5000
|  5> %tddft
|  6>     Mode sTDDFT
|  7>     Ethresh 5.0
|  8>     maxcore 5000
|  9> end
| 10>
| 11> %pal
| 12>   nprocs 6
| 13>   end
| 14> * xyz 0 1
| 15>    C       -4.93948        -2.16724         0.78506
| 16>    C       -4.93074        -2.76853         2.01301
| 17>    C       -4.64849        -4.13610         2.22274
| 18>    N       -4.42230        -5.23731         2.45151
| 19>    C       -5.23136        -2.11974         3.23107
| 20>    N       -5.48224        -1.66691         4.25507
| 21>    C       -4.72201        -2.82536        -0.49440
| 22>    C       -4.94959        -1.89319        -1.53788
| 23>    C       -4.82338        -2.22340        -2.86619
| 24>    C       -4.45858        -3.53570        -3.18152
| 25>    C       -4.22898        -4.45994        -2.13223
| 26>    C       -4.35419        -4.12637        -0.79026
| 27>    S       -3.77674        -6.02122        -2.74409
| 28>    C       -3.90234        -5.42263        -4.37714
| 29>    C       -4.26383        -4.11973        -4.46241
| 30>   Br       -3.54160        -6.57167        -5.81320
| 31>    C       -5.28921        -0.57811        -0.96658
| 32>    O       -5.45329         0.45390        -1.57434
| 33>    C       -5.25682        -0.77027         0.51530
| 34>    C       -5.34213         0.23724         1.40987
| 35>    C       -5.78864         1.57201         1.07629
| 36>    C       -5.13237         2.69767         1.53573
| 37>    F       -4.02866         2.54925         2.28155
| 38>    C       -5.52435         4.00812         1.19838
| 39>    F       -4.74662         5.01125         1.62326
| 40>    C       -6.62471         4.26801         0.40831
| 41>    C       -7.36103         3.14383        -0.02970
| 42>    C       -6.94949         1.80600         0.29907
| 43>    N       -7.80094         0.89562        -0.16608
| 44>    S       -8.97453         1.64782        -0.96055
| 45>    N       -8.49286         3.15629        -0.73142
| 46>    C       -7.02576         5.62729         0.04686
| 47>    C       -7.31108         5.99622        -1.24988
| 48>    F       -7.17866         5.11484        -2.24649
| 49>    C       -7.67870         7.31438        -1.59921
| 50>    F       -7.87174         7.57607        -2.89819
| 51>    C       -7.77678         8.32974        -0.67389
| 52>    C       -7.50737         7.98381         0.66948
| 53>    C       -7.14198         6.63938         1.02721
| 54>    N       -6.97370         6.50464         2.34159
| 55>    S       -7.22979         7.92337         3.04225
| 56>    N       -7.58477         8.77777         1.73508
| 57>    C       -8.11371         9.70789        -1.02898
| 58>    C       -9.22261        10.04813        -1.77263
| 59>    F      -10.05973         9.09725        -2.20281
| 60>    C       -9.55958        11.38426        -2.06637
| 61>    F      -10.66140        11.58592        -2.80686
| 62>    C       -8.80301        12.46499        -1.64989
| 63>    C       -7.63042        12.13884        -0.92073
| 64>    C       -7.29986        10.77880        -0.59616
| 65>    N       -6.16443        10.69503         0.09484
| 66>    S       -5.59472        12.17258         0.33269
| 67>    N       -6.73546        12.99727        -0.43888
| 68>    C       -9.08334        13.84406        -1.95392
| 69>    C      -10.26182        14.48125        -2.12113
| 70>    C      -11.64678        14.10903        -1.88375
| 71>    C      -12.10355        13.23566        -0.93566
| 72>    C      -13.47148        12.99517        -0.68275
| 73>    N      -14.56914        12.76733        -0.44022
| 74>    C      -11.26572        12.53605        -0.04418
| 75>    N      -10.61998        11.96600         0.71422
| 76>    C      -12.47574        15.01369        -2.66946
| 77>    C      -11.66329        16.06129        -3.17462
| 78>    C      -10.26357        15.82844        -2.77853
| 79>    O       -9.30345        16.53292        -2.97193
| 80>    C      -12.17427        17.09466        -3.92343
| 81>    C      -13.54597        17.08780        -4.19469
| 82>    C      -14.34516        16.02691        -3.70095
| 83>    C      -13.83134        14.98607        -2.93800
| 84>    S      -16.00802        16.21064        -4.16496
| 85>    C      -15.61687        17.69194        -4.99819
| 86>    C      -14.30713        18.03176        -4.93641
| 87>   Br      -16.97248        18.64749        -5.87117
| 88>    H       -5.00105        -1.49022        -3.63718
| 89>    H       -4.16104        -4.86259        -0.02802
| 90>    H       -4.38650        -3.59078        -5.38978
| 91>    H       -5.04486         0.08505         2.43996
| 92>    H       -8.19814        14.45645        -2.09856
| 93>    H      -11.53556        17.88345        -4.28852
| 94>    H      -14.47405        14.19417        -2.59076
| 95>    H      -13.89325        18.91139        -5.39445
| 96> *
| 97>
| 98>                          ****END OF INPUT****

CARTESIAN COORDINATES (ANGSTROEM)
---------------------------------
  C     -4.939480   -2.167240    0.785060
  C     -4.930740   -2.768530    2.013010
  C     -4.648490   -4.136100    2.222740
  N     -4.422300   -5.237310    2.451510
  C     -5.231360   -2.119740    3.231070
  N     -5.482240   -1.666910    4.255070
  C     -4.722010   -2.825360   -0.494400
  C     -4.949590   -1.893190   -1.537880
  C     -4.823380   -2.223400   -2.866190
  C     -4.458580   -3.535700   -3.181520
  C     -4.228980   -4.459940   -2.132230
  C     -4.354190   -4.126370   -0.790260
  S     -3.776740   -6.021220   -2.744090
  C     -3.902340   -5.422630   -4.377140
  C     -4.263830   -4.119730   -4.462410
  Br    -3.541600   -6.571670   -5.813200
  C     -5.289210   -0.578110   -0.966580
  O     -5.453290    0.453900   -1.574340
  C     -5.256820   -0.770270    0.515300
  C     -5.342130    0.237240    1.409870
  C     -5.788640    1.572010    1.076290
  C     -5.132370    2.697670    1.535730
  F     -4.028660    2.549250    2.281550
  C     -5.524350    4.008120    1.198380
  F     -4.746620    5.011250    1.623260
  C     -6.624710    4.268010    0.408310
  C     -7.361030    3.143830   -0.029700
  C     -6.949490    1.806000    0.299070
  N     -7.800940    0.895620   -0.166080
  S     -8.974530    1.647820   -0.960550
  N     -8.492860    3.156290   -0.731420
  C     -7.025760    5.627290    0.046860
  C     -7.311080    5.996220   -1.249880
  F     -7.178660    5.114840   -2.246490
  C     -7.678700    7.314380   -1.599210
  F     -7.871740    7.576070   -2.898190
  C     -7.776780    8.329740   -0.673890
  C     -7.507370    7.983810    0.669480
  C     -7.141980    6.639380    1.027210
  N     -6.973700    6.504640    2.341590
  S     -7.229790    7.923370    3.042250
  N     -7.584770    8.777770    1.735080
  C     -8.113710    9.707890   -1.028980
  C     -9.222610   10.048130   -1.772630
  F    -10.059730    9.097250   -2.202810
  C     -9.559580   11.384260   -2.066370
  F    -10.661400   11.585920   -2.806860
  C     -8.803010   12.464990   -1.649890
  C     -7.630420   12.138840   -0.920730
  C     -7.299860   10.778800   -0.596160
  N     -6.164430   10.695030    0.094840
  S     -5.594720   12.172580    0.332690
  N     -6.735460   12.997270   -0.438880
  C     -9.083340   13.844060   -1.953920
  C    -10.261820   14.481250   -2.121130
  C    -11.646780   14.109030   -1.883750
  C    -12.103550   13.235660   -0.935660
  C    -13.471480   12.995170   -0.682750
  N    -14.569140   12.767330   -0.440220
  C    -11.265720   12.536050   -0.044180
  N    -10.619980   11.966000    0.714220
  C    -12.475740   15.013690   -2.669460
  C    -11.663290   16.061290   -3.174620
  C    -10.263570   15.828440   -2.778530
  O     -9.303450   16.532920   -2.971930
  C    -12.174270   17.094660   -3.923430
  C    -13.545970   17.087800   -4.194690
  C    -14.345160   16.026910   -3.700950
  C    -13.831340   14.986070   -2.938000
  S    -16.008020   16.210640   -4.164960
  C    -15.616870   17.691940   -4.998190
  C    -14.307130   18.031760   -4.936410
  Br   -16.972480   18.647490   -5.871170
  H     -5.001050   -1.490220   -3.637180
  H     -4.161040   -4.862590   -0.028020
  H     -4.386500   -3.590780   -5.389780
  H     -5.044860    0.085050    2.439960
  H     -8.198140   14.456450   -2.098560
  H    -11.535560   17.883450   -4.288520
  H    -14.474050   14.194170   -2.590760
  H    -13.893250   18.911390   -5.394450

 Total Charge           Charge          ....    0
 Multiplicity           Mult            ....    1
 Number of Electrons    NEL             ....  586
 Basis Dimension        Dim             .... 1118

ORBITAL ENERGIES
----------------

  NO   OCC          E(Eh)            E(eV)
   0   2.0000    -482.890098    -13140.1076
   1   2.0000    -482.889257    -13140.0847
   2   2.0000     -89.031886     -2422.6808
   3   2.0000     -89.029080     -2422.6044
   4   2.0000     -89.027833     -2422.5705
   5   2.0000     -88.980909     -2421.2936
   6   2.0000     -88.980240     -2421.2754
   7   2.0000     -62.567812     -1702.5567
   8   2.0000     -62.566970     -1702.5338
   9   2.0000     -56.401770     -1534.7702
  10   2.0000     -56.400926     -1534.7472
  11   2.0000     -56.399039     -1534.6959
  12   2.0000     -56.399013     -1534.6952
  13   2.0000     -56.398199     -1534.6730
  14   2.0000     -56.398170     -1534.6722
  15   2.0000     -24.819214      -675.3651
  16   2.0000     -24.810378      -675.1247
  17   2.0000     -24.808122      -675.0633
  18   2.0000     -24.806033      -675.0065
  19   2.0000     -24.803690      -674.9427
  20   2.0000     -24.803171      -674.9286
  21   2.0000     -19.223260      -523.0915
  22   2.0000     -19.223134      -523.0881
  23   2.0000     -14.446079      -393.0978
  24   2.0000     -14.445296      -393.0765
  25   2.0000     -14.442517      -393.0009
  26   2.0000     -14.441091      -392.9621
  27   2.0000     -14.440700      -392.9514
  28   2.0000     -14.440272      -392.9398
  29   2.0000     -14.423551      -392.4848
  30   2.0000     -14.422618      -392.4594
  31   2.0000     -14.422219      -392.4485
  32   2.0000     -14.421605      -392.4318
  33   2.0000     -10.398017      -282.9444
  34   2.0000     -10.393643      -282.8254
  35   2.0000     -10.392944      -282.8064
  36   2.0000     -10.390540      -282.7410
  37   2.0000     -10.390505      -282.7400
  38   2.0000     -10.390076      -282.7284
  39   2.0000     -10.374098      -282.2936
  40   2.0000     -10.373449      -282.2759
  41   2.0000     -10.364426      -282.0304
  42   2.0000     -10.363303      -281.9998
  43   2.0000     -10.351994      -281.6921
  44   2.0000     -10.351750      -281.6854
  45   2.0000     -10.348460      -281.5959
  46   2.0000     -10.348002      -281.5834
  47   2.0000     -10.338380      -281.3216
  48   2.0000     -10.337473      -281.2970
  49   2.0000     -10.334930      -281.2277
  50   2.0000     -10.334559      -281.2176
  51   2.0000     -10.334312      -281.2109
  52   2.0000     -10.333735      -281.1952
  53   2.0000     -10.331940      -281.1464
  54   2.0000     -10.331565      -281.1362
  55   2.0000     -10.326512      -280.9987
  56   2.0000     -10.324986      -280.9572
  57   2.0000     -10.324675      -280.9487
  58   2.0000     -10.324436      -280.9422
  59   2.0000     -10.324146      -280.9343
  60   2.0000     -10.323890      -280.9273
  61   2.0000     -10.323550      -280.9181
  62   2.0000     -10.323054      -280.9046
  63   2.0000     -10.322153      -280.8801
  64   2.0000     -10.321221      -280.8547
  65   2.0000     -10.320345      -280.8309
  66   2.0000     -10.318474      -280.7799
  67   2.0000     -10.315175      -280.6902
  68   2.0000     -10.315034      -280.6863
  69   2.0000     -10.314004      -280.6583
  70   2.0000     -10.312916      -280.6287
  71   2.0000     -10.312011      -280.6041
  72   2.0000     -10.311350      -280.5861
  73   2.0000     -10.310459      -280.5619
  74   2.0000     -10.309149      -280.5262
  75   2.0000     -10.307302      -280.4759
  76   2.0000     -10.307052      -280.4691
  77   2.0000     -10.301794      -280.3261
  78   2.0000     -10.300946      -280.3030
  79   2.0000     -10.299202      -280.2555
  80   2.0000     -10.299009      -280.2503
  81   2.0000      -8.797238      -239.3850
  82   2.0000      -8.796398      -239.3622
  83   2.0000      -8.123668      -221.0562
  84   2.0000      -8.120812      -220.9785
  85   2.0000      -8.119618      -220.9460
  86   2.0000      -8.076916      -219.7840
  87   2.0000      -8.076255      -219.7661
  88   2.0000      -6.633579      -180.5089
  89   2.0000      -6.632727      -180.4857
  90   2.0000      -6.618962      -180.1111
  91   2.0000      -6.618740      -180.1051
  92   2.0000      -6.618135      -180.0886
  93   2.0000      -6.617896      -180.0821
  94   2.0000      -6.094869      -165.8498
  95   2.0000      -6.091977      -165.7711
  96   2.0000      -6.090782      -165.7386
  97   2.0000      -6.087098      -165.6384
  98   2.0000      -6.086095      -165.6111
  99   2.0000      -6.084234      -165.5604
 100   2.0000      -6.083306      -165.5352
 101   2.0000      -6.083010      -165.5271
 102   2.0000      -6.082112      -165.5027
 103   2.0000      -6.046604      -164.5365
 104   2.0000      -6.045943      -164.5185
 105   2.0000      -6.042327      -164.4201
 106   2.0000      -6.041658      -164.4019
 107   2.0000      -6.038138      -164.3061
 108   2.0000      -6.037474      -164.2880
 109   2.0000      -2.749430       -74.8158
 110   2.0000      -2.748610       -74.7935
 111   2.0000      -2.745371       -74.7053
 112   2.0000      -2.745167       -74.6998
 113   2.0000      -2.744463       -74.6806
 114   2.0000      -2.744360       -74.6778
 115   2.0000      -2.733575       -74.3843
 116   2.0000      -2.733547       -74.3836
 117   2.0000      -2.732732       -74.3614
 118   2.0000      -2.732719       -74.3611
 119   2.0000      -1.338185       -36.4139
 120   2.0000      -1.331308       -36.2267
 121   2.0000      -1.329164       -36.1684
 122   2.0000      -1.318709       -35.8839
 123   2.0000      -1.313454       -35.7409
 124   2.0000      -1.311395       -35.6849
 125   2.0000      -1.140194       -31.0263
 126   2.0000      -1.139173       -30.9985
 127   2.0000      -1.135076       -30.8870
 128   2.0000      -1.130775       -30.7700
 129   2.0000      -1.130071       -30.7508
 130   2.0000      -1.029317       -28.0091
 131   2.0000      -1.029283       -28.0082
 132   2.0000      -1.019672       -27.7467
 133   2.0000      -1.019617       -27.7452
 134   2.0000      -1.002331       -27.2748
 135   2.0000      -1.000687       -27.2301
 136   2.0000      -0.998987       -27.1838
 137   2.0000      -0.997240       -27.1363
 138   2.0000      -0.996719       -27.1221
 139   2.0000      -0.995717       -27.0948
 140   2.0000      -0.989688       -26.9308
 141   2.0000      -0.987299       -26.8658
 142   2.0000      -0.977249       -26.5923
 143   2.0000      -0.970650       -26.4127
 144   2.0000      -0.948693       -25.8153
 145   2.0000      -0.948082       -25.7986
 146   2.0000      -0.920962       -25.0607
 147   2.0000      -0.915117       -24.9016
 148   2.0000      -0.914440       -24.8832
 149   2.0000      -0.912591       -24.8329
 150   2.0000      -0.895925       -24.3793
 151   2.0000      -0.892089       -24.2750
 152   2.0000      -0.891634       -24.2626
 153   2.0000      -0.882927       -24.0257
 154   2.0000      -0.872630       -23.7455
 155   2.0000      -0.869511       -23.6606
 156   2.0000      -0.867403       -23.6032
 157   2.0000      -0.865193       -23.5431
 158   2.0000      -0.848161       -23.0796
 159   2.0000      -0.835757       -22.7421
 160   2.0000      -0.834743       -22.7145
 161   2.0000      -0.828695       -22.5499
 162   2.0000      -0.798915       -21.7396
 163   2.0000      -0.782281       -21.2869
 164   2.0000      -0.771775       -21.0011
 165   2.0000      -0.767009       -20.8714
 166   2.0000      -0.759954       -20.6794
 167   2.0000      -0.754427       -20.5290
 168   2.0000      -0.752434       -20.4748
 169   2.0000      -0.736917       -20.0525
 170   2.0000      -0.730083       -19.8666
 171   2.0000      -0.724921       -19.7261
 172   2.0000      -0.721818       -19.6417
 173   2.0000      -0.715685       -19.4748
 174   2.0000      -0.709275       -19.3004
 175   2.0000      -0.700650       -19.0656
 176   2.0000      -0.697204       -18.9719
 177   2.0000      -0.693444       -18.8696
 178   2.0000      -0.686778       -18.6882
 179   2.0000      -0.676371       -18.4050
 180   2.0000      -0.670589       -18.2477
 181   2.0000      -0.666496       -18.1363
 182   2.0000      -0.661071       -17.9887
 183   2.0000      -0.659686       -17.9510
 184   2.0000      -0.649610       -17.6768
 185   2.0000      -0.648699       -17.6520
 186   2.0000      -0.645572       -17.5669
 187   2.0000      -0.642007       -17.4699
 188   2.0000      -0.639341       -17.3974
 189   2.0000      -0.637966       -17.3599
 190   2.0000      -0.633907       -17.2495
 191   2.0000      -0.630469       -17.1559
 192   2.0000      -0.629681       -17.1345
 193   2.0000      -0.628450       -17.1010
 194   2.0000      -0.609801       -16.5935
 195   2.0000      -0.605693       -16.4817
 196   2.0000      -0.604796       -16.4573
 197   2.0000      -0.601010       -16.3543
 198   2.0000      -0.599497       -16.3131
 199   2.0000      -0.592870       -16.1328
 200   2.0000      -0.591719       -16.1015
 201   2.0000      -0.586598       -15.9621
 202   2.0000      -0.584428       -15.9031
 203   2.0000      -0.574234       -15.6257
 204   2.0000      -0.569183       -15.4883
 205   2.0000      -0.567758       -15.4495
 206   2.0000      -0.563945       -15.3457
 207   2.0000      -0.559364       -15.2211
 208   2.0000      -0.558431       -15.1957
 209   2.0000      -0.557296       -15.1648
 210   2.0000      -0.555856       -15.1256
 211   2.0000      -0.552600       -15.0370
 212   2.0000      -0.551276       -15.0010
 213   2.0000      -0.550547       -14.9811
 214   2.0000      -0.547217       -14.8905
 215   2.0000      -0.545646       -14.8478
 216   2.0000      -0.544561       -14.8183
 217   2.0000      -0.543225       -14.7819
 218   2.0000      -0.541528       -14.7357
 219   2.0000      -0.538274       -14.6472
 220   2.0000      -0.532445       -14.4886
 221   2.0000      -0.529205       -14.4004
 222   2.0000      -0.528520       -14.3818
 223   2.0000      -0.523456       -14.2440
 224   2.0000      -0.515771       -14.0348
 225   2.0000      -0.515072       -14.0158
 226   2.0000      -0.513896       -13.9838
 227   2.0000      -0.511337       -13.9142
 228   2.0000      -0.507984       -13.8230
 229   2.0000      -0.505439       -13.7537
 230   2.0000      -0.503178       -13.6922
 231   2.0000      -0.500237       -13.6121
 232   2.0000      -0.498737       -13.5713
 233   2.0000      -0.498062       -13.5530
 234   2.0000      -0.496523       -13.5111
 235   2.0000      -0.488785       -13.3005
 236   2.0000      -0.486694       -13.2436
 237   2.0000      -0.482253       -13.1228
 238   2.0000      -0.479038       -13.0353
 239   2.0000      -0.477852       -13.0030
 240   2.0000      -0.469773       -12.7832
 241   2.0000      -0.468482       -12.7480
 242   2.0000      -0.464270       -12.6334
 243   2.0000      -0.463074       -12.6009
 244   2.0000      -0.462781       -12.5929
 245   2.0000      -0.459045       -12.4912
 246   2.0000      -0.456191       -12.4136
 247   2.0000      -0.454729       -12.3738
 248   2.0000      -0.454106       -12.3569
 249   2.0000      -0.452237       -12.3060
 250   2.0000      -0.449858       -12.2413
 251   2.0000      -0.448411       -12.2019
 252   2.0000      -0.445230       -12.1153
 253   2.0000      -0.444605       -12.0983
 254   2.0000      -0.442935       -12.0529
 255   2.0000      -0.439846       -11.9688
 256   2.0000      -0.436076       -11.8662
 257   2.0000      -0.433585       -11.7985
 258   2.0000      -0.432080       -11.7575
 259   2.0000      -0.430383       -11.7113
 260   2.0000      -0.428706       -11.6657
 261   2.0000      -0.420621       -11.4457
 262   2.0000      -0.418969       -11.4007
 263   2.0000      -0.417768       -11.3680
 264   2.0000      -0.416134       -11.3236
 265   2.0000      -0.414480       -11.2786
 266   2.0000      -0.413044       -11.2395
 267   2.0000      -0.409435       -11.1413
 268   2.0000      -0.405931       -11.0460
 269   2.0000      -0.402505       -10.9527
 270   2.0000      -0.394170       -10.7259
 271   2.0000      -0.392883       -10.6909
 272   2.0000      -0.380122       -10.3436
 273   2.0000      -0.379672       -10.3314
 274   2.0000      -0.379269       -10.3204
 275   2.0000      -0.378547       -10.3008
 276   2.0000      -0.377698       -10.2777
 277   2.0000      -0.372741       -10.1428
 278   2.0000      -0.366684        -9.9780
 279   2.0000      -0.354005        -9.6330
 280   2.0000      -0.348356        -9.4792
 281   2.0000      -0.344645        -9.3783
 282   2.0000      -0.339330        -9.2336
 283   2.0000      -0.334530        -9.1030
 284   2.0000      -0.330225        -8.9859
 285   2.0000      -0.329165        -8.9570
 286   2.0000      -0.327934        -8.9235
 287   2.0000      -0.320586        -8.7236
 288   2.0000      -0.320204        -8.7132
 289   2.0000      -0.306484        -8.3399
 290   2.0000      -0.299082        -8.1384
 291   2.0000      -0.298413        -8.1202
 292   2.0000      -0.288362        -7.8467
 293   0.0000      -0.103536        -2.8174
 294   0.0000      -0.097589        -2.6555
 295   0.0000      -0.076492        -2.0815
 296   0.0000      -0.070360        -1.9146
 297   0.0000      -0.060078        -1.6348

MULLIKEN ATOMIC CHARGES
-----------------------
   0 C :    0.292865
   1 C :   -0.330112
   2 C :   -0.186440
   3 N :    0.159760
   4 C :   -0.201438
   5 N :    0.170729
   6 C :    0.016744
   7 C :   -0.021297
   8 C :   -0.064485
   9 C :    0.117230
  10 C :   -0.091132
  11 C :   -0.017426
  12 S :    0.190893
  13 C :   -0.121508
  14 C :    0.038790
  15 Br:    0.028902
  16 C :    0.158560
  17 O :   -0.139158
  18 C :   -0.049798
  19 C :   -0.051257
  20 C :   -0.011180
  21 C :    0.176161
  22 F :   -0.157955
  23 C :    0.187617
  24 F :   -0.155895
  25 C :   -0.042266
  26 C :    0.034400
  27 C :    0.040751
  28 N :   -0.275154
  29 S :    0.521014
  30 N :   -0.261481
  31 C :   -0.027884
  32 C :    0.178667
  33 F :   -0.154102
  34 C :    0.173997
  35 F :   -0.160016
  36 C :   -0.035869
  37 C :    0.029684
  38 C :    0.009164
  39 N :   -0.263040
  40 S :    0.522497
  41 N :   -0.253061
  42 C :   -0.032872
  43 C :    0.200907
  44 F :   -0.155468
  45 C :    0.156386
  46 F :   -0.161652
  47 C :   -0.000294
  48 C :    0.013651
  49 C :    0.039758
  50 N :   -0.259885
  51 S :    0.522526
  52 N :   -0.264229
  53 C :    0.004405
  54 C :   -0.099320
  55 C :    0.278761
  56 C :   -0.323614
  57 C :   -0.180787
  58 N :    0.160924
  59 C :   -0.196997
  60 N :    0.171626
  61 C :    0.007431
  62 C :    0.002585
  63 C :    0.131642
  64 O :   -0.132173
  65 C :   -0.067937
  66 C :    0.113673
  67 C :   -0.088719
  68 C :   -0.019881
  69 S :    0.189634
  70 C :   -0.124661
  71 C :    0.041104
  72 Br:    0.028001
  73 H :   -0.008049
  74 H :   -0.004751
  75 H :   -0.001355
  76 H :    0.047966
  77 H :    0.042981
  78 H :   -0.006136
  79 H :   -0.000507
  80 H :   -0.001144
Sum of atomic charges:   -0.0000000

LOEWDIN ATOMIC CHARGES
----------------------
   0 C :    0.074045
   1 C :   -0.126910
   2 C :   -0.017641
   3 N :   -0.044839
   4 C :   -0.022786
   5 N :   -0.040045
   6 C :   -0.021071
   7 C :   -0.049487
   8 C :    0.024157
   9 C :   -0.030310
  10 C :   -0.142444
  11 C :   -0.008212
  12 S :    0.435810
  13 C :   -0.269616
  14 C :   -0.070039
  15 Br:    0.141333
  16 C :    0.087091
  17 O :   -0.130212
  18 C :   -0.060969
  19 C :    0.077083
  20 C :   -0.058176
  21 C :    0.088440
  22 F :   -0.039604
  23 C :    0.080433
  24 F :   -0.034836
  25 C :   -0.034930
  26 C :   -0.045392
  27 C :   -0.036670
  28 N :   -0.282871
  29 S :    0.660359
  30 N :   -0.281726
  31 C :   -0.045624
  32 C :    0.084641
  33 F :   -0.032795
  34 C :    0.079399
  35 F :   -0.040069
  36 C :   -0.044406
  37 C :   -0.041691
  38 C :   -0.046536
  39 N :   -0.286654
  40 S :    0.661294
  41 N :   -0.271900
  42 C :   -0.030867
  43 C :    0.079717
  44 F :   -0.036704
  45 C :    0.085700
  46 F :   -0.033117
  47 C :   -0.062811
  48 C :   -0.038674
  49 C :   -0.037802
  50 N :   -0.272619
  51 S :    0.659915
  52 N :   -0.284527
  53 C :    0.074207
  54 C :   -0.069429
  55 C :    0.067925
  56 C :   -0.128976
  57 C :   -0.018364
  58 N :   -0.044097
  59 C :   -0.018176
  60 N :   -0.042496
  61 C :   -0.016574
  62 C :   -0.054401
  63 C :    0.086447
  64 O :   -0.130093
  65 C :    0.025384
  66 C :   -0.032107
  67 C :   -0.141467
  68 C :   -0.010225
  69 S :    0.435741
  70 C :   -0.270563
  71 C :   -0.069702
  72 Br:    0.140420
  73 H :    0.042031
  74 H :    0.041579
  75 H :    0.039712
  76 H :    0.050065
  77 H :    0.055157
  78 H :    0.042620
  79 H :    0.041883
  80 H :    0.039663

  Mayer bond orders larger than 0.100000
B(  0-C ,  1-C ) :   1.6670 B(  0-C ,  6-C ) :   1.0174 B(  0-C , 18-C ) :   1.0373
B(  1-C ,  2-C ) :   1.1363 B(  1-C ,  4-C ) :   1.1410 B(  2-C ,  3-N ) :   2.9755
B(  4-C ,  5-N ) :   2.9895 B(  6-C ,  7-C ) :   1.2726 B(  6-C , 11-C ) :   1.3992
B(  7-C ,  8-C ) :   1.4222 B(  7-C , 16-C ) :   0.9505 B(  8-C ,  9-C ) :   1.2491
B(  8-C , 73-H ) :   1.0168 B(  9-C , 10-C ) :   1.2987 B(  9-C , 14-C ) :   1.1643
B( 10-C , 11-C ) :   1.3390 B( 10-C , 12-S ) :   1.0879 B( 11-C , 74-H ) :   0.9800
B( 12-S , 13-C ) :   1.0867 B( 13-C , 14-C ) :   1.6150 B( 13-C , 15-Br) :   1.0215
B( 14-C , 75-H ) :   1.0008 B( 16-C , 17-O ) :   2.2289 B( 16-C , 18-C ) :   0.9192
B( 18-C , 19-C ) :   1.7417 B( 19-C , 20-C ) :   1.0277 B( 19-C , 76-H ) :   0.9392
B( 20-C , 21-C ) :   1.4307 B( 20-C , 25-C ) :   0.1243 B( 20-C , 27-C ) :   1.1909
B( 21-C , 22-F ) :   1.1866 B( 21-C , 23-C ) :   1.1009 B( 23-C , 24-F ) :   1.1841
B( 23-C , 25-C ) :   1.4663 B( 25-C , 26-C ) :   1.2345 B( 25-C , 31-C ) :   0.9201
B( 26-C , 27-C ) :   1.1592 B( 26-C , 30-N ) :   1.5455 B( 27-C , 28-N ) :   1.5381
B( 28-N , 29-S ) :   1.2709 B( 28-N , 30-N ) :   0.1468 B( 29-S , 30-N ) :   1.2794
B( 31-C , 32-C ) :   1.4692 B( 31-C , 36-C ) :   0.1289 B( 31-C , 38-C ) :   1.2296
B( 32-C , 33-F ) :   1.1821 B( 32-C , 34-C ) :   1.0867 B( 34-C , 35-F ) :   1.1810
B( 34-C , 36-C ) :   1.4726 B( 36-C , 37-C ) :   1.2444 B( 36-C , 42-C ) :   0.9115
B( 37-C , 38-C ) :   1.1532 B( 37-C , 41-N ) :   1.5404 B( 38-C , 39-N ) :   1.5505
B( 39-N , 40-S ) :   1.2722 B( 39-N , 41-N ) :   0.1474 B( 40-S , 41-N ) :   1.2797
B( 42-C , 43-C ) :   1.4818 B( 42-C , 47-C ) :   0.1298 B( 42-C , 49-C ) :   1.2415
B( 43-C , 44-F ) :   1.1922 B( 43-C , 45-C ) :   1.1089 B( 45-C , 46-F ) :   1.1436
B( 45-C , 47-C ) :   1.3907 B( 47-C , 48-C ) :   1.1802 B( 47-C , 53-C ) :   1.0530
B( 48-C , 49-C ) :   1.1553 B( 48-C , 52-N ) :   1.5844 B( 49-C , 50-N ) :   1.5418
B( 50-N , 51-S ) :   1.2791 B( 50-N , 52-N ) :   0.1461 B( 51-S , 52-N ) :   1.2625
B( 53-C , 54-C ) :   1.7361 B( 53-C , 77-H ) :   0.9378 B( 54-C , 55-C ) :   1.0117
B( 54-C , 63-C ) :   0.9234 B( 55-C , 56-C ) :   1.6690 B( 55-C , 61-C ) :   1.0206
B( 56-C , 57-C ) :   1.1273 B( 56-C , 59-C ) :   1.1731 B( 57-C , 58-N ) :   2.9933
B( 59-C , 60-N ) :   2.9945 B( 61-C , 62-C ) :   1.2702 B( 61-C , 68-C ) :   1.4110
B( 62-C , 63-C ) :   0.9234 B( 62-C , 65-C ) :   1.4215 B( 63-C , 64-O ) :   2.2763
B( 65-C , 66-C ) :   1.2569 B( 65-C , 78-H ) :   1.0157 B( 66-C , 67-C ) :   1.3000
B( 66-C , 71-C ) :   1.1639 B( 67-C , 68-C ) :   1.3333 B( 67-C , 69-S ) :   1.0868
B( 68-C , 79-H ) :   0.9824 B( 69-S , 70-C ) :   1.0864 B( 70-C , 71-C ) :   1.6185
B( 70-C , 72-Br) :   1.0216 B( 71-C , 80-H ) :   1.0003

-----------------------------------------------------------------------------
         ABSORPTION SPECTRUM VIA TRANSITION ELECTRIC DIPOLE MOMENTS
-----------------------------------------------------------------------------
State   Energy  Wavelength   fosc         T2         TX        TY        TZ
        (cm-1)    (nm)                  (au**2)     (au)      (au)      (au)
-----------------------------------------------------------------------------
   0   23629.0    423.2   1.438411323  20.04073   1.85657  -4.04212   0.50514
   1   25282.9    395.5   0.073972404   0.96321  -0.93856   0.02973  -0.28535
   2   27085.1    369.2   0.118401391   1.43913   0.53317  -0.74609   0.77344
   3   27289.9    366.4   0.269599648   3.25232   0.26827  -0.79341  -1.59714
   4   27977.7    357.4   0.061362753   0.72205   0.25582   0.80541  -0.08905
   5   29149.0    343.1   0.057907078   0.65401   0.03366   0.73944  -0.32575
   6   29452.2    339.5   0.043671778   0.48816   0.64471   0.06702   0.26080
   7   29674.8    337.0   0.029958289   0.33236   0.57003  -0.05093   0.06945
   8   30044.4    332.8   0.003433705   0.03762  -0.12588  -0.10685   0.10180
   9   30443.7    328.5   0.004350232   0.04704  -0.02371   0.21226  -0.03776
  10   31110.7    321.4   0.175090730   1.85280   0.03295   0.01369   1.36071
  11   31284.4    319.6   0.059906205   0.63041  -0.19261   0.72768   0.25255
  12   31988.4    312.6   0.111870154   1.15133   0.41719  -0.98317  -0.10325
  13   32482.0    307.9   0.183380793   1.85861  -1.34078   0.03595  -0.24419
  14   32705.6    305.8   0.059121810   0.59512   0.15443  -0.75537  -0.02620
  15   33028.6    302.8   0.395993046   3.94706   0.76274  -1.63801  -0.82596
  16   33109.0    302.0   0.526713410   5.23726  -0.76229   1.04944  -1.88543
  17   33315.0    300.2   0.085322865   0.84314  -0.13228   0.21408  -0.88307
  18   33385.9    299.5   0.406416547   4.00760  -0.11941   0.44727  -1.94764
  19   33788.2    296.0   0.039432643   0.38421   0.26460   0.20259   0.52264
  20   33880.3    295.2   0.049776806   0.48368  -0.00982   0.03383  -0.69458
  21   34950.9    286.1   0.048606405   0.45784  -0.15846   0.60298  -0.26295
  22   35005.4    285.7   0.047894873   0.45043  -0.34049   0.44135  -0.37377
  23   35354.0    282.9   0.015140234   0.14098   0.06417  -0.08021   0.36115
  24   35887.5    278.6   0.039091494   0.35860  -0.50508   0.16303  -0.27735
  25   36017.6    277.6   0.004129491   0.03774   0.17613  -0.06821   0.04552
  26   36182.4    276.4   0.004256255   0.03873   0.08746   0.10415  -0.14223
  27   36323.4    275.3   0.034250026   0.31042  -0.30964   0.41923  -0.19696
  28   36692.1    272.5   0.005212635   0.04677  -0.09514   0.01959  -0.19322
  29   36842.9    271.4   0.024340016   0.21749  -0.06956   0.39548  -0.23718
  30   37289.2    268.2   0.007874861   0.06952  -0.07313  -0.02373  -0.25222
  31   37564.2    266.2   0.017414661   0.15262  -0.27025  -0.27633  -0.05680
  32   37804.3    264.5   0.015605090   0.13589  -0.06855   0.04740  -0.35909
  33   37914.7    263.7   0.037623703   0.32669  -0.00264   0.49326  -0.28874
  34   38407.9    260.4   0.028955306   0.24819   0.34041   0.23843  -0.27470
  35   38582.4    259.2   0.031798650   0.27133   0.26727  -0.28932   0.34086
  36   38849.9    257.4   0.059854691   0.50721   0.12085  -0.59927  -0.36534
  37   39337.0    254.2   0.049155408   0.41138  -0.48854  -0.40575  -0.08986
  38   39475.8    253.3   0.269134129   2.24447  -0.19196   1.44564  -0.34312
  39   39663.7    252.1   0.066797994   0.55443  -0.54310   0.29880  -0.41254
  40   39925.8    250.5   0.317732561   2.61989   1.26725   0.79554  -0.61733
  41   40270.5    248.3   0.009043709   0.07393   0.13540  -0.20751   0.11198

FINAL SINGLE POINT ENERGY    -10265.303596064137

DIPOLE MOMENT
-------------
                                X             Y             Z
Electronic contribution:    -30.69799      -8.72603     -71.93092
Nuclear contribution   :     30.89360       9.90367      68.98006
                        -----------------------------------------
Total Dipole Moment    :      0.19561       1.17763      -2.95085
                        -----------------------------------------
Magnitude (a.u.)       :      3.18318
Magnitude (Debye)      :      8.09100

Rotational constants in cm-1:     0.001432     0.000176     0.000165
Rotational constants in MHz :    42.915388     5.277941     4.949472

                             ****ORCA TERMINATED NORMALLY****
TOTAL RUN TIME: 0 days 0 hours 9 minutes 16 seconds 800 msec
