                         Program Version 4.2.0 -  RELEASE  -
|  1> # ORCA input file
|  2> # SCF done       -208.245734954484          0.000430333238
|  3> ! CAM-B3LYP def2-SVP def2/J RIJCOSX Grid4 TightSCF
|  4> %maxcore 5000
|  5> %tddft
|  6>     Mode sTDDFT
|  7>     Ethresh 5.0
|  8>     maxcore 5000
|  9> end
| 10>
| 11> %pal
| 12>   nprocs 6
| 13>   end
| 14> * xyz 0 1
| 15>    C        1.26841         3.93526         1.46727
| 16>    C        1.79870         4.77503         2.41466
| 17>    C        3.14546         4.74190         2.83563
| 18>    N        4.22351         4.77378         3.22926
| 19>    C        1.11883         5.78786         3.12321
| 20>    N        0.65647         6.63189         3.75152
| 21>    C        2.01704         2.89230         0.77414
| 22>    C        1.14299         2.22073        -0.11266
| 23>    C        1.54533         1.17810        -0.91117
| 24>    C        2.88183         0.77482        -0.82966
| 25>    C        3.75157         1.45179         0.05852
| 26>    C        3.34246         2.50713         0.86412
| 27>    S        5.35907         0.79423         0.00334
| 28>    C        4.84734        -0.36574        -1.19396
| 29>    C        3.54104        -0.26708        -1.53729
| 30>   Br        6.08621        -1.59658        -1.87707
| 31>    C       -0.20395         2.81401        -0.02287
| 32>    O       -1.16967         2.46479        -0.66896
| 33>    C       -0.10334         3.89480         0.98425
| 34>    C       -1.08709         4.74224         1.42312
| 35>    C       -2.45729         4.83080         1.12135
| 36>    C       -3.30568         4.10230         0.29387
| 37>    C       -4.61713         4.54695         0.36120
| 38>    C       -4.79037         5.63930         1.25059
| 39>    S       -3.33512         6.10825         1.98994
| 40>    C       -6.15148         5.99493         1.26533
| 41>    C       -6.85488         5.13869         0.39436
| 42>    C       -5.90798         4.20504        -0.20631
| 43>    C       -6.19991         3.21932        -1.10199
| 44>    C       -5.23237         2.34219        -1.63957
| 45>    N       -4.48048         1.60870        -2.09760
| 46>    C       -7.51731         3.00222        -1.55966
| 47>    N       -8.58985         2.82718        -1.92588
| 48>    C       -8.21616         5.39454         0.36657
| 49>    C       -8.58080         6.44376         1.21173
| 50>    S       -7.18374         7.12061         2.03829
| 51>    C       -9.89829         6.88810         1.43171
| 52>    C      -10.40398         7.92284         2.24675
| 53>    C      -11.82926         7.97887         2.23746
| 54>    C      -12.49607         8.95028         3.00341
| 55>    C      -11.76823         9.83782         3.74867
| 56>    C      -10.36511         9.79065         3.75211
| 57>    C       -9.68690         8.85470         3.01848
| 58>    C      -12.41889         6.99901         1.41074
| 59>    S      -11.19600         6.03722         0.64756
| 60>    C      -13.78854         6.75820         1.22105
| 61>    C      -14.30163         5.82299         0.36989
| 62>    C      -15.67557         5.53868         0.23068
| 63>    C      -16.74990         6.03584         0.96419
| 64>    C      -17.95826         5.48926         0.55898
| 65>    C      -17.82505         4.57075        -0.50425
| 66>    S      -16.19716         4.38129        -0.98684
| 67>    C      -19.10569         4.07744        -0.83685
| 68>    C      -20.05214         4.67220         0.02909
| 69>    C      -19.36503         5.58203         0.92307
| 70>    C      -19.92590         6.37249         1.88376
| 71>    C      -19.15079         7.23132         2.68950
| 72>    N      -18.50826         7.91941         3.34444
| 73>    C      -21.31632         6.36506         2.12216
| 74>    N      -22.44737         6.34133         2.30938
| 75>    C      -21.35282         4.26516        -0.22714
| 76>    C      -21.42753         3.37354        -1.28902
| 77>    S      -19.83145         3.01287        -1.94847
| 78>    C      -22.55419         2.72345        -1.82976
| 79>    C      -23.87758         3.00949        -1.66400
| 80>    C      -24.59735         4.15496        -1.15127
| 81>    C      -24.20953         5.46949        -1.21143
| 82>    C      -25.02745         6.54874        -0.81634
| 83>    N      -25.65391         7.46094        -0.51308
| 84>    C      -22.99140         5.90439        -1.76699
| 85>    N      -22.01976         6.30250        -2.23205
| 86>    C      -25.94312         3.70150        -0.81133
| 87>    C      -26.12815         2.39470        -1.32913
| 88>    C      -24.87354         1.94104        -1.95889
| 89>    O      -24.66682         0.90573        -2.54883
| 90>    C      -27.31427         1.71332        -1.20279
| 91>    C      -28.35981         2.34524        -0.52104
| 92>    C      -28.15711         3.64196         0.01012
| 93>    C      -26.96089         4.33627        -0.12659
| 94>    S      -29.57289         4.22565         0.82906
| 95>    C      -30.40961         2.74417         0.44721
| 96>    C      -29.66765         1.85516        -0.25509
| 97>   Br      -32.18128         2.50949         1.01453
| 98>    H        0.84904         0.68998        -1.57489
| 99>    H        4.04699         2.98712         1.52189
|100>    H        3.06010        -0.90178        -2.25895
|101>    H       -0.77615         5.48286         2.15026
|102>    H       -2.95112         3.28927        -0.31500
|103>    H       -8.93602         4.85741        -0.22437
|104>    H      -13.57357         8.99550         2.99768
|105>    H      -12.27241        10.58743         4.33879
|106>    H       -9.81565        10.50754         4.34261
|107>    H       -8.60964         8.84022         3.02852
|108>    H      -14.46339         7.36455         1.80707
|109>    H      -13.62222         5.24825        -0.24622
|110>    H      -16.64066         6.74869         1.76004
|111>    H      -22.20826         4.55757         0.35371
|112>    H      -22.35660         1.82327        -2.40438
|113>    H      -27.43257         0.72356        -1.61492
|114>    H      -26.84710         5.31827         0.30197
|115>    H      -30.02564         0.89293        -0.57274
|116> *
|117>
|118>                          ****END OF INPUT****

CARTESIAN COORDINATES (ANGSTROEM)
---------------------------------
  C      1.268410    3.935260    1.467270
  C      1.798700    4.775030    2.414660
  C      3.145460    4.741900    2.835630
  N      4.223510    4.773780    3.229260
  C      1.118830    5.787860    3.123210
  N      0.656470    6.631890    3.751520
  C      2.017040    2.892300    0.774140
  C      1.142990    2.220730   -0.112660
  C      1.545330    1.178100   -0.911170
  C      2.881830    0.774820   -0.829660
  C      3.751570    1.451790    0.058520
  C      3.342460    2.507130    0.864120
  S      5.359070    0.794230    0.003340
  C      4.847340   -0.365740   -1.193960
  C      3.541040   -0.267080   -1.537290
  Br     6.086210   -1.596580   -1.877070
  C     -0.203950    2.814010   -0.022870
  O     -1.169670    2.464790   -0.668960
  C     -0.103340    3.894800    0.984250
  C     -1.087090    4.742240    1.423120
  C     -2.457290    4.830800    1.121350
  C     -3.305680    4.102300    0.293870
  C     -4.617130    4.546950    0.361200
  C     -4.790370    5.639300    1.250590
  S     -3.335120    6.108250    1.989940
  C     -6.151480    5.994930    1.265330
  C     -6.854880    5.138690    0.394360
  C     -5.907980    4.205040   -0.206310
  C     -6.199910    3.219320   -1.101990
  C     -5.232370    2.342190   -1.639570
  N     -4.480480    1.608700   -2.097600
  C     -7.517310    3.002220   -1.559660
  N     -8.589850    2.827180   -1.925880
  C     -8.216160    5.394540    0.366570
  C     -8.580800    6.443760    1.211730
  S     -7.183740    7.120610    2.038290
  C     -9.898290    6.888100    1.431710
  C    -10.403980    7.922840    2.246750
  C    -11.829260    7.978870    2.237460
  C    -12.496070    8.950280    3.003410
  C    -11.768230    9.837820    3.748670
  C    -10.365110    9.790650    3.752110
  C     -9.686900    8.854700    3.018480
  C    -12.418890    6.999010    1.410740
  S    -11.196000    6.037220    0.647560
  C    -13.788540    6.758200    1.221050
  C    -14.301630    5.822990    0.369890
  C    -15.675570    5.538680    0.230680
  C    -16.749900    6.035840    0.964190
  C    -17.958260    5.489260    0.558980
  C    -17.825050    4.570750   -0.504250
  S    -16.197160    4.381290   -0.986840
  C    -19.105690    4.077440   -0.836850
  C    -20.052140    4.672200    0.029090
  C    -19.365030    5.582030    0.923070
  C    -19.925900    6.372490    1.883760
  C    -19.150790    7.231320    2.689500
  N    -18.508260    7.919410    3.344440
  C    -21.316320    6.365060    2.122160
  N    -22.447370    6.341330    2.309380
  C    -21.352820    4.265160   -0.227140
  C    -21.427530    3.373540   -1.289020
  S    -19.831450    3.012870   -1.948470
  C    -22.554190    2.723450   -1.829760
  C    -23.877580    3.009490   -1.664000
  C    -24.597350    4.154960   -1.151270
  C    -24.209530    5.469490   -1.211430
  C    -25.027450    6.548740   -0.816340
  N    -25.653910    7.460940   -0.513080
  C    -22.991400    5.904390   -1.766990
  N    -22.019760    6.302500   -2.232050
  C    -25.943120    3.701500   -0.811330
  C    -26.128150    2.394700   -1.329130
  C    -24.873540    1.941040   -1.958890
  O    -24.666820    0.905730   -2.548830
  C    -27.314270    1.713320   -1.202790
  C    -28.359810    2.345240   -0.521040
  C    -28.157110    3.641960    0.010120
  C    -26.960890    4.336270   -0.126590
  S    -29.572890    4.225650    0.829060
  C    -30.409610    2.744170    0.447210
  C    -29.667650    1.855160   -0.255090
  Br   -32.181280    2.509490    1.014530
  H      0.849040    0.689980   -1.574890
  H      4.046990    2.987120    1.521890
  H      3.060100   -0.901780   -2.258950
  H     -0.776150    5.482860    2.150260
  H     -2.951120    3.289270   -0.315000
  H     -8.936020    4.857410   -0.224370
  H    -13.573570    8.995500    2.997680
  H    -12.272410   10.587430    4.338790
  H     -9.815650   10.507540    4.342610
  H     -8.609640    8.840220    3.028520
  H    -14.463390    7.364550    1.807070
  H    -13.622220    5.248250   -0.246220
  H    -16.640660    6.748690    1.760040
  H    -22.208260    4.557570    0.353710
  H    -22.356600    1.823270   -2.404380
  H    -27.432570    0.723560   -1.614920
  H    -26.847100    5.318270    0.301970
  H    -30.025640    0.892930   -0.572740

 Total Charge           Charge          ....    0
 Multiplicity           Mult            ....    1
 Number of Electrons    NEL             ....  656
 Basis Dimension        Dim             .... 1316

ORBITAL ENERGIES
----------------

  NO   OCC          E(Eh)            E(eV)
   0   2.0000    -482.885730    -13139.9887
   1   2.0000    -482.884855    -13139.9649
   2   2.0000     -89.000882     -2421.8371
   3   2.0000     -88.998322     -2421.7675
   4   2.0000     -88.997604     -2421.7479
   5   2.0000     -88.995732     -2421.6970
   6   2.0000     -88.987650     -2421.4771
   7   2.0000     -88.975879     -2421.1568
   8   2.0000     -88.974564     -2421.1210
   9   2.0000     -62.563434     -1702.4376
  10   2.0000     -62.562578     -1702.4143
  11   2.0000     -56.397387     -1534.6509
  12   2.0000     -56.396530     -1534.6276
  13   2.0000     -56.394668     -1534.5769
  14   2.0000     -56.394635     -1534.5760
  15   2.0000     -56.393810     -1534.5536
  16   2.0000     -56.393779     -1534.5527
  17   2.0000     -19.218777      -522.9695
  18   2.0000     -19.216484      -522.9071
  19   2.0000     -14.437534      -392.8653
  20   2.0000     -14.436876      -392.8474
  21   2.0000     -14.436669      -392.8417
  22   2.0000     -14.431601      -392.7038
  23   2.0000     -14.418900      -392.3582
  24   2.0000     -14.418264      -392.3409
  25   2.0000     -14.414411      -392.2361
  26   2.0000     -14.413504      -392.2114
  27   2.0000     -10.371530      -282.2237
  28   2.0000     -10.371289      -282.2171
  29   2.0000     -10.369394      -282.1656
  30   2.0000     -10.367711      -282.1198
  31   2.0000     -10.358974      -281.8820
  32   2.0000     -10.358935      -281.8810
  33   2.0000     -10.358188      -281.8606
  34   2.0000     -10.358182      -281.8605
  35   2.0000     -10.349131      -281.6142
  36   2.0000     -10.347510      -281.5701
  37   2.0000     -10.345298      -281.5099
  38   2.0000     -10.344854      -281.4978
  39   2.0000     -10.344267      -281.4818
  40   2.0000     -10.342417      -281.4315
  41   2.0000     -10.340906      -281.3904
  42   2.0000     -10.338032      -281.3121
  43   2.0000     -10.337950      -281.3099
  44   2.0000     -10.337174      -281.2888
  45   2.0000     -10.336788      -281.2783
  46   2.0000     -10.335642      -281.2471
  47   2.0000     -10.335472      -281.2425
  48   2.0000     -10.333741      -281.1954
  49   2.0000     -10.330539      -281.1083
  50   2.0000     -10.329232      -281.0727
  51   2.0000     -10.328782      -281.0605
  52   2.0000     -10.328390      -281.0498
  53   2.0000     -10.326797      -281.0064
  54   2.0000     -10.326399      -280.9956
  55   2.0000     -10.326080      -280.9869
  56   2.0000     -10.324609      -280.9469
  57   2.0000     -10.321559      -280.8639
  58   2.0000     -10.320171      -280.8261
  59   2.0000     -10.318086      -280.7694
  60   2.0000     -10.317089      -280.7423
  61   2.0000     -10.316953      -280.7386
  62   2.0000     -10.315638      -280.7028
  63   2.0000     -10.315401      -280.6963
  64   2.0000     -10.310337      -280.5585
  65   2.0000     -10.309836      -280.5449
  66   2.0000     -10.309828      -280.5447
  67   2.0000     -10.309628      -280.5393
  68   2.0000     -10.309235      -280.5285
  69   2.0000     -10.309058      -280.5237
  70   2.0000     -10.308932      -280.5203
  71   2.0000     -10.307980      -280.4944
  72   2.0000     -10.307315      -280.4763
  73   2.0000     -10.306933      -280.4659
  74   2.0000     -10.306797      -280.4622
  75   2.0000     -10.306305      -280.4488
  76   2.0000     -10.306197      -280.4459
  77   2.0000     -10.304686      -280.4048
  78   2.0000     -10.303701      -280.3779
  79   2.0000     -10.302317      -280.3403
  80   2.0000     -10.300833      -280.2999
  81   2.0000     -10.300676      -280.2957
  82   2.0000     -10.299692      -280.2689
  83   2.0000     -10.296883      -280.1924
  84   2.0000     -10.295822      -280.1636
  85   2.0000     -10.294469      -280.1267
  86   2.0000     -10.294241      -280.1205
  87   2.0000     -10.293914      -280.1116
  88   2.0000     -10.292027      -280.0603
  89   2.0000     -10.290949      -280.0309
  90   2.0000     -10.289925      -280.0031
  91   2.0000      -8.792856      -239.2658
  92   2.0000      -8.792011      -239.2428
  93   2.0000      -8.094765      -220.2698
  94   2.0000      -8.092969      -220.2209
  95   2.0000      -8.092265      -220.2017
  96   2.0000      -8.090512      -220.1540
  97   2.0000      -8.082400      -219.9333
  98   2.0000      -8.071883      -219.6471
  99   2.0000      -8.070643      -219.6134
 100   2.0000      -6.629164      -180.3887
 101   2.0000      -6.628331      -180.3660
 102   2.0000      -6.614591      -179.9922
 103   2.0000      -6.614382      -179.9865
 104   2.0000      -6.613743      -179.9691
 105   2.0000      -6.613536      -179.9635
 106   2.0000      -6.064184      -165.0148
 107   2.0000      -6.062160      -164.9598
 108   2.0000      -6.061433      -164.9400
 109   2.0000      -6.059924      -164.8989
 110   2.0000      -6.059637      -164.8911
 111   2.0000      -6.057970      -164.8457
 112   2.0000      -6.057353      -164.8290
 113   2.0000      -6.056953      -164.8181
 114   2.0000      -6.055484      -164.7781
 115   2.0000      -6.055444      -164.7770
 116   2.0000      -6.054695      -164.7566
 117   2.0000      -6.053010      -164.7108
 118   2.0000      -6.051449      -164.6683
 119   2.0000      -6.047428      -164.5589
 120   2.0000      -6.045011      -164.4931
 121   2.0000      -6.041563      -164.3993
 122   2.0000      -6.040333      -164.3658
 123   2.0000      -6.037289      -164.2830
 124   2.0000      -6.036051      -164.2493
 125   2.0000      -6.033113      -164.1694
 126   2.0000      -6.031842      -164.1348
 127   2.0000      -2.745030       -74.6961
 128   2.0000      -2.744179       -74.6729
 129   2.0000      -2.740944       -74.5849
 130   2.0000      -2.740802       -74.5810
 131   2.0000      -2.740112       -74.5622
 132   2.0000      -2.739955       -74.5580
 133   2.0000      -2.729207       -74.2655
 134   2.0000      -2.729195       -74.2652
 135   2.0000      -2.728376       -74.2429
 136   2.0000      -2.728350       -74.2422
 137   2.0000      -1.134185       -30.8627
 138   2.0000      -1.132050       -30.8047
 139   2.0000      -1.053243       -28.6602
 140   2.0000      -1.053115       -28.6567
 141   2.0000      -1.028833       -27.9960
 142   2.0000      -1.027585       -27.9620
 143   2.0000      -1.024343       -27.8738
 144   2.0000      -1.023076       -27.8393
 145   2.0000      -1.021564       -27.7982
 146   2.0000      -1.015385       -27.6300
 147   2.0000      -1.014314       -27.6009
 148   2.0000      -1.013938       -27.5907
 149   2.0000      -1.010809       -27.5055
 150   2.0000      -1.006068       -27.3765
 151   2.0000      -1.001819       -27.2609
 152   2.0000      -0.995084       -27.0776
 153   2.0000      -0.994879       -27.0720
 154   2.0000      -0.990436       -26.9511
 155   2.0000      -0.989204       -26.9176
 156   2.0000      -0.968859       -26.3640
 157   2.0000      -0.966472       -26.2990
 158   2.0000      -0.950621       -25.8677
 159   2.0000      -0.944138       -25.6913
 160   2.0000      -0.942902       -25.6577
 161   2.0000      -0.933967       -25.4145
 162   2.0000      -0.925128       -25.1740
 163   2.0000      -0.913423       -24.8555
 164   2.0000      -0.909486       -24.7484
 165   2.0000      -0.908043       -24.7091
 166   2.0000      -0.898786       -24.4572
 167   2.0000      -0.893951       -24.3256
 168   2.0000      -0.886696       -24.1282
 169   2.0000      -0.885072       -24.0840
 170   2.0000      -0.882156       -24.0047
 171   2.0000      -0.877400       -23.8753
 172   2.0000      -0.873659       -23.7735
 173   2.0000      -0.865056       -23.5394
 174   2.0000      -0.864106       -23.5135
 175   2.0000      -0.860835       -23.4245
 176   2.0000      -0.855752       -23.2862
 177   2.0000      -0.846193       -23.0261
 178   2.0000      -0.831974       -22.6392
 179   2.0000      -0.829784       -22.5796
 180   2.0000      -0.828399       -22.5419
 181   2.0000      -0.810998       -22.0684
 182   2.0000      -0.797060       -21.6891
 183   2.0000      -0.792687       -21.5701
 184   2.0000      -0.783166       -21.3110
 185   2.0000      -0.776310       -21.1245
 186   2.0000      -0.765727       -20.8365
 187   2.0000      -0.761000       -20.7079
 188   2.0000      -0.755592       -20.5607
 189   2.0000      -0.742931       -20.2162
 190   2.0000      -0.725746       -19.7485
 191   2.0000      -0.725525       -19.7425
 192   2.0000      -0.718605       -19.5542
 193   2.0000      -0.712221       -19.3805
 194   2.0000      -0.704905       -19.1815
 195   2.0000      -0.697678       -18.9848
 196   2.0000      -0.695810       -18.9340
 197   2.0000      -0.693711       -18.8768
 198   2.0000      -0.691354       -18.8127
 199   2.0000      -0.689426       -18.7602
 200   2.0000      -0.684738       -18.6327
 201   2.0000      -0.680812       -18.5258
 202   2.0000      -0.667965       -18.1762
 203   2.0000      -0.663512       -18.0551
 204   2.0000      -0.660040       -17.9606
 205   2.0000      -0.657667       -17.8960
 206   2.0000      -0.646485       -17.5918
 207   2.0000      -0.643698       -17.5159
 208   2.0000      -0.641949       -17.4683
 209   2.0000      -0.633052       -17.2262
 210   2.0000      -0.628167       -17.0933
 211   2.0000      -0.625832       -17.0298
 212   2.0000      -0.625074       -17.0091
 213   2.0000      -0.623750       -16.9731
 214   2.0000      -0.619740       -16.8640
 215   2.0000      -0.611839       -16.6490
 216   2.0000      -0.602647       -16.3989
 217   2.0000      -0.599727       -16.3194
 218   2.0000      -0.595492       -16.2042
 219   2.0000      -0.591406       -16.0930
 220   2.0000      -0.590075       -16.0567
 221   2.0000      -0.581537       -15.8244
 222   2.0000      -0.574320       -15.6280
 223   2.0000      -0.569247       -15.4900
 224   2.0000      -0.564077       -15.3493
 225   2.0000      -0.556778       -15.1507
 226   2.0000      -0.555813       -15.1244
 227   2.0000      -0.555540       -15.1170
 228   2.0000      -0.552035       -15.0216
 229   2.0000      -0.549718       -14.9586
 230   2.0000      -0.547619       -14.9015
 231   2.0000      -0.542048       -14.7499
 232   2.0000      -0.541755       -14.7419
 233   2.0000      -0.540797       -14.7158
 234   2.0000      -0.537712       -14.6319
 235   2.0000      -0.535328       -14.5670
 236   2.0000      -0.532314       -14.4850
 237   2.0000      -0.530012       -14.4224
 238   2.0000      -0.526454       -14.3255
 239   2.0000      -0.523958       -14.2576
 240   2.0000      -0.520914       -14.1748
 241   2.0000      -0.518181       -14.1004
 242   2.0000      -0.517683       -14.0869
 243   2.0000      -0.515101       -14.0166
 244   2.0000      -0.512647       -13.9498
 245   2.0000      -0.510617       -13.8946
 246   2.0000      -0.508323       -13.8322
 247   2.0000      -0.507680       -13.8147
 248   2.0000      -0.507396       -13.8070
 249   2.0000      -0.504719       -13.7341
 250   2.0000      -0.503904       -13.7119
 251   2.0000      -0.500765       -13.6265
 252   2.0000      -0.499785       -13.5998
 253   2.0000      -0.498089       -13.5537
 254   2.0000      -0.496157       -13.5011
 255   2.0000      -0.493091       -13.4177
 256   2.0000      -0.490606       -13.3501
 257   2.0000      -0.488643       -13.2966
 258   2.0000      -0.487458       -13.2644
 259   2.0000      -0.483572       -13.1587
 260   2.0000      -0.479112       -13.0373
 261   2.0000      -0.473592       -12.8871
 262   2.0000      -0.473412       -12.8822
 263   2.0000      -0.469648       -12.7798
 264   2.0000      -0.468120       -12.7382
 265   2.0000      -0.466902       -12.7050
 266   2.0000      -0.464707       -12.6453
 267   2.0000      -0.464291       -12.6340
 268   2.0000      -0.459301       -12.4982
 269   2.0000      -0.458885       -12.4869
 270   2.0000      -0.457754       -12.4561
 271   2.0000      -0.455408       -12.3923
 272   2.0000      -0.452639       -12.3169
 273   2.0000      -0.451562       -12.2876
 274   2.0000      -0.450374       -12.2553
 275   2.0000      -0.450044       -12.2463
 276   2.0000      -0.449512       -12.2318
 277   2.0000      -0.448861       -12.2141
 278   2.0000      -0.448539       -12.2054
 279   2.0000      -0.448064       -12.1924
 280   2.0000      -0.446793       -12.1579
 281   2.0000      -0.445012       -12.1094
 282   2.0000      -0.444127       -12.0853
 283   2.0000      -0.443782       -12.0759
 284   2.0000      -0.443268       -12.0619
 285   2.0000      -0.443035       -12.0556
 286   2.0000      -0.442558       -12.0426
 287   2.0000      -0.439307       -11.9542
 288   2.0000      -0.438399       -11.9294
 289   2.0000      -0.435022       -11.8376
 290   2.0000      -0.433525       -11.7968
 291   2.0000      -0.432447       -11.7675
 292   2.0000      -0.429511       -11.6876
 293   2.0000      -0.428319       -11.6552
 294   2.0000      -0.427778       -11.6404
 295   2.0000      -0.427402       -11.6302
 296   2.0000      -0.424734       -11.5576
 297   2.0000      -0.422730       -11.5031
 298   2.0000      -0.416578       -11.3357
 299   2.0000      -0.413291       -11.2462
 300   2.0000      -0.411110       -11.1869
 301   2.0000      -0.409892       -11.1537
 302   2.0000      -0.406818       -11.0701
 303   2.0000      -0.396880       -10.7997
 304   2.0000      -0.392170       -10.6715
 305   2.0000      -0.387461       -10.5433
 306   2.0000      -0.384797       -10.4708
 307   2.0000      -0.376367       -10.2415
 308   2.0000      -0.375129       -10.2078
 309   2.0000      -0.374295       -10.1851
 310   2.0000      -0.363243        -9.8843
 311   2.0000      -0.359137        -9.7726
 312   2.0000      -0.356862        -9.7107
 313   2.0000      -0.354690        -9.6516
 314   2.0000      -0.340592        -9.2680
 315   2.0000      -0.340265        -9.2591
 316   2.0000      -0.337682        -9.1888
 317   2.0000      -0.336697        -9.1620
 318   2.0000      -0.331169        -9.0116
 319   2.0000      -0.328509        -8.9392
 320   2.0000      -0.324483        -8.8296
 321   2.0000      -0.315924        -8.5967
 322   2.0000      -0.315064        -8.5733
 323   2.0000      -0.296702        -8.0737
 324   2.0000      -0.294718        -8.0197
 325   2.0000      -0.291176        -7.9233
 326   2.0000      -0.272487        -7.4148
 327   2.0000      -0.233552        -6.3553
 328   0.0000      -0.124304        -3.3825
 329   0.0000      -0.112240        -3.0542
 330   0.0000      -0.093413        -2.5419
 331   0.0000      -0.090152        -2.4532
 332   0.0000      -0.078622        -2.1394

MULLIKEN ATOMIC CHARGES
-----------------------
   0 C :    0.325443
   1 C :   -0.365204
   2 C :   -0.189059
   3 N :    0.149588
   4 C :   -0.178407
   5 N :    0.140436
   6 C :    0.011160
   7 C :   -0.011547
   8 C :   -0.072581
   9 C :    0.118547
  10 C :   -0.090763
  11 C :   -0.018730
  12 S :    0.185912
  13 C :   -0.123348
  14 C :    0.038689
  15 Br:    0.023966
  16 C :    0.151592
  17 O :   -0.150023
  18 C :   -0.085236
  19 C :    0.036503
  20 C :   -0.111771
  21 C :   -0.018753
  22 C :   -0.006664
  23 C :   -0.068245
  24 S :    0.199475
  25 C :   -0.101679
  26 C :    0.044601
  27 C :    0.313015
  28 C :   -0.298667
  29 C :   -0.194953
  30 N :    0.199070
  31 C :   -0.187437
  32 N :    0.167813
  33 C :   -0.084803
  34 C :   -0.049814
  35 S :    0.168134
  36 C :   -0.094906
  37 C :    0.103362
  38 C :    0.099452
  39 C :   -0.032423
  40 C :    0.029232
  41 C :    0.030650
  42 C :   -0.051913
  43 C :   -0.066707
  44 S :    0.148377
  45 C :   -0.006671
  46 C :    0.035130
  47 C :   -0.070182
  48 C :   -0.041544
  49 C :    0.017367
  50 C :   -0.112056
  51 S :    0.203787
  52 C :   -0.069096
  53 C :   -0.011519
  54 C :    0.307290
  55 C :   -0.285434
  56 C :   -0.181572
  57 N :    0.167533
  58 C :   -0.184632
  59 N :    0.171312
  60 C :    0.004659
  61 C :   -0.112685
  62 S :    0.212194
  63 C :    0.081918
  64 C :   -0.139857
  65 C :    0.272309
  66 C :   -0.333697
  67 C :   -0.170675
  68 N :    0.157485
  69 C :   -0.201844
  70 N :    0.166595
  71 C :   -0.004114
  72 C :    0.006452
  73 C :    0.132871
  74 O :   -0.146020
  75 C :   -0.070412
  76 C :    0.110675
  77 C :   -0.090204
  78 C :   -0.015765
  79 S :    0.188349
  80 C :   -0.127036
  81 C :    0.044392
  82 Br:    0.024238
  83 H :   -0.005171
  84 H :   -0.008155
  85 H :   -0.001585
  86 H :   -0.004088
  87 H :    0.038927
  88 H :    0.017724
  89 H :   -0.013876
  90 H :   -0.003704
  91 H :   -0.004850
  92 H :   -0.010499
  93 H :   -0.000560
  94 H :   -0.004778
  95 H :    0.006391
  96 H :    0.025203
  97 H :    0.019649
  98 H :   -0.009792
  99 H :    0.001500
 100 H :   -0.003265
Sum of atomic charges:   -0.0000000

LOEWDIN ATOMIC CHARGES
----------------------
   0 C :    0.078401
   1 C :   -0.147118
   2 C :   -0.018135
   3 N :   -0.056143
   4 C :   -0.022782
   5 N :   -0.057055
   6 C :   -0.022108
   7 C :   -0.050146
   8 C :    0.023062
   9 C :   -0.032141
  10 C :   -0.143933
  11 C :   -0.009715
  12 S :    0.432388
  13 C :   -0.271399
  14 C :   -0.069765
  15 Br:    0.137064
  16 C :    0.087036
  17 O :   -0.138527
  18 C :   -0.101498
  19 C :    0.039470
  20 C :   -0.178294
  21 C :    0.018364
  22 C :   -0.080670
  23 C :   -0.152866
  24 S :    0.491062
  25 C :   -0.204596
  26 C :   -0.044668
  27 C :    0.076648
  28 C :   -0.094297
  29 C :   -0.024248
  30 N :   -0.012568
  31 C :   -0.013534
  32 N :   -0.034882
  33 C :   -0.043975
  34 C :   -0.161677
  35 S :    0.488186
  36 C :   -0.189725
  37 C :   -0.041767
  38 C :   -0.037788
  39 C :   -0.008047
  40 C :   -0.017507
  41 C :   -0.009982
  42 C :   -0.028661
  43 C :   -0.164005
  44 S :    0.490531
  45 C :   -0.026339
  46 C :   -0.049416
  47 C :   -0.152473
  48 C :   -0.029028
  49 C :   -0.051114
  50 C :   -0.194358
  51 S :    0.484629
  52 C :   -0.154266
  53 C :   -0.070229
  54 C :    0.083453
  55 C :   -0.098286
  56 C :   -0.013907
  57 N :   -0.035032
  58 C :   -0.013478
  59 N :   -0.030052
  60 C :    0.012464
  61 C :   -0.182554
  62 S :    0.497003
  63 C :    0.041183
  64 C :   -0.094020
  65 C :    0.065683
  66 C :   -0.139590
  67 C :   -0.019356
  68 N :   -0.046984
  69 C :   -0.015871
  70 N :   -0.047711
  71 C :   -0.017559
  72 C :   -0.053461
  73 C :    0.083409
  74 O :   -0.145144
  75 C :    0.023001
  76 C :   -0.033630
  77 C :   -0.142714
  78 C :   -0.009739
  79 S :    0.434872
  80 C :   -0.271912
  81 C :   -0.070163
  82 Br:    0.137323
  83 H :    0.042715
  84 H :    0.040782
  85 H :    0.039493
  86 H :    0.041296
  87 H :    0.042956
  88 H :    0.033463
  89 H :    0.032087
  90 H :    0.034018
  91 H :    0.033765
  92 H :    0.014160
  93 H :    0.037388
  94 H :    0.025168
  95 H :    0.038766
  96 H :    0.042846
  97 H :    0.045514
  98 H :    0.041428
  99 H :    0.042676
 100 H :    0.038859

  Mayer bond orders larger than 0.100000
B(  0-C ,  1-C ) :   1.6042 B(  0-C ,  6-C ) :   0.9972 B(  0-C , 18-C ) :   1.0921
B(  1-C ,  2-C ) :   1.1494 B(  1-C ,  4-C ) :   1.1427 B(  2-C ,  3-N ) :   2.9650
B(  4-C ,  5-N ) :   2.9489 B(  6-C ,  7-C ) :   1.2765 B(  6-C , 11-C ) :   1.4073
B(  7-C ,  8-C ) :   1.4220 B(  7-C , 16-C ) :   0.9543 B(  8-C ,  9-C ) :   1.2411
B(  8-C , 83-H ) :   1.0184 B(  9-C , 10-C ) :   1.3058 B(  9-C , 14-C ) :   1.1625
B( 10-C , 11-C ) :   1.3322 B( 10-C , 12-S ) :   1.0861 B( 11-C , 84-H ) :   0.9796
B( 12-S , 13-C ) :   1.0866 B( 13-C , 14-C ) :   1.6167 B( 13-C , 15-Br) :   1.0189
B( 14-C , 85-H ) :   1.0012 B( 16-C , 17-O ) :   2.1589 B( 16-C , 18-C ) :   0.9395
B( 17-O , 87-H ) :   0.1031 B( 18-C , 19-C ) :   1.5773 B( 19-C , 20-C ) :   1.2390
B( 19-C , 86-H ) :   0.9006 B( 20-C , 21-C ) :   1.3861 B( 20-C , 24-S ) :   1.0640
B( 21-C , 22-C ) :   1.3121 B( 21-C , 87-H ) :   0.9703 B( 22-C , 23-C ) :   1.3507
B( 22-C , 27-C ) :   1.0045 B( 23-C , 24-S ) :   1.1660 B( 23-C , 25-C ) :   1.2244
B( 25-C , 26-C ) :   1.4067 B( 25-C , 35-S ) :   1.0913 B( 26-C , 27-C ) :   0.9842
B( 26-C , 33-C ) :   1.3473 B( 27-C , 28-C ) :   1.7139 B( 28-C , 29-C ) :   1.1361
B( 28-C , 31-C ) :   1.1369 B( 29-C , 30-N ) :   3.0008 B( 31-C , 32-N ) :   2.9827
B( 33-C , 34-C ) :   1.3814 B( 33-C , 88-H ) :   0.9829 B( 34-C , 35-S ) :   1.1191
B( 34-C , 36-C ) :   1.2267 B( 36-C , 37-C ) :   1.3172 B( 36-C , 43-C ) :   0.1041
B( 36-C , 44-S ) :   1.1522 B( 37-C , 38-C ) :   1.2198 B( 37-C , 42-C ) :   1.2064
B( 38-C , 39-C ) :   1.2281 B( 38-C , 43-C ) :   1.2872 B( 39-C , 40-C ) :   1.5377
B( 39-C , 89-H ) :   0.9916 B( 40-C , 41-C ) :   1.2323 B( 40-C , 90-H ) :   0.9853
B( 41-C , 42-C ) :   1.5526 B( 41-C , 91-H ) :   0.9839 B( 42-C , 92-H ) :   0.9784
B( 43-C , 44-S ) :   1.1334 B( 43-C , 45-C ) :   1.2259 B( 45-C , 46-C ) :   1.6136
B( 45-C , 93-H ) :   0.9666 B( 46-C , 47-C ) :   1.1576 B( 46-C , 94-H ) :   0.9603
B( 47-C , 48-C ) :   1.4149 B( 47-C , 51-S ) :   1.1144 B( 48-C , 49-C ) :   1.3328
B( 48-C , 95-H ) :   0.9889 B( 49-C , 50-C ) :   1.4140 B( 49-C , 54-C ) :   0.9929
B( 50-C , 51-S ) :   1.1105 B( 50-C , 52-C ) :   1.2180 B( 52-C , 53-C ) :   1.3939
B( 52-C , 62-S ) :   1.1569 B( 53-C , 54-C ) :   1.0075 B( 53-C , 60-C ) :   1.3653
B( 54-C , 55-C ) :   1.7139 B( 55-C , 56-C ) :   1.1354 B( 55-C , 58-C ) :   1.1336
B( 56-C , 57-N ) :   2.9826 B( 58-C , 59-N ) :   2.9826 B( 60-C , 61-C ) :   1.3883
B( 60-C , 96-H ) :   0.9770 B( 61-C , 62-S ) :   1.0809 B( 61-C , 63-C ) :   1.1512
B( 63-C , 64-C ) :   1.6577 B( 63-C , 97-H ) :   0.9274 B( 64-C , 65-C ) :   1.0411
B( 64-C , 73-C ) :   0.9468 B( 65-C , 66-C ) :   1.6424 B( 65-C , 71-C ) :   1.0086
B( 66-C , 67-C ) :   1.1261 B( 66-C , 69-C ) :   1.1732 B( 67-C , 68-N ) :   2.9923
B( 69-C , 70-N ) :   2.9951 B( 71-C , 72-C ) :   1.2778 B( 71-C , 78-C ) :   1.4184
B( 72-C , 73-C ) :   0.9210 B( 72-C , 75-C ) :   1.4247 B( 73-C , 74-O ) :   2.2600
B( 75-C , 76-C ) :   1.2516 B( 75-C , 98-H ) :   1.0158 B( 76-C , 77-C ) :   1.3095
B( 76-C , 81-C ) :   1.1642 B( 77-C , 78-C ) :   1.3258 B( 77-C , 79-S ) :   1.0854
B( 78-C , 99-H ) :   0.9832 B( 79-S , 80-C ) :   1.0884 B( 80-C , 81-C ) :   1.6169
B( 80-C , 82-Br) :   1.0196 B( 81-C ,100-H ) :   1.0000

-----------------------------------------------------------------------------
         ABSORPTION SPECTRUM VIA TRANSITION ELECTRIC DIPOLE MOMENTS
-----------------------------------------------------------------------------
State   Energy  Wavelength   fosc         T2         TX        TY        TZ
        (cm-1)    (nm)                  (au**2)     (au)      (au)      (au)
-----------------------------------------------------------------------------
   0    9316.3   1073.4   1.070582703  37.83148  -6.13721   0.25409  -0.31877
   1   11177.4    894.7   0.046331734   1.36462   0.51977   0.90623   0.52269
   2   15812.4    632.4   1.557638830  32.42989  -5.66932   0.02732  -0.53656
   3   18411.2    543.1   0.018273641   0.32675   0.46681  -0.28603  -0.16441
   4   19120.0    523.0   0.076946368   1.32488  -0.07354  -1.01742  -0.53322
   5   20319.3    492.1   0.074927642   1.21398  -1.06860   0.26033  -0.06561
   6   21074.0    474.5   0.091680984   1.43221   0.98162  -0.63870   0.24634
   7   24571.4    407.0   0.066503736   0.89103   0.41857   0.67682   0.50768
   8   25124.2    398.0   0.023003274   0.30142  -0.22797  -0.13347   0.48129
   9   25287.6    395.5   0.006079608   0.07915  -0.23343  -0.02135  -0.15558
  10   25793.8    387.7   0.051852239   0.66180   0.79087   0.15699   0.10808
  11   26318.1    380.0   0.303122222   3.79174  -0.66980   1.68118   0.71884
  12   26653.6    375.2   0.014739320   0.18205   0.23146   0.17108  -0.31498
  13   26946.6    371.1   0.451170556   5.51203  -2.27043  -0.21301  -0.55840
  14   27852.8    359.0   0.078461490   0.92739  -0.83665  -0.46947   0.08370
  15   28701.0    348.4   0.163337774   1.87355   1.26411   0.50140  -0.15553
  16   28886.3    346.2   0.102134627   1.16401   0.63783  -0.72538  -0.48063
  17   29025.1    344.5   0.008546475   0.09694  -0.15706   0.18952   0.19066
  18   29261.8    341.7   0.114237829   1.28524   0.95739   0.54927   0.25876
  19   29415.8    340.0   0.120807409   1.35204   0.97254   0.63167  -0.08485
  20   29717.9    336.5   0.099967466   1.10743   0.78086   0.47712   0.51965
  21   29912.3    334.3   0.076693484   0.84408   0.73168  -0.54415  -0.11238
  22   30184.4    331.3   0.097163834   1.05974   0.30232  -0.35835  -0.91647
  23   30344.7    329.5   0.635061569   6.88983   0.74260  -1.81488  -1.74487
  24   30404.3    328.9   0.055703179   0.60314   0.55699   0.52319   0.13849
  25   31058.8    322.0   0.030656530   0.32495  -0.53247   0.19254   0.06597
  26   31893.7    313.5   0.094312553   0.97351   0.58297   0.72002   0.33946
  27   31990.1    312.6   0.154145513   1.58632   0.95522   0.65235   0.49833
  28   32291.2    309.7   0.191470454   1.95206  -0.06991  -1.30047  -0.50593
  29   32351.1    309.1   0.317048482   3.22636  -1.37870   0.63403   0.96102
  30   32804.7    304.8   0.128183932   1.28639  -1.02547  -0.30590  -0.37580
  31   32881.4    304.1   0.068748036   0.68831   0.77647  -0.04138  -0.28930
  32   33181.5    301.4   0.057154029   0.56706  -0.64057  -0.21042  -0.33534
  33   33288.7    300.4   0.000101650   0.00101  -0.00915  -0.01886  -0.02379
  34   33330.4    300.0   0.032139411   0.31745   0.51458   0.02492  -0.22812
  35   33575.5    297.8   0.051976292   0.50963  -0.49227  -0.08483   0.51001
  36   33789.9    295.9   0.035720664   0.34802  -0.11933  -0.56262  -0.13130
  37   33850.5    295.4   0.005182020   0.05040  -0.04824   0.14702   0.16265
  38   33953.0    294.5   0.184700675   1.79088  -0.03663  -0.91733  -0.97367
  39   34113.4    293.1   0.060323990   0.58216   0.72732   0.22788  -0.03506
  40   34285.7    291.7   0.227730012   2.18667  -0.42580  -1.19712  -0.75648
  41   34494.2    289.9   0.203000813   1.93743  -0.14418   1.12789   0.80282
  42   34538.8    289.5   0.183818936   1.75210   1.14463   0.29163  -0.59738
  43   34810.8    287.3   0.355855381   3.36539  -0.82816  -1.51893  -0.61025
  44   35106.8    284.8   0.253432384   2.37655  -0.84711   0.88958   0.93145
  45   35434.3    282.2   0.082285885   0.76450  -0.81229   0.06568  -0.31681
  46   35534.0    281.4   0.014461667   0.13398   0.10871  -0.19941  -0.28705
  47   35825.7    279.1   0.089326100   0.82084   0.71401  -0.33617  -0.44499
  48   35906.3    278.5   0.153203796   1.40467   0.50399  -0.61299  -0.88029
  49   36141.9    276.7   0.043044365   0.39209  -0.00626   0.51388   0.35773
  50   36848.4    271.4   0.010485555   0.09368  -0.27220   0.13857  -0.01967
  51   37094.1    269.6   0.033440669   0.29679   0.24358   0.37310   0.31346
  52   37298.2    268.1   0.012282682   0.10841  -0.06285   0.17411   0.27230
  53   37631.1    265.7   0.022669180   0.19832  -0.26705  -0.31732   0.16221
  54   37726.9    265.1   0.031903963   0.27840   0.43726   0.10765   0.27497
  55   37935.8    263.6   0.004823800   0.04186   0.09182   0.15745   0.09294
  56   38154.3    262.1   0.051951363   0.44826   0.09635   0.50248   0.43185
  57   38325.0    260.9   0.010528838   0.09044  -0.29882   0.02476   0.02318
  58   38604.7    259.0   0.016079323   0.13712  -0.31556   0.17887  -0.07449
  59   38746.5    258.1   0.051924447   0.44118   0.65263  -0.11264   0.05072
  60   39045.4    256.1   0.078595280   0.66268   0.68705  -0.43429  -0.04505
  61   39161.8    255.4   0.044282103   0.37226   0.36732   0.43601   0.21732
  62   39433.4    253.6   0.325856147   2.72043   0.17307   1.22739   1.08811
  63   39563.7    252.8   0.060109363   0.50017  -0.00165  -0.61558  -0.34818
  64   39940.8    250.4   0.073178881   0.60318   0.72973   0.05502   0.26009
  65   40150.9    249.1   0.144963474   1.18861   0.74955  -0.68054  -0.40454

FINAL SINGLE POINT ENERGY    -10968.465620132838

DIPOLE MOMENT
-------------
                                X             Y             Z
Electronic contribution:    -13.68550     -82.00731     -21.00332
Nuclear contribution   :     12.80969      80.84074      20.99012
                        -----------------------------------------
Total Dipole Moment    :     -0.87581      -1.16657      -0.01320
                        -----------------------------------------
Magnitude (a.u.)       :      1.45880
Magnitude (Debye)      :      3.70797

Rotational constants in cm-1:     0.001424     0.000088     0.000084
Rotational constants in MHz :    42.696092     2.643240     2.519945

                             ****ORCA TERMINATED NORMALLY****
TOTAL RUN TIME: 0 days 0 hours 12 minutes 19 seconds 972 msec
