                         Program Version 4.2.0 -  RELEASE  -
|  1> # ORCA input file
|  2> # SCF done       -211.960432607783          0.000394418803
|  3> ! CAM-B3LYP def2-SVP def2/J RIJCOSX Grid4 TightSCF
|  4> %maxcore 5000
|  5> %tddft
|  6>     Mode sTDDFT
|  7>     Ethresh 5.0
|  8>     maxcore 5000
|  9> end
| 10>
| 11> %pal
| 12>   nprocs 6
| 13>   end
| 14> * xyz 0 1
| 15>    C        0.88963         3.99034         3.03647
| 16>    C        1.42456         2.73026         2.97012
| 17>    C        2.79735         2.44519         3.13237
| 18>    N        3.89912         2.14730         3.25350
| 19>    C        0.70635         1.53780         2.73886
| 20>    N        0.19901         0.52358         2.55797
| 21>    C        1.64679         5.21302         3.28751
| 22>    C        0.75013         6.31033         3.30170
| 23>    C        1.15893         7.60446         3.51477
| 24>    C        2.52340         7.82955         3.72322
| 25>    C        3.41389         6.72904         3.70646
| 26>    C        2.99819         5.42033         3.49199
| 27>    S        5.05373         7.23028         3.98226
| 28>    C        4.52932         8.88792         4.11548
| 29>    C        3.19451         9.05966         3.96114
| 30>   Br        5.79213        10.23443         4.44329
| 31>    C       -0.61366         5.81904         3.05489
| 32>    O       -1.62707         6.49587         3.00551
| 33>    C       -0.50506         4.36669         2.88043
| 34>    C       -1.54517         3.51881         2.59991
| 35>    C       -2.91078         3.78544         2.41270
| 36>    C       -3.82041         2.76730         2.09830
| 37>    C       -5.10832         3.23916         1.93682
| 38>    C       -5.19319         4.63870         2.13533
| 39>    S       -3.69847         5.36004         2.51371
| 40>    C       -6.53975         5.02819         1.93251
| 41>    C       -7.30118         3.88824         1.60733
| 42>    C       -6.42903         2.72613         1.60338
| 43>    C       -6.77809         1.43567         1.33523
| 44>    C       -5.83931         0.38195         1.35572
| 45>    N       -5.08183        -0.47830         1.36987
| 46>    C       -8.10289         1.06767         1.01637
| 47>    N       -9.17701         0.76341         0.75548
| 48>    C       -8.63976         4.18089         1.36835
| 49>    C       -8.90820         5.53353         1.50638
| 50>    S       -7.47515         6.45050         1.94997
| 51>    C      -10.16919         6.17490         1.29139
| 52>    C      -10.37320         7.54101         1.44731
| 53>    F       -9.35884         8.32255         1.85948
| 54>    C      -11.58790         8.18133         1.18564
| 55>    F      -11.61860         9.51326         1.37391
| 56>    C      -12.72748         7.52529         0.73522
| 57>    C      -12.57435         6.11566         0.59571
| 58>    C      -11.32423         5.45557         0.86857
| 59>    N      -11.41185         4.14273         0.66749
| 60>    S      -12.89623         3.76910         0.19140
| 61>    N      -13.50982         5.25019         0.21150
| 62>    C      -13.94710         8.19588         0.40389
| 63>    C      -15.09355         7.61155        -0.11085
| 64>    C      -16.08567         8.55056        -0.37167
| 65>    C      -15.69536         9.86462        -0.04742
| 66>    S      -14.11304         9.93752         0.57448
| 67>    C      -16.75617        10.74427        -0.37933
| 68>    C      -17.81499         9.98263        -0.91487
| 69>    C      -17.42680         8.58252        -0.93057
| 70>    C      -18.15669         7.53637        -1.41327
| 71>    C      -17.67764         6.20930        -1.39482
| 72>    N      -17.29325         5.12952        -1.37499
| 73>    C      -19.44008         7.73277        -1.96582
| 74>    N      -20.48215         7.91225        -2.40959
| 75>    C      -18.88701        10.76239        -1.32713
| 76>    C      -18.66256        12.11547        -1.11724
| 77>    S      -17.10346        12.40887        -0.35593
| 78>    C      -19.51174        13.20771        -1.40229
| 79>    C      -20.55861        13.26498        -2.27058
| 80>    C      -21.00522        12.40756        -3.34974
| 81>    C      -20.22412        11.61703        -4.15243
| 82>    C      -20.70878        10.92001        -5.27965
| 83>    N      -21.04905        10.33762        -6.20773
| 84>    C      -18.82877        11.48374        -4.01694
| 85>    N      -17.68755        11.36546        -3.96885
| 86>    C      -22.39656        12.75114        -3.62463
| 87>    C      -22.72206        13.93849        -2.92078
| 88>    C      -21.56230        14.35663        -2.11142
| 89>    O      -21.44808        15.34406        -1.42348
| 90>    C      -23.95492        14.53730        -3.01747
| 91>    C      -24.91303        13.92937        -3.83563
| 92>    C      -24.58369        12.73246        -4.51750
| 93>    C      -23.33454        12.13068        -4.42697
| 94>    S      -25.91862        12.14537        -5.45983
| 95>    C      -26.88686        13.49876        -4.93897
| 96>    C      -26.24594        14.34698        -4.09964
| 97>   Br      -28.65088        13.66426        -5.55169
| 98>    H        0.44913         8.41671         3.51983
| 99>    H        3.71783         4.61919         3.48849
|100>    H        2.70248        10.01371         4.01229
|101>    H       -1.30479         2.46833         2.48920
|102>    H       -3.51673         1.74032         1.99587
|103>    H       -9.40101         3.47203         1.10107
|104>    H      -15.16829         6.55386        -0.28216
|105>    H      -19.80739        10.37700        -1.72664
|106>    H      -19.35453        14.10793        -0.81580
|107>    H      -24.17420        15.44605        -2.47939
|108>    H      -23.13000        11.21443        -4.95565
|109>    H      -26.69310        15.23101        -3.68320
|110> *
|111>
|112>                          ****END OF INPUT****

CARTESIAN COORDINATES (ANGSTROEM)
---------------------------------
  C      0.889630    3.990340    3.036470
  C      1.424560    2.730260    2.970120
  C      2.797350    2.445190    3.132370
  N      3.899120    2.147300    3.253500
  C      0.706350    1.537800    2.738860
  N      0.199010    0.523580    2.557970
  C      1.646790    5.213020    3.287510
  C      0.750130    6.310330    3.301700
  C      1.158930    7.604460    3.514770
  C      2.523400    7.829550    3.723220
  C      3.413890    6.729040    3.706460
  C      2.998190    5.420330    3.491990
  S      5.053730    7.230280    3.982260
  C      4.529320    8.887920    4.115480
  C      3.194510    9.059660    3.961140
  Br     5.792130   10.234430    4.443290
  C     -0.613660    5.819040    3.054890
  O     -1.627070    6.495870    3.005510
  C     -0.505060    4.366690    2.880430
  C     -1.545170    3.518810    2.599910
  C     -2.910780    3.785440    2.412700
  C     -3.820410    2.767300    2.098300
  C     -5.108320    3.239160    1.936820
  C     -5.193190    4.638700    2.135330
  S     -3.698470    5.360040    2.513710
  C     -6.539750    5.028190    1.932510
  C     -7.301180    3.888240    1.607330
  C     -6.429030    2.726130    1.603380
  C     -6.778090    1.435670    1.335230
  C     -5.839310    0.381950    1.355720
  N     -5.081830   -0.478300    1.369870
  C     -8.102890    1.067670    1.016370
  N     -9.177010    0.763410    0.755480
  C     -8.639760    4.180890    1.368350
  C     -8.908200    5.533530    1.506380
  S     -7.475150    6.450500    1.949970
  C    -10.169190    6.174900    1.291390
  C    -10.373200    7.541010    1.447310
  F     -9.358840    8.322550    1.859480
  C    -11.587900    8.181330    1.185640
  F    -11.618600    9.513260    1.373910
  C    -12.727480    7.525290    0.735220
  C    -12.574350    6.115660    0.595710
  C    -11.324230    5.455570    0.868570
  N    -11.411850    4.142730    0.667490
  S    -12.896230    3.769100    0.191400
  N    -13.509820    5.250190    0.211500
  C    -13.947100    8.195880    0.403890
  C    -15.093550    7.611550   -0.110850
  C    -16.085670    8.550560   -0.371670
  C    -15.695360    9.864620   -0.047420
  S    -14.113040    9.937520    0.574480
  C    -16.756170   10.744270   -0.379330
  C    -17.814990    9.982630   -0.914870
  C    -17.426800    8.582520   -0.930570
  C    -18.156690    7.536370   -1.413270
  C    -17.677640    6.209300   -1.394820
  N    -17.293250    5.129520   -1.374990
  C    -19.440080    7.732770   -1.965820
  N    -20.482150    7.912250   -2.409590
  C    -18.887010   10.762390   -1.327130
  C    -18.662560   12.115470   -1.117240
  S    -17.103460   12.408870   -0.355930
  C    -19.511740   13.207710   -1.402290
  C    -20.558610   13.264980   -2.270580
  C    -21.005220   12.407560   -3.349740
  C    -20.224120   11.617030   -4.152430
  C    -20.708780   10.920010   -5.279650
  N    -21.049050   10.337620   -6.207730
  C    -18.828770   11.483740   -4.016940
  N    -17.687550   11.365460   -3.968850
  C    -22.396560   12.751140   -3.624630
  C    -22.722060   13.938490   -2.920780
  C    -21.562300   14.356630   -2.111420
  O    -21.448080   15.344060   -1.423480
  C    -23.954920   14.537300   -3.017470
  C    -24.913030   13.929370   -3.835630
  C    -24.583690   12.732460   -4.517500
  C    -23.334540   12.130680   -4.426970
  S    -25.918620   12.145370   -5.459830
  C    -26.886860   13.498760   -4.938970
  C    -26.245940   14.346980   -4.099640
  Br   -28.650880   13.664260   -5.551690
  H      0.449130    8.416710    3.519830
  H      3.717830    4.619190    3.488490
  H      2.702480   10.013710    4.012290
  H     -1.304790    2.468330    2.489200
  H     -3.516730    1.740320    1.995870
  H     -9.401010    3.472030    1.101070
  H    -15.168290    6.553860   -0.282160
  H    -19.807390   10.377000   -1.726640
  H    -19.354530   14.107930   -0.815800
  H    -24.174200   15.446050   -2.479390
  H    -23.130000   11.214430   -4.955650
  H    -26.693100   15.231010   -3.683200

 Total Charge           Charge          ....    0
 Multiplicity           Mult            ....    1
 Number of Electrons    NEL             ....  658
 Basis Dimension        Dim             .... 1286

ORBITAL ENERGIES
----------------

  NO   OCC          E(Eh)            E(eV)
   0   2.0000    -482.889458    -13140.0902
   1   2.0000    -482.887219    -13140.0293
   2   2.0000     -89.046772     -2423.0859
   3   2.0000     -88.999803     -2421.8078
   4   2.0000     -88.997679     -2421.7500
   5   2.0000     -88.996982     -2421.7310
   6   2.0000     -88.993560     -2421.6379
   7   2.0000     -88.980064     -2421.2706
   8   2.0000     -88.977639     -2421.2046
   9   2.0000     -62.567154     -1702.5388
  10   2.0000     -62.564944     -1702.4787
  11   2.0000     -56.401110     -1534.7522
  12   2.0000     -56.398899     -1534.6921
  13   2.0000     -56.398386     -1534.6781
  14   2.0000     -56.398354     -1534.6772
  15   2.0000     -56.396174     -1534.6179
  16   2.0000     -56.396144     -1534.6171
  17   2.0000     -24.828070      -675.6061
  18   2.0000     -24.827886      -675.6011
  19   2.0000     -19.229943      -523.2733
  20   2.0000     -19.219735      -522.9956
  21   2.0000     -14.461003      -393.5039
  22   2.0000     -14.460868      -393.5002
  23   2.0000     -14.435768      -392.8172
  24   2.0000     -14.433830      -392.7645
  25   2.0000     -14.432534      -392.7292
  26   2.0000     -14.431983      -392.7142
  27   2.0000     -14.421281      -392.4230
  28   2.0000     -14.420520      -392.4023
  29   2.0000     -14.418034      -392.3346
  30   2.0000     -14.417195      -392.3118
  31   2.0000     -10.403932      -283.1054
  32   2.0000     -10.403254      -283.0869
  33   2.0000     -10.377442      -282.3845
  34   2.0000     -10.370851      -282.2052
  35   2.0000     -10.370105      -282.1849
  36   2.0000     -10.368136      -282.1313
  37   2.0000     -10.363277      -281.9991
  38   2.0000     -10.360871      -281.9336
  39   2.0000     -10.357273      -281.8357
  40   2.0000     -10.356209      -281.8068
  41   2.0000     -10.354970      -281.7731
  42   2.0000     -10.354713      -281.7661
  43   2.0000     -10.347810      -281.5782
  44   2.0000     -10.347158      -281.5605
  45   2.0000     -10.346908      -281.5537
  46   2.0000     -10.346419      -281.5404
  47   2.0000     -10.346294      -281.5370
  48   2.0000     -10.339391      -281.3491
  49   2.0000     -10.338613      -281.3280
  50   2.0000     -10.338473      -281.3242
  51   2.0000     -10.338185      -281.3163
  52   2.0000     -10.337719      -281.3036
  53   2.0000     -10.337671      -281.3023
  54   2.0000     -10.336649      -281.2745
  55   2.0000     -10.336068      -281.2587
  56   2.0000     -10.333848      -281.1983
  57   2.0000     -10.332653      -281.1658
  58   2.0000     -10.331934      -281.1462
  59   2.0000     -10.331711      -281.1401
  60   2.0000     -10.331278      -281.1284
  61   2.0000     -10.330801      -281.1154
  62   2.0000     -10.330460      -281.1061
  63   2.0000     -10.328887      -281.0633
  64   2.0000     -10.328627      -281.0562
  65   2.0000     -10.322932      -280.9013
  66   2.0000     -10.322833      -280.8986
  67   2.0000     -10.321006      -280.8488
  68   2.0000     -10.319560      -280.8095
  69   2.0000     -10.316649      -280.7303
  70   2.0000     -10.315838      -280.7082
  71   2.0000     -10.313385      -280.6415
  72   2.0000     -10.312529      -280.6182
  73   2.0000     -10.312176      -280.6086
  74   2.0000     -10.311626      -280.5936
  75   2.0000     -10.311367      -280.5866
  76   2.0000     -10.310650      -280.5670
  77   2.0000     -10.310323      -280.5581
  78   2.0000     -10.310280      -280.5570
  79   2.0000     -10.309355      -280.5318
  80   2.0000     -10.308577      -280.5106
  81   2.0000     -10.307302      -280.4759
  82   2.0000     -10.304781      -280.4073
  83   2.0000     -10.304734      -280.4061
  84   2.0000     -10.304027      -280.3868
  85   2.0000     -10.303883      -280.3829
  86   2.0000     -10.303272      -280.3663
  87   2.0000     -10.301116      -280.3076
  88   2.0000     -10.298700      -280.2419
  89   2.0000     -10.298303      -280.2311
  90   2.0000     -10.296615      -280.1851
  91   2.0000      -8.796571      -239.3669
  92   2.0000      -8.794381      -239.3073
  93   2.0000      -8.138133      -221.4498
  94   2.0000      -8.094566      -220.2643
  95   2.0000      -8.091836      -220.1901
  96   2.0000      -8.091075      -220.1693
  97   2.0000      -8.085833      -220.0267
  98   2.0000      -8.076081      -219.7613
  99   2.0000      -8.073731      -219.6974
 100   2.0000      -6.632894      -180.4902
 101   2.0000      -6.630710      -180.4308
 102   2.0000      -6.618292      -180.0929
 103   2.0000      -6.618097      -180.0876
 104   2.0000      -6.616112      -180.0335
 105   2.0000      -6.615891      -180.0275
 106   2.0000      -6.109406      -166.2454
 107   2.0000      -6.101484      -166.0298
 108   2.0000      -6.100560      -166.0047
 109   2.0000      -6.063692      -165.0015
 110   2.0000      -6.061139      -164.9320
 111   2.0000      -6.060388      -164.9115
 112   2.0000      -6.059574      -164.8894
 113   2.0000      -6.057059      -164.8209
 114   2.0000      -6.056724      -164.8118
 115   2.0000      -6.055929      -164.7902
 116   2.0000      -6.055269      -164.7722
 117   2.0000      -6.054263      -164.7449
 118   2.0000      -6.053544      -164.7253
 119   2.0000      -6.050479      -164.6419
 120   2.0000      -6.048401      -164.5854
 121   2.0000      -6.045774      -164.5139
 122   2.0000      -6.043410      -164.4496
 123   2.0000      -6.041470      -164.3967
 124   2.0000      -6.039129      -164.3331
 125   2.0000      -6.037309      -164.2835
 126   2.0000      -6.034937      -164.2190
 127   2.0000      -2.748773       -74.7979
 128   2.0000      -2.746555       -74.7376
 129   2.0000      -2.744667       -74.6862
 130   2.0000      -2.744496       -74.6815
 131   2.0000      -2.742488       -74.6269
 132   2.0000      -2.742336       -74.6227
 133   2.0000      -2.732912       -74.3663
 134   2.0000      -2.732898       -74.3659
 135   2.0000      -2.730724       -74.3068
 136   2.0000      -2.730708       -74.3063
 137   2.0000      -1.351129       -36.7661
 138   2.0000      -1.333280       -36.2804
 139   2.0000      -1.149943       -31.2916
 140   2.0000      -1.145523       -31.1713
 141   2.0000      -1.135352       -30.8945
 142   2.0000      -1.053209       -28.6593
 143   2.0000      -1.050419       -28.5834
 144   2.0000      -1.028002       -27.9734
 145   2.0000      -1.027474       -27.9590
 146   2.0000      -1.026494       -27.9323
 147   2.0000      -1.024689       -27.8832
 148   2.0000      -1.017944       -27.6997
 149   2.0000      -1.017720       -27.6936
 150   2.0000      -1.013269       -27.5724
 151   2.0000      -1.012346       -27.5473
 152   2.0000      -1.011641       -27.5282
 153   2.0000      -1.009322       -27.4650
 154   2.0000      -0.999633       -27.2014
 155   2.0000      -0.998209       -27.1626
 156   2.0000      -0.997442       -27.1418
 157   2.0000      -0.995557       -27.0905
 158   2.0000      -0.993434       -27.0327
 159   2.0000      -0.991173       -26.9712
 160   2.0000      -0.966736       -26.3062
 161   2.0000      -0.962826       -26.1998
 162   2.0000      -0.947425       -25.7807
 163   2.0000      -0.946215       -25.7478
 164   2.0000      -0.929393       -25.2901
 165   2.0000      -0.923413       -25.1273
 166   2.0000      -0.913549       -24.8589
 167   2.0000      -0.911886       -24.8137
 168   2.0000      -0.908147       -24.7119
 169   2.0000      -0.898918       -24.4608
 170   2.0000      -0.891172       -24.2500
 171   2.0000      -0.890675       -24.2365
 172   2.0000      -0.888967       -24.1900
 173   2.0000      -0.887189       -24.1416
 174   2.0000      -0.877023       -23.8650
 175   2.0000      -0.876537       -23.8518
 176   2.0000      -0.865903       -23.5624
 177   2.0000      -0.863128       -23.4869
 178   2.0000      -0.861027       -23.4297
 179   2.0000      -0.856539       -23.3076
 180   2.0000      -0.834629       -22.7114
 181   2.0000      -0.832536       -22.6545
 182   2.0000      -0.827385       -22.5143
 183   2.0000      -0.804522       -21.8921
 184   2.0000      -0.796586       -21.6762
 185   2.0000      -0.783830       -21.3291
 186   2.0000      -0.780819       -21.2472
 187   2.0000      -0.772048       -21.0085
 188   2.0000      -0.768806       -20.9203
 189   2.0000      -0.763887       -20.7864
 190   2.0000      -0.760658       -20.6986
 191   2.0000      -0.742046       -20.1921
 192   2.0000      -0.738835       -20.1047
 193   2.0000      -0.724669       -19.7193
 194   2.0000      -0.717531       -19.5250
 195   2.0000      -0.709536       -19.3075
 196   2.0000      -0.705176       -19.1888
 197   2.0000      -0.699929       -19.0460
 198   2.0000      -0.697667       -18.9845
 199   2.0000      -0.695290       -18.9198
 200   2.0000      -0.691740       -18.8232
 201   2.0000      -0.689578       -18.7644
 202   2.0000      -0.684879       -18.6365
 203   2.0000      -0.676244       -18.4015
 204   2.0000      -0.672016       -18.2865
 205   2.0000      -0.664497       -18.0819
 206   2.0000      -0.663690       -18.0599
 207   2.0000      -0.661840       -18.0096
 208   2.0000      -0.655763       -17.8442
 209   2.0000      -0.647585       -17.6217
 210   2.0000      -0.643724       -17.5166
 211   2.0000      -0.639404       -17.3991
 212   2.0000      -0.634844       -17.2750
 213   2.0000      -0.630642       -17.1606
 214   2.0000      -0.627588       -17.0775
 215   2.0000      -0.624559       -16.9951
 216   2.0000      -0.622318       -16.9341
 217   2.0000      -0.621125       -16.9017
 218   2.0000      -0.615987       -16.7619
 219   2.0000      -0.608203       -16.5500
 220   2.0000      -0.604230       -16.4419
 221   2.0000      -0.600615       -16.3436
 222   2.0000      -0.597855       -16.2685
 223   2.0000      -0.591613       -16.0986
 224   2.0000      -0.582892       -15.8613
 225   2.0000      -0.576981       -15.7005
 226   2.0000      -0.575820       -15.6688
 227   2.0000      -0.571957       -15.5637
 228   2.0000      -0.569994       -15.5103
 229   2.0000      -0.568882       -15.4801
 230   2.0000      -0.559485       -15.2244
 231   2.0000      -0.554645       -15.0927
 232   2.0000      -0.553571       -15.0634
 233   2.0000      -0.553227       -15.0541
 234   2.0000      -0.548202       -14.9173
 235   2.0000      -0.547190       -14.8898
 236   2.0000      -0.544529       -14.8174
 237   2.0000      -0.543991       -14.8027
 238   2.0000      -0.541072       -14.7233
 239   2.0000      -0.538308       -14.6481
 240   2.0000      -0.534380       -14.5412
 241   2.0000      -0.531547       -14.4641
 242   2.0000      -0.527213       -14.3462
 243   2.0000      -0.525091       -14.2885
 244   2.0000      -0.520715       -14.1694
 245   2.0000      -0.516730       -14.0609
 246   2.0000      -0.516041       -14.0422
 247   2.0000      -0.515068       -14.0157
 248   2.0000      -0.512844       -13.9552
 249   2.0000      -0.510397       -13.8886
 250   2.0000      -0.508968       -13.8497
 251   2.0000      -0.508371       -13.8335
 252   2.0000      -0.505646       -13.7593
 253   2.0000      -0.503731       -13.7072
 254   2.0000      -0.502876       -13.6840
 255   2.0000      -0.502236       -13.6665
 256   2.0000      -0.500627       -13.6227
 257   2.0000      -0.498265       -13.5585
 258   2.0000      -0.495762       -13.4904
 259   2.0000      -0.493029       -13.4160
 260   2.0000      -0.492443       -13.4001
 261   2.0000      -0.491398       -13.3716
 262   2.0000      -0.486892       -13.2490
 263   2.0000      -0.482361       -13.1257
 264   2.0000      -0.481101       -13.0914
 265   2.0000      -0.478112       -13.0101
 266   2.0000      -0.473574       -12.8866
 267   2.0000      -0.465857       -12.6766
 268   2.0000      -0.464901       -12.6506
 269   2.0000      -0.463589       -12.6149
 270   2.0000      -0.462963       -12.5979
 271   2.0000      -0.462079       -12.5738
 272   2.0000      -0.460472       -12.5301
 273   2.0000      -0.458543       -12.4776
 274   2.0000      -0.457269       -12.4429
 275   2.0000      -0.455455       -12.3936
 276   2.0000      -0.454105       -12.3568
 277   2.0000      -0.452522       -12.3138
 278   2.0000      -0.451999       -12.2995
 279   2.0000      -0.450026       -12.2458
 280   2.0000      -0.447787       -12.1849
 281   2.0000      -0.447099       -12.1662
 282   2.0000      -0.445463       -12.1217
 283   2.0000      -0.444711       -12.1012
 284   2.0000      -0.444233       -12.0882
 285   2.0000      -0.443499       -12.0682
 286   2.0000      -0.442763       -12.0482
 287   2.0000      -0.442305       -12.0357
 288   2.0000      -0.441355       -12.0099
 289   2.0000      -0.441204       -12.0058
 290   2.0000      -0.437572       -11.9069
 291   2.0000      -0.431543       -11.7429
 292   2.0000      -0.431133       -11.7317
 293   2.0000      -0.430865       -11.7244
 294   2.0000      -0.429789       -11.6952
 295   2.0000      -0.429518       -11.6878
 296   2.0000      -0.427303       -11.6275
 297   2.0000      -0.423593       -11.5265
 298   2.0000      -0.420474       -11.4417
 299   2.0000      -0.419217       -11.4075
 300   2.0000      -0.414628       -11.2826
 301   2.0000      -0.413502       -11.2520
 302   2.0000      -0.412853       -11.2343
 303   2.0000      -0.410670       -11.1749
 304   2.0000      -0.397227       -10.8091
 305   2.0000      -0.393808       -10.7161
 306   2.0000      -0.392131       -10.6704
 307   2.0000      -0.388034       -10.5590
 308   2.0000      -0.386244       -10.5102
 309   2.0000      -0.378757       -10.3065
 310   2.0000      -0.377082       -10.2609
 311   2.0000      -0.376624       -10.2485
 312   2.0000      -0.367137        -9.9903
 313   2.0000      -0.356938        -9.7128
 314   2.0000      -0.354274        -9.6403
 315   2.0000      -0.353548        -9.6205
 316   2.0000      -0.352163        -9.5828
 317   2.0000      -0.346110        -9.4181
 318   2.0000      -0.344369        -9.3707
 319   2.0000      -0.336360        -9.1528
 320   2.0000      -0.328557        -8.9405
 321   2.0000      -0.326643        -8.8884
 322   2.0000      -0.320879        -8.7316
 323   2.0000      -0.318088        -8.6556
 324   2.0000      -0.313780        -8.5384
 325   2.0000      -0.298473        -8.1219
 326   2.0000      -0.296817        -8.0768
 327   2.0000      -0.280240        -7.6257
 328   2.0000      -0.256784        -6.9874
 329   0.0000      -0.121559        -3.3078
 330   0.0000      -0.111450        -3.0327
 331   0.0000      -0.094241        -2.5644
 332   0.0000      -0.091281        -2.4839
 333   0.0000      -0.085085        -2.3153

MULLIKEN ATOMIC CHARGES
-----------------------
   0 C :    0.325407
   1 C :   -0.350005
   2 C :   -0.186360
   3 N :    0.153389
   4 C :   -0.192221
   5 N :    0.153735
   6 C :    0.012136
   7 C :   -0.014930
   8 C :   -0.069622
   9 C :    0.117169
  10 C :   -0.091676
  11 C :   -0.018416
  12 S :    0.190346
  13 C :   -0.122338
  14 C :    0.037407
  15 Br:    0.026701
  16 C :    0.164994
  17 O :   -0.190458
  18 C :   -0.087586
  19 C :   -0.031032
  20 C :   -0.052932
  21 C :   -0.061567
  22 C :    0.050820
  23 C :   -0.075618
  24 S :    0.243875
  25 C :   -0.095648
  26 C :    0.037286
  27 C :    0.307828
  28 C :   -0.299762
  29 C :   -0.198361
  30 N :    0.188418
  31 C :   -0.186665
  32 N :    0.175404
  33 C :   -0.059719
  34 C :   -0.136138
  35 S :    0.213932
  36 C :    0.117834
  37 C :    0.118605
  38 F :   -0.172172
  39 C :    0.118571
  40 F :   -0.173527
  41 C :    0.121038
  42 C :    0.002347
  43 C :    0.000650
  44 N :   -0.285733
  45 S :    0.567459
  46 N :   -0.288008
  47 C :   -0.136995
  48 C :   -0.061428
  49 C :    0.037270
  50 C :   -0.091104
  51 S :    0.210095
  52 C :   -0.075763
  53 C :   -0.003329
  54 C :    0.312572
  55 C :   -0.292240
  56 C :   -0.185407
  57 N :    0.175543
  58 C :   -0.184203
  59 N :    0.170612
  60 C :   -0.005148
  61 C :   -0.113495
  62 S :    0.218021
  63 C :    0.079651
  64 C :   -0.130748
  65 C :    0.269283
  66 C :   -0.329600
  67 C :   -0.172823
  68 N :    0.161133
  69 C :   -0.200017
  70 N :    0.165381
  71 C :   -0.007765
  72 C :    0.007793
  73 C :    0.131904
  74 O :   -0.143802
  75 C :   -0.071372
  76 C :    0.112293
  77 C :   -0.087803
  78 C :   -0.014247
  79 S :    0.190281
  80 C :   -0.126240
  81 C :    0.041844
  82 Br:    0.026251
  83 H :   -0.009033
  84 H :   -0.005472
  85 H :   -0.002822
  86 H :    0.015415
  87 H :    0.029100
  88 H :    0.027197
  89 H :    0.025441
  90 H :    0.024772
  91 H :    0.022695
  92 H :   -0.008796
  93 H :    0.002940
  94 H :   -0.002690
Sum of atomic charges:    0.0000000

LOEWDIN ATOMIC CHARGES
----------------------
   0 C :    0.076231
   1 C :   -0.139787
   2 C :   -0.018083
   3 N :   -0.051539
   4 C :   -0.023453
   5 N :   -0.045976
   6 C :   -0.019754
   7 C :   -0.051952
   8 C :    0.022762
   9 C :   -0.032909
  10 C :   -0.143390
  11 C :   -0.008270
  12 S :    0.436435
  13 C :   -0.270919
  14 C :   -0.070355
  15 Br:    0.139348
  16 C :    0.086202
  17 O :   -0.175062
  18 C :   -0.110701
  19 C :    0.056426
  20 C :   -0.183264
  21 C :    0.012356
  22 C :   -0.075743
  23 C :   -0.167178
  24 S :    0.548281
  25 C :   -0.187320
  26 C :   -0.059227
  27 C :    0.077299
  28 C :   -0.099317
  29 C :   -0.020519
  30 N :   -0.023844
  31 C :   -0.016624
  32 N :   -0.030093
  33 C :   -0.016423
  34 C :   -0.160631
  35 S :    0.496776
  36 C :   -0.065662
  37 C :    0.062414
  38 F :   -0.046929
  39 C :    0.060507
  40 F :   -0.047701
  41 C :   -0.062868
  42 C :   -0.038201
  43 C :   -0.038028
  44 N :   -0.270545
  45 S :    0.682519
  46 N :   -0.270821
  47 C :   -0.164430
  48 C :   -0.013124
  49 C :   -0.062190
  50 C :   -0.183422
  51 S :    0.496847
  52 C :   -0.160140
  53 C :   -0.063469
  54 C :    0.082259
  55 C :   -0.096841
  56 C :   -0.016916
  57 N :   -0.027659
  58 C :   -0.012934
  59 N :   -0.032889
  60 C :    0.007068
  61 C :   -0.180778
  62 S :    0.501815
  63 C :    0.042209
  64 C :   -0.089467
  65 C :    0.065884
  66 C :   -0.136485
  67 C :   -0.019516
  68 N :   -0.045036
  69 C :   -0.015632
  70 N :   -0.047522
  71 C :   -0.017932
  72 C :   -0.053717
  73 C :    0.083595
  74 O :   -0.142802
  75 C :    0.023522
  76 C :   -0.032827
  77 C :   -0.142291
  78 C :   -0.008665
  79 S :    0.436445
  80 C :   -0.271260
  81 C :   -0.070111
  82 Br:    0.138825
  83 H :    0.041181
  84 H :    0.041604
  85 H :    0.039026
  86 H :    0.053764
  87 H :    0.048393
  88 H :    0.039115
  89 H :    0.039192
  90 H :    0.042656
  91 H :    0.046346
  92 H :    0.041726
  93 H :    0.043024
  94 H :    0.039091

  Mayer bond orders larger than 0.100000
B(  0-C ,  1-C ) :   1.6271 B(  0-C ,  6-C ) :   0.9992 B(  0-C , 18-C ) :   1.0777
B(  1-C ,  2-C ) :   1.1455 B(  1-C ,  4-C ) :   1.1430 B(  2-C ,  3-N ) :   2.9667
B(  4-C ,  5-N ) :   2.9585 B(  6-C ,  7-C ) :   1.2733 B(  6-C , 11-C ) :   1.4139
B(  7-C ,  8-C ) :   1.4201 B(  7-C , 16-C ) :   0.9649 B(  8-C ,  9-C ) :   1.2448
B(  8-C , 83-H ) :   1.0176 B(  9-C , 10-C ) :   1.3041 B(  9-C , 14-C ) :   1.1640
B( 10-C , 11-C ) :   1.3274 B( 10-C , 12-S ) :   1.0895 B( 11-C , 84-H ) :   0.9800
B( 12-S , 13-C ) :   1.0872 B( 13-C , 14-C ) :   1.6161 B( 13-C , 15-Br) :   1.0201
B( 14-C , 85-H ) :   1.0009 B( 16-C , 17-O ) :   2.1101 B( 16-C , 18-C ) :   0.9830
B( 18-C , 19-C ) :   1.4940 B( 19-C , 20-C ) :   1.2659 B( 19-C , 86-H ) :   0.9390
B( 20-C , 21-C ) :   1.3281 B( 20-C , 24-S ) :   1.0705 B( 21-C , 22-C ) :   1.3303
B( 21-C , 87-H ) :   1.0090 B( 22-C , 23-C ) :   1.3593 B( 22-C , 27-C ) :   0.9810
B( 23-C , 24-S ) :   1.1254 B( 23-C , 25-C ) :   1.2037 B( 25-C , 26-C ) :   1.4164
B( 25-C , 35-S ) :   1.1084 B( 26-C , 27-C ) :   1.0016 B( 26-C , 33-C ) :   1.2622
B( 27-C , 28-C ) :   1.7153 B( 28-C , 29-C ) :   1.1357 B( 28-C , 31-C ) :   1.1390
B( 29-C , 30-N ) :   2.9972 B( 31-C , 32-N ) :   2.9847 B( 33-C , 34-C ) :   1.4633
B( 33-C , 88-H ) :   0.9779 B( 34-C , 35-S ) :   1.0997 B( 34-C , 36-C ) :   1.1495
B( 36-C , 37-C ) :   1.3722 B( 36-C , 41-C ) :   0.1262 B( 36-C , 43-C ) :   1.1706
B( 37-C , 38-F ) :   1.1353 B( 37-C , 39-C ) :   1.1852 B( 39-C , 40-F ) :   1.1328
B( 39-C , 41-C ) :   1.3714 B( 41-C , 42-C ) :   1.1727 B( 41-C , 47-C ) :   1.1511
B( 42-C , 43-C ) :   1.1385 B( 42-C , 46-N ) :   1.5387 B( 43-C , 44-N ) :   1.5408
B( 44-N , 45-S ) :   1.2661 B( 44-N , 46-N ) :   0.1402 B( 45-S , 46-N ) :   1.2657
B( 47-C , 48-C ) :   1.4610 B( 47-C , 51-S ) :   1.0975 B( 48-C , 49-C ) :   1.2634
B( 48-C , 89-H ) :   0.9800 B( 49-C , 50-C ) :   1.4229 B( 49-C , 54-C ) :   0.9962
B( 50-C , 51-S ) :   1.1112 B( 50-C , 52-C ) :   1.1927 B( 52-C , 53-C ) :   1.4163
B( 52-C , 62-S ) :   1.1540 B( 53-C , 54-C ) :   0.9953 B( 53-C , 60-C ) :   1.3551
B( 54-C , 55-C ) :   1.7167 B( 55-C , 56-C ) :   1.1369 B( 55-C , 58-C ) :   1.1336
B( 56-C , 57-N ) :   2.9857 B( 58-C , 59-N ) :   2.9823 B( 60-C , 61-C ) :   1.4003
B( 60-C , 90-H ) :   0.9815 B( 61-C , 62-S ) :   1.0917 B( 61-C , 63-C ) :   1.1266
B( 63-C , 64-C ) :   1.6791 B( 63-C , 91-H ) :   0.9289 B( 64-C , 65-C ) :   1.0336
B( 64-C , 73-C ) :   0.9428 B( 65-C , 66-C ) :   1.6511 B( 65-C , 71-C ) :   1.0113
B( 66-C , 67-C ) :   1.1239 B( 66-C , 69-C ) :   1.1710 B( 67-C , 68-N ) :   2.9945
B( 69-C , 70-N ) :   2.9967 B( 71-C , 72-C ) :   1.2744 B( 71-C , 78-C ) :   1.4152
B( 72-C , 73-C ) :   0.9226 B( 72-C , 75-C ) :   1.4218 B( 73-C , 74-O ) :   2.2649
B( 75-C , 76-C ) :   1.2523 B( 75-C , 92-H ) :   1.0171 B( 76-C , 77-C ) :   1.3050
B( 76-C , 81-C ) :   1.1638 B( 77-C , 78-C ) :   1.3279 B( 77-C , 79-S ) :   1.0865
B( 78-C , 93-H ) :   0.9834 B( 79-S , 80-C ) :   1.0884 B( 80-C , 81-C ) :   1.6167
B( 80-C , 82-Br) :   1.0206 B( 81-C , 94-H ) :   1.0008

-----------------------------------------------------------------------------
         ABSORPTION SPECTRUM VIA TRANSITION ELECTRIC DIPOLE MOMENTS
-----------------------------------------------------------------------------
State   Energy  Wavelength   fosc         T2         TX        TY        TZ
        (cm-1)    (nm)                  (au**2)     (au)      (au)      (au)
-----------------------------------------------------------------------------
   0   13547.1    738.2   0.990111634  24.06093   4.37071  -1.82365   1.27755
   1   14835.9    674.0   0.140724152   3.12271  -1.75866   0.03982  -0.16808
   2   18629.6    536.8   1.462720274  25.84843  -4.53670   1.77991  -1.44869
   3   21097.6    474.0   0.157265562   2.45401  -1.16637  -0.69669   0.77989
   4   22163.4    451.2   0.012904839   0.19169  -0.39795  -0.18213   0.01229
   5   22940.8    435.9   0.273109650   3.91926   1.82701   0.52678   0.55119
   6   24275.2    411.9   0.017707368   0.24014   0.32519   0.18040   0.31914
   7   25606.5    390.5   0.065219816   0.83850  -0.89931   0.16327   0.05561
   8   26117.5    382.9   0.014440200   0.18202   0.08990  -0.41699  -0.00766
   9   27077.1    369.3   0.152948289   1.85959  -0.62556  -1.19860  -0.17784
  10   27766.7    360.1   0.089622070   1.06259  -0.93167  -0.32173  -0.30180
  11   28449.6    351.5   0.117611815   1.36098  -1.02133  -0.45323  -0.33531
  12   28772.2    347.6   0.220557125   2.52362  -1.03150   1.18354  -0.24263
  13   28899.2    346.0   0.002316004   0.02638  -0.11786  -0.07003   0.08711
  14   29120.3    343.4   0.055188930   0.62392   0.72186   0.26200   0.18491
  15   29313.5    341.1   0.064496791   0.72435   0.36439   0.76744   0.05109
  16   29518.5    338.8   0.135018855   1.50583   0.67756  -0.96993  -0.32552
  17   29928.0    334.1   0.149735642   1.64711   0.01003  -1.26896  -0.19170
  18   29999.3    333.3   0.172589392   1.89400  -1.13019  -0.66752  -0.41362
  19   30088.9    332.3   0.284764568   3.11570  -1.71978  -0.14631  -0.36966
  20   30615.0    326.6   0.179539856   1.93064  -1.27656  -0.00048  -0.54867
  21   30968.4    322.9   0.060390726   0.64199   0.36340   0.61331  -0.36575
  22   31051.2    322.0   0.156255584   1.65666  -0.04301  -1.26705  -0.22225
  23   31967.6    312.8   0.408160590   4.20337  -1.39628  -1.36647  -0.62172
  24   32176.1    310.8   0.459943624   4.70595  -0.64799   2.06994  -0.03735
  25   32355.3    309.1   0.458915273   4.66942   2.02169  -0.71754   0.25950
  26   32651.9    306.3   0.014488812   0.14608   0.25321  -0.06084   0.27976
  27   33044.4    302.6   0.207969204   2.07194   1.10648   0.88823   0.24228
  28   33126.9    301.9   0.012248881   0.12173   0.26893   0.18783   0.11886
  29   33511.9    298.4   0.168404064   1.65436  -0.76703   1.03213  -0.02669
  30   33674.1    297.0   0.074701410   0.73031  -0.62686   0.57001  -0.11159
  31   33767.5    296.1   0.015266698   0.14884   0.34282  -0.00659  -0.17684
  32   34103.2    293.2   0.046599816   0.44985  -0.63135   0.01280  -0.22602
  33   34218.3    292.2   0.235697951   2.26763   0.67998   1.26519   0.45228
  34   34490.6    289.9   0.238829139   2.27962  -0.96516  -1.10488  -0.35681
  35   34616.7    288.9   0.254235684   2.41783   0.99456  -1.16612  -0.26240
  36   34745.8    287.8   0.027972655   0.26504  -0.19126   0.42857  -0.21162
  37   34985.3    285.8   0.036762026   0.34593   0.14700   0.56692   0.05405
  38   35282.7    283.4   0.245845669   2.29391  -0.34797  -1.43303  -0.34532
  39   35504.6    281.7   0.046912344   0.43499  -0.58292  -0.30565  -0.04205
  40   35758.5    279.7   0.067933528   0.62543  -0.73818  -0.03622  -0.28145
  41   36111.0    276.9   0.063125512   0.57549  -0.43375   0.61187   0.11392
  42   36233.5    276.0   0.004279847   0.03889  -0.07534   0.16621   0.07472
  43   36566.2    273.5   0.068643547   0.61801   0.75083  -0.12551   0.19623
  44   36627.9    273.0   0.117165489   1.05309   0.02909   1.00882   0.18582
  45   37274.3    268.3   0.148925515   1.31533   1.04208  -0.47389  -0.06959
  46   37507.9    266.6   0.006009457   0.05275  -0.22434  -0.03911  -0.02982
  47   37605.7    265.9   0.001648664   0.01443  -0.03151   0.11588  -0.00335
  48   37747.9    264.9   0.100773636   0.87888  -0.84688   0.39408  -0.07987
  49   37820.2    264.4   0.040462477   0.35221   0.48701   0.14078   0.30857
  50   38133.5    262.2   0.035697924   0.30819   0.33084  -0.43916   0.07661
  51   38310.4    261.0   0.033590716   0.28865   0.25496  -0.41558  -0.22571
  52   38471.7    259.9   0.014247413   0.12192   0.32163   0.03741   0.13066
  53   38516.2    259.6   0.005544139   0.04739  -0.00810   0.01970   0.21664
  54   38823.6    257.6   0.002790637   0.02366  -0.01048   0.14572   0.04816
  55   38929.2    256.9   0.063512824   0.53711  -0.66567  -0.13620  -0.27466
  56   39266.3    254.7   0.037578044   0.31506   0.52618   0.18892  -0.05002
  57   39322.8    254.3   0.033087246   0.27701   0.43378   0.23704   0.18070
  58   39384.9    253.9   0.056119971   0.46910   0.68323  -0.04393  -0.01922
  59   39663.4    252.1   0.015475499   0.12845  -0.23879  -0.18637  -0.19155
  60   39748.7    251.6   0.033096493   0.27412   0.41072  -0.32220   0.04014
  61   39922.5    250.5   0.094831721   0.78201  -0.47414  -0.33711  -0.66600
  62   39949.8    250.3   0.132800189   1.09436  -0.40237   0.95743   0.12561

FINAL SINGLE POINT ENERGY    -11121.491021631893

DIPOLE MOMENT
-------------
                                X             Y             Z
Electronic contribution:     -3.70451      71.22302      -9.17573
Nuclear contribution   :      2.72818     -66.88440      10.99814
                        -----------------------------------------
Total Dipole Moment    :     -0.97633       4.33862       1.82241
                        -----------------------------------------
Magnitude (a.u.)       :      4.80604
Magnitude (Debye)      :     12.21599

Rotational constants in cm-1:     0.001288     0.000102     0.000096
Rotational constants in MHz :    38.625323     3.054989     2.864062

                             ****ORCA TERMINATED NORMALLY****
TOTAL RUN TIME: 0 days 0 hours 16 minutes 20 seconds 42 msec
