                         Program Version 4.2.0 -  RELEASE  -
|  1> # ORCA input file
|  2> # SCF done       -211.808183786109          0.000415132683
|  3> ! CAM-B3LYP def2-SVP def2/J RIJCOSX Grid4 TightSCF
|  4> %maxcore 5000
|  5> %tddft
|  6>     Mode sTDDFT
|  7>     Ethresh 5.0
|  8>     maxcore 5000
|  9> end
| 10>
| 11> %pal
| 12>   nprocs 6
| 13>   end
| 14> * xyz 0 1
| 15>    C        1.18510         2.86803         1.97742
| 16>    C        1.15491         2.09124         3.10819
| 17>    C        2.27614         1.41071         3.62925
| 18>    N        3.14335         0.83251         4.11049
| 19>    C        0.02778         1.82109         3.91247
| 20>    N       -0.83210         1.53213         4.61788
| 21>    C        2.35961         3.06133         1.13435
| 22>    C        1.98882         3.84303         0.01496
| 23>    C        2.87131         4.19032        -0.97866
| 24>    C        4.19088         3.74266        -0.86175
| 25>    C        4.55663         2.96500         0.26318
| 26>    C        3.66212         2.61519         1.26700
| 27>    S        6.23522         2.51887         0.21232
| 28>    C        6.41923         3.36870        -1.29929
| 29>    C        5.28418         3.95833        -1.74434
| 30>   Br        8.09229         3.39788        -2.14552
| 31>    C        0.56022         4.19562         0.10866
| 32>    O       -0.04931         4.87494        -0.69035
| 33>    C        0.07548         3.58544         1.36855
| 34>    C       -1.16550         3.69084         1.93969
| 35>    C       -2.36779         4.24644         1.46613
| 36>    C       -2.74057         4.80868         0.25014
| 37>    C       -4.08525         5.14459         0.21686
| 38>    C       -4.76517         4.84789         1.42321
| 39>    S       -3.74082         4.15886         2.58832
| 40>    C       -6.12681         5.19217         1.26728
| 41>    C       -6.31766         5.69837        -0.03044
| 42>    C       -5.03951         5.69729        -0.72884
| 43>    C       -4.80995         6.11832        -2.00470
| 44>    C       -3.54256         6.06891        -2.62618
| 45>    N       -2.53436         6.03868        -3.16988
| 46>    C       -5.84627         6.63753        -2.81083
| 47>    N       -6.68792         7.05920        -3.46549
| 48>    C       -7.64594         6.01654        -0.29943
| 49>    C       -8.47040         5.75901         0.78302
| 50>    S       -7.58658         5.12715         2.16092
| 51>    C       -9.87884         5.90539         0.82762
| 52>    C      -10.73435         5.69340         1.88831
| 53>    C      -12.07035         5.87143         1.52859
| 54>    C      -12.24685         6.21722         0.18195
| 55>    S      -10.73614         6.34720        -0.64073
| 56>    C      -13.59796         6.32948        -0.15462
| 57>    C      -14.44751         6.07834         0.94212
| 58>    S      -13.57509         5.70660         2.40229
| 59>    C      -15.75509         6.18160         0.48656
| 60>    C      -15.67925         6.47774        -0.87996
| 61>    N      -14.35573         6.57681        -1.25233
| 62>    C      -13.80368         6.94457        -2.52819
| 63>    C      -16.78952         6.59528        -1.76540
| 64>    C      -16.83632         6.50917        -3.14520
| 65>    C      -18.13887         6.60452        -3.63362
| 66>    C      -19.10082         6.76796        -2.62398
| 67>    S      -18.39097         6.80723        -1.06833
| 68>    C      -20.38259         6.82837        -3.22623
| 69>    C      -20.22192         6.69481        -4.62211
| 70>    C      -18.80912         6.56600        -4.92328
| 71>    C      -18.23565         6.46457        -6.15739
| 72>    C      -16.83843         6.36499        -6.31660
| 73>    N      -15.69933         6.28023        -6.41964
| 74>    C      -19.01551         6.45513        -7.33284
| 75>    N      -19.66656         6.44144        -8.27651
| 76>    C      -21.42144         6.75138        -5.31555
| 77>    C      -22.50893         6.93652        -4.47322
| 78>    S      -22.01469         7.00805        -2.78231
| 79>    C      -23.87785         7.00449        -4.80280
| 80>    C      -24.44756         7.21827        -6.02303
| 81>    C      -23.93922         7.71220        -7.28495
| 82>    C      -22.93410         8.62705        -7.46869
| 83>    C      -22.59407         9.17871        -8.72170
| 84>    N      -22.28425         9.66264        -9.71482
| 85>    C      -22.18687         9.19485        -6.41913
| 86>    N      -21.56851         9.69747        -5.59222
| 87>    C      -24.87124         7.28160        -8.32229
| 88>    C      -26.03710         6.76549        -7.70212
| 89>    C      -25.85878         6.79088        -6.23731
| 90>    O      -26.65747         6.48345        -5.38298
| 91>    C      -27.11181         6.30549        -8.42371
| 92>    C      -27.02439         6.34317        -9.81962
| 93>    C      -25.84762         6.84358       -10.42770
| 94>    C      -24.76430         7.31933        -9.69874
| 95>    S      -25.94624         6.77994       -12.16024
| 96>    C      -27.54637         6.09630       -12.04797
| 97>    C      -27.98569         5.92210       -10.77876
| 98>   Br      -28.48397         5.67399       -13.61584
| 99>    H        2.55069         4.78574        -1.81905
|100>    H        3.99415         2.02281         2.10270
|101>    H        5.21820         4.52214        -2.65686
|102>    H       -1.26709         3.26003         2.92876
|103>    H       -2.04110         4.95283        -0.55410
|104>    H       -8.01632         6.40793        -1.22983
|105>    H      -10.39659         5.41514         2.86992
|106>    H      -16.65835         6.04166         1.04524
|107>    H      -14.36579         7.77125        -2.96256
|108>    H      -13.80510         6.10046        -3.22200
|109>    H      -12.77181         7.26088        -2.37933
|110>    H      -15.98145         6.34380        -3.77045
|111>    H      -21.51855         6.61541        -6.37699
|112>    H      -24.57878         6.78172        -4.00424
|113>    H      -27.99142         5.92514        -7.92864
|114>    H      -23.88301         7.68150       -10.20190
|115>    H      -28.94690         5.51249       -10.52737
|116> *
|117>
|118>                          ****END OF INPUT****

CARTESIAN COORDINATES (ANGSTROEM)
---------------------------------
  C      1.185100    2.868030    1.977420
  C      1.154910    2.091240    3.108190
  C      2.276140    1.410710    3.629250
  N      3.143350    0.832510    4.110490
  C      0.027780    1.821090    3.912470
  N     -0.832100    1.532130    4.617880
  C      2.359610    3.061330    1.134350
  C      1.988820    3.843030    0.014960
  C      2.871310    4.190320   -0.978660
  C      4.190880    3.742660   -0.861750
  C      4.556630    2.965000    0.263180
  C      3.662120    2.615190    1.267000
  S      6.235220    2.518870    0.212320
  C      6.419230    3.368700   -1.299290
  C      5.284180    3.958330   -1.744340
  Br     8.092290    3.397880   -2.145520
  C      0.560220    4.195620    0.108660
  O     -0.049310    4.874940   -0.690350
  C      0.075480    3.585440    1.368550
  C     -1.165500    3.690840    1.939690
  C     -2.367790    4.246440    1.466130
  C     -2.740570    4.808680    0.250140
  C     -4.085250    5.144590    0.216860
  C     -4.765170    4.847890    1.423210
  S     -3.740820    4.158860    2.588320
  C     -6.126810    5.192170    1.267280
  C     -6.317660    5.698370   -0.030440
  C     -5.039510    5.697290   -0.728840
  C     -4.809950    6.118320   -2.004700
  C     -3.542560    6.068910   -2.626180
  N     -2.534360    6.038680   -3.169880
  C     -5.846270    6.637530   -2.810830
  N     -6.687920    7.059200   -3.465490
  C     -7.645940    6.016540   -0.299430
  C     -8.470400    5.759010    0.783020
  S     -7.586580    5.127150    2.160920
  C     -9.878840    5.905390    0.827620
  C    -10.734350    5.693400    1.888310
  C    -12.070350    5.871430    1.528590
  C    -12.246850    6.217220    0.181950
  S    -10.736140    6.347200   -0.640730
  C    -13.597960    6.329480   -0.154620
  C    -14.447510    6.078340    0.942120
  S    -13.575090    5.706600    2.402290
  C    -15.755090    6.181600    0.486560
  C    -15.679250    6.477740   -0.879960
  N    -14.355730    6.576810   -1.252330
  C    -13.803680    6.944570   -2.528190
  C    -16.789520    6.595280   -1.765400
  C    -16.836320    6.509170   -3.145200
  C    -18.138870    6.604520   -3.633620
  C    -19.100820    6.767960   -2.623980
  S    -18.390970    6.807230   -1.068330
  C    -20.382590    6.828370   -3.226230
  C    -20.221920    6.694810   -4.622110
  C    -18.809120    6.566000   -4.923280
  C    -18.235650    6.464570   -6.157390
  C    -16.838430    6.364990   -6.316600
  N    -15.699330    6.280230   -6.419640
  C    -19.015510    6.455130   -7.332840
  N    -19.666560    6.441440   -8.276510
  C    -21.421440    6.751380   -5.315550
  C    -22.508930    6.936520   -4.473220
  S    -22.014690    7.008050   -2.782310
  C    -23.877850    7.004490   -4.802800
  C    -24.447560    7.218270   -6.023030
  C    -23.939220    7.712200   -7.284950
  C    -22.934100    8.627050   -7.468690
  C    -22.594070    9.178710   -8.721700
  N    -22.284250    9.662640   -9.714820
  C    -22.186870    9.194850   -6.419130
  N    -21.568510    9.697470   -5.592220
  C    -24.871240    7.281600   -8.322290
  C    -26.037100    6.765490   -7.702120
  C    -25.858780    6.790880   -6.237310
  O    -26.657470    6.483450   -5.382980
  C    -27.111810    6.305490   -8.423710
  C    -27.024390    6.343170   -9.819620
  C    -25.847620    6.843580  -10.427700
  C    -24.764300    7.319330   -9.698740
  S    -25.946240    6.779940  -12.160240
  C    -27.546370    6.096300  -12.047970
  C    -27.985690    5.922100  -10.778760
  Br   -28.483970    5.673990  -13.615840
  H      2.550690    4.785740   -1.819050
  H      3.994150    2.022810    2.102700
  H      5.218200    4.522140   -2.656860
  H     -1.267090    3.260030    2.928760
  H     -2.041100    4.952830   -0.554100
  H     -8.016320    6.407930   -1.229830
  H    -10.396590    5.415140    2.869920
  H    -16.658350    6.041660    1.045240
  H    -14.365790    7.771250   -2.962560
  H    -13.805100    6.100460   -3.222000
  H    -12.771810    7.260880   -2.379330
  H    -15.981450    6.343800   -3.770450
  H    -21.518550    6.615410   -6.376990
  H    -24.578780    6.781720   -4.004240
  H    -27.991420    5.925140   -7.928640
  H    -23.883010    7.681500  -10.201900
  H    -28.946900    5.512490  -10.527370

 Total Charge           Charge          ....    0
 Multiplicity           Mult            ....    1
 Number of Electrons    NEL             ....  672
 Basis Dimension        Dim             .... 1329

ORBITAL ENERGIES
----------------

  NO   OCC          E(Eh)            E(eV)
   0   2.0000    -482.885690    -13139.9877
   1   2.0000    -482.884668    -13139.9598
   2   2.0000     -88.998883     -2421.7827
   3   2.0000     -88.998476     -2421.7717
   4   2.0000     -88.997371     -2421.7416
   5   2.0000     -88.996472     -2421.7171
   6   2.0000     -88.980507     -2421.2827
   7   2.0000     -88.975926     -2421.1580
   8   2.0000     -88.974660     -2421.1236
   9   2.0000     -88.966618     -2420.9048
  10   2.0000     -62.563431     -1702.4375
  11   2.0000     -62.562411     -1702.4098
  12   2.0000     -56.397381     -1534.6508
  13   2.0000     -56.396362     -1534.6230
  14   2.0000     -56.394664     -1534.5768
  15   2.0000     -56.394630     -1534.5759
  16   2.0000     -56.393642     -1534.5490
  17   2.0000     -56.393610     -1534.5481
  18   2.0000     -19.218845      -522.9714
  19   2.0000     -19.216636      -522.9112
  20   2.0000     -14.490784      -394.3143
  21   2.0000     -14.438897      -392.9024
  22   2.0000     -14.437217      -392.8567
  23   2.0000     -14.435485      -392.8095
  24   2.0000     -14.430973      -392.6867
  25   2.0000     -14.418918      -392.3587
  26   2.0000     -14.418089      -392.3362
  27   2.0000     -14.414328      -392.2338
  28   2.0000     -14.413833      -392.2203
  29   2.0000     -10.372184      -282.2415
  30   2.0000     -10.370770      -282.2030
  31   2.0000     -10.369706      -282.1740
  32   2.0000     -10.368195      -282.1329
  33   2.0000     -10.359259      -281.8898
  34   2.0000     -10.359024      -281.8834
  35   2.0000     -10.358117      -281.8587
  36   2.0000     -10.356866      -281.8246
  37   2.0000     -10.348805      -281.6053
  38   2.0000     -10.347750      -281.5766
  39   2.0000     -10.344766      -281.4954
  40   2.0000     -10.344187      -281.4796
  41   2.0000     -10.342513      -281.4341
  42   2.0000     -10.341306      -281.4012
  43   2.0000     -10.341239      -281.3994
  44   2.0000     -10.340527      -281.3800
  45   2.0000     -10.339581      -281.3543
  46   2.0000     -10.337668      -281.3023
  47   2.0000     -10.337429      -281.2958
  48   2.0000     -10.337032      -281.2849
  49   2.0000     -10.335560      -281.2449
  50   2.0000     -10.333994      -281.2023
  51   2.0000     -10.333412      -281.1864
  52   2.0000     -10.329859      -281.0898
  53   2.0000     -10.329409      -281.0775
  54   2.0000     -10.329056      -281.0679
  55   2.0000     -10.328573      -281.0547
  56   2.0000     -10.327561      -281.0272
  57   2.0000     -10.326583      -281.0006
  58   2.0000     -10.326528      -280.9991
  59   2.0000     -10.325351      -280.9671
  60   2.0000     -10.324815      -280.9525
  61   2.0000     -10.323122      -280.9064
  62   2.0000     -10.321346      -280.8581
  63   2.0000     -10.320274      -280.8289
  64   2.0000     -10.317255      -280.7468
  65   2.0000     -10.316837      -280.7354
  66   2.0000     -10.316594      -280.7288
  67   2.0000     -10.316238      -280.7191
  68   2.0000     -10.315145      -280.6894
  69   2.0000     -10.313982      -280.6577
  70   2.0000     -10.309726      -280.5419
  71   2.0000     -10.309559      -280.5374
  72   2.0000     -10.308885      -280.5190
  73   2.0000     -10.308239      -280.5015
  74   2.0000     -10.308033      -280.4958
  75   2.0000     -10.307854      -280.4910
  76   2.0000     -10.307442      -280.4798
  77   2.0000     -10.306847      -280.4636
  78   2.0000     -10.306769      -280.4614
  79   2.0000     -10.306433      -280.4523
  80   2.0000     -10.305164      -280.4178
  81   2.0000     -10.305106      -280.4162
  82   2.0000     -10.304842      -280.4090
  83   2.0000     -10.302617      -280.3485
  84   2.0000     -10.301087      -280.3068
  85   2.0000     -10.300998      -280.3044
  86   2.0000     -10.299757      -280.2706
  87   2.0000     -10.297082      -280.1979
  88   2.0000     -10.295735      -280.1612
  89   2.0000     -10.294233      -280.1203
  90   2.0000     -10.291135      -280.0360
  91   2.0000     -10.287737      -279.9436
  92   2.0000      -8.792882      -239.2665
  93   2.0000      -8.791865      -239.2388
  94   2.0000      -8.093608      -220.2383
  95   2.0000      -8.093068      -220.2236
  96   2.0000      -8.091858      -220.1906
  97   2.0000      -8.091243      -220.1739
  98   2.0000      -8.075023      -219.7326
  99   2.0000      -8.071943      -219.6487
 100   2.0000      -8.070696      -219.6148
 101   2.0000      -8.061515      -219.3650
 102   2.0000      -6.629198      -180.3896
 103   2.0000      -6.628191      -180.3623
 104   2.0000      -6.614608      -179.9926
 105   2.0000      -6.614409      -179.9872
 106   2.0000      -6.613591      -179.9650
 107   2.0000      -6.613385      -179.9594
 108   2.0000      -6.062758      -164.9760
 109   2.0000      -6.062402      -164.9663
 110   2.0000      -6.061251      -164.9350
 111   2.0000      -6.060330      -164.9100
 112   2.0000      -6.058611      -164.8632
 113   2.0000      -6.058242      -164.8531
 114   2.0000      -6.056975      -164.8187
 115   2.0000      -6.056217      -164.7981
 116   2.0000      -6.056088      -164.7945
 117   2.0000      -6.055214      -164.7708
 118   2.0000      -6.054021      -164.7383
 119   2.0000      -6.053783      -164.7318
 120   2.0000      -6.044629      -164.4827
 121   2.0000      -6.041616      -164.4007
 122   2.0000      -6.040622      -164.3737
 123   2.0000      -6.040393      -164.3674
 124   2.0000      -6.037357      -164.2848
 125   2.0000      -6.036503      -164.2616
 126   2.0000      -6.036107      -164.2508
 127   2.0000      -6.033175      -164.1710
 128   2.0000      -6.031895      -164.1362
 129   2.0000      -6.031436      -164.1237
 130   2.0000      -6.027539      -164.0177
 131   2.0000      -6.022215      -163.8728
 132   2.0000      -2.745059       -74.6969
 133   2.0000      -2.744003       -74.6681
 134   2.0000      -2.740980       -74.5858
 135   2.0000      -2.740820       -74.5815
 136   2.0000      -2.739989       -74.5589
 137   2.0000      -2.739832       -74.5546
 138   2.0000      -2.729238       -74.2663
 139   2.0000      -2.729216       -74.2657
 140   2.0000      -2.728217       -74.2386
 141   2.0000      -2.728198       -74.2380
 142   2.0000      -1.134458       -30.8702
 143   2.0000      -1.132270       -30.8106
 144   2.0000      -1.114553       -30.3285
 145   2.0000      -1.053395       -28.6643
 146   2.0000      -1.052483       -28.6395
 147   2.0000      -1.029690       -28.0193
 148   2.0000      -1.026359       -27.9287
 149   2.0000      -1.024493       -27.8779
 150   2.0000      -1.023065       -27.8390
 151   2.0000      -1.020530       -27.7700
 152   2.0000      -1.016063       -27.6485
 153   2.0000      -1.014733       -27.6123
 154   2.0000      -1.013934       -27.5905
 155   2.0000      -1.009926       -27.4815
 156   2.0000      -1.005799       -27.3692
 157   2.0000      -1.002809       -27.2878
 158   2.0000      -0.995033       -27.0762
 159   2.0000      -0.994936       -27.0736
 160   2.0000      -0.990535       -26.9538
 161   2.0000      -0.989450       -26.9243
 162   2.0000      -0.969088       -26.3702
 163   2.0000      -0.967709       -26.3327
 164   2.0000      -0.954752       -25.9801
 165   2.0000      -0.944357       -25.6973
 166   2.0000      -0.942957       -25.6592
 167   2.0000      -0.928248       -25.2589
 168   2.0000      -0.923417       -25.1275
 169   2.0000      -0.909926       -24.7604
 170   2.0000      -0.909290       -24.7430
 171   2.0000      -0.908113       -24.7110
 172   2.0000      -0.897578       -24.4243
 173   2.0000      -0.894494       -24.3404
 174   2.0000      -0.886862       -24.1327
 175   2.0000      -0.885145       -24.0860
 176   2.0000      -0.881468       -23.9860
 177   2.0000      -0.876708       -23.8564
 178   2.0000      -0.874969       -23.8091
 179   2.0000      -0.866600       -23.5814
 180   2.0000      -0.863844       -23.5064
 181   2.0000      -0.861651       -23.4467
 182   2.0000      -0.858920       -23.3724
 183   2.0000      -0.837176       -22.7807
 184   2.0000      -0.830956       -22.6115
 185   2.0000      -0.829962       -22.5844
 186   2.0000      -0.828393       -22.5417
 187   2.0000      -0.808821       -22.0091
 188   2.0000      -0.797481       -21.7006
 189   2.0000      -0.791130       -21.5278
 190   2.0000      -0.789800       -21.4916
 191   2.0000      -0.781290       -21.2600
 192   2.0000      -0.774794       -21.0832
 193   2.0000      -0.764835       -20.8122
 194   2.0000      -0.760815       -20.7028
 195   2.0000      -0.754315       -20.5260
 196   2.0000      -0.738903       -20.1066
 197   2.0000      -0.721823       -19.6418
 198   2.0000      -0.717321       -19.5193
 199   2.0000      -0.709631       -19.3100
 200   2.0000      -0.703137       -19.1333
 201   2.0000      -0.698955       -19.0195
 202   2.0000      -0.695501       -18.9255
 203   2.0000      -0.694197       -18.8901
 204   2.0000      -0.690390       -18.7865
 205   2.0000      -0.686558       -18.6822
 206   2.0000      -0.684233       -18.6189
 207   2.0000      -0.680331       -18.5128
 208   2.0000      -0.674948       -18.3663
 209   2.0000      -0.662528       -18.0283
 210   2.0000      -0.659330       -17.9413
 211   2.0000      -0.651907       -17.7393
 212   2.0000      -0.646805       -17.6005
 213   2.0000      -0.645873       -17.5751
 214   2.0000      -0.642839       -17.4925
 215   2.0000      -0.636985       -17.3333
 216   2.0000      -0.630390       -17.1538
 217   2.0000      -0.628843       -17.1117
 218   2.0000      -0.625420       -17.0186
 219   2.0000      -0.624857       -17.0032
 220   2.0000      -0.623713       -16.9721
 221   2.0000      -0.617710       -16.8087
 222   2.0000      -0.604001       -16.4357
 223   2.0000      -0.602877       -16.4051
 224   2.0000      -0.599928       -16.3249
 225   2.0000      -0.595614       -16.2075
 226   2.0000      -0.591285       -16.0897
 227   2.0000      -0.586651       -15.9636
 228   2.0000      -0.582578       -15.8528
 229   2.0000      -0.578358       -15.7379
 230   2.0000      -0.573842       -15.6150
 231   2.0000      -0.559851       -15.2343
 232   2.0000      -0.555460       -15.1148
 233   2.0000      -0.554875       -15.0989
 234   2.0000      -0.552190       -15.0258
 235   2.0000      -0.551368       -15.0035
 236   2.0000      -0.549220       -14.9450
 237   2.0000      -0.542242       -14.7552
 238   2.0000      -0.541827       -14.7439
 239   2.0000      -0.540639       -14.7115
 240   2.0000      -0.540190       -14.6993
 241   2.0000      -0.536793       -14.6069
 242   2.0000      -0.534171       -14.5355
 243   2.0000      -0.530966       -14.4483
 244   2.0000      -0.525606       -14.3025
 245   2.0000      -0.523644       -14.2491
 246   2.0000      -0.522292       -14.2123
 247   2.0000      -0.521167       -14.1817
 248   2.0000      -0.518263       -14.1026
 249   2.0000      -0.517010       -14.0686
 250   2.0000      -0.513689       -13.9782
 251   2.0000      -0.512665       -13.9503
 252   2.0000      -0.511673       -13.9233
 253   2.0000      -0.510333       -13.8869
 254   2.0000      -0.508273       -13.8308
 255   2.0000      -0.505905       -13.7664
 256   2.0000      -0.505252       -13.7486
 257   2.0000      -0.503245       -13.6940
 258   2.0000      -0.501765       -13.6537
 259   2.0000      -0.500478       -13.6187
 260   2.0000      -0.498697       -13.5702
 261   2.0000      -0.496029       -13.4976
 262   2.0000      -0.494077       -13.4445
 263   2.0000      -0.492590       -13.4041
 264   2.0000      -0.489373       -13.3165
 265   2.0000      -0.488891       -13.3034
 266   2.0000      -0.486783       -13.2460
 267   2.0000      -0.478860       -13.0304
 268   2.0000      -0.477955       -13.0058
 269   2.0000      -0.473747       -12.8913
 270   2.0000      -0.473467       -12.8837
 271   2.0000      -0.471251       -12.8234
 272   2.0000      -0.470054       -12.7908
 273   2.0000      -0.469298       -12.7702
 274   2.0000      -0.465473       -12.6662
 275   2.0000      -0.465022       -12.6539
 276   2.0000      -0.459533       -12.5045
 277   2.0000      -0.458915       -12.4877
 278   2.0000      -0.458652       -12.4806
 279   2.0000      -0.456420       -12.4198
 280   2.0000      -0.453469       -12.3395
 281   2.0000      -0.451829       -12.2949
 282   2.0000      -0.450242       -12.2517
 283   2.0000      -0.449657       -12.2358
 284   2.0000      -0.448715       -12.2101
 285   2.0000      -0.448070       -12.1926
 286   2.0000      -0.447521       -12.1777
 287   2.0000      -0.447389       -12.1741
 288   2.0000      -0.445713       -12.1285
 289   2.0000      -0.444051       -12.0832
 290   2.0000      -0.443597       -12.0709
 291   2.0000      -0.443227       -12.0608
 292   2.0000      -0.442690       -12.0462
 293   2.0000      -0.441632       -12.0174
 294   2.0000      -0.439995       -11.9729
 295   2.0000      -0.438492       -11.9320
 296   2.0000      -0.438398       -11.9294
 297   2.0000      -0.433962       -11.8087
 298   2.0000      -0.431727       -11.7479
 299   2.0000      -0.428616       -11.6632
 300   2.0000      -0.428298       -11.6546
 301   2.0000      -0.427442       -11.6313
 302   2.0000      -0.424565       -11.5530
 303   2.0000      -0.424209       -11.5433
 304   2.0000      -0.422883       -11.5072
 305   2.0000      -0.416168       -11.3245
 306   2.0000      -0.412805       -11.2330
 307   2.0000      -0.411142       -11.1877
 308   2.0000      -0.410594       -11.1728
 309   2.0000      -0.407304       -11.0833
 310   2.0000      -0.397028       -10.8037
 311   2.0000      -0.393864       -10.7176
 312   2.0000      -0.387867       -10.5544
 313   2.0000      -0.386177       -10.5084
 314   2.0000      -0.380179       -10.3452
 315   2.0000      -0.375132       -10.2079
 316   2.0000      -0.374136       -10.1808
 317   2.0000      -0.368768       -10.0347
 318   2.0000      -0.358578        -9.7574
 319   2.0000      -0.357939        -9.7400
 320   2.0000      -0.354916        -9.6577
 321   2.0000      -0.350342        -9.5333
 322   2.0000      -0.347780        -9.4636
 323   2.0000      -0.340709        -9.2712
 324   2.0000      -0.336499        -9.1566
 325   2.0000      -0.331324        -9.0158
 326   2.0000      -0.328863        -8.9488
 327   2.0000      -0.321945        -8.7606
 328   2.0000      -0.316052        -8.6002
 329   2.0000      -0.315086        -8.5739
 330   2.0000      -0.296565        -8.0699
 331   2.0000      -0.294634        -8.0174
 332   2.0000      -0.293377        -7.9832
 333   2.0000      -0.291402        -7.9294
 334   2.0000      -0.269822        -7.3422
 335   2.0000      -0.239270        -6.5109
 336   0.0000      -0.117781        -3.2050
 337   0.0000      -0.113443        -3.0869
 338   0.0000      -0.090906        -2.4737
 339   0.0000      -0.090043        -2.4502
 340   0.0000      -0.063216        -1.7202

MULLIKEN ATOMIC CHARGES
-----------------------
   0 C :    0.320776
   1 C :   -0.362582
   2 C :   -0.185592
   3 N :    0.149099
   4 C :   -0.186617
   5 N :    0.144776
   6 C :    0.010338
   7 C :   -0.011082
   8 C :   -0.072947
   9 C :    0.120545
  10 C :   -0.091844
  11 C :   -0.021048
  12 S :    0.186824
  13 C :   -0.123605
  14 C :    0.040280
  15 Br:    0.024325
  16 C :    0.153644
  17 O :   -0.148479
  18 C :   -0.089879
  19 C :    0.042464
  20 C :   -0.114798
  21 C :   -0.015638
  22 C :   -0.007081
  23 C :   -0.076667
  24 S :    0.203067
  25 C :   -0.109625
  26 C :    0.028842
  27 C :    0.311578
  28 C :   -0.299853
  29 C :   -0.192054
  30 N :    0.198282
  31 C :   -0.188589
  32 N :    0.172013
  33 C :   -0.073739
  34 C :   -0.032450
  35 S :    0.195288
  36 C :   -0.044214
  37 C :   -0.056218
  38 C :   -0.048531
  39 C :   -0.058550
  40 S :    0.140675
  41 C :    0.028512
  42 C :   -0.014630
  43 S :    0.154491
  44 C :   -0.144991
  45 C :    0.135212
  46 N :   -0.177899
  47 C :    0.117105
  48 C :   -0.075632
  49 C :   -0.069546
  50 C :    0.018255
  51 C :   -0.100466
  52 S :    0.189767
  53 C :   -0.069689
  54 C :   -0.012176
  55 C :    0.307264
  56 C :   -0.283180
  57 C :   -0.183325
  58 N :    0.162811
  59 C :   -0.183865
  60 N :    0.174019
  61 C :    0.000496
  62 C :   -0.113991
  63 S :    0.213870
  64 C :    0.086359
  65 C :   -0.138539
  66 C :    0.265028
  67 C :   -0.332263
  68 C :   -0.171471
  69 N :    0.159729
  70 C :   -0.203127
  71 N :    0.166076
  72 C :   -0.003695
  73 C :    0.006408
  74 C :    0.134054
  75 O :   -0.146195
  76 C :   -0.073328
  77 C :    0.112649
  78 C :   -0.090505
  79 C :   -0.017306
  80 S :    0.189083
  81 C :   -0.126804
  82 C :    0.042646
  83 Br:    0.024697
  84 H :   -0.005697
  85 H :   -0.006279
  86 H :   -0.002131
  87 H :    0.001106
  88 H :    0.037717
  89 H :    0.016195
  90 H :   -0.006464
  91 H :   -0.014157
  92 H :    0.055381
  93 H :    0.067251
  94 H :    0.045495
  95 H :   -0.012506
  96 H :    0.026461
  97 H :    0.019456
  98 H :   -0.009071
  99 H :    0.003654
 100 H :   -0.003454
Sum of atomic charges:   -0.0000000

LOEWDIN ATOMIC CHARGES
----------------------
   0 C :    0.078104
   1 C :   -0.146304
   2 C :   -0.018115
   3 N :   -0.055634
   4 C :   -0.023421
   5 N :   -0.056354
   6 C :   -0.022092
   7 C :   -0.050170
   8 C :    0.023567
   9 C :   -0.031991
  10 C :   -0.143762
  11 C :   -0.009830
  12 S :    0.432516
  13 C :   -0.271359
  14 C :   -0.069450
  15 Br:    0.137332
  16 C :    0.086875
  17 O :   -0.137364
  18 C :   -0.100865
  19 C :    0.041453
  20 C :   -0.178960
  21 C :    0.018615
  22 C :   -0.079282
  23 C :   -0.154311
  24 S :    0.494368
  25 C :   -0.197516
  26 C :   -0.047412
  27 C :    0.075948
  28 C :   -0.092767
  29 C :   -0.023673
  30 N :   -0.012714
  31 C :   -0.014447
  32 N :   -0.031681
  33 C :   -0.045616
  34 C :   -0.160870
  35 S :    0.478308
  36 C :   -0.185846
  37 C :   -0.060024
  38 C :   -0.189160
  39 C :   -0.210000
  40 S :    0.432441
  41 C :   -0.042064
  42 C :   -0.187070
  43 S :    0.397716
  44 C :   -0.082341
  45 C :   -0.025193
  46 N :    0.054184
  47 C :    0.038017
  48 C :   -0.150001
  49 C :   -0.048986
  50 C :   -0.054988
  51 C :   -0.191430
  52 S :    0.484624
  53 C :   -0.154756
  54 C :   -0.071227
  55 C :    0.084682
  56 C :   -0.099193
  57 C :   -0.012672
  58 N :   -0.036701
  59 C :   -0.013912
  60 N :   -0.029887
  61 C :    0.011401
  62 C :   -0.184277
  63 S :    0.498427
  64 C :    0.042595
  65 C :   -0.093888
  66 C :    0.065420
  67 C :   -0.139501
  68 C :   -0.019721
  69 N :   -0.046815
  70 C :   -0.016083
  71 N :   -0.048121
  72 C :   -0.017629
  73 C :   -0.053372
  74 C :    0.083485
  75 O :   -0.145303
  76 C :    0.022638
  77 C :   -0.033311
  78 C :   -0.142833
  79 C :   -0.009302
  80 S :    0.435204
  81 C :   -0.271966
  82 C :   -0.070027
  83 Br:    0.137384
  84 H :    0.042783
  85 H :    0.040984
  86 H :    0.039539
  87 H :    0.041784
  88 H :    0.042817
  89 H :    0.035947
  90 H :    0.032161
  91 H :    0.025110
  92 H :    0.039713
  93 H :    0.036369
  94 H :    0.033274
  95 H :    0.036058
  96 H :    0.042770
  97 H :    0.045624
  98 H :    0.041423
  99 H :    0.043098
 100 H :    0.038805

  Mayer bond orders larger than 0.100000
B(  0-C ,  1-C ) :   1.6099 B(  0-C ,  6-C ) :   0.9960 B(  0-C , 18-C ) :   1.0900
B(  1-C ,  2-C ) :   1.1463 B(  1-C ,  4-C ) :   1.1431 B(  2-C ,  3-N ) :   2.9675
B(  4-C ,  5-N ) :   2.9603 B(  6-C ,  7-C ) :   1.2774 B(  6-C , 11-C ) :   1.4071
B(  7-C ,  8-C ) :   1.4239 B(  7-C , 16-C ) :   0.9528 B(  8-C ,  9-C ) :   1.2400
B(  8-C , 84-H ) :   1.0178 B(  9-C , 10-C ) :   1.3056 B(  9-C , 14-C ) :   1.1629
B( 10-C , 11-C ) :   1.3329 B( 10-C , 12-S ) :   1.0869 B( 11-C , 85-H ) :   0.9789
B( 12-S , 13-C ) :   1.0864 B( 13-C , 14-C ) :   1.6171 B( 13-C , 15-Br) :   1.0192
B( 14-C , 86-H ) :   1.0004 B( 16-C , 17-O ) :   2.1627 B( 16-C , 18-C ) :   0.9402
B( 17-O , 88-H ) :   0.1005 B( 18-C , 19-C ) :   1.5815 B( 19-C , 20-C ) :   1.2332
B( 19-C , 87-H ) :   0.9045 B( 20-C , 21-C ) :   1.3910 B( 20-C , 24-S ) :   1.0689
B( 21-C , 22-C ) :   1.3147 B( 21-C , 88-H ) :   0.9688 B( 22-C , 23-C ) :   1.3670
B( 22-C , 27-C ) :   0.9991 B( 23-C , 24-S ) :   1.1700 B( 23-C , 25-C ) :   1.2123
B( 25-C , 26-C ) :   1.4356 B( 25-C , 35-S ) :   1.0976 B( 26-C , 27-C ) :   0.9921
B( 26-C , 33-C ) :   1.3090 B( 27-C , 28-C ) :   1.7162 B( 28-C , 29-C ) :   1.1355
B( 28-C , 31-C ) :   1.1360 B( 29-C , 30-N ) :   2.9994 B( 31-C , 32-N ) :   2.9855
B( 33-C , 34-C ) :   1.4397 B( 33-C , 89-H ) :   0.9850 B( 34-C , 35-S ) :   1.1206
B( 34-C , 36-C ) :   1.1762 B( 36-C , 37-C ) :   1.5007 B( 36-C , 40-S ) :   1.0805
B( 37-C , 38-C ) :   1.2879 B( 37-C , 90-H ) :   0.9954 B( 38-C , 39-C ) :   1.4403
B( 38-C , 43-S ) :   1.0521 B( 39-C , 40-S ) :   1.0536 B( 39-C , 41-C ) :   1.2642
B( 41-C , 42-C ) :   1.3815 B( 41-C , 46-N ) :   1.2036 B( 42-C , 43-S ) :   1.0192
B( 42-C , 44-C ) :   1.3444 B( 44-C , 45-C ) :   1.4167 B( 44-C , 91-H ) :   1.0030
B( 45-C , 46-N ) :   1.1833 B( 45-C , 48-C ) :   1.0953 B( 46-N , 47-C ) :   0.9595
B( 47-C , 92-H ) :   0.9652 B( 47-C , 93-H ) :   0.9636 B( 47-C , 94-H ) :   0.9627
B( 48-C , 49-C ) :   1.4404 B( 48-C , 52-S ) :   1.1282 B( 49-C , 50-C ) :   1.2732
B( 49-C , 95-H ) :   0.9967 B( 50-C , 51-C ) :   1.4493 B( 50-C , 55-C ) :   0.9955
B( 51-C , 52-S ) :   1.0980 B( 51-C , 53-C ) :   1.1976 B( 53-C , 54-C ) :   1.4039
B( 53-C , 63-S ) :   1.1590 B( 54-C , 55-C ) :   1.0012 B( 54-C , 61-C ) :   1.3659
B( 55-C , 56-C ) :   1.7131 B( 56-C , 57-C ) :   1.1366 B( 56-C , 59-C ) :   1.1319
B( 57-C , 58-N ) :   2.9791 B( 59-C , 60-N ) :   2.9836 B( 61-C , 62-C ) :   1.3903
B( 61-C , 96-H ) :   0.9782 B( 62-C , 63-S ) :   1.0819 B( 62-C , 64-C ) :   1.1477
B( 64-C , 65-C ) :   1.6614 B( 64-C , 97-H ) :   0.9293 B( 65-C , 66-C ) :   1.0402
B( 65-C , 74-C ) :   0.9456 B( 66-C , 67-C ) :   1.6462 B( 66-C , 72-C ) :   1.0099
B( 67-C , 68-C ) :   1.1263 B( 67-C , 70-C ) :   1.1715 B( 68-C , 69-N ) :   2.9941
B( 70-C , 71-N ) :   2.9973 B( 72-C , 73-C ) :   1.2740 B( 72-C , 79-C ) :   1.4172
B( 73-C , 74-C ) :   0.9211 B( 73-C , 76-C ) :   1.4251 B( 74-C , 75-O ) :   2.2623
B( 76-C , 77-C ) :   1.2518 B( 76-C , 98-H ) :   1.0159 B( 77-C , 78-C ) :   1.3050
B( 77-C , 82-C ) :   1.1658 B( 78-C , 79-C ) :   1.3281 B( 78-C , 80-S ) :   1.0859
B( 79-C , 99-H ) :   0.9831 B( 80-S , 81-C ) :   1.0875 B( 81-C , 82-C ) :   1.6185
B( 81-C , 83-Br) :   1.0195 B( 82-C ,100-H ) :   0.9994

-----------------------------------------------------------------------------
         ABSORPTION SPECTRUM VIA TRANSITION ELECTRIC DIPOLE MOMENTS
-----------------------------------------------------------------------------
State   Energy  Wavelength   fosc         T2         TX        TY        TZ
        (cm-1)    (nm)                  (au**2)     (au)      (au)      (au)
-----------------------------------------------------------------------------
   0   10993.9    909.6   0.647811926  19.39877   4.07132  -0.61827   1.56232
   1   12096.5    826.7   0.189418403   5.15510   2.21543  -0.49682   0.01173
   2   18212.6    549.1   1.666471159  30.12319   4.95768  -0.98841   2.13721
   3   19480.6    513.3   0.148153644   2.50372   1.50832  -0.33284  -0.34335
   4   20180.8    495.5   0.078631842   1.28273   0.72136  -0.17488  -0.85544
   5   20862.8    479.3   0.465456178   7.34484   2.47354  -0.93442   0.59437
   6   24855.6    402.3   0.004729386   0.06264  -0.17914  -0.14576   0.09646
   7   25117.8    398.1   0.085413465   1.11949  -1.05109   0.02487  -0.11868
   8   25566.3    391.1   0.019950838   0.25690   0.09105  -0.13341  -0.48043
   9   25631.2    390.1   0.292587730   3.75805   1.79541   0.47298   0.55754
  10   26021.3    384.3   0.194637529   2.46248  -1.42336  -0.61549   0.24018
  11   26561.2    376.5   0.021958806   0.27217   0.50759   0.09861  -0.06926
  12   26959.1    370.9   0.021460387   0.26206   0.28698   0.11276  -0.40865
  13   27097.7    369.0   0.042989947   0.52229  -0.36414   0.22199   0.58345
  14   27494.1    363.7   0.592250694   7.09156   2.39270  -0.57198   1.01951
  15   28065.8    356.3   0.053961481   0.63297   0.52857  -0.21692  -0.55365
  16   28300.0    353.4   0.088703172   1.03188   0.76298   0.09175   0.66432
  17   28770.5    347.6   0.126010397   1.44190   0.34552   0.39189   1.08117
  18   29117.7    343.4   0.011266540   0.12738  -0.34077   0.09382  -0.04953
  19   29236.0    342.0   0.038900838   0.43804  -0.56509   0.06432   0.33850
  20   29633.5    337.5   0.131355411   1.45929   0.91280   0.42405   0.66803
  21   30241.1    330.7   0.101338094   1.10319  -0.90744  -0.31146  -0.42748
  22   30288.2    330.2   0.138389317   1.50420   0.88565   0.03163  -0.84783
  23   30950.8    323.1   0.231685987   2.46436  -1.03250   0.46496   1.08725
  24   31098.7    321.6   0.775551561   8.21001   0.66297   0.68593  -2.70185
  25   31847.8    314.0   0.230009505   2.37762  -0.13718  -0.08863   1.53328
  26   32249.3    310.1   0.027654899   0.28231  -0.48147  -0.18166   0.13229
  27   32599.4    306.8   0.269195606   2.71853   0.70593   0.33159   1.45267
  28   32668.2    306.1   0.186180925   1.87623  -0.96995  -0.19857   0.94657
  29   32758.5    305.3   0.223663795   2.24775  -1.41809  -0.27396   0.40215
  30   33434.1    299.1   0.022966393   0.22614  -0.17656  -0.08272   0.43373
  31   33464.9    298.8   0.008872754   0.08729   0.12327  -0.26838  -0.00795
  32   33539.7    298.2   0.047032552   0.46165  -0.52518   0.33984   0.26522
  33   33702.1    296.7   0.050620514   0.49448  -0.03582   0.19871  -0.67358
  34   33871.7    295.2   0.013401752   0.13026  -0.21988   0.26294  -0.11301
  35   34001.5    294.1   0.133855930   1.29603  -0.95838  -0.25322  -0.55984
  36   34202.4    292.4   0.157938624   1.52022   1.12537   0.42639  -0.26823
  37   34279.2    291.7   0.047731400   0.45840  -0.61658  -0.27971   0.00097
  38   34357.3    291.1   0.081868527   0.78447   0.48054   0.03363  -0.74324
  39   34518.3    289.7   0.295877191   2.82187  -0.23890  -0.72975   1.49408
  40   34536.3    289.6   0.068282983   0.65090   0.14210  -0.47421   0.63705
  41   34733.7    287.9   0.327507541   3.10417   1.46969   0.54969   0.80126
  42   34869.9    286.8   0.138813212   1.31056  -0.44638   0.20842   1.03338
  43   35010.2    285.6   0.112568499   1.05852   0.88943   0.49456  -0.15115
  44   35253.9    283.7   0.041303629   0.38571  -0.61491  -0.05785  -0.06515
  45   35871.4    278.8   0.038729152   0.35544   0.35450  -0.07490  -0.47345
  46   36211.9    276.2   0.066946703   0.60863  -0.22346   0.17736   0.72611
  47   36398.5    274.7   0.033157425   0.29990   0.49607  -0.08202   0.21698
  48   36774.6    271.9   0.109884025   0.98370   0.10665  -0.27225   0.94774
  49   37266.6    268.3   0.007757442   0.06853   0.05329   0.12102  -0.22593
  50   37559.8    266.2   0.013437658   0.11778   0.29943   0.07546   0.14976
  51   37796.2    264.6   0.014417654   0.12558  -0.31386  -0.10447   0.12712
  52   38072.6    262.7   0.009180549   0.07938   0.27690  -0.05196  -0.00347
  53   38475.6    259.9   0.019158509   0.16393  -0.09926  -0.27242   0.28260
  54   38673.7    258.6   0.088465793   0.75307   0.76010  -0.25779  -0.32993
  55   38729.8    258.2   0.135216461   1.14937  -0.32488  -0.09195   1.01753
  56   38881.7    257.2   0.030563397   0.25878   0.27859   0.14330  -0.40079
  57   39010.1    256.3   0.011262247   0.09504   0.11828  -0.21330  -0.18857
  58   39182.8    255.2   0.156969652   1.31885   0.39967  -0.56806   0.91457
  59   39360.0    254.1   0.070955341   0.59348  -0.16579   0.41055  -0.63043
  60   39587.0    252.6   0.006610397   0.05497   0.01179  -0.21452  -0.09390
  61   39897.6    250.6   0.030935744   0.25526   0.45774   0.07405  -0.20064
  62   40027.7    249.8   0.084532511   0.69525  -0.50091   0.37960  -0.54794
  63   40177.1    248.9   0.008922029   0.07311  -0.06861  -0.01798  -0.26092
  64   40278.6    248.3   0.019156945   0.15658   0.37686  -0.11053  -0.04833

FINAL SINGLE POINT ENERGY    -11382.584531704704

DIPOLE MOMENT
-------------
                                X             Y             Z
Electronic contribution:     36.55187     -22.10626     -91.15587
Nuclear contribution   :    -38.69366      21.71754      92.27260
                        -----------------------------------------
Total Dipole Moment    :     -2.14179      -0.38872       1.11673
                        -----------------------------------------
Magnitude (a.u.)       :      2.44652
Magnitude (Debye)      :      6.21856

Rotational constants in cm-1:     0.001190     0.000083     0.000079
Rotational constants in MHz :    35.681892     2.480044     2.353401

                             ****ORCA TERMINATED NORMALLY****
TOTAL RUN TIME: 0 days 0 hours 18 minutes 25 seconds 192 msec
