                         Program Version 4.2.0 -  RELEASE  -
|  1> # ORCA input file
|  2> # SCF done       -189.180684037272          0.000557841733
|  3> ! CAM-B3LYP def2-SVP def2/J RIJCOSX Grid4 TightSCF
|  4> %maxcore 5000
|  5> %tddft
|  6>     Mode sTDDFT
|  7>     Ethresh 5.0
|  8>     maxcore 5000
|  9> end
| 10>
| 11> %pal
| 12>   nprocs 6
| 13>   end
| 14> * xyz 0 1
| 15>    C       -0.79913         1.23957         5.02095
| 16>    C       -0.59939        -0.11222         5.13065
| 17>    C        0.61428        -0.69994         5.54615
| 18>    N        1.57244        -1.23824         5.87771
| 19>    C       -1.54806        -1.11202         4.82881
| 20>    N       -2.25709        -1.98515         4.59665
| 21>    C        0.20574         2.26364         5.29079
| 22>    C       -0.34499         3.53345         4.98674
| 23>    C        0.35710         4.70464         5.13614
| 24>    C        1.66919         4.62026         5.61341
| 25>    C        2.21182         3.34873         5.91728
| 26>    C        1.50091         2.16445         5.76303
| 27>    S        3.84458         3.47273         6.49644
| 28>    C        3.77812         5.20672         6.32494
| 29>    C        2.59458         5.67121         5.85796
| 30>   Br        5.27562         6.23941         6.77987
| 31>    C       -1.72875         3.35672         4.51882
| 32>    O       -2.48725         4.24090         4.15701
| 33>    C       -2.00673         1.91907         4.58815
| 34>    C       -3.22283         1.33102         4.34873
| 35>    C       -4.43906         1.89585         3.93788
| 36>    C       -5.60290         1.12579         3.81448
| 37>    C       -6.68908         1.86966         3.39863
| 38>    C       -6.35518         3.22918         3.17966
| 39>    S       -4.72363         3.58507         3.51267
| 40>    C       -7.52876         3.90316         2.76690
| 41>    C       -8.59751         2.98854         2.73077
| 42>    C       -8.10314         1.67742         3.11920
| 43>    C       -8.81926         0.51999         3.20244
| 44>    C       -8.23584        -0.70187         3.60020
| 45>    N       -7.77089        -1.69775         3.92558
| 46>    C      -10.19571         0.47091         2.89606
| 47>    N      -11.31388         0.43517         2.64490
| 48>    C       -9.80357         3.57416         2.35251
| 49>    C       -9.66058         4.92589         2.09025
| 50>    S       -8.00918         5.48104         2.31561
| 51>    C      -10.67436         5.83668         1.70108
| 52>    C      -10.52538         7.15999         1.32737
| 53>    C      -11.74870         7.75826         1.02875
| 54>    C      -12.83897         6.88271         1.18750
| 55>    S      -12.35681         5.32190         1.68334
| 56>    C      -14.03041         7.58632         0.88824
| 57>    C      -13.69565         8.90389         0.52928
| 58>    C      -12.24996         9.05332         0.60040
| 59>    C      -11.52125        10.17275         0.32247
| 60>    C      -10.11480        10.19660         0.42950
| 61>    N       -8.97150        10.21596         0.51594
| 62>    C      -12.12806        11.37702        -0.09149
| 63>    N      -12.62170        12.35598        -0.42738
| 64>    C      -14.80965         9.68555         0.23216
| 65>    C      -15.99372         8.98134         0.37165
| 66>    S      -15.71557         7.31438         0.86744
| 67>    C      -17.32022         9.46460         0.17720
| 68>    C      -18.43593         8.70871         0.45283
| 69>    C      -19.74847         9.14588         0.29924
| 70>    C      -20.04876        10.48977        -0.19954
| 71>    C      -19.10739        11.39931        -0.53736
| 72>    S      -17.42219        11.11182        -0.42964
| 73>    C      -21.46722        10.57451        -0.21930
| 74>    C      -22.02672         9.37771         0.23864
| 75>    C      -23.43906         9.43232         0.23454
| 76>    C      -23.89610        10.63190        -0.21159
| 77>    S      -22.64710        11.74609        -0.64563
| 78>    C      -20.95729         8.46769         0.57152
| 79>    C      -21.03505         7.15795         1.08665
| 80>    C      -22.16548         6.46714         1.39114
| 81>    C      -22.11762         5.14827         1.92716
| 82>    N      -20.95910         4.54698         2.14905
| 83>    N      -20.85928         3.33610         2.64626
| 84>    C      -21.88612         2.60612         2.97334
| 85>    C      -23.19659         3.11212         2.79447
| 86>    C      -23.31904         4.43817         2.24715
| 87>    N      -24.60192         4.71542         2.16140
| 88>    O      -25.23988         3.63870         2.62270
| 89>    N      -24.41828         2.66263         3.00893
| 90>    H       -0.09157         5.65537         4.89451
| 91>    H        1.95995         1.22245         6.01149
| 92>    H        2.38135         6.71151         5.69295
| 93>    H       -3.28999         0.26201         4.51142
| 94>    H       -5.61710         0.07226         4.03170
| 95>    H      -10.74395         3.06012         2.26484
| 96>    H       -9.56771         7.64661         1.27886
| 97>    H      -14.77471        10.71904        -0.06202
| 98>    H      -18.26596         7.70641         0.82381
| 99>    H      -19.35401        12.38472        -0.89987
|100>    H      -24.09949         8.64205         0.53871
|101>    H      -24.91663        10.94432        -0.31711
|102>    H      -20.10171         6.64252         1.27006
|103>    H      -23.15070         6.88022         1.24967
|104>    H      -21.69380         1.62476         3.37576
|105> *
|106>
|107>                          ****END OF INPUT****

CARTESIAN COORDINATES (ANGSTROEM)
---------------------------------
  C     -0.799130    1.239570    5.020950
  C     -0.599390   -0.112220    5.130650
  C      0.614280   -0.699940    5.546150
  N      1.572440   -1.238240    5.877710
  C     -1.548060   -1.112020    4.828810
  N     -2.257090   -1.985150    4.596650
  C      0.205740    2.263640    5.290790
  C     -0.344990    3.533450    4.986740
  C      0.357100    4.704640    5.136140
  C      1.669190    4.620260    5.613410
  C      2.211820    3.348730    5.917280
  C      1.500910    2.164450    5.763030
  S      3.844580    3.472730    6.496440
  C      3.778120    5.206720    6.324940
  C      2.594580    5.671210    5.857960
  Br     5.275620    6.239410    6.779870
  C     -1.728750    3.356720    4.518820
  O     -2.487250    4.240900    4.157010
  C     -2.006730    1.919070    4.588150
  C     -3.222830    1.331020    4.348730
  C     -4.439060    1.895850    3.937880
  C     -5.602900    1.125790    3.814480
  C     -6.689080    1.869660    3.398630
  C     -6.355180    3.229180    3.179660
  S     -4.723630    3.585070    3.512670
  C     -7.528760    3.903160    2.766900
  C     -8.597510    2.988540    2.730770
  C     -8.103140    1.677420    3.119200
  C     -8.819260    0.519990    3.202440
  C     -8.235840   -0.701870    3.600200
  N     -7.770890   -1.697750    3.925580
  C    -10.195710    0.470910    2.896060
  N    -11.313880    0.435170    2.644900
  C     -9.803570    3.574160    2.352510
  C     -9.660580    4.925890    2.090250
  S     -8.009180    5.481040    2.315610
  C    -10.674360    5.836680    1.701080
  C    -10.525380    7.159990    1.327370
  C    -11.748700    7.758260    1.028750
  C    -12.838970    6.882710    1.187500
  S    -12.356810    5.321900    1.683340
  C    -14.030410    7.586320    0.888240
  C    -13.695650    8.903890    0.529280
  C    -12.249960    9.053320    0.600400
  C    -11.521250   10.172750    0.322470
  C    -10.114800   10.196600    0.429500
  N     -8.971500   10.215960    0.515940
  C    -12.128060   11.377020   -0.091490
  N    -12.621700   12.355980   -0.427380
  C    -14.809650    9.685550    0.232160
  C    -15.993720    8.981340    0.371650
  S    -15.715570    7.314380    0.867440
  C    -17.320220    9.464600    0.177200
  C    -18.435930    8.708710    0.452830
  C    -19.748470    9.145880    0.299240
  C    -20.048760   10.489770   -0.199540
  C    -19.107390   11.399310   -0.537360
  S    -17.422190   11.111820   -0.429640
  C    -21.467220   10.574510   -0.219300
  C    -22.026720    9.377710    0.238640
  C    -23.439060    9.432320    0.234540
  C    -23.896100   10.631900   -0.211590
  S    -22.647100   11.746090   -0.645630
  C    -20.957290    8.467690    0.571520
  C    -21.035050    7.157950    1.086650
  C    -22.165480    6.467140    1.391140
  C    -22.117620    5.148270    1.927160
  N    -20.959100    4.546980    2.149050
  N    -20.859280    3.336100    2.646260
  C    -21.886120    2.606120    2.973340
  C    -23.196590    3.112120    2.794470
  C    -23.319040    4.438170    2.247150
  N    -24.601920    4.715420    2.161400
  O    -25.239880    3.638700    2.622700
  N    -24.418280    2.662630    3.008930
  H     -0.091570    5.655370    4.894510
  H      1.959950    1.222450    6.011490
  H      2.381350    6.711510    5.692950
  H     -3.289990    0.262010    4.511420
  H     -5.617100    0.072260    4.031700
  H    -10.743950    3.060120    2.264840
  H     -9.567710    7.646610    1.278860
  H    -14.774710   10.719040   -0.062020
  H    -18.265960    7.706410    0.823810
  H    -19.354010   12.384720   -0.899870
  H    -24.099490    8.642050    0.538710
  H    -24.916630   10.944320   -0.317110
  H    -20.101710    6.642520    1.270060
  H    -23.150700    6.880220    1.249670
  H    -21.693800    1.624760    3.375760

 Total Charge           Charge          ....    0
 Multiplicity           Mult            ....    1
 Number of Electrons    NEL             ....  578
 Basis Dimension        Dim             .... 1171

ORBITAL ENERGIES
----------------

  NO   OCC          E(Eh)            E(eV)
   0   2.0000    -482.888644    -13140.0680
   1   2.0000     -89.002918     -2421.8925
   2   2.0000     -89.001899     -2421.8648
   3   2.0000     -89.001614     -2421.8570
   4   2.0000     -88.994593     -2421.6660
   5   2.0000     -88.991051     -2421.5696
   6   2.0000     -88.979338     -2421.2509
   7   2.0000     -88.963951     -2420.8322
   8   2.0000     -62.566367     -1702.5174
   9   2.0000     -56.400322     -1534.7308
  10   2.0000     -56.397596     -1534.6566
  11   2.0000     -56.397564     -1534.6557
  12   2.0000     -19.365385      -526.9589
  13   2.0000     -19.229347      -523.2571
  14   2.0000     -14.493073      -394.3766
  15   2.0000     -14.489448      -394.2779
  16   2.0000     -14.441204      -392.9651
  17   2.0000     -14.440748      -392.9527
  18   2.0000     -14.440394      -392.9431
  19   2.0000     -14.437056      -392.8523
  20   2.0000     -14.434907      -392.7938
  21   2.0000     -14.431169      -392.6921
  22   2.0000     -14.419767      -392.3818
  23   2.0000     -14.417402      -392.3175
  24   2.0000     -10.376949      -282.3711
  25   2.0000     -10.375849      -282.3412
  26   2.0000     -10.371985      -282.2360
  27   2.0000     -10.362751      -281.9848
  28   2.0000     -10.362505      -281.9781
  29   2.0000     -10.359695      -281.9016
  30   2.0000     -10.346074      -281.5310
  31   2.0000     -10.345439      -281.5137
  32   2.0000     -10.344946      -281.5003
  33   2.0000     -10.344871      -281.4983
  34   2.0000     -10.344630      -281.4917
  35   2.0000     -10.343304      -281.4556
  36   2.0000     -10.341221      -281.3989
  37   2.0000     -10.340840      -281.3886
  38   2.0000     -10.340748      -281.3861
  39   2.0000     -10.340745      -281.3860
  40   2.0000     -10.340428      -281.3773
  41   2.0000     -10.339755      -281.3590
  42   2.0000     -10.339611      -281.3551
  43   2.0000     -10.337220      -281.2901
  44   2.0000     -10.336996      -281.2840
  45   2.0000     -10.334442      -281.2145
  46   2.0000     -10.332002      -281.1481
  47   2.0000     -10.331452      -281.1331
  48   2.0000     -10.331054      -281.1223
  49   2.0000     -10.330693      -281.1125
  50   2.0000     -10.329693      -281.0852
  51   2.0000     -10.322245      -280.8826
  52   2.0000     -10.321645      -280.8662
  53   2.0000     -10.320367      -280.8315
  54   2.0000     -10.318399      -280.7779
  55   2.0000     -10.317683      -280.7584
  56   2.0000     -10.315552      -280.7004
  57   2.0000     -10.315114      -280.6885
  58   2.0000     -10.314586      -280.6742
  59   2.0000     -10.313223      -280.6371
  60   2.0000     -10.312989      -280.6307
  61   2.0000     -10.312635      -280.6211
  62   2.0000     -10.311789      -280.5981
  63   2.0000     -10.311246      -280.5833
  64   2.0000     -10.310192      -280.5546
  65   2.0000     -10.310182      -280.5543
  66   2.0000     -10.309585      -280.5381
  67   2.0000     -10.306526      -280.4548
  68   2.0000     -10.303202      -280.3644
  69   2.0000     -10.302797      -280.3534
  70   2.0000     -10.302367      -280.3417
  71   2.0000     -10.300380      -280.2876
  72   2.0000     -10.297622      -280.2125
  73   2.0000     -10.295785      -280.1626
  74   2.0000     -10.290547      -280.0200
  75   2.0000     -10.285056      -279.8706
  76   2.0000     -10.283690      -279.8334
  77   2.0000     -10.281117      -279.7634
  78   2.0000     -10.275151      -279.6011
  79   2.0000      -8.795806      -239.3460
  80   2.0000      -8.097278      -220.3381
  81   2.0000      -8.096279      -220.3109
  82   2.0000      -8.095760      -220.2968
  83   2.0000      -8.086808      -220.0532
  84   2.0000      -8.086208      -220.0369
  85   2.0000      -8.075348      -219.7414
  86   2.0000      -8.059561      -219.3118
  87   2.0000      -6.632145      -180.4698
  88   2.0000      -6.617531      -180.0722
  89   2.0000      -6.617307      -180.0661
  90   2.0000      -6.066581      -165.0801
  91   2.0000      -6.065591      -165.0531
  92   2.0000      -6.065087      -165.0394
  93   2.0000      -6.062379      -164.9657
  94   2.0000      -6.061379      -164.9385
  95   2.0000      -6.060877      -164.9248
  96   2.0000      -6.059573      -164.8894
  97   2.0000      -6.058570      -164.8621
  98   2.0000      -6.058046      -164.8478
  99   2.0000      -6.056247      -164.7989
 100   2.0000      -6.055807      -164.7869
 101   2.0000      -6.051466      -164.6688
 102   2.0000      -6.051180      -164.6610
 103   2.0000      -6.049375      -164.6119
 104   2.0000      -6.048108      -164.5774
 105   2.0000      -6.045040      -164.4939
 106   2.0000      -6.040731      -164.3767
 107   2.0000      -6.036587      -164.2639
 108   2.0000      -6.028982      -164.0569
 109   2.0000      -6.024709      -163.9407
 110   2.0000      -6.021597      -163.8560
 111   2.0000      -2.747994       -74.7767
 112   2.0000      -2.743898       -74.6653
 113   2.0000      -2.743771       -74.6618
 114   2.0000      -2.732144       -74.3454
 115   2.0000      -2.732127       -74.3450
 116   2.0000      -1.316509       -35.8240
 117   2.0000      -1.144717       -31.1493
 118   2.0000      -1.115245       -30.3474
 119   2.0000      -1.057258       -28.7695
 120   2.0000      -1.052944       -28.6521
 121   2.0000      -1.032625       -28.0991
 122   2.0000      -1.028398       -27.9841
 123   2.0000      -1.027317       -27.9547
 124   2.0000      -1.021019       -27.7834
 125   2.0000      -1.020268       -27.7629
 126   2.0000      -1.017821       -27.6963
 127   2.0000      -1.017177       -27.6788
 128   2.0000      -1.014202       -27.5978
 129   2.0000      -1.012641       -27.5554
 130   2.0000      -1.002969       -27.2922
 131   2.0000      -0.997430       -27.1415
 132   2.0000      -0.994364       -27.0580
 133   2.0000      -0.984133       -26.7796
 134   2.0000      -0.978379       -26.6230
 135   2.0000      -0.969945       -26.3935
 136   2.0000      -0.963703       -26.2237
 137   2.0000      -0.947073       -25.7712
 138   2.0000      -0.945836       -25.7375
 139   2.0000      -0.936378       -25.4801
 140   2.0000      -0.929469       -25.2921
 141   2.0000      -0.920737       -25.0545
 142   2.0000      -0.912778       -24.8380
 143   2.0000      -0.902519       -24.5588
 144   2.0000      -0.897119       -24.4118
 145   2.0000      -0.890123       -24.2215
 146   2.0000      -0.882133       -24.0040
 147   2.0000      -0.881174       -23.9780
 148   2.0000      -0.877427       -23.8760
 149   2.0000      -0.869144       -23.6506
 150   2.0000      -0.865852       -23.5610
 151   2.0000      -0.861821       -23.4513
 152   2.0000      -0.846517       -23.0349
 153   2.0000      -0.839550       -22.8453
 154   2.0000      -0.833494       -22.6805
 155   2.0000      -0.819752       -22.3066
 156   2.0000      -0.817824       -22.2541
 157   2.0000      -0.800108       -21.7720
 158   2.0000      -0.793613       -21.5953
 159   2.0000      -0.787657       -21.4332
 160   2.0000      -0.781468       -21.2648
 161   2.0000      -0.775519       -21.1030
 162   2.0000      -0.769270       -20.9329
 163   2.0000      -0.765087       -20.8191
 164   2.0000      -0.746471       -20.3125
 165   2.0000      -0.740765       -20.1572
 166   2.0000      -0.725603       -19.7447
 167   2.0000      -0.714466       -19.4416
 168   2.0000      -0.708878       -19.2895
 169   2.0000      -0.702681       -19.1209
 170   2.0000      -0.699804       -19.0426
 171   2.0000      -0.696098       -18.9418
 172   2.0000      -0.694728       -18.9045
 173   2.0000      -0.688214       -18.7273
 174   2.0000      -0.683049       -18.5867
 175   2.0000      -0.679820       -18.4988
 176   2.0000      -0.665129       -18.0991
 177   2.0000      -0.661899       -18.0112
 178   2.0000      -0.659177       -17.9371
 179   2.0000      -0.652320       -17.7505
 180   2.0000      -0.647868       -17.6294
 181   2.0000      -0.642920       -17.4948
 182   2.0000      -0.641058       -17.4441
 183   2.0000      -0.636544       -17.3212
 184   2.0000      -0.632290       -17.2055
 185   2.0000      -0.628866       -17.1123
 186   2.0000      -0.626382       -17.0447
 187   2.0000      -0.622845       -16.9485
 188   2.0000      -0.619169       -16.8484
 189   2.0000      -0.614904       -16.7324
 190   2.0000      -0.609506       -16.5855
 191   2.0000      -0.601431       -16.3658
 192   2.0000      -0.597063       -16.2469
 193   2.0000      -0.587235       -15.9795
 194   2.0000      -0.579614       -15.7721
 195   2.0000      -0.573717       -15.6116
 196   2.0000      -0.571287       -15.5455
 197   2.0000      -0.565899       -15.3989
 198   2.0000      -0.561451       -15.2779
 199   2.0000      -0.560394       -15.2491
 200   2.0000      -0.558255       -15.1909
 201   2.0000      -0.555707       -15.1216
 202   2.0000      -0.552314       -15.0292
 203   2.0000      -0.548468       -14.9246
 204   2.0000      -0.547317       -14.8933
 205   2.0000      -0.540809       -14.7162
 206   2.0000      -0.534186       -14.5359
 207   2.0000      -0.531865       -14.4728
 208   2.0000      -0.526733       -14.3331
 209   2.0000      -0.526004       -14.3133
 210   2.0000      -0.524833       -14.2814
 211   2.0000      -0.523280       -14.2392
 212   2.0000      -0.521670       -14.1954
 213   2.0000      -0.520142       -14.1538
 214   2.0000      -0.518228       -14.1017
 215   2.0000      -0.514736       -14.0067
 216   2.0000      -0.511190       -13.9102
 217   2.0000      -0.510274       -13.8853
 218   2.0000      -0.508217       -13.8293
 219   2.0000      -0.507282       -13.8039
 220   2.0000      -0.505952       -13.7676
 221   2.0000      -0.502764       -13.6809
 222   2.0000      -0.500159       -13.6100
 223   2.0000      -0.499773       -13.5995
 224   2.0000      -0.498624       -13.5682
 225   2.0000      -0.495657       -13.4875
 226   2.0000      -0.491481       -13.3739
 227   2.0000      -0.488163       -13.2836
 228   2.0000      -0.483139       -13.1469
 229   2.0000      -0.477535       -12.9944
 230   2.0000      -0.471296       -12.8246
 231   2.0000      -0.469551       -12.7771
 232   2.0000      -0.469069       -12.7640
 233   2.0000      -0.467537       -12.7223
 234   2.0000      -0.466645       -12.6981
 235   2.0000      -0.463914       -12.6237
 236   2.0000      -0.462068       -12.5735
 237   2.0000      -0.460562       -12.5325
 238   2.0000      -0.457569       -12.4511
 239   2.0000      -0.453549       -12.3417
 240   2.0000      -0.451765       -12.2932
 241   2.0000      -0.451181       -12.2773
 242   2.0000      -0.450430       -12.2568
 243   2.0000      -0.450049       -12.2465
 244   2.0000      -0.447348       -12.1730
 245   2.0000      -0.446470       -12.1491
 246   2.0000      -0.445848       -12.1321
 247   2.0000      -0.444480       -12.0949
 248   2.0000      -0.443491       -12.0680
 249   2.0000      -0.443076       -12.0567
 250   2.0000      -0.441788       -12.0217
 251   2.0000      -0.440962       -11.9992
 252   2.0000      -0.438522       -11.9328
 253   2.0000      -0.437456       -11.9038
 254   2.0000      -0.431930       -11.7534
 255   2.0000      -0.430210       -11.7066
 256   2.0000      -0.429607       -11.6902
 257   2.0000      -0.425596       -11.5811
 258   2.0000      -0.422915       -11.5081
 259   2.0000      -0.422012       -11.4835
 260   2.0000      -0.420881       -11.4528
 261   2.0000      -0.418529       -11.3888
 262   2.0000      -0.416391       -11.3306
 263   2.0000      -0.410382       -11.1671
 264   2.0000      -0.407293       -11.0830
 265   2.0000      -0.403532       -10.9807
 266   2.0000      -0.399835       -10.8801
 267   2.0000      -0.398943       -10.8558
 268   2.0000      -0.391988       -10.6665
 269   2.0000      -0.390576       -10.6281
 270   2.0000      -0.382591       -10.4108
 271   2.0000      -0.379868       -10.3367
 272   2.0000      -0.378034       -10.2868
 273   2.0000      -0.362966        -9.8768
 274   2.0000      -0.361833        -9.8460
 275   2.0000      -0.357205        -9.7200
 276   2.0000      -0.347484        -9.4555
 277   2.0000      -0.345774        -9.4090
 278   2.0000      -0.339622        -9.2416
 279   2.0000      -0.331719        -9.0265
 280   2.0000      -0.329397        -8.9634
 281   2.0000      -0.320151        -8.7118
 282   2.0000      -0.317413        -8.6372
 283   2.0000      -0.305078        -8.3016
 284   2.0000      -0.300031        -8.1643
 285   2.0000      -0.297276        -8.0893
 286   2.0000      -0.284323        -7.7368
 287   2.0000      -0.261829        -7.1247
 288   2.0000      -0.238037        -6.4773
 289   0.0000      -0.121026        -3.2933
 290   0.0000      -0.112831        -3.0703
 291   0.0000      -0.092002        -2.5035
 292   0.0000      -0.088893        -2.4189
 293   0.0000      -0.068244        -1.8570

MULLIKEN ATOMIC CHARGES
-----------------------
   0 C :    0.324151
   1 C :   -0.350988
   2 C :   -0.185541
   3 N :    0.152765
   4 C :   -0.194486
   5 N :    0.154864
   6 C :    0.015910
   7 C :   -0.013790
   8 C :   -0.073384
   9 C :    0.122836
  10 C :   -0.090681
  11 C :   -0.022764
  12 S :    0.190272
  13 C :   -0.122733
  14 C :    0.034849
  15 Br:    0.026834
  16 C :    0.166009
  17 O :   -0.191722
  18 C :   -0.088607
  19 C :   -0.033252
  20 C :   -0.054894
  21 C :   -0.058443
  22 C :    0.044644
  23 C :   -0.066720
  24 S :    0.245892
  25 C :   -0.106704
  26 C :    0.024449
  27 C :    0.305054
  28 C :   -0.295121
  29 C :   -0.193226
  30 N :    0.189027
  31 C :   -0.189226
  32 N :    0.174347
  33 C :   -0.068379
  34 C :   -0.044111
  35 S :    0.206532
  36 C :   -0.055931
  37 C :   -0.060440
  38 C :    0.014690
  39 C :   -0.094484
  40 S :    0.206714
  41 C :   -0.094144
  42 C :    0.015225
  43 C :    0.301299
  44 C :   -0.292057
  45 C :   -0.189242
  46 N :    0.174288
  47 C :   -0.186307
  48 N :    0.177158
  49 C :   -0.051427
  50 C :   -0.067046
  51 S :    0.191715
  52 C :   -0.017635
  53 C :   -0.087333
  54 C :    0.062448
  55 C :    0.059414
  56 C :   -0.115563
  57 S :    0.142275
  58 C :   -0.113449
  59 C :    0.055441
  60 C :   -0.007677
  61 C :   -0.064295
  62 S :    0.133784
  63 C :    0.114081
  64 C :    0.013531
  65 C :   -0.079893
  66 C :    0.008294
  67 N :   -0.092607
  68 N :   -0.033362
  69 C :   -0.034606
  70 C :    0.004689
  71 C :   -0.030773
  72 N :    0.065170
  73 O :   -0.097305
  74 N :    0.069276
  75 H :   -0.010263
  76 H :   -0.006145
  77 H :   -0.002022
  78 H :    0.017767
  79 H :    0.029320
  80 H :    0.014468
  81 H :    0.013203
  82 H :    0.022815
  83 H :    0.003473
  84 H :    0.042204
  85 H :   -0.001486
  86 H :    0.029523
  87 H :   -0.006424
  88 H :   -0.029968
  89 H :    0.005959
Sum of atomic charges:   -0.0000000

LOEWDIN ATOMIC CHARGES
----------------------
   0 C :    0.076203
   1 C :   -0.140696
   2 C :   -0.018183
   3 N :   -0.051998
   4 C :   -0.023629
   5 N :   -0.047068
   6 C :   -0.019557
   7 C :   -0.051721
   8 C :    0.022869
   9 C :   -0.032731
  10 C :   -0.143221
  11 C :   -0.008515
  12 S :    0.436019
  13 C :   -0.271045
  14 C :   -0.070423
  15 Br:    0.139113
  16 C :    0.086441
  17 O :   -0.175801
  18 C :   -0.111608
  19 C :    0.055809
  20 C :   -0.184404
  21 C :    0.013292
  22 C :   -0.079205
  23 C :   -0.165698
  24 S :    0.548817
  25 C :   -0.187920
  26 C :   -0.051735
  27 C :    0.077655
  28 C :   -0.098186
  29 C :   -0.020293
  30 N :   -0.021106
  31 C :   -0.016221
  32 N :   -0.030592
  33 C :   -0.041962
  34 C :   -0.168380
  35 S :    0.490563
  36 C :   -0.182226
  37 C :   -0.032658
  38 C :   -0.067993
  39 C :   -0.175590
  40 S :    0.492852
  41 C :   -0.178444
  42 C :   -0.066583
  43 C :    0.081685
  44 C :   -0.098137
  45 C :   -0.016495
  46 N :   -0.029689
  47 C :   -0.016510
  48 N :   -0.028674
  49 C :   -0.037260
  50 C :   -0.179521
  51 S :    0.491315
  52 C :   -0.175235
  53 C :   -0.029267
  54 C :   -0.001293
  55 C :   -0.048512
  56 C :   -0.136552
  57 S :    0.473968
  58 C :   -0.202108
  59 C :   -0.033646
  60 C :   -0.062882
  61 C :   -0.161164
  62 S :    0.428022
  63 C :   -0.055556
  64 C :    0.043086
  65 C :   -0.068434
  66 C :    0.008694
  67 N :   -0.080375
  68 N :   -0.030203
  69 C :   -0.008819
  70 C :   -0.076036
  71 C :   -0.069412
  72 N :   -0.011766
  73 O :    0.080954
  74 N :   -0.012519
  75 H :    0.041084
  76 H :    0.041514
  77 H :    0.039190
  78 H :    0.053866
  79 H :    0.048455
  80 H :    0.036633
  81 H :    0.037058
  82 H :    0.035545
  83 H :    0.031558
  84 H :    0.039607
  85 H :    0.032891
  86 H :    0.025490
  87 H :    0.033436
  88 H :    0.028557
  89 H :    0.033216

  Mayer bond orders larger than 0.100000
B(  0-C ,  1-C ) :   1.6266 B(  0-C ,  6-C ) :   0.9997 B(  0-C , 18-C ) :   1.0759
B(  1-C ,  2-C ) :   1.1448 B(  1-C ,  4-C ) :   1.1446 B(  2-C ,  3-N ) :   2.9680
B(  4-C ,  5-N ) :   2.9647 B(  6-C ,  7-C ) :   1.2734 B(  6-C , 11-C ) :   1.4125
B(  7-C ,  8-C ) :   1.4195 B(  7-C , 16-C ) :   0.9630 B(  8-C ,  9-C ) :   1.2429
B(  8-C , 75-H ) :   1.0180 B(  9-C , 10-C ) :   1.3054 B(  9-C , 14-C ) :   1.1617
B( 10-C , 11-C ) :   1.3262 B( 10-C , 12-S ) :   1.0895 B( 11-C , 76-H ) :   0.9807
B( 12-S , 13-C ) :   1.0869 B( 13-C , 14-C ) :   1.6174 B( 13-C , 15-Br) :   1.0208
B( 14-C , 77-H ) :   1.0014 B( 16-C , 17-O ) :   2.1085 B( 16-C , 18-C ) :   0.9851
B( 18-C , 19-C ) :   1.4914 B( 19-C , 20-C ) :   1.2701 B( 19-C , 78-H ) :   0.9410
B( 20-C , 21-C ) :   1.3269 B( 20-C , 24-S ) :   1.0685 B( 21-C , 22-C ) :   1.3349
B( 21-C , 79-H ) :   1.0079 B( 22-C , 23-C ) :   1.3515 B( 22-C , 27-C ) :   0.9881
B( 23-C , 24-S ) :   1.1282 B( 23-C , 25-C ) :   1.2064 B( 25-C , 26-C ) :   1.4349
B( 25-C , 35-S ) :   1.1094 B( 26-C , 27-C ) :   0.9942 B( 26-C , 33-C ) :   1.3084
B( 27-C , 28-C ) :   1.7178 B( 28-C , 29-C ) :   1.1359 B( 28-C , 31-C ) :   1.1333
B( 29-C , 30-N ) :   2.9960 B( 31-C , 32-N ) :   2.9892 B( 33-C , 34-C ) :   1.4429
B( 33-C , 80-H ) :   0.9875 B( 34-C , 35-S ) :   1.1209 B( 34-C , 36-C ) :   1.1714
B( 36-C , 37-C ) :   1.4515 B( 36-C , 40-S ) :   1.1068 B( 37-C , 38-C ) :   1.3043
B( 37-C , 81-H ) :   0.9886 B( 38-C , 39-C ) :   1.4390 B( 38-C , 43-C ) :   0.9936
B( 39-C , 40-S ) :   1.1268 B( 39-C , 41-C ) :   1.1888 B( 41-C , 42-C ) :   1.4398
B( 41-C , 51-S ) :   1.1279 B( 42-C , 43-C ) :   0.9994 B( 42-C , 49-C ) :   1.3095
B( 43-C , 44-C ) :   1.7139 B( 44-C , 45-C ) :   1.1323 B( 44-C , 47-C ) :   1.1339
B( 45-C , 46-N ) :   2.9919 B( 47-C , 48-N ) :   2.9901 B( 49-C , 50-C ) :   1.4542
B( 49-C , 82-H ) :   0.9777 B( 50-C , 51-S ) :   1.1092 B( 50-C , 52-C ) :   1.1628
B( 52-C , 53-C ) :   1.5114 B( 52-C , 57-S ) :   1.0684 B( 53-C , 54-C ) :   1.2689
B( 53-C , 83-H ) :   0.9582 B( 54-C , 55-C ) :   1.0546 B( 54-C , 63-C ) :   1.3553
B( 55-C , 56-C ) :   1.6009 B( 55-C , 58-C ) :   1.1782 B( 56-C , 57-S ) :   1.1443
B( 56-C , 84-H ) :   0.9396 B( 58-C , 59-C ) :   1.4505 B( 58-C , 62-S ) :   1.0811
B( 59-C , 60-C ) :   1.2160 B( 59-C , 63-C ) :   1.0767 B( 60-C , 61-C ) :   1.5864
B( 60-C , 85-H ) :   1.0017 B( 61-C , 62-S ) :   1.1569 B( 61-C , 86-H ) :   0.9644
B( 63-C , 64-C ) :   1.1485 B( 64-C , 65-C ) :   1.5628 B( 64-C , 87-H ) :   0.9668
B( 65-C , 66-C ) :   1.1808 B( 65-C , 88-H ) :   0.9861 B( 66-C , 67-N ) :   1.6699
B( 66-C , 71-C ) :   1.0304 B( 67-N , 68-N ) :   1.1806 B( 68-N , 69-C ) :   1.7552
B( 69-C , 70-C ) :   1.0859 B( 69-C , 89-H ) :   1.0173 B( 70-C , 71-C ) :   1.1777
B( 70-C , 74-N ) :   1.6019 B( 71-C , 72-N ) :   1.6286 B( 72-N , 73-O ) :   1.0678
B( 72-N , 74-N ) :   0.1844 B( 73-O , 74-N ) :   1.0731

-----------------------------------------------------------------------------
         ABSORPTION SPECTRUM VIA TRANSITION ELECTRIC DIPOLE MOMENTS
-----------------------------------------------------------------------------
State   Energy  Wavelength   fosc         T2         TX        TY        TZ
        (cm-1)    (nm)                  (au**2)     (au)      (au)      (au)
-----------------------------------------------------------------------------
   0   10447.6    957.2   0.353608872  11.14250   3.19094  -0.85200   0.48424
   1   13061.2    765.6   0.303673957   7.65418   2.49956  -0.96251   0.69280
   2   16416.8    609.1   0.157698219   3.16238   1.16748   1.21696  -0.56424
   3   17261.2    579.3   0.707685029  13.49720   3.48017   1.12625  -0.34236
   4   19316.2    517.7   0.211180336   3.59920  -1.14014   1.33387  -0.72116
   5   20276.5    493.2   0.000030322   0.00049  -0.01068   0.00526   0.01872
   6   20661.4    484.0   1.222932646  19.48582  -3.75816   1.82879  -1.42041
   7   22909.4    436.5   0.001842367   0.02648   0.15899  -0.03458   0.00133
   8   23067.0    433.5   0.125518537   1.79140   0.08039  -1.23930   0.49907
   9   24321.7    411.2   0.440552678   5.96320  -1.11006   2.05745  -0.70560
  10   24968.2    400.5   0.003813675   0.05028   0.21330  -0.01911  -0.06649
  11   25718.2    388.8   0.009676596   0.12387   0.14025   0.22872  -0.22779
  12   25804.9    387.5   0.018266475   0.23304   0.17534  -0.42743   0.14000
  13   26700.1    374.5   0.265928677   3.27890   1.75296   0.45371   0.01271
  14   26994.0    370.5   0.059287716   0.72306  -0.44822  -0.64708  -0.32163
  15   27070.2    369.4   0.165252092   2.00970   1.31616   0.38740   0.35686
  16   28319.3    353.1   0.088539698   1.02927   0.75435  -0.67412   0.07608
  17   28472.2    351.2   0.000098210   0.00114  -0.00044   0.01234   0.03135
  18   28854.9    346.6   0.014587355   0.16643  -0.31211  -0.18046  -0.19093
  19   29171.4    342.8   0.082136306   0.92694   0.88785   0.22211   0.29889
  20   29768.8    335.9   0.041408445   0.45793  -0.08445   0.62803  -0.23744
  21   30493.6    327.9   0.248324921   2.68094  -0.59518  -1.49270   0.31394
  22   31000.0    322.6   0.380162577   4.03722   0.68173   1.87135  -0.26553
  23   31255.5    319.9   0.357948401   3.77024   0.73795   1.79030  -0.14310
  24   31409.6    318.4   0.283086144   2.96710  -1.15616  -1.23687   0.31708
  25   31453.8    317.9   0.042647268   0.44637  -0.44467  -0.20477  -0.45465
  26   31605.7    316.4   0.039433866   0.41075  -0.59833  -0.14752   0.17605
  27   32002.5    312.5   0.462821801   4.76108   1.96492   0.85349   0.41442
  28   32176.5    310.8   0.482770831   4.93945  -0.40167  -2.18143   0.13945
  29   32343.8    309.2   0.000018848   0.00019  -0.00362  -0.00619  -0.01185
  30   32559.0    307.1   0.173535310   1.75466   1.26992   0.30612   0.21965
  31   32907.0    303.9   0.025313184   0.25324   0.21770   0.45268  -0.03040
  32   33034.2    302.7   0.047727850   0.47565  -0.35914   0.58601  -0.05708
  33   33122.4    301.9   0.184144498   1.83026  -0.38560   1.23988  -0.37982
  34   33181.9    301.4   0.004307864   0.04274   0.07537  -0.18460   0.05461
  35   33884.5    295.1   0.083618275   0.81241  -0.90085   0.02873   0.00792
  36   34043.5    293.7   0.010106559   0.09773  -0.10283   0.25230  -0.15331
  37   34159.9    292.7   0.001702997   0.01641   0.02449  -0.05619  -0.11250
  38   34216.5    292.3   0.067092093   0.64552   0.35726   0.71041  -0.11494
  39   34461.1    290.2   0.411634912   3.93240   1.93769  -0.19561   0.37349
  40   34737.3    287.9   0.027356185   0.25926   0.45753   0.11368   0.19237
  41   35117.4    284.8   0.119375577   1.11910   1.02073   0.12134  -0.24996
  42   35148.8    284.5   0.270825184   2.53661   0.92671   1.28513  -0.16203
  43   35541.6    281.4   0.092501944   0.85682   0.06549  -0.92195   0.05030
  44   35725.1    279.9   0.144547211   1.33202  -1.15101   0.00365  -0.08477
  45   36070.8    277.2   0.017438865   0.15916   0.24799  -0.30960   0.04255
  46   36433.6    274.5   0.062629868   0.56592   0.27099   0.69664  -0.08469
  47   36642.4    272.9   0.172031446   1.54561   0.53290  -1.00893   0.49364
  48   36931.2    270.8   0.071408094   0.63655  -0.48302  -0.63496  -0.00807
  49   37124.8    269.4   0.001569623   0.01392  -0.01422   0.08690  -0.07851
  50   37357.4    267.7   0.047856323   0.42173  -0.07599  -0.63335   0.12176
  51   37512.8    266.6   0.100142386   0.87885  -0.07272  -0.87350   0.33251
  52   37820.8    264.4   0.021115691   0.18380   0.40126   0.01337   0.15038
  53   37941.1    263.6   0.008297098   0.07199   0.01199   0.16203  -0.21353
  54   38683.4    258.5   0.139735465   1.18921  -1.06833   0.06049  -0.21029
  55   38875.0    257.2   0.047276408   0.40036   0.60883  -0.17211   0.00772
  56   38933.1    256.9   0.000042991   0.00036  -0.00044  -0.00147   0.01900
  57   38962.0    256.7   0.026329802   0.22248  -0.22995  -0.39758   0.10737
  58   39061.0    256.0   0.145343372   1.22498  -0.91139   0.58807  -0.22027
  59   39573.5    252.7   0.036660542   0.30498  -0.46190  -0.28702   0.09617
  60   39997.0    250.0   0.003093803   0.02546  -0.08643  -0.12738   0.04205

FINAL SINGLE POINT ENERGY     -8159.448664234043

DIPOLE MOMENT
-------------
                                X             Y             Z
Electronic contribution:    180.34269       3.73003      42.81715
Nuclear contribution   :   -180.67843       0.27132     -43.39225
                        -----------------------------------------
Total Dipole Moment    :     -0.33574       4.00135      -0.57510
                        -----------------------------------------
Magnitude (a.u.)       :      4.05638
Magnitude (Debye)      :     10.31050

Rotational constants in cm-1:     0.001286     0.000156     0.000141
Rotational constants in MHz :    38.549952     4.678317     4.237657

                             ****ORCA TERMINATED NORMALLY****
TOTAL RUN TIME: 0 days 0 hours 9 minutes 30 seconds 40 msec
