                         Program Version 4.2.0 -  RELEASE  -
|  1> # ORCA input file
|  2> # SCF done       -228.950317461247          0.000898339108
|  3> ! CAM-B3LYP def2-SVP def2/J RIJCOSX Grid4 TightSCF
|  4> %maxcore 5000
|  5> %tddft
|  6>     Mode sTDDFT
|  7>     Ethresh 5.0
|  8>     maxcore 5000
|  9> end
| 10>
| 11> %pal
| 12>   nprocs 6
| 13>   end
| 14> * xyz 0 1
| 15>    C       -1.46794        -0.50399         0.59806
| 16>    C       -1.99246        -1.53505        -0.13906
| 17>    C       -1.28216        -2.70789        -0.47229
| 18>    N       -0.76145        -3.68427        -0.77753
| 19>    C       -3.28392        -1.57250        -0.70585
| 20>    N       -4.31017        -1.68130        -1.21062
| 21>    C       -0.09599        -0.43425         1.08507
| 22>    C        0.11235         0.83893         1.66744
| 23>    C        1.31456         1.22067         2.21141
| 24>    C        2.36468         0.29754         2.18147
| 25>    C        2.14692        -0.97603         1.60249
| 26>    C        0.93092        -1.35984         1.05102
| 27>    S        3.57414        -1.96381         1.67664
| 28>    C        4.43294        -0.67024         2.47040
| 29>    C        3.69073         0.44460         2.67194
| 30>   Br        6.22599        -0.91544         2.96065
| 31>    C       -1.13127         1.62842         1.59233
| 32>    O       -1.28040         2.75579         2.01297
| 33>    C       -2.13323         0.73694         0.96045
| 34>    C       -3.48185         0.93986         0.84401
| 35>    C       -4.26429         2.09007         1.05972
| 36>    C       -3.94163         3.42770         1.25762
| 37>    C       -5.06912         4.22977         1.36161
| 38>    C       -6.27950         3.50389         1.25167
| 39>    S       -6.01888         1.84460         0.99923
| 40>    C       -7.35655         4.40661         1.37929
| 41>    C       -6.84321         5.70352         1.56203
| 42>    C       -5.38736         5.63434         1.55145
| 43>    C       -4.52090         6.67975         1.67379
| 44>    C       -3.11771         6.53414         1.60754
| 45>    N       -1.97653         6.45564         1.53953
| 46>    C       -4.97795         8.00247         1.85831
| 47>    N       -5.35242         9.07567         2.00912
| 48>    C       -7.83792         6.66959         1.67944
| 49>    C       -9.10998         6.12507         1.59218
| 50>    S       -9.06580         4.38027         1.36225
| 51>    C      -10.35558         6.81061         1.64737
| 52>    C      -11.56461         6.15434         1.57751
| 53>    C      -12.80674         6.77586         1.59175
| 54>    C      -12.92931         8.23270         1.66995
| 55>    C      -11.87540         9.07407         1.76638
| 56>    S      -10.24077         8.55903         1.79374
| 57>    C      -14.32544         8.49479         1.62122
| 58>    C      -15.03951         7.29519         1.51947
| 59>    C      -16.43427         7.52297         1.46837
| 60>    C      -16.72715         8.84839         1.52996
| 61>    S      -15.34131         9.87648         1.65336
| 62>    C      -14.09757         6.20272         1.50999
| 63>    C      -14.35630         4.82086         1.45748
| 64>    C      -15.58835         4.25387         1.32562
| 65>    C      -15.82811         2.86972         1.31273
| 66>    C      -17.06346         2.23393         1.16662
| 67>    C      -18.32209         2.92279         0.93887
| 68>    O      -18.47394         4.13213         0.93768
| 69>    C      -19.44668         1.99072         0.67688
| 70>    C      -19.35658         0.58480         0.87108
| 71>    C      -20.53584        -0.05193         0.57652
| 72>    S      -21.76404         1.02736         0.04623
| 73>    C      -20.69558         2.36135         0.23904
| 74>    C      -21.17981         3.73894        -0.08846
| 75>    F      -20.42702         4.34780        -1.00998
| 76>    F      -22.42773         3.69770        -0.59149
| 77>    F      -21.23736         4.54060         0.97955
| 78>    C      -20.82806        -1.51681         0.66941
| 79>    F      -20.84884        -1.95597         1.93314
| 80>    F      -22.04427        -1.79191         0.16024
| 81>    F      -19.96070        -2.27250        -0.00485
| 82>    C      -18.11557        -0.07278         1.33565
| 83>    O      -18.08613        -1.19546         1.79509
| 84>    C      -16.96227         0.81809         1.24555
| 85>    C      -15.66411         0.36859         1.40197
| 86>    S      -14.54494         1.69135         1.50267
| 87>    C      -15.27765        -0.99962         1.34582
| 88>    C      -14.38369        -1.75660         2.02856
| 89>    C      -14.47974        -3.14199         1.55823
| 90>    N      -15.40525        -3.19287         0.56262
| 91>    C      -15.92235        -1.92138         0.34219
| 92>    O      -16.67177        -1.62894        -0.55300
| 93>    C      -15.81027        -4.35552        -0.18114
| 94>    C      -13.62645        -3.90471         2.26576
| 95>    C      -12.95597        -3.01331         3.22983
| 96>    O      -12.12492        -3.26289         4.06599
| 97>    N      -13.47011        -1.71135         3.02369
| 98>    C      -13.08125        -0.57337         3.80921
| 99>    H        1.43934         2.20077         2.64427
|100>    H        0.81569        -2.34280         0.62628
|101>    H        4.06094         1.33464         3.14698
|102>    H       -4.06937         0.07895         0.54623
|103>    H       -2.92566         3.77192         1.32642
|104>    H       -7.66298         7.72077         1.82096
|105>    H      -11.52513         5.07586         1.49551
|106>    H      -11.98958        10.14444         1.83206
|107>    H      -17.19842         6.77214         1.38832
|108>    H      -17.69817         9.30296         1.50999
|109>    H      -13.50054         4.16001         1.53652
|110>    H      -16.46694         4.86811         1.21609
|111>    H      -14.96871        -4.76647        -0.74203
|112>    H      -16.59422        -4.04471        -0.87029
|113>    H      -16.20119        -5.11739         0.49436
|114>    H      -13.42438        -4.95503         2.20943
|115>    H      -12.34398        -0.91936         4.53324
|116>    H      -13.94211        -0.15763         4.33604
|117>    H      -12.64036         0.20091         3.17773
|118> *
|119>
|120>                          ****END OF INPUT****

CARTESIAN COORDINATES (ANGSTROEM)
---------------------------------
  C     -1.467940   -0.503990    0.598060
  C     -1.992460   -1.535050   -0.139060
  C     -1.282160   -2.707890   -0.472290
  N     -0.761450   -3.684270   -0.777530
  C     -3.283920   -1.572500   -0.705850
  N     -4.310170   -1.681300   -1.210620
  C     -0.095990   -0.434250    1.085070
  C      0.112350    0.838930    1.667440
  C      1.314560    1.220670    2.211410
  C      2.364680    0.297540    2.181470
  C      2.146920   -0.976030    1.602490
  C      0.930920   -1.359840    1.051020
  S      3.574140   -1.963810    1.676640
  C      4.432940   -0.670240    2.470400
  C      3.690730    0.444600    2.671940
  Br     6.225990   -0.915440    2.960650
  C     -1.131270    1.628420    1.592330
  O     -1.280400    2.755790    2.012970
  C     -2.133230    0.736940    0.960450
  C     -3.481850    0.939860    0.844010
  C     -4.264290    2.090070    1.059720
  C     -3.941630    3.427700    1.257620
  C     -5.069120    4.229770    1.361610
  C     -6.279500    3.503890    1.251670
  S     -6.018880    1.844600    0.999230
  C     -7.356550    4.406610    1.379290
  C     -6.843210    5.703520    1.562030
  C     -5.387360    5.634340    1.551450
  C     -4.520900    6.679750    1.673790
  C     -3.117710    6.534140    1.607540
  N     -1.976530    6.455640    1.539530
  C     -4.977950    8.002470    1.858310
  N     -5.352420    9.075670    2.009120
  C     -7.837920    6.669590    1.679440
  C     -9.109980    6.125070    1.592180
  S     -9.065800    4.380270    1.362250
  C    -10.355580    6.810610    1.647370
  C    -11.564610    6.154340    1.577510
  C    -12.806740    6.775860    1.591750
  C    -12.929310    8.232700    1.669950
  C    -11.875400    9.074070    1.766380
  S    -10.240770    8.559030    1.793740
  C    -14.325440    8.494790    1.621220
  C    -15.039510    7.295190    1.519470
  C    -16.434270    7.522970    1.468370
  C    -16.727150    8.848390    1.529960
  S    -15.341310    9.876480    1.653360
  C    -14.097570    6.202720    1.509990
  C    -14.356300    4.820860    1.457480
  C    -15.588350    4.253870    1.325620
  C    -15.828110    2.869720    1.312730
  C    -17.063460    2.233930    1.166620
  C    -18.322090    2.922790    0.938870
  O    -18.473940    4.132130    0.937680
  C    -19.446680    1.990720    0.676880
  C    -19.356580    0.584800    0.871080
  C    -20.535840   -0.051930    0.576520
  S    -21.764040    1.027360    0.046230
  C    -20.695580    2.361350    0.239040
  C    -21.179810    3.738940   -0.088460
  F    -20.427020    4.347800   -1.009980
  F    -22.427730    3.697700   -0.591490
  F    -21.237360    4.540600    0.979550
  C    -20.828060   -1.516810    0.669410
  F    -20.848840   -1.955970    1.933140
  F    -22.044270   -1.791910    0.160240
  F    -19.960700   -2.272500   -0.004850
  C    -18.115570   -0.072780    1.335650
  O    -18.086130   -1.195460    1.795090
  C    -16.962270    0.818090    1.245550
  C    -15.664110    0.368590    1.401970
  S    -14.544940    1.691350    1.502670
  C    -15.277650   -0.999620    1.345820
  C    -14.383690   -1.756600    2.028560
  C    -14.479740   -3.141990    1.558230
  N    -15.405250   -3.192870    0.562620
  C    -15.922350   -1.921380    0.342190
  O    -16.671770   -1.628940   -0.553000
  C    -15.810270   -4.355520   -0.181140
  C    -13.626450   -3.904710    2.265760
  C    -12.955970   -3.013310    3.229830
  O    -12.124920   -3.262890    4.065990
  N    -13.470110   -1.711350    3.023690
  C    -13.081250   -0.573370    3.809210
  H      1.439340    2.200770    2.644270
  H      0.815690   -2.342800    0.626280
  H      4.060940    1.334640    3.146980
  H     -4.069370    0.078950    0.546230
  H     -2.925660    3.771920    1.326420
  H     -7.662980    7.720770    1.820960
  H    -11.525130    5.075860    1.495510
  H    -11.989580   10.144440    1.832060
  H    -17.198420    6.772140    1.388320
  H    -17.698170    9.302960    1.509990
  H    -13.500540    4.160010    1.536520
  H    -16.466940    4.868110    1.216090
  H    -14.968710   -4.766470   -0.742030
  H    -16.594220   -4.044710   -0.870290
  H    -16.201190   -5.117390    0.494360
  H    -13.424380   -4.955030    2.209430
  H    -12.343980   -0.919360    4.533240
  H    -13.942110   -0.157630    4.336040
  H    -12.640360    0.200910    3.177730

 Total Charge           Charge          ....    0
 Multiplicity           Mult            ....    1
 Number of Electrons    NEL             ....  656
 Basis Dimension        Dim             .... 1317

ORBITAL ENERGIES
----------------

  NO   OCC          E(Eh)            E(eV)
   0   2.0000    -482.886985    -13140.0229
   1   2.0000     -89.004882     -2421.9460
   2   2.0000     -89.004522     -2421.9362
   3   2.0000     -89.001324     -2421.8492
   4   2.0000     -88.991109     -2421.5712
   5   2.0000     -88.981093     -2421.2986
   6   2.0000     -88.977381     -2421.1976
   7   2.0000     -88.964105     -2420.8364
   8   2.0000     -62.564692     -1702.4718
   9   2.0000     -56.398645     -1534.6852
  10   2.0000     -56.395925     -1534.6111
  11   2.0000     -56.395893     -1534.6103
  12   2.0000     -24.804515      -674.9652
  13   2.0000     -24.803031      -674.9248
  14   2.0000     -24.796600      -674.7498
  15   2.0000     -24.796142      -674.7373
  16   2.0000     -24.795364      -674.7161
  17   2.0000     -24.793891      -674.6761
  18   2.0000     -19.222320      -523.0659
  19   2.0000     -19.217644      -522.9387
  20   2.0000     -19.216405      -522.9050
  21   2.0000     -19.209083      -522.7057
  22   2.0000     -19.208676      -522.6946
  23   2.0000     -14.465929      -393.6380
  24   2.0000     -14.465376      -393.6229
  25   2.0000     -14.439646      -392.9227
  26   2.0000     -14.435382      -392.8067
  27   2.0000     -14.420147      -392.3921
  28   2.0000     -14.417010      -392.3068
  29   2.0000     -10.528720      -286.5010
  30   2.0000     -10.527533      -286.4687
  31   2.0000     -10.391682      -282.7720
  32   2.0000     -10.389705      -282.7183
  33   2.0000     -10.377804      -282.3944
  34   2.0000     -10.375602      -282.3345
  35   2.0000     -10.375523      -282.3323
  36   2.0000     -10.373487      -282.2769
  37   2.0000     -10.361668      -281.9553
  38   2.0000     -10.360754      -281.9304
  39   2.0000     -10.352414      -281.7035
  40   2.0000     -10.346417      -281.5403
  41   2.0000     -10.345356      -281.5115
  42   2.0000     -10.344990      -281.5015
  43   2.0000     -10.344907      -281.4992
  44   2.0000     -10.344764      -281.4953
  45   2.0000     -10.344058      -281.4761
  46   2.0000     -10.343607      -281.4638
  47   2.0000     -10.341167      -281.3975
  48   2.0000     -10.340828      -281.3882
  49   2.0000     -10.340116      -281.3689
  50   2.0000     -10.339552      -281.3535
  51   2.0000     -10.334270      -281.2098
  52   2.0000     -10.333383      -281.1857
  53   2.0000     -10.331425      -281.1324
  54   2.0000     -10.330792      -281.1152
  55   2.0000     -10.330326      -281.1025
  56   2.0000     -10.327701      -281.0310
  57   2.0000     -10.323280      -280.9107
  58   2.0000     -10.321256      -280.8557
  59   2.0000     -10.320062      -280.8232
  60   2.0000     -10.316295      -280.7207
  61   2.0000     -10.315769      -280.7063
  62   2.0000     -10.315098      -280.6881
  63   2.0000     -10.314241      -280.6648
  64   2.0000     -10.314225      -280.6643
  65   2.0000     -10.312944      -280.6295
  66   2.0000     -10.312708      -280.6230
  67   2.0000     -10.311974      -280.6031
  68   2.0000     -10.311087      -280.5789
  69   2.0000     -10.310542      -280.5641
  70   2.0000     -10.309686      -280.5408
  71   2.0000     -10.307812      -280.4898
  72   2.0000     -10.305141      -280.4171
  73   2.0000     -10.302887      -280.3558
  74   2.0000     -10.302377      -280.3419
  75   2.0000     -10.301393      -280.3152
  76   2.0000     -10.301330      -280.3134
  77   2.0000     -10.298256      -280.2298
  78   2.0000     -10.297563      -280.2109
  79   2.0000     -10.297204      -280.2012
  80   2.0000     -10.294604      -280.1304
  81   2.0000     -10.294434      -280.1258
  82   2.0000     -10.294166      -280.1185
  83   2.0000     -10.290498      -280.0187
  84   2.0000     -10.285242      -279.8757
  85   2.0000     -10.284795      -279.8635
  86   2.0000     -10.281784      -279.7816
  87   2.0000     -10.278607      -279.6951
  88   2.0000      -8.794119      -239.3001
  89   2.0000      -8.099544      -220.3998
  90   2.0000      -8.099077      -220.3871
  91   2.0000      -8.096091      -220.3058
  92   2.0000      -8.086286      -220.0390
  93   2.0000      -8.076115      -219.7623
  94   2.0000      -8.073374      -219.6877
  95   2.0000      -8.059541      -219.3113
  96   2.0000      -6.630432      -180.4232
  97   2.0000      -6.615850      -180.0264
  98   2.0000      -6.615638      -180.0207
  99   2.0000      -6.068687      -165.1374
 100   2.0000      -6.068425      -165.1302
 101   2.0000      -6.065196      -165.0424
 102   2.0000      -6.064287      -165.0176
 103   2.0000      -6.064226      -165.0160
 104   2.0000      -6.062167      -164.9599
 105   2.0000      -6.061283      -164.9359
 106   2.0000      -6.061056      -164.9297
 107   2.0000      -6.058631      -164.8637
 108   2.0000      -6.055932      -164.7903
 109   2.0000      -6.051294      -164.6641
 110   2.0000      -6.048081      -164.5767
 111   2.0000      -6.045220      -164.4988
 112   2.0000      -6.043045      -164.4396
 113   2.0000      -6.041322      -164.3927
 114   2.0000      -6.038789      -164.3238
 115   2.0000      -6.038422      -164.3138
 116   2.0000      -6.034604      -164.2099
 117   2.0000      -6.028951      -164.0561
 118   2.0000      -6.024679      -163.9399
 119   2.0000      -6.021652      -163.8575
 120   2.0000      -2.746310       -74.7309
 121   2.0000      -2.742208       -74.6193
 122   2.0000      -2.742054       -74.6151
 123   2.0000      -2.730461       -74.2996
 124   2.0000      -2.730447       -74.2992
 125   2.0000      -1.391502       -37.8647
 126   2.0000      -1.390501       -37.8374
 127   2.0000      -1.293760       -35.2050
 128   2.0000      -1.292810       -35.1791
 129   2.0000      -1.290556       -35.1178
 130   2.0000      -1.289294       -35.0835
 131   2.0000      -1.154206       -31.4075
 132   2.0000      -1.146132       -31.1878
 133   2.0000      -1.137942       -30.9650
 134   2.0000      -1.136002       -30.9122
 135   2.0000      -1.132945       -30.8290
 136   2.0000      -1.088836       -29.6287
 137   2.0000      -1.057814       -28.7846
 138   2.0000      -1.056858       -28.7586
 139   2.0000      -1.030535       -28.0423
 140   2.0000      -1.027482       -27.9592
 141   2.0000      -1.025913       -27.9165
 142   2.0000      -1.021347       -27.7923
 143   2.0000      -1.016406       -27.6578
 144   2.0000      -1.014297       -27.6004
 145   2.0000      -1.010732       -27.5034
 146   2.0000      -1.006794       -27.3963
 147   2.0000      -0.997426       -27.1413
 148   2.0000      -0.992969       -27.0201
 149   2.0000      -0.984796       -26.7976
 150   2.0000      -0.967578       -26.3291
 151   2.0000      -0.946203       -25.7475
 152   2.0000      -0.941679       -25.6244
 153   2.0000      -0.930475       -25.3195
 154   2.0000      -0.927504       -25.2387
 155   2.0000      -0.918344       -24.9894
 156   2.0000      -0.914301       -24.8794
 157   2.0000      -0.910927       -24.7876
 158   2.0000      -0.907588       -24.6967
 159   2.0000      -0.899195       -24.4683
 160   2.0000      -0.895662       -24.3722
 161   2.0000      -0.890316       -24.2267
 162   2.0000      -0.888062       -24.1654
 163   2.0000      -0.881424       -23.9848
 164   2.0000      -0.868522       -23.6337
 165   2.0000      -0.863729       -23.5033
 166   2.0000      -0.858796       -23.3690
 167   2.0000      -0.855559       -23.2809
 168   2.0000      -0.837982       -22.8026
 169   2.0000      -0.831694       -22.6315
 170   2.0000      -0.827814       -22.5260
 171   2.0000      -0.816287       -22.2123
 172   2.0000      -0.815521       -22.1914
 173   2.0000      -0.805237       -21.9116
 174   2.0000      -0.801048       -21.7976
 175   2.0000      -0.794274       -21.6133
 176   2.0000      -0.788644       -21.4601
 177   2.0000      -0.779084       -21.2000
 178   2.0000      -0.771614       -20.9967
 179   2.0000      -0.763603       -20.7787
 180   2.0000      -0.761608       -20.7244
 181   2.0000      -0.751194       -20.4410
 182   2.0000      -0.740873       -20.1602
 183   2.0000      -0.737805       -20.0767
 184   2.0000      -0.731182       -19.8965
 185   2.0000      -0.719320       -19.5737
 186   2.0000      -0.715191       -19.4613
 187   2.0000      -0.708720       -19.2852
 188   2.0000      -0.704622       -19.1737
 189   2.0000      -0.699301       -19.0289
 190   2.0000      -0.696073       -18.9411
 191   2.0000      -0.693059       -18.8591
 192   2.0000      -0.687825       -18.7167
 193   2.0000      -0.686648       -18.6846
 194   2.0000      -0.673203       -18.3188
 195   2.0000      -0.672810       -18.3081
 196   2.0000      -0.671764       -18.2796
 197   2.0000      -0.671635       -18.2761
 198   2.0000      -0.667581       -18.1658
 199   2.0000      -0.665078       -18.0977
 200   2.0000      -0.660727       -17.9793
 201   2.0000      -0.656556       -17.8658
 202   2.0000      -0.647159       -17.6101
 203   2.0000      -0.638932       -17.3862
 204   2.0000      -0.634984       -17.2788
 205   2.0000      -0.634389       -17.2626
 206   2.0000      -0.629103       -17.1188
 207   2.0000      -0.624134       -16.9836
 208   2.0000      -0.623439       -16.9646
 209   2.0000      -0.622464       -16.9381
 210   2.0000      -0.619946       -16.8696
 211   2.0000      -0.605788       -16.4843
 212   2.0000      -0.602747       -16.4016
 213   2.0000      -0.599621       -16.3165
 214   2.0000      -0.596369       -16.2280
 215   2.0000      -0.595957       -16.2168
 216   2.0000      -0.589847       -16.0506
 217   2.0000      -0.588749       -16.0207
 218   2.0000      -0.584422       -15.9029
 219   2.0000      -0.579661       -15.7734
 220   2.0000      -0.572817       -15.5871
 221   2.0000      -0.571674       -15.5560
 222   2.0000      -0.562225       -15.2989
 223   2.0000      -0.559951       -15.2370
 224   2.0000      -0.559640       -15.2286
 225   2.0000      -0.556937       -15.1550
 226   2.0000      -0.555137       -15.1061
 227   2.0000      -0.551684       -15.0121
 228   2.0000      -0.549805       -14.9610
 229   2.0000      -0.549022       -14.9396
 230   2.0000      -0.545502       -14.8439
 231   2.0000      -0.544549       -14.8179
 232   2.0000      -0.544039       -14.8041
 233   2.0000      -0.541509       -14.7352
 234   2.0000      -0.540971       -14.7206
 235   2.0000      -0.538984       -14.6665
 236   2.0000      -0.534769       -14.5518
 237   2.0000      -0.530097       -14.4247
 238   2.0000      -0.527249       -14.3472
 239   2.0000      -0.525316       -14.2946
 240   2.0000      -0.524546       -14.2736
 241   2.0000      -0.523109       -14.2345
 242   2.0000      -0.521263       -14.1843
 243   2.0000      -0.519374       -14.1329
 244   2.0000      -0.518827       -14.1180
 245   2.0000      -0.514273       -13.9941
 246   2.0000      -0.513307       -13.9678
 247   2.0000      -0.511635       -13.9223
 248   2.0000      -0.511214       -13.9108
 249   2.0000      -0.509997       -13.8777
 250   2.0000      -0.507786       -13.8176
 251   2.0000      -0.505814       -13.7639
 252   2.0000      -0.504912       -13.7394
 253   2.0000      -0.503904       -13.7119
 254   2.0000      -0.503073       -13.6893
 255   2.0000      -0.501942       -13.6585
 256   2.0000      -0.500390       -13.6163
 257   2.0000      -0.498400       -13.5621
 258   2.0000      -0.496926       -13.5220
 259   2.0000      -0.495772       -13.4906
 260   2.0000      -0.494796       -13.4641
 261   2.0000      -0.493051       -13.4166
 262   2.0000      -0.489172       -13.3110
 263   2.0000      -0.485565       -13.2129
 264   2.0000      -0.484194       -13.1756
 265   2.0000      -0.482863       -13.1394
 266   2.0000      -0.482134       -13.1195
 267   2.0000      -0.479939       -13.0598
 268   2.0000      -0.479094       -13.0368
 269   2.0000      -0.476664       -12.9707
 270   2.0000      -0.475962       -12.9516
 271   2.0000      -0.472036       -12.8448
 272   2.0000      -0.469067       -12.7640
 273   2.0000      -0.469005       -12.7623
 274   2.0000      -0.467346       -12.7171
 275   2.0000      -0.464929       -12.6514
 276   2.0000      -0.462456       -12.5841
 277   2.0000      -0.462263       -12.5788
 278   2.0000      -0.461481       -12.5575
 279   2.0000      -0.458991       -12.4898
 280   2.0000      -0.456639       -12.4258
 281   2.0000      -0.455347       -12.3906
 282   2.0000      -0.453578       -12.3425
 283   2.0000      -0.452293       -12.3075
 284   2.0000      -0.450416       -12.2564
 285   2.0000      -0.447654       -12.1813
 286   2.0000      -0.446774       -12.1573
 287   2.0000      -0.446184       -12.1413
 288   2.0000      -0.443993       -12.0817
 289   2.0000      -0.441268       -12.0075
 290   2.0000      -0.437919       -11.9164
 291   2.0000      -0.436574       -11.8798
 292   2.0000      -0.435520       -11.8511
 293   2.0000      -0.432704       -11.7745
 294   2.0000      -0.430618       -11.7177
 295   2.0000      -0.429939       -11.6992
 296   2.0000      -0.429283       -11.6814
 297   2.0000      -0.426231       -11.5983
 298   2.0000      -0.422859       -11.5066
 299   2.0000      -0.417726       -11.3669
 300   2.0000      -0.410805       -11.1786
 301   2.0000      -0.408903       -11.1268
 302   2.0000      -0.401942       -10.9374
 303   2.0000      -0.394335       -10.7304
 304   2.0000      -0.387393       -10.5415
 305   2.0000      -0.386248       -10.5104
 306   2.0000      -0.376308       -10.2399
 307   2.0000      -0.367273        -9.9940
 308   2.0000      -0.365376        -9.9424
 309   2.0000      -0.362676        -9.8689
 310   2.0000      -0.358797        -9.7633
 311   2.0000      -0.353654        -9.6234
 312   2.0000      -0.350913        -9.5488
 313   2.0000      -0.346052        -9.4166
 314   2.0000      -0.345660        -9.4059
 315   2.0000      -0.344674        -9.3791
 316   2.0000      -0.342028        -9.3070
 317   2.0000      -0.339672        -9.2429
 318   2.0000      -0.335933        -9.1412
 319   2.0000      -0.330897        -9.0042
 320   2.0000      -0.322442        -8.7741
 321   2.0000      -0.317932        -8.6514
 322   2.0000      -0.308836        -8.4038
 323   2.0000      -0.297879        -8.1057
 324   2.0000      -0.294146        -8.0041
 325   2.0000      -0.289989        -7.8910
 326   2.0000      -0.271316        -7.3829
 327   2.0000      -0.234784        -6.3888
 328   0.0000      -0.121977        -3.3192
 329   0.0000      -0.095387        -2.5956
 330   0.0000      -0.086260        -2.3473
 331   0.0000      -0.070030        -1.9056
 332   0.0000      -0.064171        -1.7462

MULLIKEN ATOMIC CHARGES
-----------------------
   0 C :    0.310865
   1 C :   -0.353972
   2 C :   -0.183673
   3 N :    0.148578
   4 C :   -0.198413
   5 N :    0.154958
   6 C :    0.012451
   7 C :   -0.014146
   8 C :   -0.068292
   9 C :    0.117453
  10 C :   -0.092662
  11 C :   -0.015369
  12 S :    0.187946
  13 C :   -0.123966
  14 C :    0.041433
  15 Br:    0.026183
  16 C :    0.152612
  17 O :   -0.150542
  18 C :   -0.089464
  19 C :    0.033886
  20 C :   -0.115008
  21 C :    0.004202
  22 C :   -0.010273
  23 C :   -0.078970
  24 S :    0.206944
  25 C :   -0.099181
  26 C :    0.026741
  27 C :    0.304358
  28 C :   -0.288938
  29 C :   -0.191240
  30 N :    0.194240
  31 C :   -0.187958
  32 N :    0.173770
  33 C :   -0.057040
  34 C :   -0.057118
  35 S :    0.174533
  36 C :   -0.021336
  37 C :   -0.088915
  38 C :    0.061777
  39 C :    0.060093
  40 C :   -0.117364
  41 S :    0.140698
  42 C :   -0.111992
  43 C :    0.053978
  44 C :   -0.011475
  45 C :   -0.063591
  46 S :    0.134379
  47 C :    0.097264
  48 C :   -0.017556
  49 C :   -0.016531
  50 C :   -0.101180
  51 C :    0.016570
  52 C :    0.132002
  53 O :   -0.170043
  54 C :    0.058427
  55 C :    0.073891
  56 C :   -0.334255
  57 S :    0.273634
  58 C :   -0.339197
  59 C :    0.563999
  60 F :   -0.148044
  61 F :   -0.167884
  62 F :   -0.146177
  63 C :    0.558500
  64 F :   -0.146550
  65 F :   -0.168413
  66 F :   -0.139329
  67 C :    0.114091
  68 O :   -0.152870
  69 C :    0.048776
  70 C :   -0.155680
  71 S :    0.138114
  72 C :   -0.154706
  73 C :    0.157287
  74 C :    0.274357
  75 N :   -0.233548
  76 C :    0.174018
  77 O :   -0.166493
  78 C :    0.127093
  79 C :   -0.262270
  80 C :    0.200201
  81 O :   -0.171860
  82 N :   -0.239772
  83 C :    0.120280
  84 H :   -0.006699
  85 H :   -0.006752
  86 H :   -0.001781
  87 H :    0.013882
  88 H :    0.038657
  89 H :    0.025080
  90 H :   -0.006866
  91 H :    0.044495
  92 H :    0.019735
  93 H :    0.031301
  94 H :   -0.034963
  95 H :    0.000026
  96 H :    0.036609
  97 H :    0.061919
  98 H :    0.040249
  99 H :   -0.010750
 100 H :    0.056634
 101 H :    0.042986
 102 H :    0.028914
Sum of atomic charges:   -0.0000000

LOEWDIN ATOMIC CHARGES
----------------------
   0 C :    0.076782
   1 C :   -0.143451
   2 C :   -0.018315
   3 N :   -0.052987
   4 C :   -0.024662
   5 N :   -0.054080
   6 C :   -0.021962
   7 C :   -0.050596
   8 C :    0.024302
   9 C :   -0.031744
  10 C :   -0.143565
  11 C :   -0.009115
  12 S :    0.433958
  13 C :   -0.270714
  14 C :   -0.069633
  15 Br:    0.138720
  16 C :    0.086373
  17 O :   -0.137668
  18 C :   -0.096304
  19 C :    0.040866
  20 C :   -0.176253
  21 C :    0.019860
  22 C :   -0.075704
  23 C :   -0.158920
  24 S :    0.496112
  25 C :   -0.190209
  26 C :   -0.049722
  27 C :    0.075542
  28 C :   -0.090759
  29 C :   -0.022496
  30 N :   -0.012595
  31 C :   -0.014959
  32 N :   -0.029236
  33 C :   -0.042022
  34 C :   -0.166153
  35 S :    0.478466
  36 C :   -0.184624
  37 C :   -0.025912
  38 C :   -0.013296
  39 C :   -0.048141
  40 C :   -0.136413
  41 S :    0.470060
  42 C :   -0.198956
  43 C :   -0.034397
  44 C :   -0.059505
  45 C :   -0.158061
  46 S :    0.429277
  47 C :   -0.044028
  48 C :   -0.001550
  49 C :   -0.056385
  50 C :   -0.111021
  51 C :   -0.101374
  52 C :    0.079941
  53 O :   -0.150821
  54 C :   -0.061240
  55 C :   -0.059030
  56 C :   -0.207605
  57 S :    0.552843
  58 C :   -0.209009
  59 C :    0.145121
  60 F :   -0.046934
  61 F :   -0.068613
  62 F :   -0.046709
  63 C :    0.145356
  64 F :   -0.048235
  65 F :   -0.069748
  66 F :   -0.040349
  67 C :    0.082206
  68 O :   -0.132421
  69 C :   -0.082197
  70 C :   -0.130227
  71 S :    0.456118
  72 C :   -0.132982
  73 C :    0.056931
  74 C :    0.062126
  75 N :   -0.015554
  76 C :    0.105726
  77 O :   -0.158386
  78 C :    0.040269
  79 C :   -0.110637
  80 C :    0.095269
  81 O :   -0.159374
  82 N :   -0.027196
  83 C :    0.030619
  84 H :    0.042621
  85 H :    0.041163
  86 H :    0.039540
  87 H :    0.043032
  88 H :    0.044175
  89 H :    0.036535
  90 H :    0.026147
  91 H :    0.040186
  92 H :    0.039742
  93 H :    0.026671
  94 H :    0.016034
  95 H :    0.037382
  96 H :    0.028435
  97 H :    0.043720
  98 H :    0.031510
  99 H :    0.036728
 100 H :    0.041260
 101 H :    0.029912
 102 H :    0.017116

  Mayer bond orders larger than 0.100000
B(  0-C ,  1-C ) :   1.6208 B(  0-C ,  6-C ) :   1.0007 B(  0-C , 18-C ) :   1.0782
B(  1-C ,  2-C ) :   1.1441 B(  1-C ,  4-C ) :   1.1437 B(  2-C ,  3-N ) :   2.9690
B(  4-C ,  5-N ) :   2.9792 B(  6-C ,  7-C ) :   1.2759 B(  6-C , 11-C ) :   1.4085
B(  7-C ,  8-C ) :   1.4233 B(  7-C , 16-C ) :   0.9510 B(  8-C ,  9-C ) :   1.2436
B(  8-C , 84-H ) :   1.0170 B(  9-C , 10-C ) :   1.3050 B(  9-C , 14-C ) :   1.1644
B( 10-C , 11-C ) :   1.3320 B( 10-C , 12-S ) :   1.0870 B( 11-C , 85-H ) :   0.9793
B( 12-S , 13-C ) :   1.0870 B( 13-C , 14-C ) :   1.6169 B( 13-C , 15-Br) :   1.0204
B( 14-C , 86-H ) :   1.0001 B( 16-C , 17-O ) :   2.1747 B( 16-C , 18-C ) :   0.9420
B( 18-C , 19-C ) :   1.5948 B( 19-C , 20-C ) :   1.2143 B( 19-C , 87-H ) :   0.9142
B( 20-C , 21-C ) :   1.3983 B( 20-C , 24-S ) :   1.0731 B( 21-C , 22-C ) :   1.3198
B( 21-C , 88-H ) :   0.9720 B( 22-C , 23-C ) :   1.3724 B( 22-C , 27-C ) :   0.9993
B( 23-C , 24-S ) :   1.1664 B( 23-C , 25-C ) :   1.2091 B( 25-C , 26-C ) :   1.4355
B( 25-C , 35-S ) :   1.1076 B( 26-C , 27-C ) :   0.9974 B( 26-C , 33-C ) :   1.3132
B( 27-C , 28-C ) :   1.7162 B( 28-C , 29-C ) :   1.1354 B( 28-C , 31-C ) :   1.1337
B( 29-C , 30-N ) :   2.9965 B( 31-C , 32-N ) :   2.9860 B( 33-C , 34-C ) :   1.4414
B( 33-C , 89-H ) :   0.9792 B( 34-C , 35-S ) :   1.1156 B( 34-C , 36-C ) :   1.1750
B( 36-C , 37-C ) :   1.5050 B( 36-C , 41-S ) :   1.0603 B( 37-C , 38-C ) :   1.2742
B( 37-C , 90-H ) :   0.9578 B( 38-C , 39-C ) :   1.0533 B( 38-C , 47-C ) :   1.3456
B( 39-C , 40-C ) :   1.6026 B( 39-C , 42-C ) :   1.1833 B( 40-C , 41-S ) :   1.1395
B( 40-C , 91-H ) :   0.9404 B( 42-C , 43-C ) :   1.4396 B( 42-C , 46-S ) :   1.0851
B( 43-C , 44-C ) :   1.2161 B( 43-C , 47-C ) :   1.0802 B( 44-C , 45-C ) :   1.5898
B( 44-C , 92-H ) :   0.9970 B( 45-C , 46-S ) :   1.1519 B( 45-C , 93-H ) :   0.9627
B( 47-C , 48-C ) :   1.2046 B( 48-C , 49-C ) :   1.5337 B( 48-C , 94-H ) :   0.9581
B( 49-C , 50-C ) :   1.2174 B( 49-C , 95-H ) :   0.9679 B( 50-C , 51-C ) :   1.4332
B( 50-C , 71-S ) :   1.1020 B( 51-C , 52-C ) :   0.9989 B( 51-C , 69-C ) :   1.1812
B( 52-C , 53-O ) :   2.1206 B( 52-C , 54-C ) :   0.9541 B( 54-C , 55-C ) :   1.2377
B( 54-C , 58-C ) :   1.5757 B( 55-C , 56-C ) :   1.5853 B( 55-C , 67-C ) :   0.9290
B( 56-C , 57-S ) :   1.1812 B( 56-C , 63-C ) :   0.9303 B( 57-S , 58-C ) :   1.1845
B( 58-C , 59-C ) :   0.9334 B( 59-C , 60-F ) :   1.1830 B( 59-C , 61-F ) :   1.1495
B( 59-C , 62-F ) :   1.1872 B( 63-C , 64-F ) :   1.1887 B( 63-C , 65-F ) :   1.1492
B( 63-C , 66-F ) :   1.1936 B( 67-C , 68-O ) :   2.1803 B( 67-C , 69-C ) :   0.9766
B( 69-C , 70-C ) :   1.5362 B( 70-C , 71-S ) :   1.1412 B( 70-C , 72-C ) :   1.0875
B( 72-C , 73-C ) :   1.6146 B( 72-C , 76-C ) :   0.8955 B( 73-C , 74-C ) :   1.0309
B( 73-C , 82-N ) :   1.1879 B( 74-C , 75-N ) :   1.1409 B( 74-C , 79-C ) :   1.5274
B( 75-N , 76-C ) :   1.0457 B( 75-N , 78-C ) :   0.9526 B( 76-C , 77-O ) :   2.1759
B( 78-C , 96-H ) :   0.9762 B( 78-C , 97-H ) :   0.9612 B( 78-C , 98-H ) :   0.9750
B( 79-C , 80-C ) :   0.9604 B( 79-C , 99-H ) :   1.0651 B( 80-C , 81-O ) :   2.1552
B( 80-C , 82-N ) :   0.9834 B( 82-N , 83-C ) :   0.9525 B( 83-C ,100-H ) :   0.9568
B( 83-C ,101-H ) :   0.9756 B( 83-C ,102-H ) :   0.9713

-----------------------------------------------------------------------------
         ABSORPTION SPECTRUM VIA TRANSITION ELECTRIC DIPOLE MOMENTS
-----------------------------------------------------------------------------
State   Energy  Wavelength   fosc         T2         TX        TY        TZ
        (cm-1)    (nm)                  (au**2)     (au)      (au)      (au)
-----------------------------------------------------------------------------
   0   10439.3    957.9   0.390950947  12.32900  -3.45473   0.60941   0.14976
   1   16077.7    622.0   0.619954543  12.69436   3.20635   1.55356  -0.01112
   2   17049.3    586.5   0.288330383   5.56748   2.35693  -0.06152  -0.09271
   3   19929.6    501.8   0.914117198  15.10008   1.86013  -3.39627  -0.32460
   4   21388.4    467.5   0.169675347   2.61165  -1.41172   0.70712  -0.34450
   5   22635.3    441.8   0.102333447   1.48835   0.32090   1.16879   0.13895
   6   22947.3    435.8   0.278782187   3.99953   0.84027  -1.81465  -0.02319
   7   24512.8    408.0   0.214320800   2.87838  -0.62322   1.54296   0.33053
   8   24964.7    400.6   0.004386472   0.05784   0.10195  -0.21782   0.00244
   9   25203.6    396.8   0.036068762   0.47113   0.63567  -0.16043  -0.20328
  10   25618.1    390.3   0.052848455   0.67914  -0.77182  -0.27398  -0.09145
  11   25699.4    389.1   0.070395000   0.90177   0.68364  -0.56574   0.33814
  12   26343.1    379.6   0.196440946   2.45494  -1.52850   0.31275  -0.14421
  13   27262.5    366.8   0.026256729   0.31707  -0.40256   0.30764  -0.24570
  14   27308.9    366.2   0.039333766   0.47417  -0.64284  -0.22791   0.09483
  15   28116.6    355.7   0.003419022   0.04003  -0.15256   0.11030   0.06776
  16   28792.5    347.3   0.079397992   0.90783  -0.88387   0.31085  -0.17315
  17   28985.3    345.0   0.035046815   0.39806   0.33042   0.53708  -0.02068
  18   29705.4    336.6   0.116416641   1.29019  -0.81872   0.66797  -0.41678
  19   30025.3    333.1   0.027100714   0.29715   0.36632   0.40361  -0.00717
  20   30147.8    331.7   0.049591140   0.54153  -0.68760  -0.23771  -0.11062
  21   30231.6    330.8   0.421138995   4.58606   2.06633   0.19369   0.52805
  22   30398.2    329.0   0.260166378   2.81760   0.91148   1.40522   0.11021
  23   30713.7    325.6   0.056786279   0.60868   0.45007  -0.57497  -0.27482
  24   30929.9    323.3   0.027409675   0.29174   0.49322  -0.19826  -0.09575
  25   31630.4    316.2   0.184414898   1.91940  -1.09421  -0.81186  -0.25095
  26   31901.1    313.5   0.334512536   3.45209  -1.57161   0.79601  -0.59033
  27   31956.7    312.9   0.025948323   0.26731   0.42921   0.26307   0.11786
  28   32035.4    312.2   0.106645237   1.09594   0.86355  -0.40232   0.43400
  29   32485.4    307.8   0.009261281   0.09386  -0.23010   0.19917  -0.03527
  30   32677.7    306.0   0.295265952   2.97466   0.71416   1.56195   0.15790
  31   33199.1    301.2   0.098426514   0.97603   0.36513  -0.91712  -0.03987
  32   33284.2    300.4   0.001587390   0.01570  -0.10614  -0.06659  -0.00078
  33   33803.5    295.8   0.099308995   0.96717  -0.02636   0.89852   0.39891
  34   33913.8    294.9   0.019254721   0.18691  -0.02135  -0.12950  -0.41193
  35   34061.0    293.6   0.263700847   2.54877  -1.29044  -0.62973  -0.69784
  36   34275.6    291.8   0.158057666   1.51812  -1.22575   0.00728  -0.12494
  37   34385.4    290.8   0.003919633   0.03753   0.14354  -0.12814   0.02240
  38   34515.1    289.7   0.139671654   1.33222   0.38237   1.08863  -0.02992
  39   34812.9    287.2   0.193147520   1.82652   1.21630  -0.26307   0.52718
  40   35069.7    285.1   0.012888567   0.12099   0.25434  -0.23118  -0.05345
  41   35463.7    282.0   0.221613814   2.05726   1.29850  -0.58480  -0.17072
  42   35810.1    279.3   0.134194349   1.23368  -0.63149  -0.90602  -0.11844
  43   36066.3    277.3   0.056842333   0.51885   0.68815  -0.18447   0.10621
  44   36294.7    275.5   0.070699208   0.64128   0.62372  -0.50115   0.03312
  45   36427.1    274.5   0.006507669   0.05881  -0.22240   0.03651   0.08955
  46   37537.6    266.4   0.073293684   0.64280  -0.52626   0.60257   0.05256
  47   37597.8    266.0   0.125395578   1.09798   0.84456  -0.60298   0.14534
  48   37895.9    263.9   0.034956683   0.30368  -0.33081  -0.34836  -0.26998
  49   37998.9    263.2   0.028435287   0.24636   0.06098   0.48952  -0.05481
  50   38131.9    262.2   0.035845968   0.30948  -0.55435  -0.03488   0.03087
  51   38307.5    261.0   0.063033430   0.54170   0.59668  -0.41898   0.10067
  52   38497.8    259.8   0.121310033   1.03738  -0.39152  -0.86092  -0.37803
  53   38621.4    258.9   0.001113245   0.00949  -0.01711  -0.08943  -0.03463
  54   38793.2    257.8   0.041071888   0.34855  -0.51846   0.16919  -0.22611
  55   38824.9    257.6   0.036328898   0.30805  -0.49891   0.05386  -0.23713
  56   38892.6    257.1   0.009079987   0.07686   0.21356  -0.08384   0.15563
  57   39001.8    256.4   0.002005174   0.01693   0.11197  -0.03835  -0.05401
  58   39249.2    254.8   0.000532362   0.00447  -0.03223  -0.03063   0.04989
  59   39391.2    253.9   0.058124950   0.48578   0.65977   0.12790   0.18473
  60   39607.9    252.5   0.045108283   0.37493  -0.36033   0.41972  -0.26254
  61   39642.7    252.3   0.003549954   0.02948   0.15381   0.04955   0.05803
  62   39771.1    251.4   0.056403146   0.46689  -0.22717   0.62972   0.13684
  63   39880.8    250.7   0.047094934   0.38876   0.11030  -0.10265   0.60503
  64   39951.1    250.3   0.068611005   0.56538   0.52611  -0.50324   0.18800
  65   40048.1    249.7   0.009589265   0.07883  -0.26219   0.06922  -0.07274
  66   40254.9    248.4   0.061813315   0.50552   0.46686  -0.53558  -0.02671

FINAL SINGLE POINT ENERGY     -8919.506040782813

DIPOLE MOMENT
-------------
                                X             Y             Z
Electronic contribution:     95.69802     -25.73150       3.52465
Nuclear contribution   :    -95.29610      27.10189      -2.55220
                        -----------------------------------------
Total Dipole Moment    :      0.40192       1.37039       0.97245
                        -----------------------------------------
Magnitude (a.u.)       :      1.72776
Magnitude (Debye)      :      4.39162

Rotational constants in cm-1:     0.000857     0.000175     0.000148
Rotational constants in MHz :    25.695572     5.252767     4.450733

                             ****ORCA TERMINATED NORMALLY****
TOTAL RUN TIME: 0 days 0 hours 12 minutes 6 seconds 772 msec
