                         Program Version 4.2.0 -  RELEASE  -
|  1> # ORCA input file
|  2> # SCF done       -217.282357774662          0.000849918908
|  3> ! CAM-B3LYP def2-SVP def2/J RIJCOSX Grid4 TightSCF
|  4> %maxcore 5000
|  5> %tddft
|  6>     Mode sTDDFT
|  7>     Ethresh 5.0
|  8>     maxcore 5000
|  9> end
| 10>
| 11> %pal
| 12>   nprocs 6
| 13>   end
| 14> * xyz 0 1
| 15>    C       -5.99406        -2.02405        -0.39181
| 16>    C       -6.79687        -2.48453         0.61936
| 17>    C       -7.13899        -3.84043         0.80218
| 18>    N       -7.45129        -4.92758         0.99796
| 19>    C       -7.37222        -1.67162         1.61859
| 20>    N       -7.87123        -1.07300         2.46166
| 21>    C       -5.32717        -2.84158        -1.39752
| 22>    C       -4.50957        -2.00643        -2.19986
| 23>    C       -3.74889        -2.48923        -3.23702
| 24>    C       -3.79333        -3.86352        -3.49385
| 25>    C       -4.61561        -4.68984        -2.69021
| 26>    C       -5.38679        -4.20085        -1.64284
| 27>    S       -4.52841        -6.35236        -3.18489
| 28>    C       -3.40268        -5.92271        -4.44535
| 29>    C       -3.10609        -4.60209        -4.49532
| 30>   Br       -2.72854        -7.25628        -5.57725
| 31>    C       -4.63436        -0.61176        -1.74367
| 32>    O       -4.14224         0.37177        -2.25186
| 33>    C       -5.59369        -0.64938        -0.60800
| 34>    C       -6.12901         0.46522        -0.03650
| 35>    C       -5.64516         1.79294        -0.17778
| 36>    O       -6.57511         2.76728        -0.19096
| 37>    C       -5.96251         3.95241        -0.35933
| 38>    C       -4.56957         3.75824        -0.40508
| 39>    C       -4.36882         2.36582        -0.27443
| 40>    C       -3.08127         1.66907         0.01469
| 41>    F       -3.24032         0.40583         0.42662
| 42>    F       -2.19869         1.63861        -0.99084
| 43>    F       -2.43557         2.28495         1.03610
| 44>    O       -3.75277         4.80487        -0.55416
| 45>    C       -2.39446         4.61011        -0.91149
| 46>    C       -6.68697         5.16042        -0.47508
| 47>    C       -8.04151         5.22568        -0.40704
| 48>    C       -8.81231         6.40038        -0.54864
| 49>    C      -10.19535         6.48312        -0.50006
| 50>    C      -10.65623         7.78139        -0.69901
| 51>    C       -9.61178         8.70871        -0.89982
| 52>    S       -8.07192         7.97403        -0.84097
| 53>    C      -10.17736         9.98789        -1.10842
| 54>    C      -11.57769         9.87079        -1.04183
| 55>    C      -11.92404         8.48194        -0.78126
| 56>    C      -13.18018         7.96150        -0.65757
| 57>    C      -13.40329         6.59041        -0.41251
| 58>    N      -13.58465         5.47538        -0.21653
| 59>    C      -14.33503         8.76241        -0.77608
| 60>    N      -15.27196         9.41680        -0.87807
| 61>    C      -12.24043        11.07341        -1.25112
| 62>    C      -11.36217        12.12199        -1.48487
| 63>    S       -9.68554        11.59588        -1.42891
| 64>    C      -11.70431        13.47592        -1.76343
| 65>    C      -13.01260        13.88033        -1.90293
| 66>    C      -13.41501        15.17438        -2.21027
| 67>    C      -12.44373        16.22275        -2.54269
| 68>    C      -11.10648        16.05852        -2.43841
| 69>    S      -10.36130        14.59693        -1.93105
| 70>    C      -13.22480        17.32741        -2.98361
| 71>    C      -14.58179        16.99366        -2.93995
| 72>    C      -15.40609        18.05540        -3.37132
| 73>    C      -14.67225        19.14198        -3.72732
| 74>    S      -12.96251        18.92715        -3.55115
| 75>    C      -14.72056        15.66041        -2.42261
| 76>    C      -15.93087        14.95905        -2.21047
| 77>    C      -16.10166        14.00161        -1.25281
| 78>    C      -17.22993        13.16573        -1.10549
| 79>    C      -18.01576        12.67580        -2.11533
| 80>    C      -19.16646        11.81675        -1.93074
| 81>    C      -19.94696        11.75235        -0.80491
| 82>    C      -21.08228        10.92735        -0.67986
| 83>    N      -22.01426        10.27472        -0.52389
| 84>    C      -19.74379        12.54361         0.34443
| 85>    N      -19.65051        13.18136         1.29514
| 86>    C      -19.40050        11.10678        -3.18097
| 87>    C      -18.47694        11.59233        -4.14993
| 88>    C      -17.62789        12.63723        -3.54661
| 89>    O      -16.76435        13.27641        -4.11344
| 90>    C      -18.45100        11.10789        -5.42540
| 91>    C      -19.36340        10.09392        -5.79575
| 92>    C      -20.28532         9.59823        -4.82952
| 93>    C      -20.29010        10.12179        -3.51561
| 94>    C      -21.18477         8.58164        -5.20900
| 95>    C      -21.17729         8.07844        -6.48158
| 96>    C      -20.27035         8.56840        -7.43270
| 97>    C      -19.38335         9.55512        -7.09705
| 98>    H       -3.13550        -1.82767        -3.82824
| 99>    H       -6.00078        -4.86945        -1.06286
|100>    H       -2.43147        -4.16514        -5.20867
|101>    H       -7.05655         0.39384         0.51728
|102>    H       -2.03398         5.59537        -1.20252
|103>    H       -2.30001         3.92234        -1.75390
|104>    H       -1.80401         4.24990        -0.06726
|105>    H       -6.08858         6.04551        -0.63363
|106>    H       -8.60027         4.31471        -0.23994
|107>    H      -10.82133         5.62590        -0.33022
|108>    H      -13.30849        11.18011        -1.23584
|109>    H      -13.78269        13.12947        -1.81880
|110>    H      -10.40095        16.84223        -2.66471
|111>    H      -16.47894        18.01934        -3.41991
|112>    H      -15.02910        20.08533        -4.09204
|113>    H      -16.77630        15.26335        -2.81025
|114>    H      -15.34596        13.90581        -0.48259
|115>    H      -17.41814        12.79772        -0.10337
|116>    H      -17.74250        11.49199        -6.14459
|117>    H      -20.99302         9.72156        -2.80201
|118>    H      -21.88205         8.20837        -4.47333
|119>    H      -21.87054         7.29964        -6.76225
|120>    H      -20.27733         8.15987        -8.43231
|121>    H      -18.68210         9.93612        -7.82542
|122> *
|123>
|124>                          ****END OF INPUT****

CARTESIAN COORDINATES (ANGSTROEM)
---------------------------------
  C     -5.994060   -2.024050   -0.391810
  C     -6.796870   -2.484530    0.619360
  C     -7.138990   -3.840430    0.802180
  N     -7.451290   -4.927580    0.997960
  C     -7.372220   -1.671620    1.618590
  N     -7.871230   -1.073000    2.461660
  C     -5.327170   -2.841580   -1.397520
  C     -4.509570   -2.006430   -2.199860
  C     -3.748890   -2.489230   -3.237020
  C     -3.793330   -3.863520   -3.493850
  C     -4.615610   -4.689840   -2.690210
  C     -5.386790   -4.200850   -1.642840
  S     -4.528410   -6.352360   -3.184890
  C     -3.402680   -5.922710   -4.445350
  C     -3.106090   -4.602090   -4.495320
  Br    -2.728540   -7.256280   -5.577250
  C     -4.634360   -0.611760   -1.743670
  O     -4.142240    0.371770   -2.251860
  C     -5.593690   -0.649380   -0.608000
  C     -6.129010    0.465220   -0.036500
  C     -5.645160    1.792940   -0.177780
  O     -6.575110    2.767280   -0.190960
  C     -5.962510    3.952410   -0.359330
  C     -4.569570    3.758240   -0.405080
  C     -4.368820    2.365820   -0.274430
  C     -3.081270    1.669070    0.014690
  F     -3.240320    0.405830    0.426620
  F     -2.198690    1.638610   -0.990840
  F     -2.435570    2.284950    1.036100
  O     -3.752770    4.804870   -0.554160
  C     -2.394460    4.610110   -0.911490
  C     -6.686970    5.160420   -0.475080
  C     -8.041510    5.225680   -0.407040
  C     -8.812310    6.400380   -0.548640
  C    -10.195350    6.483120   -0.500060
  C    -10.656230    7.781390   -0.699010
  C     -9.611780    8.708710   -0.899820
  S     -8.071920    7.974030   -0.840970
  C    -10.177360    9.987890   -1.108420
  C    -11.577690    9.870790   -1.041830
  C    -11.924040    8.481940   -0.781260
  C    -13.180180    7.961500   -0.657570
  C    -13.403290    6.590410   -0.412510
  N    -13.584650    5.475380   -0.216530
  C    -14.335030    8.762410   -0.776080
  N    -15.271960    9.416800   -0.878070
  C    -12.240430   11.073410   -1.251120
  C    -11.362170   12.121990   -1.484870
  S     -9.685540   11.595880   -1.428910
  C    -11.704310   13.475920   -1.763430
  C    -13.012600   13.880330   -1.902930
  C    -13.415010   15.174380   -2.210270
  C    -12.443730   16.222750   -2.542690
  C    -11.106480   16.058520   -2.438410
  S    -10.361300   14.596930   -1.931050
  C    -13.224800   17.327410   -2.983610
  C    -14.581790   16.993660   -2.939950
  C    -15.406090   18.055400   -3.371320
  C    -14.672250   19.141980   -3.727320
  S    -12.962510   18.927150   -3.551150
  C    -14.720560   15.660410   -2.422610
  C    -15.930870   14.959050   -2.210470
  C    -16.101660   14.001610   -1.252810
  C    -17.229930   13.165730   -1.105490
  C    -18.015760   12.675800   -2.115330
  C    -19.166460   11.816750   -1.930740
  C    -19.946960   11.752350   -0.804910
  C    -21.082280   10.927350   -0.679860
  N    -22.014260   10.274720   -0.523890
  C    -19.743790   12.543610    0.344430
  N    -19.650510   13.181360    1.295140
  C    -19.400500   11.106780   -3.180970
  C    -18.476940   11.592330   -4.149930
  C    -17.627890   12.637230   -3.546610
  O    -16.764350   13.276410   -4.113440
  C    -18.451000   11.107890   -5.425400
  C    -19.363400   10.093920   -5.795750
  C    -20.285320    9.598230   -4.829520
  C    -20.290100   10.121790   -3.515610
  C    -21.184770    8.581640   -5.209000
  C    -21.177290    8.078440   -6.481580
  C    -20.270350    8.568400   -7.432700
  C    -19.383350    9.555120   -7.097050
  H     -3.135500   -1.827670   -3.828240
  H     -6.000780   -4.869450   -1.062860
  H     -2.431470   -4.165140   -5.208670
  H     -7.056550    0.393840    0.517280
  H     -2.033980    5.595370   -1.202520
  H     -2.300010    3.922340   -1.753900
  H     -1.804010    4.249900   -0.067260
  H     -6.088580    6.045510   -0.633630
  H     -8.600270    4.314710   -0.239940
  H    -10.821330    5.625900   -0.330220
  H    -13.308490   11.180110   -1.235840
  H    -13.782690   13.129470   -1.818800
  H    -10.400950   16.842230   -2.664710
  H    -16.478940   18.019340   -3.419910
  H    -15.029100   20.085330   -4.092040
  H    -16.776300   15.263350   -2.810250
  H    -15.345960   13.905810   -0.482590
  H    -17.418140   12.797720   -0.103370
  H    -17.742500   11.491990   -6.144590
  H    -20.993020    9.721560   -2.802010
  H    -21.882050    8.208370   -4.473330
  H    -21.870540    7.299640   -6.762250
  H    -20.277330    8.159870   -8.432310
  H    -18.682100    9.936120   -7.825420

 Total Charge           Charge          ....    0
 Multiplicity           Mult            ....    1
 Number of Electrons    NEL             ....  624
 Basis Dimension        Dim             .... 1320

ORBITAL ENERGIES
----------------

  NO   OCC          E(Eh)            E(eV)
   0   2.0000    -482.888735    -13140.0705
   1   2.0000     -88.998095     -2421.7613
   2   2.0000     -88.992343     -2421.6048
   3   2.0000     -88.989744     -2421.5340
   4   2.0000     -88.979243     -2421.2483
   5   2.0000     -88.961558     -2420.7671
   6   2.0000     -62.566466     -1702.5201
   7   2.0000     -56.400422     -1534.7335
   8   2.0000     -56.397694     -1534.6593
   9   2.0000     -56.397665     -1534.6585
  10   2.0000     -24.811449      -675.1539
  11   2.0000     -24.805966      -675.0047
  12   2.0000     -24.803746      -674.9442
  13   2.0000     -19.319313      -525.7052
  14   2.0000     -19.273090      -524.4475
  15   2.0000     -19.221573      -523.0456
  16   2.0000     -19.203166      -522.5447
  17   2.0000     -14.436097      -392.8262
  18   2.0000     -14.433573      -392.7575
  19   2.0000     -14.418545      -392.3486
  20   2.0000     -14.418198      -392.3391
  21   2.0000     -14.399950      -391.8426
  22   2.0000     -14.398520      -391.8037
  23   2.0000     -10.533638      -286.6349
  24   2.0000     -10.373085      -282.2660
  25   2.0000     -10.369794      -282.1764
  26   2.0000     -10.365894      -282.0703
  27   2.0000     -10.364405      -282.0298
  28   2.0000     -10.362583      -281.9802
  29   2.0000     -10.356370      -281.8112
  30   2.0000     -10.354567      -281.7621
  31   2.0000     -10.353373      -281.7296
  32   2.0000     -10.346866      -281.5525
  33   2.0000     -10.344843      -281.4975
  34   2.0000     -10.340598      -281.3820
  35   2.0000     -10.339048      -281.3398
  36   2.0000     -10.338722      -281.3309
  37   2.0000     -10.337443      -281.2961
  38   2.0000     -10.336382      -281.2673
  39   2.0000     -10.336177      -281.2617
  40   2.0000     -10.334155      -281.2066
  41   2.0000     -10.333526      -281.1896
  42   2.0000     -10.329920      -281.0914
  43   2.0000     -10.325962      -280.9837
  44   2.0000     -10.325347      -280.9670
  45   2.0000     -10.324524      -280.9446
  46   2.0000     -10.323380      -280.9134
  47   2.0000     -10.321010      -280.8489
  48   2.0000     -10.320611      -280.8381
  49   2.0000     -10.319517      -280.8083
  50   2.0000     -10.312990      -280.6307
  51   2.0000     -10.311846      -280.5996
  52   2.0000     -10.309645      -280.5397
  53   2.0000     -10.309337      -280.5313
  54   2.0000     -10.308885      -280.5190
  55   2.0000     -10.308014      -280.4953
  56   2.0000     -10.307366      -280.4777
  57   2.0000     -10.306823      -280.4629
  58   2.0000     -10.305788      -280.4348
  59   2.0000     -10.304800      -280.4079
  60   2.0000     -10.303884      -280.3829
  61   2.0000     -10.303402      -280.3698
  62   2.0000     -10.303311      -280.3673
  63   2.0000     -10.302082      -280.3339
  64   2.0000     -10.301405      -280.3155
  65   2.0000     -10.300426      -280.2889
  66   2.0000     -10.300328      -280.2862
  67   2.0000     -10.300265      -280.2845
  68   2.0000     -10.297995      -280.2227
  69   2.0000     -10.297320      -280.2043
  70   2.0000     -10.294523      -280.1282
  71   2.0000     -10.292993      -280.0866
  72   2.0000     -10.289823      -280.0003
  73   2.0000     -10.287327      -279.9324
  74   2.0000     -10.286892      -279.9206
  75   2.0000     -10.285342      -279.8784
  76   2.0000     -10.284674      -279.8602
  77   2.0000     -10.280253      -279.7399
  78   2.0000     -10.280087      -279.7354
  79   2.0000     -10.280020      -279.7336
  80   2.0000     -10.278624      -279.6956
  81   2.0000     -10.277703      -279.6705
  82   2.0000     -10.277204      -279.6569
  83   2.0000     -10.277162      -279.6558
  84   2.0000     -10.276686      -279.6428
  85   2.0000     -10.276024      -279.6248
  86   2.0000     -10.272748      -279.5357
  87   2.0000      -8.795905      -239.3488
  88   2.0000      -8.092513      -220.2085
  89   2.0000      -8.086963      -220.0574
  90   2.0000      -8.085101      -220.0068
  91   2.0000      -8.075287      -219.7397
  92   2.0000      -8.056936      -219.2404
  93   2.0000      -6.632242      -180.4725
  94   2.0000      -6.617632      -180.0749
  95   2.0000      -6.617411      -180.0689
  96   2.0000      -6.061865      -164.9517
  97   2.0000      -6.057596      -164.8356
  98   2.0000      -6.056158      -164.7964
  99   2.0000      -6.054803      -164.7596
 100   2.0000      -6.054717      -164.7572
 101   2.0000      -6.052081      -164.6855
 102   2.0000      -6.050094      -164.6314
 103   2.0000      -6.049334      -164.6107
 104   2.0000      -6.046996      -164.5471
 105   2.0000      -6.044980      -164.4923
 106   2.0000      -6.040677      -164.3752
 107   2.0000      -6.036503      -164.2616
 108   2.0000      -6.026360      -163.9856
 109   2.0000      -6.022156      -163.8712
 110   2.0000      -6.018969      -163.7845
 111   2.0000      -2.748073       -74.7789
 112   2.0000      -2.744016       -74.6685
 113   2.0000      -2.743870       -74.6645
 114   2.0000      -2.732247       -74.3482
 115   2.0000      -2.732228       -74.3477
 116   2.0000      -1.399002       -38.0688
 117   2.0000      -1.302808       -35.4512
 118   2.0000      -1.294253       -35.2184
 119   2.0000      -1.241669       -33.7875
 120   2.0000      -1.176409       -32.0117
 121   2.0000      -1.138261       -30.9737
 122   2.0000      -1.117410       -30.4063
 123   2.0000      -1.049717       -28.5642
 124   2.0000      -1.026963       -27.9451
 125   2.0000      -1.026611       -27.9355
 126   2.0000      -1.016676       -27.6651
 127   2.0000      -1.016309       -27.6552
 128   2.0000      -1.012015       -27.5383
 129   2.0000      -1.004186       -27.3253
 130   2.0000      -1.002673       -27.2841
 131   2.0000      -0.996890       -27.1268
 132   2.0000      -0.994052       -27.0495
 133   2.0000      -0.984946       -26.8017
 134   2.0000      -0.980675       -26.6855
 135   2.0000      -0.978042       -26.6139
 136   2.0000      -0.962462       -26.1899
 137   2.0000      -0.959584       -26.1116
 138   2.0000      -0.951379       -25.8883
 139   2.0000      -0.939438       -25.5634
 140   2.0000      -0.937569       -25.5125
 141   2.0000      -0.934001       -25.4155
 142   2.0000      -0.921772       -25.0827
 143   2.0000      -0.914592       -24.8873
 144   2.0000      -0.912419       -24.8282
 145   2.0000      -0.905735       -24.6463
 146   2.0000      -0.898753       -24.4563
 147   2.0000      -0.892901       -24.2971
 148   2.0000      -0.890000       -24.2181
 149   2.0000      -0.879186       -23.9239
 150   2.0000      -0.876545       -23.8520
 151   2.0000      -0.869569       -23.6622
 152   2.0000      -0.867379       -23.6026
 153   2.0000      -0.861959       -23.4551
 154   2.0000      -0.853740       -23.2315
 155   2.0000      -0.849750       -23.1229
 156   2.0000      -0.834305       -22.7026
 157   2.0000      -0.833570       -22.6826
 158   2.0000      -0.826764       -22.4974
 159   2.0000      -0.817561       -22.2470
 160   2.0000      -0.817253       -22.2386
 161   2.0000      -0.802367       -21.8335
 162   2.0000      -0.799494       -21.7553
 163   2.0000      -0.793583       -21.5945
 164   2.0000      -0.782579       -21.2950
 165   2.0000      -0.777080       -21.1454
 166   2.0000      -0.765101       -20.8195
 167   2.0000      -0.757919       -20.6240
 168   2.0000      -0.747505       -20.3407
 169   2.0000      -0.744438       -20.2572
 170   2.0000      -0.733283       -19.9537
 171   2.0000      -0.730104       -19.8671
 172   2.0000      -0.721470       -19.6322
 173   2.0000      -0.707314       -19.2470
 174   2.0000      -0.703847       -19.1527
 175   2.0000      -0.701232       -19.0815
 176   2.0000      -0.694506       -18.8985
 177   2.0000      -0.694150       -18.8888
 178   2.0000      -0.692315       -18.8388
 179   2.0000      -0.688445       -18.7335
 180   2.0000      -0.686552       -18.6820
 181   2.0000      -0.681848       -18.5540
 182   2.0000      -0.677671       -18.4404
 183   2.0000      -0.671482       -18.2720
 184   2.0000      -0.667264       -18.1572
 185   2.0000      -0.661668       -18.0049
 186   2.0000      -0.660083       -17.9618
 187   2.0000      -0.659126       -17.9357
 188   2.0000      -0.649976       -17.6868
 189   2.0000      -0.642381       -17.4801
 190   2.0000      -0.639235       -17.3945
 191   2.0000      -0.634160       -17.2564
 192   2.0000      -0.628095       -17.0913
 193   2.0000      -0.624589       -16.9959
 194   2.0000      -0.621903       -16.9228
 195   2.0000      -0.618617       -16.8334
 196   2.0000      -0.616152       -16.7663
 197   2.0000      -0.611039       -16.6272
 198   2.0000      -0.600666       -16.3450
 199   2.0000      -0.599274       -16.3071
 200   2.0000      -0.598774       -16.2935
 201   2.0000      -0.595612       -16.2074
 202   2.0000      -0.594314       -16.1721
 203   2.0000      -0.585283       -15.9264
 204   2.0000      -0.582818       -15.8593
 205   2.0000      -0.580017       -15.7831
 206   2.0000      -0.572133       -15.5685
 207   2.0000      -0.569131       -15.4868
 208   2.0000      -0.564272       -15.3546
 209   2.0000      -0.562857       -15.3161
 210   2.0000      -0.560022       -15.2390
 211   2.0000      -0.556824       -15.1520
 212   2.0000      -0.552813       -15.0428
 213   2.0000      -0.552454       -15.0330
 214   2.0000      -0.547318       -14.8933
 215   2.0000      -0.546098       -14.8601
 216   2.0000      -0.543559       -14.7910
 217   2.0000      -0.541799       -14.7431
 218   2.0000      -0.540239       -14.7007
 219   2.0000      -0.537508       -14.6263
 220   2.0000      -0.535836       -14.5808
 221   2.0000      -0.530697       -14.4410
 222   2.0000      -0.526947       -14.3390
 223   2.0000      -0.526854       -14.3364
 224   2.0000      -0.523080       -14.2337
 225   2.0000      -0.522482       -14.2175
 226   2.0000      -0.521586       -14.1931
 227   2.0000      -0.520514       -14.1639
 228   2.0000      -0.519257       -14.1297
 229   2.0000      -0.517163       -14.0727
 230   2.0000      -0.511364       -13.9149
 231   2.0000      -0.511130       -13.9085
 232   2.0000      -0.508844       -13.8464
 233   2.0000      -0.507307       -13.8045
 234   2.0000      -0.506871       -13.7927
 235   2.0000      -0.505456       -13.7542
 236   2.0000      -0.502588       -13.6761
 237   2.0000      -0.499902       -13.6030
 238   2.0000      -0.497726       -13.5438
 239   2.0000      -0.496598       -13.5131
 240   2.0000      -0.495074       -13.4716
 241   2.0000      -0.492766       -13.4088
 242   2.0000      -0.491942       -13.3864
 243   2.0000      -0.490385       -13.3441
 244   2.0000      -0.487983       -13.2787
 245   2.0000      -0.482665       -13.1340
 246   2.0000      -0.480755       -13.0820
 247   2.0000      -0.479689       -13.0530
 248   2.0000      -0.477127       -12.9833
 249   2.0000      -0.475626       -12.9425
 250   2.0000      -0.472800       -12.8655
 251   2.0000      -0.468804       -12.7568
 252   2.0000      -0.468746       -12.7552
 253   2.0000      -0.466616       -12.6973
 254   2.0000      -0.465818       -12.6756
 255   2.0000      -0.462360       -12.5815
 256   2.0000      -0.460305       -12.5255
 257   2.0000      -0.457340       -12.4449
 258   2.0000      -0.452900       -12.3240
 259   2.0000      -0.452292       -12.3075
 260   2.0000      -0.451350       -12.2818
 261   2.0000      -0.450024       -12.2458
 262   2.0000      -0.448636       -12.2080
 263   2.0000      -0.446570       -12.1518
 264   2.0000      -0.444693       -12.1007
 265   2.0000      -0.442943       -12.0531
 266   2.0000      -0.442875       -12.0512
 267   2.0000      -0.441670       -12.0184
 268   2.0000      -0.436996       -11.8913
 269   2.0000      -0.435747       -11.8573
 270   2.0000      -0.434365       -11.8197
 271   2.0000      -0.432221       -11.7613
 272   2.0000      -0.431170       -11.7327
 273   2.0000      -0.430212       -11.7067
 274   2.0000      -0.429265       -11.6809
 275   2.0000      -0.428936       -11.6719
 276   2.0000      -0.426858       -11.6154
 277   2.0000      -0.425488       -11.5781
 278   2.0000      -0.422333       -11.4923
 279   2.0000      -0.421414       -11.4673
 280   2.0000      -0.420843       -11.4517
 281   2.0000      -0.419115       -11.4047
 282   2.0000      -0.414784       -11.2868
 283   2.0000      -0.412287       -11.2189
 284   2.0000      -0.411238       -11.1904
 285   2.0000      -0.407129       -11.0785
 286   2.0000      -0.405776       -11.0417
 287   2.0000      -0.402759       -10.9596
 288   2.0000      -0.397269       -10.8102
 289   2.0000      -0.392511       -10.6808
 290   2.0000      -0.392116       -10.6700
 291   2.0000      -0.385511       -10.4903
 292   2.0000      -0.378116       -10.2891
 293   2.0000      -0.372556       -10.1378
 294   2.0000      -0.367674       -10.0049
 295   2.0000      -0.362273        -9.8580
 296   2.0000      -0.357205        -9.7200
 297   2.0000      -0.354657        -9.6507
 298   2.0000      -0.345589        -9.4040
 299   2.0000      -0.340363        -9.2617
 300   2.0000      -0.330649        -8.9974
 301   2.0000      -0.328979        -8.9520
 302   2.0000      -0.327010        -8.8984
 303   2.0000      -0.319562        -8.6957
 304   2.0000      -0.307883        -8.3779
 305   2.0000      -0.305413        -8.3107
 306   2.0000      -0.299775        -8.1573
 307   2.0000      -0.297055        -8.0833
 308   2.0000      -0.284878        -7.7519
 309   2.0000      -0.278626        -7.5818
 310   2.0000      -0.253978        -6.9111
 311   2.0000      -0.231383        -6.2963
 312   0.0000      -0.115747        -3.1496
 313   0.0000      -0.100263        -2.7283
 314   0.0000      -0.086171        -2.3448
 315   0.0000      -0.067505        -1.8369
 316   0.0000      -0.054812        -1.4915

MULLIKEN ATOMIC CHARGES
-----------------------
   0 C :    0.295880
   1 C :   -0.336583
   2 C :   -0.185049
   3 N :    0.153481
   4 C :   -0.205413
   5 N :    0.169576
   6 C :    0.020578
   7 C :   -0.020244
   8 C :   -0.066356
   9 C :    0.116202
  10 C :   -0.088788
  11 C :   -0.021746
  12 S :    0.189763
  13 C :   -0.123971
  14 C :    0.039335
  15 Br:    0.026458
  16 C :    0.135016
  17 O :   -0.149933
  18 C :   -0.068384
  19 C :   -0.054116
  20 C :    0.126061
  21 O :   -0.180139
  22 C :    0.113861
  23 C :    0.128811
  24 C :   -0.120209
  25 C :    0.537811
  26 F :   -0.149253
  27 F :   -0.151428
  28 F :   -0.173053
  29 O :   -0.294511
  30 C :    0.173126
  31 C :   -0.045782
  32 C :    0.017870
  33 C :   -0.039004
  34 C :   -0.030293
  35 C :    0.009253
  36 C :   -0.098399
  37 S :    0.173394
  38 C :   -0.098557
  39 C :    0.015445
  40 C :    0.304788
  41 C :   -0.291668
  42 C :   -0.190345
  43 N :    0.179651
  44 C :   -0.180231
  45 N :    0.167025
  46 C :   -0.050148
  47 C :   -0.061025
  48 S :    0.189809
  49 C :   -0.030193
  50 C :   -0.077223
  51 C :    0.060516
  52 C :    0.068909
  53 C :   -0.127460
  54 S :    0.133721
  55 C :   -0.115523
  56 C :    0.069700
  57 C :    0.010884
  58 C :   -0.067095
  59 S :    0.130549
  60 C :    0.034838
  61 C :    0.088102
  62 C :   -0.067482
  63 C :    0.022007
  64 C :   -0.116937
  65 C :    0.298084
  66 C :   -0.339483
  67 C :   -0.182183
  68 N :    0.138753
  69 C :   -0.212181
  70 N :    0.154749
  71 C :    0.051982
  72 C :    0.001551
  73 C :    0.148374
  74 O :   -0.160846
  75 C :   -0.088010
  76 C :    0.099183
  77 C :    0.097277
  78 C :   -0.085161
  79 C :   -0.020067
  80 C :    0.034200
  81 C :    0.035528
  82 C :   -0.018559
  83 H :   -0.008784
  84 H :   -0.005310
  85 H :   -0.002179
  86 H :    0.041419
  87 H :    0.038606
  88 H :    0.039610
  89 H :    0.043965
  90 H :    0.010528
  91 H :    0.012736
  92 H :    0.010166
  93 H :    0.011909
  94 H :    0.002469
  95 H :    0.040885
  96 H :   -0.010579
  97 H :    0.029602
  98 H :    0.008298
  99 H :    0.006850
 100 H :    0.029939
 101 H :   -0.019160
 102 H :   -0.009193
 103 H :   -0.010838
 104 H :   -0.008041
 105 H :   -0.009911
 106 H :   -0.022056
Sum of atomic charges:   -0.0000000

LOEWDIN ATOMIC CHARGES
----------------------
   0 C :    0.071419
   1 C :   -0.134166
   2 C :   -0.018404
   3 N :   -0.049367
   4 C :   -0.023580
   5 N :   -0.045721
   6 C :   -0.018556
   7 C :   -0.050010
   8 C :    0.023992
   9 C :   -0.032101
  10 C :   -0.142409
  11 C :   -0.009327
  12 S :    0.435646
  13 C :   -0.270852
  14 C :   -0.070227
  15 Br:    0.139361
  16 C :    0.078144
  17 O :   -0.142802
  18 C :   -0.079922
  19 C :    0.039445
  20 C :    0.041378
  21 O :    0.040949
  22 C :    0.020096
  23 C :    0.028589
  24 C :   -0.120537
  25 C :    0.173318
  26 F :   -0.041046
  27 F :   -0.044829
  28 F :   -0.069297
  29 O :   -0.088515
  30 C :    0.078692
  31 C :   -0.047636
  32 C :   -0.022037
  33 C :   -0.161712
  34 C :   -0.021020
  35 C :   -0.072891
  36 C :   -0.174437
  37 S :    0.470363
  38 C :   -0.184005
  39 C :   -0.064020
  40 C :    0.081996
  41 C :   -0.098736
  42 C :   -0.017597
  43 N :   -0.027052
  44 C :   -0.013118
  45 N :   -0.034411
  46 C :   -0.023980
  47 C :   -0.182618
  48 S :    0.467450
  49 C :   -0.181384
  50 C :   -0.012822
  51 C :    0.000620
  52 C :   -0.044927
  53 C :   -0.138324
  54 S :    0.445793
  55 C :   -0.206948
  56 C :   -0.032687
  57 C :   -0.059576
  58 C :   -0.160336
  59 S :    0.423754
  60 C :   -0.054074
  61 C :    0.066693
  62 C :   -0.071757
  63 C :    0.068456
  64 C :   -0.103931
  65 C :    0.077988
  66 C :   -0.145667
  67 C :   -0.017305
  68 N :   -0.062493
  69 C :   -0.024808
  70 N :   -0.059793
  71 C :   -0.022448
  72 C :   -0.051213
  73 C :    0.082424
  74 O :   -0.149132
  75 C :    0.026133
  76 C :   -0.009584
  77 C :   -0.007017
  78 C :    0.017474
  79 C :   -0.006173
  80 C :   -0.016725
  81 C :   -0.016203
  82 C :   -0.012038
  83 H :    0.041606
  84 H :    0.041491
  85 H :    0.039242
  86 H :    0.053362
  87 H :    0.030192
  88 H :    0.020966
  89 H :    0.018382
  90 H :    0.034761
  91 H :    0.043199
  92 H :    0.043279
  93 H :    0.040183
  94 H :    0.043319
  95 H :    0.038600
  96 H :    0.033876
  97 H :    0.024804
  98 H :    0.037093
  99 H :    0.032234
 100 H :    0.045788
 101 H :    0.036330
 102 H :    0.038612
 103 H :    0.034129
 104 H :    0.031762
 105 H :    0.030913
 106 H :    0.030011

  Mayer bond orders larger than 0.100000
B(  0-C ,  1-C ) :   1.6438 B(  0-C ,  6-C ) :   1.0099 B(  0-C , 18-C ) :   1.0736
B(  1-C ,  2-C ) :   1.1395 B(  1-C ,  4-C ) :   1.1456 B(  2-C ,  3-N ) :   2.9707
B(  4-C ,  5-N ) :   2.9923 B(  6-C ,  7-C ) :   1.2695 B(  6-C , 11-C ) :   1.4095
B(  7-C ,  8-C ) :   1.4233 B(  7-C , 16-C ) :   0.9444 B(  8-C ,  9-C ) :   1.2474
B(  8-C , 83-H ) :   1.0171 B(  9-C , 10-C ) :   1.3036 B(  9-C , 14-C ) :   1.1633
B( 10-C , 11-C ) :   1.3307 B( 10-C , 12-S ) :   1.0878 B( 11-C , 84-H ) :   0.9808
B( 12-S , 13-C ) :   1.0873 B( 13-C , 14-C ) :   1.6163 B( 13-C , 15-Br) :   1.0201
B( 14-C , 85-H ) :   1.0007 B( 16-C , 17-O ) :   2.2154 B( 16-C , 18-C ) :   0.9377
B( 18-C , 19-C ) :   1.6079 B( 19-C , 20-C ) :   1.1624 B( 19-C , 86-H ) :   0.9333
B( 20-C , 21-O ) :   1.1436 B( 20-C , 22-C ) :   0.1171 B( 20-C , 24-C ) :   1.4087
B( 21-O , 22-C ) :   1.1548 B( 22-C , 23-C ) :   1.3321 B( 22-C , 31-C ) :   1.2005
B( 23-C , 24-C ) :   1.2755 B( 23-C , 29-O ) :   1.2477 B( 24-C , 25-C ) :   0.9415
B( 25-C , 26-F ) :   1.1486 B( 25-C , 27-F ) :   1.1493 B( 25-C , 28-F ) :   1.1453
B( 29-O , 30-C ) :   0.9176 B( 30-C , 87-H ) :   0.9778 B( 30-C , 88-H ) :   0.9671
B( 30-C , 89-H ) :   0.9653 B( 31-C , 32-C ) :   1.5830 B( 31-C , 90-H ) :   0.9589
B( 32-C , 33-C ) :   1.1626 B( 32-C , 91-H ) :   0.9837 B( 33-C , 34-C ) :   1.4299
B( 33-C , 37-S ) :   1.0814 B( 34-C , 35-C ) :   1.2814 B( 34-C , 92-H ) :   1.0046
B( 35-C , 36-C ) :   1.4254 B( 35-C , 40-C ) :   0.9993 B( 36-C , 37-S ) :   1.1247
B( 36-C , 38-C ) :   1.2107 B( 38-C , 39-C ) :   1.4308 B( 38-C , 48-S ) :   1.1150
B( 39-C , 40-C ) :   1.0007 B( 39-C , 46-C ) :   1.3087 B( 40-C , 41-C ) :   1.7109
B( 41-C , 42-C ) :   1.1334 B( 41-C , 44-C ) :   1.1340 B( 42-C , 43-N ) :   2.9955
B( 44-C , 45-N ) :   2.9823 B( 46-C , 47-C ) :   1.4710 B( 46-C , 93-H ) :   0.9845
B( 47-C , 48-S ) :   1.1024 B( 47-C , 49-C ) :   1.1262 B( 49-C , 50-C ) :   1.5296
B( 49-C , 54-S ) :   1.0504 B( 50-C , 51-C ) :   1.2552 B( 50-C , 94-H ) :   0.9672
B( 51-C , 52-C ) :   1.0585 B( 51-C , 60-C ) :   1.3753 B( 52-C , 53-C ) :   1.6032
B( 52-C , 55-C ) :   1.1747 B( 53-C , 54-S ) :   1.1414 B( 53-C , 95-H ) :   0.9397
B( 55-C , 56-C ) :   1.4395 B( 55-C , 59-S ) :   1.0759 B( 56-C , 57-C ) :   1.2276
B( 56-C , 60-C ) :   1.0854 B( 57-C , 58-C ) :   1.5813 B( 57-C , 96-H ) :   1.0002
B( 58-C , 59-S ) :   1.1566 B( 58-C , 97-H ) :   0.9664 B( 60-C , 61-C ) :   1.2090
B( 61-C , 62-C ) :   1.5646 B( 61-C , 98-H ) :   0.9439 B( 62-C , 63-C ) :   1.2295
B( 62-C , 99-H ) :   0.9573 B( 63-C , 64-C ) :   1.5536 B( 63-C ,100-H ) :   0.9521
B( 64-C , 65-C ) :   1.0691 B( 64-C , 73-C ) :   0.9567 B( 65-C , 66-C ) :   1.6383
B( 65-C , 71-C ) :   0.9907 B( 66-C , 67-C ) :   1.1408 B( 66-C , 69-C ) :   1.1417
B( 67-C , 68-N ) :   2.9699 B( 69-C , 70-N ) :   3.0104 B( 71-C , 72-C ) :   1.2141
B( 71-C , 78-C ) :   1.4569 B( 72-C , 73-C ) :   0.9482 B( 72-C , 75-C ) :   1.4777
B( 73-C , 74-O ) :   2.1868 B( 75-C , 76-C ) :   1.1736 B( 75-C ,101-H ) :   1.0159
B( 76-C , 77-C ) :   1.2599 B( 76-C , 82-C ) :   1.2461 B( 77-C , 78-C ) :   1.2008
B( 77-C , 79-C ) :   1.2405 B( 78-C ,102-H ) :   0.9915 B( 79-C , 80-C ) :   1.4873
B( 79-C ,103-H ) :   0.9974 B( 80-C , 81-C ) :   1.2613 B( 80-C ,104-H ) :   0.9892
B( 81-C , 82-C ) :   1.4861 B( 81-C ,105-H ) :   0.9886 B( 82-C ,106-H ) :   0.9971

-----------------------------------------------------------------------------
         ABSORPTION SPECTRUM VIA TRANSITION ELECTRIC DIPOLE MOMENTS
-----------------------------------------------------------------------------
State   Energy  Wavelength   fosc         T2         TX        TY        TZ
        (cm-1)    (nm)                  (au**2)     (au)      (au)      (au)
-----------------------------------------------------------------------------
   0    9459.0   1057.2   0.387733345  13.49467   2.24368  -2.87279   0.45567
   1   15048.5    664.5   0.838985985  18.35432   3.51207  -2.42262   0.38809
   2   15726.6    635.9   0.392943394   8.22566   0.43488  -2.83465  -0.03613
   3   16783.8    595.8   0.434784112   8.52823   0.98489   2.74466   0.15824
   4   21897.0    456.7   0.012908812   0.19408   0.17038  -0.37852  -0.14755
   5   22219.8    450.0   0.224248697   3.32250  -1.06205  -1.46400   0.22638
   6   22706.5    440.4   0.008630340   0.12513  -0.24688  -0.14932   0.20465
   7   23085.3    433.2   0.370654792   5.28579   0.32374  -2.25012   0.34341
   8   23723.6    421.5   0.034724510   0.48187   0.50604   0.40339  -0.25115
   9   24382.3    410.1   0.112582913   1.52010  -0.17893  -1.12156   0.47979
  10   25027.2    399.6   0.029784098   0.39178   0.14840  -0.31539   0.51989
  11   25893.7    386.2   0.060865831   0.77385  -0.23672   0.83686   0.13217
  12   26154.5    382.3   0.335936397   4.22850  -1.28166   1.45296   0.68902
  13   26439.0    378.2   0.101333871   1.26178   0.68459  -0.07509  -0.88740
  14   26668.9    375.0   0.028581924   0.35283  -0.16072  -0.06210  -0.56845
  15   27053.7    369.6   0.030613376   0.37253   0.57319  -0.02850   0.20778
  16   27363.8    365.4   0.080644469   0.97023  -0.39443   0.80727   0.40370
  17   28394.6    352.2   0.119821006   1.38923   1.03545   0.14363   0.54446
  18   29030.2    344.5   0.013449210   0.15252  -0.02249  -0.23606   0.31030
  19   29045.6    344.3   0.028158162   0.31915   0.41347   0.16896  -0.34591
  20   29394.7    340.2   0.187762669   2.10289  -1.37264  -0.44705  -0.13750
  21   29690.8    336.8   0.093533192   1.03710   0.89672  -0.45822   0.15175
  22   30000.1    333.3   0.071200898   0.78134   0.78955  -0.39488   0.04498
  23   30783.1    324.9   0.178136328   1.90509  -1.04315   0.68824   0.58588
  24   30955.2    323.0   0.607185234   6.45749  -2.17702  -1.30861  -0.07484
  25   31121.5    321.3   0.023644057   0.25011   0.06580   0.04004   0.49415
  26   31474.3    317.7   0.021556097   0.22547   0.09817  -0.44766   0.12424
  27   31996.7    312.5   0.167308628   1.72143  -1.19625  -0.33994   0.41817
  28   32338.4    309.2   0.406056722   4.13375   0.72278  -0.80000  -1.72376
  29   32760.4    305.2   0.091934899   0.92386  -0.24307  -0.36495  -0.85533
  30   32910.4    303.9   0.064407675   0.64429  -0.52474   0.06747  -0.60365
  31   32986.5    303.2   0.154260498   1.53955   0.75892  -0.54798  -0.81444
  32   33143.0    301.7   0.119171719   1.18374  -0.50099   0.94392  -0.20439
  33   33254.7    300.7   0.051375430   0.50860   0.32496  -0.31316   0.55221
  34   33667.1    297.0   0.211266501   2.06586  -0.64013  -0.28041  -1.25597
  35   33929.2    294.7   0.455035957   4.41517   0.50178  -1.82065  -0.92120
  36   33990.2    294.2   0.005425363   0.05255   0.13369  -0.16571   0.08494
  37   34348.3    291.1   0.235419613   2.25639  -0.54709  -1.36869  -0.28943
  38   34617.4    288.9   0.141029047   1.34119  -0.50912  -0.82595   0.63230
  39   34912.2    286.4   0.166085784   1.56614  -0.04544   0.65201   1.06722
  40   35295.4    283.3   0.247893824   2.31219  -0.62443  -1.32815   0.39786
  41   35567.8    281.2   0.072050724   0.66689   0.19195   0.74251   0.28059
  42   35809.1    279.3   0.029817932   0.27413   0.00728   0.51344   0.10225
  43   35940.2    278.2   0.023555867   0.21577  -0.08070   0.45402  -0.05594
  44   36367.5    275.0   0.033696645   0.30503   0.24433   0.44326  -0.22104
  45   36528.5    273.8   0.053846187   0.48529   0.58992  -0.29252  -0.22741
  46   36704.4    272.4   0.020417544   0.18313  -0.03767   0.16100   0.39470
  47   36901.6    271.0   0.108319280   0.96635  -0.49714   0.28238   0.79967
  48   36991.9    270.3   0.020876841   0.18579  -0.26084  -0.04002  -0.34082
  49   37194.0    268.9   0.142598247   1.26217  -0.87869  -0.55347   0.42866
  50   37301.6    268.1   0.073151401   0.64561   0.57375  -0.25367   0.50207
  51   37377.0    267.5   0.003966565   0.03494  -0.03624   0.18093  -0.02978
  52   37527.4    266.5   0.035239063   0.30914  -0.38789  -0.39616  -0.04171
  53   37954.1    263.5   0.119478791   1.03635  -0.30803   0.18945   0.95162
  54   38104.2    262.4   0.033028700   0.28536   0.38665   0.00004  -0.36860
  55   38209.3    261.7   0.062460518   0.53816   0.19984   0.23302  -0.66628
  56   38313.0    261.0   0.010116276   0.08693   0.13087  -0.14732  -0.21931
  57   38610.1    259.0   0.166007811   1.41548   0.87727  -0.58247  -0.55371
  58   38721.5    258.3   0.169099113   1.43769   0.56430   1.01804  -0.28783
  59   38999.9    256.4   0.208713494   1.76182  -0.26777  -0.82203   1.00716
  60   39282.7    254.6   0.095046795   0.79655   0.84692  -0.25227  -0.12507
  61   39789.2    251.3   0.084932374   0.70272   0.60266  -0.55683   0.17164
  62   40226.8    248.6   0.057458265   0.47023  -0.26200  -0.58291   0.24860

FINAL SINGLE POINT ENERGY     -7942.127394849113

DIPOLE MOMENT
-------------
                                X             Y             Z
Electronic contribution:    136.18936    -180.21371     -13.73708
Nuclear contribution   :   -131.19403     182.00361       9.63462
                        -----------------------------------------
Total Dipole Moment    :      4.99534       1.78990      -4.10246
                        -----------------------------------------
Magnitude (a.u.)       :      6.70726
Magnitude (Debye)      :     17.04849

Rotational constants in cm-1:     0.000871     0.000158     0.000144
Rotational constants in MHz :    26.099762     4.723798     4.319103

                             ****ORCA TERMINATED NORMALLY****
TOTAL RUN TIME: 0 days 0 hours 17 minutes 0 seconds 821 msec
