                         Program Version 4.2.0 -  RELEASE  -
|  1> # ORCA input file
|  2> # SCF done       -176.560498481543          0.000855501597
|  3> ! CAM-B3LYP def2-SVP def2/J RIJCOSX Grid4 TightSCF
|  4> %maxcore 5000
|  5> %tddft
|  6>     Mode sTDDFT
|  7>     Ethresh 5.0
|  8>     maxcore 5000
|  9> end
| 10>
| 11> %pal
| 12>   nprocs 6
| 13>   end
| 14> * xyz 0 1
| 15>    C       -8.98109        -5.55645         1.42479
| 16>    C       -9.19139        -5.80124         0.09019
| 17>    C       -9.23120        -7.09050        -0.47914
| 18>    N       -9.28268        -8.11039        -1.00471
| 19>    C       -9.36017        -4.82345        -0.91201
| 20>    N       -9.48488        -4.09679        -1.79331
| 21>    C       -8.70254        -6.57644         2.42943
| 22>    C       -8.40336        -5.93267         3.65338
| 23>    C       -8.09049        -6.62209         4.79903
| 24>    C       -8.07448        -8.01940         4.73390
| 25>    C       -8.37826        -8.65546         3.50714
| 26>    C       -8.69238        -7.95643         2.34806
| 27>    S       -8.30842       -10.38613         3.65005
| 28>    C       -7.87675       -10.23287         5.33254
| 29>    C       -7.78890        -8.95367         5.76718
| 30>   Br       -7.58637       -11.77728         6.35645
| 31>    C       -8.49756        -4.46893         3.47846
| 32>    O       -8.31469        -3.64110         4.34632
| 33>    C       -8.91368        -4.26147         2.07427
| 34>    C       -9.32330        -3.09094         1.48658
| 35>    C       -9.23442        -1.76212         1.92896
| 36>    C       -8.53015        -1.15676         2.96542
| 37>    C       -8.69678         0.21882         2.98253
| 38>    C       -9.55144         0.69026         1.95251
| 39>    S      -10.11700        -0.56535         0.95717
| 40>    C       -9.66703         2.08727         2.07010
| 41>    C       -8.88831         2.51809         3.16265
| 42>    C       -8.24337         1.35629         3.76088
| 43>    C       -7.37067         1.35822         4.81013
| 44>    C       -6.73905         0.19129         5.29158
| 45>    N       -6.19143        -0.73092         5.69576
| 46>    C       -7.01233         2.54837         5.47739
| 47>    N       -6.71859         3.51455         6.02115
| 48>    C       -8.92970         3.89450         3.35070
| 49>    C       -9.73356         4.52585         2.41110
| 50>    S      -10.45244         3.38891         1.27913
| 51>    C       -9.98704         5.90769         2.28374
| 52>    S       -9.25206         7.05406         3.39219
| 53>    C       -9.99805         8.34956         2.54838
| 54>    C      -10.77889         7.91245         1.47084
| 55>    C      -10.77232         6.53754         1.32504
| 56>    C      -11.40252         9.08481         0.75174
| 57>    C      -10.93520         9.15767        -0.70444
| 58>    C      -12.93132         9.03617         0.82790
| 59>    C      -10.84939        10.23128         1.56553
| 60>    C      -10.04145         9.75430         2.60839
| 61>    S       -9.38562        11.02196         3.55821
| 62>    C      -10.18903        12.21572         2.54528
| 63>    C      -10.93125        11.60782         1.53010
| 64>    C      -10.01207        13.58216         2.81941
| 65>    C      -10.54497        14.59980         2.07269
| 66>    C      -10.34792        15.95592         2.34261
| 67>    C      -10.86600        16.97119         1.57020
| 68>    C      -10.71069        18.36329         1.76176
| 69>    C      -11.33376        19.13263         0.82506
| 70>    C      -12.01875        18.38872        -0.16188
| 71>    S      -11.84571        16.67542         0.14301
| 72>    C      -12.73843        18.86188        -1.24021
| 73>    C      -12.96421        20.20527        -1.61994
| 74>    C      -13.71730        20.34134        -2.74138
| 75>    C      -14.14149        19.11261        -3.32903
| 76>    S      -13.52504        17.77594        -2.36810
| 77>    C      -14.90106        19.02550        -4.45840
| 78>    C      -15.39020        17.87316        -5.14855
| 79>    C      -16.15251        18.03726        -6.32177
| 80>    N      -16.63770        17.02947        -7.01402
| 81>    C      -16.37879        15.81360        -6.55919
| 82>    N      -15.68061        15.52313        -5.47509
| 83>    C      -15.19389        16.53095        -4.77914
| 84>    H       -7.86483        -6.09942         5.71526
| 85>    H       -8.92050        -8.48854         1.43990
| 86>    H       -7.53454        -8.67750         6.77415
| 87>    H       -9.81331        -3.18816         0.52451
| 88>    H       -7.93721        -1.71862         3.66387
| 89>    H       -8.40955         4.43574         4.12050
| 90>    H      -11.29789         5.98716         0.56503
| 91>    H      -11.28103         8.28425        -1.25143
| 92>    H       -9.84913         9.19215        -0.75223
| 93>    H      -11.33383        10.05015        -1.17989
| 94>    H      -13.30337         8.16103         0.30119
| 95>    H      -13.35561         9.92713         0.37216
| 96>    H      -13.25755         8.98501         1.86423
| 97>    H      -11.49648        12.16937         0.80967
| 98>    H       -9.39936        13.83110         3.67589
| 99>    H      -11.15170        14.35948         1.21008
|100>    H       -9.75092        16.23598         3.20044
|101>    H      -10.14106        18.75354         2.58680
|102>    H      -11.31854        20.20761         0.81703
|103>    H      -12.56442        21.02881        -1.05597
|104>    H      -13.99058        21.28517        -3.17914
|105>    H      -15.17741        19.97307        -4.90693
|106>    H      -16.37131        19.02723        -6.70527
|107>    H      -16.77514        14.98232        -7.12661
|108>    H      -14.63072        16.25626        -3.89783
|109> *
|110>
|111>                          ****END OF INPUT****

CARTESIAN COORDINATES (ANGSTROEM)
---------------------------------
  C     -8.981090   -5.556450    1.424790
  C     -9.191390   -5.801240    0.090190
  C     -9.231200   -7.090500   -0.479140
  N     -9.282680   -8.110390   -1.004710
  C     -9.360170   -4.823450   -0.912010
  N     -9.484880   -4.096790   -1.793310
  C     -8.702540   -6.576440    2.429430
  C     -8.403360   -5.932670    3.653380
  C     -8.090490   -6.622090    4.799030
  C     -8.074480   -8.019400    4.733900
  C     -8.378260   -8.655460    3.507140
  C     -8.692380   -7.956430    2.348060
  S     -8.308420  -10.386130    3.650050
  C     -7.876750  -10.232870    5.332540
  C     -7.788900   -8.953670    5.767180
  Br    -7.586370  -11.777280    6.356450
  C     -8.497560   -4.468930    3.478460
  O     -8.314690   -3.641100    4.346320
  C     -8.913680   -4.261470    2.074270
  C     -9.323300   -3.090940    1.486580
  C     -9.234420   -1.762120    1.928960
  C     -8.530150   -1.156760    2.965420
  C     -8.696780    0.218820    2.982530
  C     -9.551440    0.690260    1.952510
  S    -10.117000   -0.565350    0.957170
  C     -9.667030    2.087270    2.070100
  C     -8.888310    2.518090    3.162650
  C     -8.243370    1.356290    3.760880
  C     -7.370670    1.358220    4.810130
  C     -6.739050    0.191290    5.291580
  N     -6.191430   -0.730920    5.695760
  C     -7.012330    2.548370    5.477390
  N     -6.718590    3.514550    6.021150
  C     -8.929700    3.894500    3.350700
  C     -9.733560    4.525850    2.411100
  S    -10.452440    3.388910    1.279130
  C     -9.987040    5.907690    2.283740
  S     -9.252060    7.054060    3.392190
  C     -9.998050    8.349560    2.548380
  C    -10.778890    7.912450    1.470840
  C    -10.772320    6.537540    1.325040
  C    -11.402520    9.084810    0.751740
  C    -10.935200    9.157670   -0.704440
  C    -12.931320    9.036170    0.827900
  C    -10.849390   10.231280    1.565530
  C    -10.041450    9.754300    2.608390
  S     -9.385620   11.021960    3.558210
  C    -10.189030   12.215720    2.545280
  C    -10.931250   11.607820    1.530100
  C    -10.012070   13.582160    2.819410
  C    -10.544970   14.599800    2.072690
  C    -10.347920   15.955920    2.342610
  C    -10.866000   16.971190    1.570200
  C    -10.710690   18.363290    1.761760
  C    -11.333760   19.132630    0.825060
  C    -12.018750   18.388720   -0.161880
  S    -11.845710   16.675420    0.143010
  C    -12.738430   18.861880   -1.240210
  C    -12.964210   20.205270   -1.619940
  C    -13.717300   20.341340   -2.741380
  C    -14.141490   19.112610   -3.329030
  S    -13.525040   17.775940   -2.368100
  C    -14.901060   19.025500   -4.458400
  C    -15.390200   17.873160   -5.148550
  C    -16.152510   18.037260   -6.321770
  N    -16.637700   17.029470   -7.014020
  C    -16.378790   15.813600   -6.559190
  N    -15.680610   15.523130   -5.475090
  C    -15.193890   16.530950   -4.779140
  H     -7.864830   -6.099420    5.715260
  H     -8.920500   -8.488540    1.439900
  H     -7.534540   -8.677500    6.774150
  H     -9.813310   -3.188160    0.524510
  H     -7.937210   -1.718620    3.663870
  H     -8.409550    4.435740    4.120500
  H    -11.297890    5.987160    0.565030
  H    -11.281030    8.284250   -1.251430
  H     -9.849130    9.192150   -0.752230
  H    -11.333830   10.050150   -1.179890
  H    -13.303370    8.161030    0.301190
  H    -13.355610    9.927130    0.372160
  H    -13.257550    8.985010    1.864230
  H    -11.496480   12.169370    0.809670
  H     -9.399360   13.831100    3.675890
  H    -11.151700   14.359480    1.210080
  H     -9.750920   16.235980    3.200440
  H    -10.141060   18.753540    2.586800
  H    -11.318540   20.207610    0.817030
  H    -12.564420   21.028810   -1.055970
  H    -13.990580   21.285170   -3.179140
  H    -15.177410   19.973070   -4.906930
  H    -16.371310   19.027230   -6.705270
  H    -16.775140   14.982320   -7.126610
  H    -14.630720   16.256260   -3.897830

 Total Charge           Charge          ....    0
 Multiplicity           Mult            ....    1
 Number of Electrons    NEL             ....  546
 Basis Dimension        Dim             .... 1137

ORBITAL ENERGIES
----------------

  NO   OCC          E(Eh)            E(eV)
   0   2.0000    -482.882152    -13139.8914
   1   2.0000     -88.992479     -2421.6085
   2   2.0000     -88.991542     -2421.5830
   3   2.0000     -88.976228     -2421.1662
   4   2.0000     -88.971695     -2421.0429
   5   2.0000     -88.969337     -2420.9787
   6   2.0000     -88.951807     -2420.5017
   7   2.0000     -88.949879     -2420.4493
   8   2.0000     -62.559887     -1702.3411
   9   2.0000     -56.393832     -1534.5542
  10   2.0000     -56.391121     -1534.4804
  11   2.0000     -56.391088     -1534.4795
  12   2.0000     -19.213492      -522.8257
  13   2.0000     -14.431450      -392.6997
  14   2.0000     -14.427698      -392.5976
  15   2.0000     -14.412148      -392.1745
  16   2.0000     -14.409686      -392.1075
  17   2.0000     -14.404414      -391.9640
  18   2.0000     -14.404078      -391.9549
  19   2.0000     -10.366382      -282.0836
  20   2.0000     -10.364824      -282.0412
  21   2.0000     -10.355138      -281.7776
  22   2.0000     -10.353066      -281.7213
  23   2.0000     -10.344744      -281.4948
  24   2.0000     -10.337144      -281.2880
  25   2.0000     -10.336896      -281.2812
  26   2.0000     -10.335982      -281.2564
  27   2.0000     -10.331551      -281.1358
  28   2.0000     -10.330115      -281.0967
  29   2.0000     -10.326804      -281.0066
  30   2.0000     -10.325110      -280.9605
  31   2.0000     -10.323203      -280.9086
  32   2.0000     -10.322860      -280.8993
  33   2.0000     -10.321280      -280.8563
  34   2.0000     -10.320688      -280.8402
  35   2.0000     -10.317934      -280.7653
  36   2.0000     -10.316625      -280.7296
  37   2.0000     -10.315611      -280.7021
  38   2.0000     -10.315599      -280.7017
  39   2.0000     -10.315521      -280.6996
  40   2.0000     -10.314121      -280.6615
  41   2.0000     -10.314063      -280.6599
  42   2.0000     -10.313174      -280.6357
  43   2.0000     -10.312423      -280.6153
  44   2.0000     -10.311696      -280.5955
  45   2.0000     -10.311629      -280.5937
  46   2.0000     -10.310342      -280.5587
  47   2.0000     -10.304671      -280.4043
  48   2.0000     -10.304030      -280.3869
  49   2.0000     -10.303351      -280.3684
  50   2.0000     -10.303287      -280.3667
  51   2.0000     -10.302976      -280.3582
  52   2.0000     -10.302589      -280.3477
  53   2.0000     -10.301138      -280.3082
  54   2.0000     -10.296222      -280.1744
  55   2.0000     -10.294826      -280.1365
  56   2.0000     -10.294683      -280.1326
  57   2.0000     -10.293358      -280.0965
  58   2.0000     -10.292975      -280.0861
  59   2.0000     -10.292899      -280.0840
  60   2.0000     -10.292053      -280.0610
  61   2.0000     -10.291599      -280.0486
  62   2.0000     -10.290993      -280.0321
  63   2.0000     -10.288899      -279.9752
  64   2.0000     -10.287417      -279.9349
  65   2.0000     -10.286671      -279.9145
  66   2.0000     -10.285474      -279.8820
  67   2.0000     -10.285205      -279.8747
  68   2.0000     -10.284190      -279.8470
  69   2.0000     -10.284121      -279.8452
  70   2.0000     -10.283711      -279.8340
  71   2.0000     -10.272498      -279.5289
  72   2.0000     -10.272348      -279.5248
  73   2.0000      -8.789335      -239.1700
  74   2.0000      -8.086957      -220.0573
  75   2.0000      -8.086368      -220.0413
  76   2.0000      -8.070913      -219.6207
  77   2.0000      -8.067658      -219.5321
  78   2.0000      -8.064331      -219.4416
  79   2.0000      -8.047609      -218.9866
  80   2.0000      -8.046225      -218.9489
  81   2.0000      -6.625636      -180.2927
  82   2.0000      -6.611068      -179.8963
  83   2.0000      -6.610871      -179.8909
  84   2.0000      -6.056294      -164.8001
  85   2.0000      -6.055478      -164.7779
  86   2.0000      -6.052177      -164.6881
  87   2.0000      -6.051396      -164.6669
  88   2.0000      -6.049091      -164.6041
  89   2.0000      -6.048837      -164.5972
  90   2.0000      -6.040311      -164.3652
  91   2.0000      -6.037334      -164.2842
  92   2.0000      -6.036279      -164.2555
  93   2.0000      -6.033609      -164.1828
  94   2.0000      -6.033096      -164.1689
  95   2.0000      -6.032822      -164.1614
  96   2.0000      -6.029648      -164.0751
  97   2.0000      -6.028885      -164.0543
  98   2.0000      -6.026408      -163.9869
  99   2.0000      -6.017397      -163.7417
 100   2.0000      -6.015944      -163.7022
 101   2.0000      -6.013350      -163.6316
 102   2.0000      -6.011983      -163.5944
 103   2.0000      -6.008488      -163.4993
 104   2.0000      -6.007095      -163.4614
 105   2.0000      -2.741487       -74.5997
 106   2.0000      -2.737439       -74.4895
 107   2.0000      -2.737269       -74.4849
 108   2.0000      -2.725696       -74.1700
 109   2.0000      -2.725683       -74.1696
 110   2.0000      -1.128840       -30.7173
 111   2.0000      -1.074931       -29.2504
 112   2.0000      -1.047638       -28.5077
 113   2.0000      -1.023520       -27.8514
 114   2.0000      -1.021300       -27.7910
 115   2.0000      -1.018828       -27.7237
 116   2.0000      -1.009522       -27.4705
 117   2.0000      -1.006479       -27.3877
 118   2.0000      -1.001914       -27.2635
 119   2.0000      -1.000605       -27.2278
 120   2.0000      -0.989826       -26.9345
 121   2.0000      -0.985872       -26.8269
 122   2.0000      -0.982087       -26.7239
 123   2.0000      -0.978628       -26.6298
 124   2.0000      -0.970962       -26.4212
 125   2.0000      -0.960530       -26.1374
 126   2.0000      -0.939304       -25.5598
 127   2.0000      -0.936782       -25.4911
 128   2.0000      -0.918179       -24.9849
 129   2.0000      -0.916196       -24.9309
 130   2.0000      -0.907544       -24.6955
 131   2.0000      -0.904251       -24.6059
 132   2.0000      -0.892418       -24.2839
 133   2.0000      -0.881568       -23.9887
 134   2.0000      -0.881332       -23.9823
 135   2.0000      -0.873162       -23.7599
 136   2.0000      -0.867715       -23.6117
 137   2.0000      -0.859042       -23.3757
 138   2.0000      -0.856940       -23.3185
 139   2.0000      -0.847708       -23.0673
 140   2.0000      -0.840847       -22.8806
 141   2.0000      -0.839346       -22.8398
 142   2.0000      -0.831314       -22.6212
 143   2.0000      -0.826731       -22.4965
 144   2.0000      -0.825104       -22.4522
 145   2.0000      -0.815071       -22.1792
 146   2.0000      -0.797406       -21.6985
 147   2.0000      -0.787549       -21.4303
 148   2.0000      -0.784084       -21.3360
 149   2.0000      -0.774983       -21.0883
 150   2.0000      -0.763543       -20.7771
 151   2.0000      -0.755938       -20.5701
 152   2.0000      -0.744555       -20.2604
 153   2.0000      -0.737452       -20.0671
 154   2.0000      -0.729548       -19.8520
 155   2.0000      -0.715264       -19.4633
 156   2.0000      -0.711474       -19.3602
 157   2.0000      -0.703401       -19.1405
 158   2.0000      -0.693072       -18.8594
 159   2.0000      -0.689402       -18.7596
 160   2.0000      -0.687573       -18.7098
 161   2.0000      -0.683251       -18.5922
 162   2.0000      -0.678390       -18.4599
 163   2.0000      -0.670179       -18.2365
 164   2.0000      -0.655308       -17.8318
 165   2.0000      -0.646942       -17.6042
 166   2.0000      -0.644902       -17.5487
 167   2.0000      -0.641205       -17.4481
 168   2.0000      -0.637525       -17.3479
 169   2.0000      -0.633770       -17.2458
 170   2.0000      -0.627300       -17.0697
 171   2.0000      -0.625810       -17.0292
 172   2.0000      -0.622808       -16.9475
 173   2.0000      -0.619822       -16.8662
 174   2.0000      -0.617417       -16.8008
 175   2.0000      -0.612081       -16.6556
 176   2.0000      -0.607384       -16.5278
 177   2.0000      -0.603286       -16.4162
 178   2.0000      -0.595538       -16.2054
 179   2.0000      -0.586454       -15.9582
 180   2.0000      -0.585755       -15.9392
 181   2.0000      -0.581005       -15.8099
 182   2.0000      -0.570694       -15.5294
 183   2.0000      -0.564137       -15.3510
 184   2.0000      -0.558580       -15.1997
 185   2.0000      -0.550375       -14.9765
 186   2.0000      -0.548798       -14.9336
 187   2.0000      -0.546887       -14.8816
 188   2.0000      -0.541670       -14.7396
 189   2.0000      -0.537638       -14.6299
 190   2.0000      -0.536480       -14.5984
 191   2.0000      -0.535523       -14.5723
 192   2.0000      -0.529368       -14.4048
 193   2.0000      -0.527312       -14.3489
 194   2.0000      -0.519877       -14.1466
 195   2.0000      -0.518581       -14.1113
 196   2.0000      -0.513420       -13.9709
 197   2.0000      -0.513312       -13.9679
 198   2.0000      -0.512720       -13.9518
 199   2.0000      -0.511498       -13.9186
 200   2.0000      -0.507077       -13.7983
 201   2.0000      -0.506031       -13.7698
 202   2.0000      -0.505371       -13.7518
 203   2.0000      -0.501382       -13.6433
 204   2.0000      -0.498489       -13.5646
 205   2.0000      -0.496848       -13.5199
 206   2.0000      -0.495801       -13.4914
 207   2.0000      -0.493920       -13.4403
 208   2.0000      -0.491651       -13.3785
 209   2.0000      -0.489738       -13.3264
 210   2.0000      -0.488142       -13.2830
 211   2.0000      -0.487561       -13.2672
 212   2.0000      -0.486209       -13.2304
 213   2.0000      -0.483914       -13.1680
 214   2.0000      -0.482592       -13.1320
 215   2.0000      -0.477312       -12.9883
 216   2.0000      -0.473731       -12.8909
 217   2.0000      -0.471701       -12.8356
 218   2.0000      -0.471218       -12.8225
 219   2.0000      -0.470047       -12.7906
 220   2.0000      -0.464008       -12.6263
 221   2.0000      -0.461670       -12.5627
 222   2.0000      -0.461196       -12.5498
 223   2.0000      -0.460880       -12.5412
 224   2.0000      -0.455450       -12.3934
 225   2.0000      -0.453555       -12.3418
 226   2.0000      -0.450009       -12.2454
 227   2.0000      -0.445110       -12.1121
 228   2.0000      -0.444510       -12.0957
 229   2.0000      -0.443780       -12.0759
 230   2.0000      -0.439580       -11.9616
 231   2.0000      -0.439139       -11.9496
 232   2.0000      -0.438965       -11.9449
 233   2.0000      -0.438932       -11.9439
 234   2.0000      -0.436522       -11.8784
 235   2.0000      -0.435805       -11.8589
 236   2.0000      -0.435078       -11.8391
 237   2.0000      -0.434686       -11.8284
 238   2.0000      -0.427050       -11.6206
 239   2.0000      -0.426325       -11.6009
 240   2.0000      -0.424468       -11.5504
 241   2.0000      -0.422801       -11.5050
 242   2.0000      -0.420583       -11.4447
 243   2.0000      -0.418591       -11.3904
 244   2.0000      -0.413416       -11.2496
 245   2.0000      -0.410944       -11.1823
 246   2.0000      -0.409159       -11.1338
 247   2.0000      -0.403437       -10.9781
 248   2.0000      -0.402162       -10.9434
 249   2.0000      -0.400600       -10.9009
 250   2.0000      -0.392831       -10.6895
 251   2.0000      -0.385746       -10.4967
 252   2.0000      -0.383232       -10.4283
 253   2.0000      -0.375727       -10.2241
 254   2.0000      -0.371626       -10.1125
 255   2.0000      -0.366611        -9.9760
 256   2.0000      -0.361419        -9.8347
 257   2.0000      -0.353361        -9.6154
 258   2.0000      -0.348172        -9.4743
 259   2.0000      -0.341917        -9.3040
 260   2.0000      -0.338252        -9.2043
 261   2.0000      -0.335579        -9.1316
 262   2.0000      -0.331587        -9.0229
 263   2.0000      -0.330259        -8.9868
 264   2.0000      -0.324497        -8.8300
 265   2.0000      -0.321797        -8.7565
 266   2.0000      -0.315016        -8.5720
 267   2.0000      -0.311648        -8.4804
 268   2.0000      -0.300526        -8.1777
 269   2.0000      -0.289870        -7.8878
 270   2.0000      -0.274326        -7.4648
 271   2.0000      -0.244306        -6.6479
 272   2.0000      -0.209416        -5.6985
 273   0.0000      -0.113100        -3.0776
 274   0.0000      -0.089731        -2.4417
 275   0.0000      -0.084548        -2.3007
 276   0.0000      -0.058091        -1.5807
 277   0.0000      -0.045823        -1.2469

MULLIKEN ATOMIC CHARGES
-----------------------
   0 C :    0.312398
   1 C :   -0.353525
   2 C :   -0.186965
   3 N :    0.143456
   4 C :   -0.199417
   5 N :    0.151943
   6 C :    0.011010
   7 C :   -0.015202
   8 C :   -0.071823
   9 C :    0.118426
  10 C :   -0.091538
  11 C :   -0.019789
  12 S :    0.184556
  13 C :   -0.125057
  14 C :    0.040696
  15 Br:    0.022017
  16 C :    0.152173
  17 O :   -0.153600
  18 C :   -0.097893
  19 C :    0.036712
  20 C :   -0.116819
  21 C :    0.008829
  22 C :   -0.018853
  23 C :   -0.075815
  24 S :    0.199812
  25 C :   -0.111255
  26 C :    0.034277
  27 C :    0.307132
  28 C :   -0.293203
  29 C :   -0.190815
  30 N :    0.193034
  31 C :   -0.190731
  32 N :    0.171578
  33 C :   -0.077266
  34 C :   -0.032486
  35 S :    0.182516
  36 C :   -0.067945
  37 S :    0.162718
  38 C :   -0.079266
  39 C :    0.019387
  40 C :   -0.064504
  41 C :   -0.109503
  42 C :    0.102611
  43 C :    0.105432
  44 C :    0.012237
  45 C :   -0.091605
  46 S :    0.155149
  47 C :   -0.072907
  48 C :   -0.035436
  49 C :    0.036026
  50 C :   -0.003302
  51 C :   -0.001369
  52 C :   -0.024360
  53 C :    0.039888
  54 C :    0.023088
  55 C :   -0.039537
  56 S :    0.066354
  57 C :   -0.041291
  58 C :    0.036079
  59 C :    0.030641
  60 C :   -0.001740
  61 S :    0.053586
  62 C :   -0.027133
  63 C :    0.015113
  64 C :    0.011735
  65 N :   -0.085056
  66 C :    0.060626
  67 N :   -0.093462
  68 C :    0.006850
  69 H :   -0.008078
  70 H :   -0.007086
  71 H :   -0.002840
  72 H :    0.011868
  73 H :    0.036847
  74 H :    0.013293
  75 H :   -0.014391
  76 H :    0.011359
  77 H :    0.025046
  78 H :    0.015611
  79 H :    0.011052
  80 H :    0.015219
  81 H :    0.023029
  82 H :   -0.021362
  83 H :   -0.016941
  84 H :    0.003583
  85 H :   -0.014838
  86 H :   -0.010441
  87 H :   -0.010880
  88 H :   -0.012358
  89 H :   -0.011682
  90 H :   -0.017971
  91 H :    0.001908
  92 H :    0.015437
  93 H :    0.017000
Sum of atomic charges:   -0.0000000

LOEWDIN ATOMIC CHARGES
----------------------
   0 C :    0.077477
   1 C :   -0.148444
   2 C :   -0.018273
   3 N :   -0.058205
   4 C :   -0.025031
   5 N :   -0.058015
   6 C :   -0.021477
   7 C :   -0.049570
   8 C :    0.022503
   9 C :   -0.032819
  10 C :   -0.144375
  11 C :   -0.010388
  12 S :    0.431109
  13 C :   -0.272186
  14 C :   -0.069655
  15 Br:    0.135235
  16 C :    0.085093
  17 O :   -0.141669
  18 C :   -0.104642
  19 C :    0.042300
  20 C :   -0.180932
  21 C :    0.023708
  22 C :   -0.081778
  23 C :   -0.150692
  24 S :    0.488035
  25 C :   -0.203825
  26 C :   -0.044095
  27 C :    0.077037
  28 C :   -0.094244
  29 C :   -0.021914
  30 N :   -0.016758
  31 C :   -0.015122
  32 N :   -0.032139
  33 C :   -0.047975
  34 C :   -0.154413
  35 S :    0.471274
  36 C :   -0.194340
  37 S :    0.451238
  38 C :   -0.182944
  39 C :   -0.037305
  40 C :   -0.049818
  41 C :   -0.035067
  42 C :   -0.023359
  43 C :   -0.022809
  44 C :   -0.028010
  45 C :   -0.201930
  46 S :    0.440091
  47 C :   -0.159577
  48 C :   -0.051076
  49 C :   -0.039355
  50 C :   -0.030656
  51 C :   -0.049172
  52 C :   -0.148187
  53 C :   -0.029387
  54 C :   -0.034476
  55 C :   -0.171428
  56 S :    0.369124
  57 C :   -0.183811
  58 C :   -0.030107
  59 C :   -0.033335
  60 C :   -0.135738
  61 S :    0.378646
  62 C :   -0.065163
  63 C :   -0.071519
  64 C :    0.045080
  65 N :   -0.082676
  66 C :    0.037090
  67 N :   -0.081365
  68 C :    0.033407
  69 H :    0.041864
  70 H :    0.040742
  71 H :    0.039032
  72 H :    0.042508
  73 H :    0.044265
  74 H :    0.036482
  75 H :    0.026690
  76 H :    0.024142
  77 H :    0.031285
  78 H :    0.025811
  79 H :    0.024029
  80 H :    0.025710
  81 H :    0.030849
  82 H :    0.030451
  83 H :    0.028922
  84 H :    0.020972
  85 H :    0.033665
  86 H :    0.034575
  87 H :    0.032445
  88 H :    0.032847
  89 H :    0.033453
  90 H :    0.034334
  91 H :    0.022526
  92 H :    0.016996
  93 H :    0.008209

  Mayer bond orders larger than 0.100000
B(  0-C ,  1-C ) :   1.6134 B(  0-C ,  6-C ) :   0.9977 B(  0-C , 18-C ) :   1.0918
B(  1-C ,  2-C ) :   1.1461 B(  1-C ,  4-C ) :   1.1412 B(  2-C ,  3-N ) :   2.9673
B(  4-C ,  5-N ) :   2.9825 B(  6-C ,  7-C ) :   1.2758 B(  6-C , 11-C ) :   1.4117
B(  7-C ,  8-C ) :   1.4265 B(  7-C , 16-C ) :   0.9472 B(  8-C ,  9-C ) :   1.2416
B(  8-C , 69-H ) :   1.0173 B(  9-C , 10-C ) :   1.3079 B(  9-C , 14-C ) :   1.1626
B( 10-C , 11-C ) :   1.3293 B( 10-C , 12-S ) :   1.0848 B( 11-C , 70-H ) :   0.9797
B( 12-S , 13-C ) :   1.0861 B( 13-C , 14-C ) :   1.6194 B( 13-C , 15-Br) :   1.0177
B( 14-C , 71-H ) :   1.0000 B( 16-C , 17-O ) :   2.1764 B( 16-C , 18-C ) :   0.9489
B( 18-C , 19-C ) :   1.5623 B( 19-C , 20-C ) :   1.2383 B( 19-C , 72-H ) :   0.9151
B( 20-C , 21-C ) :   1.3837 B( 20-C , 24-S ) :   1.0609 B( 21-C , 22-C ) :   1.3365
B( 21-C , 73-H ) :   0.9715 B( 22-C , 23-C ) :   1.3541 B( 22-C , 27-C ) :   1.0007
B( 23-C , 24-S ) :   1.1689 B( 23-C , 25-C ) :   1.2331 B( 25-C , 26-C ) :   1.4217
B( 25-C , 35-S ) :   1.0870 B( 26-C , 27-C ) :   0.9884 B( 26-C , 33-C ) :   1.3240
B( 27-C , 28-C ) :   1.7146 B( 28-C , 29-C ) :   1.1348 B( 28-C , 31-C ) :   1.1374
B( 29-C , 30-N ) :   2.9974 B( 31-C , 32-N ) :   2.9871 B( 33-C , 34-C ) :   1.4190
B( 33-C , 74-H ) :   0.9884 B( 34-C , 35-S ) :   1.1205 B( 34-C , 36-C ) :   1.1996
B( 36-C , 37-S ) :   1.1024 B( 36-C , 40-C ) :   1.4214 B( 37-S , 38-C ) :   1.0889
B( 38-C , 39-C ) :   1.5035 B( 38-C , 45-C ) :   1.2018 B( 39-C , 40-C ) :   1.3490
B( 39-C , 41-C ) :   0.9362 B( 40-C , 75-H ) :   0.9943 B( 41-C , 42-C ) :   1.0361
B( 41-C , 43-C ) :   1.0335 B( 41-C , 44-C ) :   0.9388 B( 42-C , 76-H ) :   0.9644
B( 42-C , 77-H ) :   0.9646 B( 42-C , 78-H ) :   0.9645 B( 43-C , 79-H ) :   0.9648
B( 43-C , 80-H ) :   0.9650 B( 43-C , 81-H ) :   0.9641 B( 44-C , 45-C ) :   1.4872
B( 44-C , 48-C ) :   1.3580 B( 45-C , 46-S ) :   1.0826 B( 46-S , 47-C ) :   1.1007
B( 47-C , 48-C ) :   1.4135 B( 47-C , 49-C ) :   1.1513 B( 48-C , 82-H ) :   0.9974
B( 49-C , 50-C ) :   1.6135 B( 49-C , 83-H ) :   0.9700 B( 50-C , 51-C ) :   1.1898
B( 50-C , 84-H ) :   0.9667 B( 51-C , 52-C ) :   1.5339 B( 51-C , 85-H ) :   0.9853
B( 52-C , 53-C ) :   1.1527 B( 52-C , 56-S ) :   1.0307 B( 53-C , 54-C ) :   1.5820
B( 53-C , 86-H ) :   0.9989 B( 54-C , 55-C ) :   1.1898 B( 54-C , 87-H ) :   0.9940
B( 55-C , 56-S ) :   1.0498 B( 55-C , 57-C ) :   1.5132 B( 57-C , 58-C ) :   1.1799
B( 57-C , 61-S ) :   1.0299 B( 58-C , 59-C ) :   1.6073 B( 58-C , 88-H ) :   0.9925
B( 59-C , 60-C ) :   1.1242 B( 59-C , 89-H ) :   0.9998 B( 60-C , 61-S ) :   1.0364
B( 60-C , 62-C ) :   1.6176 B( 62-C , 63-C ) :   1.0954 B( 62-C , 90-H ) :   0.9679
B( 63-C , 64-C ) :   1.3039 B( 63-C , 68-C ) :   1.3041 B( 64-C , 65-N ) :   1.5875
B( 64-C , 91-H ) :   0.9893 B( 65-N , 66-C ) :   1.4917 B( 66-C , 67-N ) :   1.5076
B( 66-C , 92-H ) :   0.9757 B( 67-N , 68-C ) :   1.5751 B( 68-C , 93-H ) :   0.9777

-----------------------------------------------------------------------------
         ABSORPTION SPECTRUM VIA TRANSITION ELECTRIC DIPOLE MOMENTS
-----------------------------------------------------------------------------
State   Energy  Wavelength   fosc         T2         TX        TY        TZ
        (cm-1)    (nm)                  (au**2)     (au)      (au)      (au)
-----------------------------------------------------------------------------
   0    9498.3   1052.8   0.979493405  33.94934  -1.19857   5.59298  -1.10965
   1   13575.5    736.6   1.322587809  32.07335   2.06283  -4.43004   2.86232
   2   15835.9    631.5   0.136117845   2.82975   0.65125  -1.29284   0.85685
   3   18080.0    553.1   0.877241943  15.97340  -0.61697  -3.57814  -1.67023
   4   20577.7    486.0   0.139065170   2.22483  -0.24855  -1.35915  -0.56193
   5   22612.3    442.2   0.118232647   1.72135  -0.19136  -1.24239  -0.37577
   6   22962.4    435.5   0.502341596   7.20207  -0.31703  -2.51126  -0.89171
   7   23593.0    423.9   0.143723365   2.00549  -0.72679  -0.84753  -0.87118
   8   25066.9    398.9   0.062200762   0.81690   0.40410   0.48895   0.64384
   9   26374.7    379.2   0.139369687   1.73963   0.29199  -0.71318   1.07040
  10   27136.1    368.5   0.014603209   0.17716  -0.09085   0.41087   0.00987
  11   28341.6    352.8   0.045092554   0.52379  -0.18654  -0.69828   0.03731
  12   28781.7    347.4   0.022198935   0.25392  -0.05551   0.08666  -0.49328
  13   29299.1    341.3   0.133454114   1.49952   0.68010  -0.23939   0.98979
  14   29370.2    340.5   0.018086844   0.20274   0.19765   0.21369   0.34352
  15   29742.5    336.2   0.139753104   1.54689   0.72496  -0.03310   1.01006
  16   30306.2    330.0   0.415227936   4.51056  -1.08856  -1.03146  -1.50389
  17   30559.8    327.2   0.156014085   1.68069   0.54602   1.15445  -0.22315
  18   30906.6    323.6   0.464436527   4.94710  -0.85594   1.56172  -1.33248
  19   31728.3    315.2   0.124286596   1.28959  -0.07605  -1.08938  -0.31154
  20   31794.8    314.5   0.001284021   0.01330   0.02017  -0.09741  -0.05830
  21   31938.8    313.1   0.036341255   0.37459  -0.28823  -0.15761  -0.51640
  22   32415.1    308.5   0.208484942   2.11740   0.36799  -0.69713   1.22311
  23   32507.6    307.6   0.034850775   0.35294   0.09342   0.57290   0.12647
  24   32577.7    307.0   0.027494925   0.27785   0.10112  -0.48521   0.17943
  25   33315.9    300.2   0.021603605   0.21348   0.14320  -0.36606   0.24284
  26   33530.4    298.2   0.004796070   0.04709   0.04361  -0.14284   0.15743
  27   33624.3    297.4   0.004325042   0.04235  -0.04794   0.20012  -0.00117
  28   33713.5    296.6   0.023490739   0.22939  -0.16489   0.43792  -0.10208
  29   33789.2    296.0   0.035855267   0.34934   0.39567   0.09888   0.42779
  30   34265.8    291.8   0.304457951   2.92511   0.39174  -0.37865   1.62120
  31   34737.6    287.9   0.021822688   0.20682   0.18430   0.41538   0.01751
  32   35445.5    282.1   0.113702326   1.05605  -0.63331  -0.24934  -0.76994
  33   35626.7    280.7   0.008245945   0.07620   0.06770  -0.25132   0.09194
  34   35779.3    279.5   0.033936062   0.31225   0.10629   0.49989   0.22598
  35   36047.0    277.4   0.126668214   1.15684  -0.37293   0.53415  -0.85583
  36   36498.6    274.0   0.046371105   0.41826  -0.24764   0.58669  -0.11282
  37   36779.7    271.9   0.111679141   0.99963   0.23893   0.68686   0.68613
  38   37234.0    268.6   0.029894252   0.26432   0.29994   0.21156   0.35999
  39   37875.3    264.0   0.061250565   0.53239   0.37967   0.17024   0.59938
  40   38135.8    262.2   0.012650603   0.10921   0.27698  -0.00596  -0.18016
  41   38388.7    260.5   0.000070658   0.00061  -0.01266   0.01668  -0.01294
  42   38429.1    260.2   0.031284048   0.26800   0.13880  -0.37517   0.32861
  43   38524.3    259.6   0.044496722   0.38025   0.05278   0.54339   0.28669
  44   38735.9    258.2   0.011552964   0.09819   0.15652  -0.21792   0.16185
  45   39109.9    255.7   0.065559240   0.55185  -0.05190   0.68176   0.29045
  46   39250.5    254.8   0.036802223   0.30868   0.30533  -0.42482   0.18702
  47   39530.8    253.0   0.079001079   0.65792   0.25488   0.44363   0.62941
  48   39975.6    250.2   0.000557359   0.00459  -0.04011   0.05459   0.00084

FINAL SINGLE POINT ENERGY     -7833.674115329891

DIPOLE MOMENT
-------------
                                X             Y             Z
Electronic contribution:     53.81627    -273.41351      76.08972
Nuclear contribution   :    -54.54831     277.77249     -74.73466
                        -----------------------------------------
Total Dipole Moment    :     -0.73204       4.35898       1.35506
                        -----------------------------------------
Magnitude (a.u.)       :      4.62307
Magnitude (Debye)      :     11.75091

Rotational constants in cm-1:     0.002044     0.000136     0.000128
Rotational constants in MHz :    61.277239     4.078055     3.846419

                             ****ORCA TERMINATED NORMALLY****
TOTAL RUN TIME: 0 days 0 hours 9 minutes 25 seconds 350 msec
