                         Program Version 4.2.0 -  RELEASE  -
|  1> # ORCA input file
|  2> # SCF done       -204.991668025719          0.000463890107
|  3> ! CAM-B3LYP def2-SVP def2/J RIJCOSX Grid4 TightSCF
|  4> %maxcore 5000
|  5> %tddft
|  6>     Mode sTDDFT
|  7>     Ethresh 5.0
|  8>     maxcore 5000
|  9> end
| 10>
| 11> %pal
| 12>   nprocs 6
| 13>   end
| 14> * xyz 0 1
| 15>    C        1.52009         5.27269         1.40495
| 16>    C        2.13405         4.12715         0.96816
| 17>    C        3.53230         3.97293         0.85809
| 18>    N        4.65897         3.78389         0.74577
| 19>    C        1.48370         2.94067         0.56853
| 20>    N        1.03520         1.93982         0.22778
| 21>    C        2.21204         6.49026         1.81908
| 22>    C        1.24765         7.45054         2.21318
| 23>    C        1.58439         8.70654         2.65561
| 24>    C        2.94303         9.03410         2.71165
| 25>    C        3.90086         8.07028         2.31589
| 26>    C        3.55824         6.79945         1.86928
| 27>    S        5.52021         8.68171         2.46147
| 28>    C        4.89782        10.20278         3.04390
| 29>    C        3.54680        10.25247         3.12608
| 30>   Br        6.08909        11.58120         3.48810
| 31>    C       -0.09614         6.87132         2.05963
| 32>    O       -1.15314         7.42569         2.31424
| 33>    C        0.09560         5.51316         1.54524
| 34>    C       -0.90802         4.62947         1.23469
| 35>    C       -2.30013         4.77227         1.31008
| 36>    C       -3.16770         3.74927         0.90450
| 37>    C       -4.49711         4.09790         1.03305
| 38>    C       -4.65931         5.40614         1.55387
| 39>    S       -3.18370         6.19300         1.87509
| 40>    C       -6.04515         5.67591         1.62332
| 41>    C       -6.75908         4.55961         1.15078
| 42>    C       -5.80829         3.52454         0.77453
| 43>    C       -6.09366         2.28369         0.28746
| 44>    C       -5.08529         1.35297        -0.04248
| 45>    N       -4.27190         0.59192        -0.31256
| 46>    C       -7.42008         1.84581         0.08656
| 47>    N       -8.49861         1.49141        -0.07376
| 48>    C       -8.13669         4.75242         1.15885
| 49>    C       -8.49189         6.00375         1.64303
| 50>    S       -7.08206         6.95037         2.09231
| 51>    C       -9.81815         6.50379         1.72728
| 52>    C      -10.33082         7.64670         2.33214
| 53>    C       -9.54043         8.66941         3.08431
| 54>    C       -9.03575         9.77018         2.14865
| 55>    C      -11.70984         7.77269         2.14472
| 56>    C      -12.28633         6.75582         1.40814
| 57>    S      -11.08331         5.58966         0.94686
| 58>    C      -13.62771         6.57355         0.98429
| 59>    C      -14.63692         7.44974         1.21539
| 60>    C      -15.96309         7.29369         0.73857
| 61>    C      -16.51670         6.26382        -0.00909
| 62>    C      -17.85129         6.50165        -0.32124
| 63>    C      -18.33081         7.72282         0.19082
| 64>    S      -17.13047         8.56716         1.06232
| 65>    C      -19.67694         7.88753        -0.21207
| 66>    C      -20.05130         6.76367        -0.97939
| 67>    C      -18.91980         5.86022        -1.07352
| 68>    C      -18.86759         4.68238        -1.75934
| 69>    C      -17.70498         3.88450        -1.79307
| 70>    N      -16.75811         3.23841        -1.80969
| 71>    C      -19.98375         4.19994        -2.47499
| 72>    N      -20.90148         3.82243        -3.04960
| 73>    C      -21.34354         6.85441        -1.47671
| 74>    C      -21.96889         8.03646        -1.10614
| 75>    S      -20.93248         9.02800        -0.08221
| 76>    C      -23.26953         8.48493        -1.41717
| 77>    C      -24.09134         8.07396        -2.42385
| 78>    C      -23.87639         7.30119        -3.62922
| 79>    C      -22.72648         7.23402        -4.37362
| 80>    C      -22.63183         6.57281        -5.61630
| 81>    N      -22.50146         6.05522        -6.63200
| 82>    C      -21.53049         7.90058        -4.04551
| 83>    N      -20.54271         8.44921        -3.84057
| 84>    C      -25.18361         6.83455        -4.08080
| 85>    C      -26.18862         7.49780        -3.33208
| 86>    C      -25.54960         8.36099        -2.32051
| 87>    O      -26.08259         9.11170        -1.53626
| 88>    C      -27.52866         7.30105        -3.56242
| 89>    C      -27.89219         6.39872        -4.56790
| 90>    C      -26.88005         5.72550        -5.29415
| 91>    C      -25.52440         5.93053        -5.06805
| 92>    S      -27.55186         4.64562        -6.47650
| 93>    C      -29.16112         5.11146        -5.99316
| 94>    C      -29.19603         6.02564        -4.99445
| 95>   Br      -30.64244         4.34532        -6.84992
| 96>    H        0.82448         9.41402         2.94822
| 97>    H        4.32736         6.10371         1.57932
| 98>    H        2.99754        11.11197         3.46447
| 99>    H       -0.60613         3.66030         0.85655
|100>    H       -2.80506         2.80784         0.53087
|101>    H       -8.86458         4.03093         0.83384
|102>    H       -8.69514         8.20168         3.59188
|103>    H      -10.18419         9.11587         3.84480
|104>    H       -8.39600         9.35527         1.37375
|105>    H       -8.46521        10.50513         2.70988
|106>    H       -9.87405        10.27077         1.66978
|107>    H      -12.27305         8.59657         2.54478
|108>    H      -13.82126         5.67439         0.41703
|109>    H      -14.44295         8.35125         1.77911
|110>    H      -15.96689         5.39187        -0.31065
|111>    H      -21.83399         6.08875        -2.04979
|112>    H      -23.70668         9.21069        -0.73812
|113>    H      -28.27393         7.82623        -2.98604
|114>    H      -24.78753         5.38946        -5.63822
|115>    H      -30.10268         6.42159        -4.57479
|116> *
|117>
|118>                          ****END OF INPUT****

CARTESIAN COORDINATES (ANGSTROEM)
---------------------------------
  C      1.520090    5.272690    1.404950
  C      2.134050    4.127150    0.968160
  C      3.532300    3.972930    0.858090
  N      4.658970    3.783890    0.745770
  C      1.483700    2.940670    0.568530
  N      1.035200    1.939820    0.227780
  C      2.212040    6.490260    1.819080
  C      1.247650    7.450540    2.213180
  C      1.584390    8.706540    2.655610
  C      2.943030    9.034100    2.711650
  C      3.900860    8.070280    2.315890
  C      3.558240    6.799450    1.869280
  S      5.520210    8.681710    2.461470
  C      4.897820   10.202780    3.043900
  C      3.546800   10.252470    3.126080
  Br     6.089090   11.581200    3.488100
  C     -0.096140    6.871320    2.059630
  O     -1.153140    7.425690    2.314240
  C      0.095600    5.513160    1.545240
  C     -0.908020    4.629470    1.234690
  C     -2.300130    4.772270    1.310080
  C     -3.167700    3.749270    0.904500
  C     -4.497110    4.097900    1.033050
  C     -4.659310    5.406140    1.553870
  S     -3.183700    6.193000    1.875090
  C     -6.045150    5.675910    1.623320
  C     -6.759080    4.559610    1.150780
  C     -5.808290    3.524540    0.774530
  C     -6.093660    2.283690    0.287460
  C     -5.085290    1.352970   -0.042480
  N     -4.271900    0.591920   -0.312560
  C     -7.420080    1.845810    0.086560
  N     -8.498610    1.491410   -0.073760
  C     -8.136690    4.752420    1.158850
  C     -8.491890    6.003750    1.643030
  S     -7.082060    6.950370    2.092310
  C     -9.818150    6.503790    1.727280
  C    -10.330820    7.646700    2.332140
  C     -9.540430    8.669410    3.084310
  C     -9.035750    9.770180    2.148650
  C    -11.709840    7.772690    2.144720
  C    -12.286330    6.755820    1.408140
  S    -11.083310    5.589660    0.946860
  C    -13.627710    6.573550    0.984290
  C    -14.636920    7.449740    1.215390
  C    -15.963090    7.293690    0.738570
  C    -16.516700    6.263820   -0.009090
  C    -17.851290    6.501650   -0.321240
  C    -18.330810    7.722820    0.190820
  S    -17.130470    8.567160    1.062320
  C    -19.676940    7.887530   -0.212070
  C    -20.051300    6.763670   -0.979390
  C    -18.919800    5.860220   -1.073520
  C    -18.867590    4.682380   -1.759340
  C    -17.704980    3.884500   -1.793070
  N    -16.758110    3.238410   -1.809690
  C    -19.983750    4.199940   -2.474990
  N    -20.901480    3.822430   -3.049600
  C    -21.343540    6.854410   -1.476710
  C    -21.968890    8.036460   -1.106140
  S    -20.932480    9.028000   -0.082210
  C    -23.269530    8.484930   -1.417170
  C    -24.091340    8.073960   -2.423850
  C    -23.876390    7.301190   -3.629220
  C    -22.726480    7.234020   -4.373620
  C    -22.631830    6.572810   -5.616300
  N    -22.501460    6.055220   -6.632000
  C    -21.530490    7.900580   -4.045510
  N    -20.542710    8.449210   -3.840570
  C    -25.183610    6.834550   -4.080800
  C    -26.188620    7.497800   -3.332080
  C    -25.549600    8.360990   -2.320510
  O    -26.082590    9.111700   -1.536260
  C    -27.528660    7.301050   -3.562420
  C    -27.892190    6.398720   -4.567900
  C    -26.880050    5.725500   -5.294150
  C    -25.524400    5.930530   -5.068050
  S    -27.551860    4.645620   -6.476500
  C    -29.161120    5.111460   -5.993160
  C    -29.196030    6.025640   -4.994450
  Br   -30.642440    4.345320   -6.849920
  H      0.824480    9.414020    2.948220
  H      4.327360    6.103710    1.579320
  H      2.997540   11.111970    3.464470
  H     -0.606130    3.660300    0.856550
  H     -2.805060    2.807840    0.530870
  H     -8.864580    4.030930    0.833840
  H     -8.695140    8.201680    3.591880
  H    -10.184190    9.115870    3.844800
  H     -8.396000    9.355270    1.373750
  H     -8.465210   10.505130    2.709880
  H     -9.874050   10.270770    1.669780
  H    -12.273050    8.596570    2.544780
  H    -13.821260    5.674390    0.417030
  H    -14.442950    8.351250    1.779110
  H    -15.966890    5.391870   -0.310650
  H    -21.833990    6.088750   -2.049790
  H    -23.706680    9.210690   -0.738120
  H    -28.273930    7.826230   -2.986040
  H    -24.787530    5.389460   -5.638220
  H    -30.102680    6.421590   -4.574790

 Total Charge           Charge          ....    0
 Multiplicity           Mult            ....    1
 Number of Electrons    NEL             ....  646
 Basis Dimension        Dim             .... 1298

ORBITAL ENERGIES
----------------

  NO   OCC          E(Eh)            E(eV)
   0   2.0000    -482.887888    -13140.0474
   1   2.0000    -482.885850    -13139.9920
   2   2.0000     -88.998293     -2421.7667
   3   2.0000     -88.998179     -2421.7636
   4   2.0000     -88.996609     -2421.7208
   5   2.0000     -88.990385     -2421.5515
   6   2.0000     -88.978099     -2421.2172
   7   2.0000     -88.976160     -2421.1644
   8   2.0000     -88.971572     -2421.0396
   9   2.0000     -62.565592     -1702.4963
  10   2.0000     -62.563538     -1702.4404
  11   2.0000     -56.399546     -1534.7097
  12   2.0000     -56.397495     -1534.6539
  13   2.0000     -56.396825     -1534.6356
  14   2.0000     -56.396791     -1534.6347
  15   2.0000     -56.394770     -1534.5797
  16   2.0000     -56.394743     -1534.5790
  17   2.0000     -19.226487      -523.1793
  18   2.0000     -19.217002      -522.9212
  19   2.0000     -14.435475      -392.8092
  20   2.0000     -14.434639      -392.7865
  21   2.0000     -14.432618      -392.7315
  22   2.0000     -14.431423      -392.6990
  23   2.0000     -14.419094      -392.3635
  24   2.0000     -14.417331      -392.3155
  25   2.0000     -14.414932      -392.2502
  26   2.0000     -14.414841      -392.2478
  27   2.0000     -10.374105      -282.2937
  28   2.0000     -10.370168      -282.1866
  29   2.0000     -10.368268      -282.1349
  30   2.0000     -10.367977      -282.1270
  31   2.0000     -10.361405      -281.9482
  32   2.0000     -10.359206      -281.8883
  33   2.0000     -10.357273      -281.8357
  34   2.0000     -10.355701      -281.7929
  35   2.0000     -10.346141      -281.5328
  36   2.0000     -10.345207      -281.5074
  37   2.0000     -10.344626      -281.4916
  38   2.0000     -10.343495      -281.4608
  39   2.0000     -10.342527      -281.4345
  40   2.0000     -10.340403      -281.3767
  41   2.0000     -10.337028      -281.2848
  42   2.0000     -10.336895      -281.2812
  43   2.0000     -10.335601      -281.2460
  44   2.0000     -10.334767      -281.2233
  45   2.0000     -10.333490      -281.1886
  46   2.0000     -10.332927      -281.1732
  47   2.0000     -10.332679      -281.1665
  48   2.0000     -10.331011      -281.1211
  49   2.0000     -10.328995      -281.0662
  50   2.0000     -10.328058      -281.0407
  51   2.0000     -10.327908      -281.0367
  52   2.0000     -10.326964      -281.0110
  53   2.0000     -10.326700      -281.0038
  54   2.0000     -10.326583      -281.0006
  55   2.0000     -10.323481      -280.9162
  56   2.0000     -10.321011      -280.8490
  57   2.0000     -10.320690      -280.8403
  58   2.0000     -10.319907      -280.8189
  59   2.0000     -10.318115      -280.7702
  60   2.0000     -10.317371      -280.7499
  61   2.0000     -10.314770      -280.6792
  62   2.0000     -10.314439      -280.6702
  63   2.0000     -10.314041      -280.6593
  64   2.0000     -10.313722      -280.6507
  65   2.0000     -10.310688      -280.5681
  66   2.0000     -10.310287      -280.5572
  67   2.0000     -10.309898      -280.5466
  68   2.0000     -10.308982      -280.5217
  69   2.0000     -10.308280      -280.5026
  70   2.0000     -10.307635      -280.4850
  71   2.0000     -10.307000      -280.4677
  72   2.0000     -10.306651      -280.4582
  73   2.0000     -10.306435      -280.4524
  74   2.0000     -10.306224      -280.4466
  75   2.0000     -10.306196      -280.4458
  76   2.0000     -10.305554      -280.4284
  77   2.0000     -10.304726      -280.4058
  78   2.0000     -10.302680      -280.3502
  79   2.0000     -10.301587      -280.3204
  80   2.0000     -10.300418      -280.2886
  81   2.0000     -10.299530      -280.2645
  82   2.0000     -10.299370      -280.2601
  83   2.0000     -10.296959      -280.1945
  84   2.0000     -10.295574      -280.1568
  85   2.0000     -10.294316      -280.1226
  86   2.0000     -10.289705      -279.9971
  87   2.0000     -10.289363      -279.9878
  88   2.0000     -10.273893      -279.5669
  89   2.0000      -8.795014      -239.3245
  90   2.0000      -8.792947      -239.2683
  91   2.0000      -8.092849      -220.2176
  92   2.0000      -8.092125      -220.1979
  93   2.0000      -8.091318      -220.1760
  94   2.0000      -8.082744      -219.9427
  95   2.0000      -8.074070      -219.7066
  96   2.0000      -8.072086      -219.6526
  97   2.0000      -8.067131      -219.5178
  98   2.0000      -6.631342      -180.4480
  99   2.0000      -6.629265      -180.3915
 100   2.0000      -6.616733      -180.0505
 101   2.0000      -6.616538      -180.0451
 102   2.0000      -6.614689      -179.9948
 103   2.0000      -6.614450      -179.9883
 104   2.0000      -6.062033      -164.9563
 105   2.0000      -6.061488      -164.9415
 106   2.0000      -6.060476      -164.9139
 107   2.0000      -6.057872      -164.8431
 108   2.0000      -6.057114      -164.8225
 109   2.0000      -6.056405      -164.8032
 110   2.0000      -6.055362      -164.7748
 111   2.0000      -6.054500      -164.7513
 112   2.0000      -6.053780      -164.7317
 113   2.0000      -6.052200      -164.6887
 114   2.0000      -6.047419      -164.5586
 115   2.0000      -6.045238      -164.4993
 116   2.0000      -6.043767      -164.4592
 117   2.0000      -6.041780      -164.4052
 118   2.0000      -6.039461      -164.3421
 119   2.0000      -6.037490      -164.2885
 120   2.0000      -6.036422      -164.2594
 121   2.0000      -6.035312      -164.2292
 122   2.0000      -6.033341      -164.1756
 123   2.0000      -6.032361      -164.1489
 124   2.0000      -6.029124      -164.0608
 125   2.0000      -2.747174       -74.7544
 126   2.0000      -2.745134       -74.6989
 127   2.0000      -2.743130       -74.6444
 128   2.0000      -2.742967       -74.6399
 129   2.0000      -2.741002       -74.5864
 130   2.0000      -2.740929       -74.5845
 131   2.0000      -2.731365       -74.3242
 132   2.0000      -2.731340       -74.3235
 133   2.0000      -2.729292       -74.2678
 134   2.0000      -2.729279       -74.2675
 135   2.0000      -1.141748       -31.0685
 136   2.0000      -1.132499       -30.8169
 137   2.0000      -1.052153       -28.6305
 138   2.0000      -1.049331       -28.5538
 139   2.0000      -1.027082       -27.9483
 140   2.0000      -1.025408       -27.9028
 141   2.0000      -1.024599       -27.8807
 142   2.0000      -1.024373       -27.8746
 143   2.0000      -1.015384       -27.6300
 144   2.0000      -1.015251       -27.6264
 145   2.0000      -1.012659       -27.5558
 146   2.0000      -1.012150       -27.5420
 147   2.0000      -1.009150       -27.4604
 148   2.0000      -1.005400       -27.3583
 149   2.0000      -0.995502       -27.0890
 150   2.0000      -0.995179       -27.0802
 151   2.0000      -0.995113       -27.0784
 152   2.0000      -0.991524       -26.9807
 153   2.0000      -0.990772       -26.9603
 154   2.0000      -0.967389       -26.3240
 155   2.0000      -0.962799       -26.1991
 156   2.0000      -0.945035       -25.7157
 157   2.0000      -0.944332       -25.6966
 158   2.0000      -0.931864       -25.3573
 159   2.0000      -0.923358       -25.1258
 160   2.0000      -0.913975       -24.8705
 161   2.0000      -0.910947       -24.7881
 162   2.0000      -0.909744       -24.7554
 163   2.0000      -0.899577       -24.4787
 164   2.0000      -0.897102       -24.4114
 165   2.0000      -0.891833       -24.2680
 166   2.0000      -0.888453       -24.1760
 167   2.0000      -0.886940       -24.1349
 168   2.0000      -0.877749       -23.8848
 169   2.0000      -0.874473       -23.7956
 170   2.0000      -0.868662       -23.6375
 171   2.0000      -0.863595       -23.4996
 172   2.0000      -0.860410       -23.4129
 173   2.0000      -0.856095       -23.2955
 174   2.0000      -0.841402       -22.8957
 175   2.0000      -0.831932       -22.6380
 176   2.0000      -0.830365       -22.5954
 177   2.0000      -0.826610       -22.4932
 178   2.0000      -0.808641       -22.0042
 179   2.0000      -0.797132       -21.6911
 180   2.0000      -0.788799       -21.4643
 181   2.0000      -0.781557       -21.2673
 182   2.0000      -0.774908       -21.0863
 183   2.0000      -0.766095       -20.8465
 184   2.0000      -0.763241       -20.7688
 185   2.0000      -0.756445       -20.5839
 186   2.0000      -0.741370       -20.1737
 187   2.0000      -0.733128       -19.9494
 188   2.0000      -0.718730       -19.5576
 189   2.0000      -0.715182       -19.4611
 190   2.0000      -0.706586       -19.2272
 191   2.0000      -0.703190       -19.1348
 192   2.0000      -0.696923       -18.9642
 193   2.0000      -0.694823       -18.9071
 194   2.0000      -0.693683       -18.8761
 195   2.0000      -0.691978       -18.8297
 196   2.0000      -0.685625       -18.6568
 197   2.0000      -0.684035       -18.6135
 198   2.0000      -0.674788       -18.3619
 199   2.0000      -0.666102       -18.1256
 200   2.0000      -0.660243       -17.9661
 201   2.0000      -0.658568       -17.9205
 202   2.0000      -0.649733       -17.6801
 203   2.0000      -0.644541       -17.5388
 204   2.0000      -0.641317       -17.4511
 205   2.0000      -0.633942       -17.2504
 206   2.0000      -0.630125       -17.1466
 207   2.0000      -0.625894       -17.0315
 208   2.0000      -0.625039       -17.0082
 209   2.0000      -0.622506       -16.9392
 210   2.0000      -0.621414       -16.9095
 211   2.0000      -0.617929       -16.8147
 212   2.0000      -0.604506       -16.4494
 213   2.0000      -0.603988       -16.4353
 214   2.0000      -0.600882       -16.3508
 215   2.0000      -0.593834       -16.1591
 216   2.0000      -0.587834       -15.9958
 217   2.0000      -0.582452       -15.8493
 218   2.0000      -0.578983       -15.7549
 219   2.0000      -0.568893       -15.4804
 220   2.0000      -0.563952       -15.3459
 221   2.0000      -0.554433       -15.0869
 222   2.0000      -0.553451       -15.0602
 223   2.0000      -0.552630       -15.0378
 224   2.0000      -0.551414       -15.0047
 225   2.0000      -0.547219       -14.8906
 226   2.0000      -0.546250       -14.8642
 227   2.0000      -0.544823       -14.8254
 228   2.0000      -0.542424       -14.7601
 229   2.0000      -0.540111       -14.6972
 230   2.0000      -0.536414       -14.5966
 231   2.0000      -0.535381       -14.5685
 232   2.0000      -0.532254       -14.4834
 233   2.0000      -0.526467       -14.3259
 234   2.0000      -0.524489       -14.2721
 235   2.0000      -0.521864       -14.2006
 236   2.0000      -0.518275       -14.1030
 237   2.0000      -0.514934       -14.0121
 238   2.0000      -0.514444       -13.9987
 239   2.0000      -0.512832       -13.9549
 240   2.0000      -0.511470       -13.9178
 241   2.0000      -0.509009       -13.8508
 242   2.0000      -0.507150       -13.8003
 243   2.0000      -0.505741       -13.7619
 244   2.0000      -0.505026       -13.7425
 245   2.0000      -0.502701       -13.6792
 246   2.0000      -0.502521       -13.6743
 247   2.0000      -0.499526       -13.5928
 248   2.0000      -0.498193       -13.5565
 249   2.0000      -0.497599       -13.5404
 250   2.0000      -0.492785       -13.4094
 251   2.0000      -0.489848       -13.3294
 252   2.0000      -0.489104       -13.3092
 253   2.0000      -0.487410       -13.2631
 254   2.0000      -0.483395       -13.1539
 255   2.0000      -0.480216       -13.0673
 256   2.0000      -0.476251       -12.9595
 257   2.0000      -0.475570       -12.9409
 258   2.0000      -0.474113       -12.9013
 259   2.0000      -0.469941       -12.7877
 260   2.0000      -0.465739       -12.6734
 261   2.0000      -0.464989       -12.6530
 262   2.0000      -0.462682       -12.5902
 263   2.0000      -0.462627       -12.5887
 264   2.0000      -0.462175       -12.5764
 265   2.0000      -0.459162       -12.4944
 266   2.0000      -0.458133       -12.4664
 267   2.0000      -0.457087       -12.4380
 268   2.0000      -0.452400       -12.3104
 269   2.0000      -0.452028       -12.3003
 270   2.0000      -0.449783       -12.2392
 271   2.0000      -0.449073       -12.2199
 272   2.0000      -0.448112       -12.1938
 273   2.0000      -0.447982       -12.1902
 274   2.0000      -0.445621       -12.1260
 275   2.0000      -0.445034       -12.1100
 276   2.0000      -0.444917       -12.1068
 277   2.0000      -0.444292       -12.0898
 278   2.0000      -0.442723       -12.0471
 279   2.0000      -0.442180       -12.0323
 280   2.0000      -0.441833       -12.0229
 281   2.0000      -0.441550       -12.0152
 282   2.0000      -0.440568       -11.9885
 283   2.0000      -0.438583       -11.9345
 284   2.0000      -0.436756       -11.8847
 285   2.0000      -0.434523       -11.8240
 286   2.0000      -0.431123       -11.7315
 287   2.0000      -0.430026       -11.7016
 288   2.0000      -0.428745       -11.6668
 289   2.0000      -0.428583       -11.6623
 290   2.0000      -0.427317       -11.6279
 291   2.0000      -0.424692       -11.5565
 292   2.0000      -0.421127       -11.4595
 293   2.0000      -0.417773       -11.3682
 294   2.0000      -0.416049       -11.3213
 295   2.0000      -0.412554       -11.2262
 296   2.0000      -0.411285       -11.1916
 297   2.0000      -0.407618       -11.0918
 298   2.0000      -0.405666       -11.0387
 299   2.0000      -0.395916       -10.7734
 300   2.0000      -0.391451       -10.6519
 301   2.0000      -0.389510       -10.5991
 302   2.0000      -0.384943       -10.4748
 303   2.0000      -0.377307       -10.2670
 304   2.0000      -0.375207       -10.2099
 305   2.0000      -0.373415       -10.1611
 306   2.0000      -0.360779        -9.8173
 307   2.0000      -0.354144        -9.6368
 308   2.0000      -0.353853        -9.6288
 309   2.0000      -0.350064        -9.5257
 310   2.0000      -0.343097        -9.3362
 311   2.0000      -0.338965        -9.2237
 312   2.0000      -0.333647        -9.0790
 313   2.0000      -0.330536        -8.9943
 314   2.0000      -0.327100        -8.9008
 315   2.0000      -0.324744        -8.8367
 316   2.0000      -0.318312        -8.6617
 317   2.0000      -0.316187        -8.6039
 318   2.0000      -0.302097        -8.2205
 319   2.0000      -0.295670        -8.0456
 320   2.0000      -0.294426        -8.0117
 321   2.0000      -0.271342        -7.3836
 322   2.0000      -0.244034        -6.6405
 323   0.0000      -0.116988        -3.1834
 324   0.0000      -0.110240        -2.9998
 325   0.0000      -0.091374        -2.4864
 326   0.0000      -0.089403        -2.4328
 327   0.0000      -0.068862        -1.8738

MULLIKEN ATOMIC CHARGES
-----------------------
   0 C :    0.328602
   1 C :   -0.355564
   2 C :   -0.185069
   3 N :    0.148034
   4 C :   -0.192929
   5 N :    0.155298
   6 C :    0.007544
   7 C :   -0.008956
   8 C :   -0.070092
   9 C :    0.114956
  10 C :   -0.092473
  11 C :   -0.015880
  12 S :    0.189321
  13 C :   -0.123539
  14 C :    0.039631
  15 Br:    0.024413
  16 C :    0.165367
  17 O :   -0.195539
  18 C :   -0.094152
  19 C :   -0.029120
  20 C :   -0.052919
  21 C :   -0.061624
  22 C :    0.042752
  23 C :   -0.061988
  24 S :    0.237598
  25 C :   -0.113360
  26 C :    0.037942
  27 C :    0.306310
  28 C :   -0.293331
  29 C :   -0.195988
  30 N :    0.186546
  31 C :   -0.187117
  32 N :    0.175683
  33 C :   -0.074989
  34 C :   -0.040408
  35 S :    0.179352
  36 C :   -0.109985
  37 C :   -0.034008
  38 C :    0.046967
  39 C :    0.024552
  40 C :   -0.041538
  41 C :   -0.049282
  42 S :    0.141057
  43 C :    0.064813
  44 C :    0.041392
  45 C :   -0.072336
  46 C :   -0.034200
  47 C :    0.015940
  48 C :   -0.109939
  49 S :    0.193039
  50 C :   -0.069670
  51 C :   -0.007450
  52 C :    0.306699
  53 C :   -0.286536
  54 C :   -0.184751
  55 N :    0.172816
  56 C :   -0.182959
  57 N :    0.171040
  58 C :   -0.001399
  59 C :   -0.115132
  60 S :    0.212501
  61 C :    0.078122
  62 C :   -0.133656
  63 C :    0.268208
  64 C :   -0.338681
  65 C :   -0.172416
  66 N :    0.161233
  67 C :   -0.197386
  68 N :    0.165567
  69 C :   -0.003268
  70 C :    0.006417
  71 C :    0.130832
  72 O :   -0.144918
  73 C :   -0.069987
  74 C :    0.110993
  75 C :   -0.088204
  76 C :   -0.016056
  77 S :    0.188818
  78 C :   -0.125799
  79 C :    0.041732
  80 Br:    0.024391
  81 H :   -0.011831
  82 H :   -0.006881
  83 H :   -0.003874
  84 H :    0.014941
  85 H :    0.028369
  86 H :    0.020169
  87 H :    0.018055
  88 H :    0.010295
  89 H :    0.016884
  90 H :    0.024434
  91 H :    0.014001
  92 H :   -0.024664
  93 H :   -0.002667
  94 H :   -0.017046
  95 H :    0.009667
  96 H :    0.025861
  97 H :    0.021514
  98 H :   -0.008759
  99 H :    0.002850
 100 H :   -0.003204
Sum of atomic charges:   -0.0000000

LOEWDIN ATOMIC CHARGES
----------------------
   0 C :    0.076507
   1 C :   -0.142655
   2 C :   -0.017808
   3 N :   -0.054336
   4 C :   -0.023612
   5 N :   -0.047932
   6 C :   -0.019421
   7 C :   -0.051265
   8 C :    0.021605
   9 C :   -0.033551
  10 C :   -0.143707
  11 C :   -0.008736
  12 S :    0.435362
  13 C :   -0.271607
  14 C :   -0.070699
  15 Br:    0.137604
  16 C :    0.086072
  17 O :   -0.178590
  18 C :   -0.115824
  19 C :    0.056472
  20 C :   -0.186056
  21 C :    0.014836
  22 C :   -0.081636
  23 C :   -0.161602
  24 S :    0.541632
  25 C :   -0.200682
  26 C :   -0.048223
  27 C :    0.077686
  28 C :   -0.098149
  29 C :   -0.020222
  30 N :   -0.022146
  31 C :   -0.016891
  32 N :   -0.029064
  33 C :   -0.044266
  34 C :   -0.161008
  35 S :    0.500144
  36 C :   -0.194417
  37 C :   -0.041358
  38 C :   -0.038152
  39 C :   -0.050277
  40 C :   -0.053791
  41 C :   -0.161097
  42 S :    0.455487
  43 C :   -0.025446
  44 C :   -0.041302
  45 C :   -0.152957
  46 C :   -0.028046
  47 C :   -0.052341
  48 C :   -0.193022
  49 S :    0.480354
  50 C :   -0.155270
  51 C :   -0.068944
  52 C :    0.082537
  53 C :   -0.096720
  54 C :   -0.016280
  55 N :   -0.029079
  56 C :   -0.012992
  57 N :   -0.030970
  58 C :    0.009494
  59 C :   -0.183692
  60 S :    0.496938
  61 C :    0.042570
  62 C :   -0.092947
  63 C :    0.066072
  64 C :   -0.138636
  65 C :   -0.019668
  66 N :   -0.046578
  67 C :   -0.015517
  68 N :   -0.048923
  69 C :   -0.017655
  70 C :   -0.053491
  71 C :    0.083087
  72 O :   -0.144918
  73 C :    0.022982
  74 C :   -0.033294
  75 C :   -0.142496
  76 C :   -0.009010
  77 S :    0.435568
  78 C :   -0.271504
  79 C :   -0.070323
  80 Br:    0.137802
  81 H :    0.040446
  82 H :    0.041450
  83 H :    0.038583
  84 H :    0.053519
  85 H :    0.048307
  86 H :    0.035653
  87 H :    0.016576
  88 H :    0.034095
  89 H :    0.016647
  90 H :    0.027533
  91 H :    0.025941
  92 H :    0.027050
  93 H :    0.033761
  94 H :    0.028400
  95 H :    0.040223
  96 H :    0.042819
  97 H :    0.045817
  98 H :    0.041455
  99 H :    0.042888
 100 H :    0.038829

  Mayer bond orders larger than 0.100000
B(  0-C ,  1-C ) :   1.6210 B(  0-C ,  6-C ) :   0.9953 B(  0-C , 18-C ) :   1.0832
B(  1-C ,  2-C ) :   1.1454 B(  1-C ,  4-C ) :   1.1458 B(  2-C ,  3-N ) :   2.9660
B(  4-C ,  5-N ) :   2.9600 B(  6-C ,  7-C ) :   1.2757 B(  6-C , 11-C ) :   1.4167
B(  7-C ,  8-C ) :   1.4193 B(  7-C , 16-C ) :   0.9630 B(  8-C ,  9-C ) :   1.2440
B(  8-C , 81-H ) :   1.0164 B(  9-C , 10-C ) :   1.3086 B(  9-C , 14-C ) :   1.1626
B( 10-C , 11-C ) :   1.3259 B( 10-C , 12-S ) :   1.0879 B( 11-C , 82-H ) :   0.9787
B( 12-S , 13-C ) :   1.0882 B( 13-C , 14-C ) :   1.6179 B( 13-C , 15-Br) :   1.0184
B( 14-C , 83-H ) :   0.9997 B( 16-C , 17-O ) :   2.1055 B( 16-C , 18-C ) :   0.9856
B( 18-C , 19-C ) :   1.4786 B( 19-C , 20-C ) :   1.2805 B( 19-C , 84-H ) :   0.9380
B( 20-C , 21-C ) :   1.3232 B( 20-C , 24-S ) :   1.0600 B( 21-C , 22-C ) :   1.3357
B( 21-C , 85-H ) :   1.0086 B( 22-C , 23-C ) :   1.3420 B( 22-C , 27-C ) :   0.9880
B( 23-C , 24-S ) :   1.1265 B( 23-C , 25-C ) :   1.2097 B( 25-C , 26-C ) :   1.4195
B( 25-C , 35-S ) :   1.1055 B( 26-C , 27-C ) :   0.9924 B( 26-C , 33-C ) :   1.3152
B( 27-C , 28-C ) :   1.7181 B( 28-C , 29-C ) :   1.1357 B( 28-C , 31-C ) :   1.1318
B( 29-C , 30-N ) :   2.9952 B( 31-C , 32-N ) :   2.9893 B( 33-C , 34-C ) :   1.4243
B( 33-C , 86-H ) :   0.9853 B( 34-C , 35-S ) :   1.1202 B( 34-C , 36-C ) :   1.1607
B( 36-C , 37-C ) :   1.4817 B( 36-C , 42-S ) :   1.1268 B( 37-C , 38-C ) :   1.0705
B( 37-C , 40-C ) :   1.2923 B( 38-C , 39-C ) :   1.0950 B( 38-C , 87-H ) :   0.9180
B( 38-C , 88-H ) :   0.9196 B( 39-C , 89-H ) :   0.9682 B( 39-C , 90-H ) :   0.9683
B( 39-C , 91-H ) :   0.9680 B( 40-C , 41-C ) :   1.4719 B( 40-C , 92-H ) :   0.9929
B( 41-C , 42-S ) :   1.1233 B( 41-C , 43-C ) :   1.1262 B( 43-C , 44-C ) :   1.7031
B( 43-C , 93-H ) :   0.9593 B( 44-C , 45-C ) :   1.1292 B( 44-C , 94-H ) :   0.9583
B( 45-C , 46-C ) :   1.4406 B( 45-C , 49-S ) :   1.1163 B( 46-C , 47-C ) :   1.3182
B( 46-C , 95-H ) :   0.9897 B( 47-C , 48-C ) :   1.4271 B( 47-C , 52-C ) :   0.9951
B( 48-C , 49-S ) :   1.1126 B( 48-C , 50-C ) :   1.2058 B( 50-C , 51-C ) :   1.4061
B( 50-C , 60-S ) :   1.1562 B( 51-C , 52-C ) :   1.0025 B( 51-C , 58-C ) :   1.3582
B( 52-C , 53-C ) :   1.7173 B( 53-C , 54-C ) :   1.1323 B( 53-C , 56-C ) :   1.1331
B( 54-C , 55-N ) :   2.9881 B( 56-C , 57-N ) :   2.9823 B( 58-C , 59-C ) :   1.3979
B( 58-C , 96-H ) :   0.9804 B( 59-C , 60-S ) :   1.0833 B( 59-C , 61-C ) :   1.1357
B( 61-C , 62-C ) :   1.6645 B( 61-C , 97-H ) :   0.9305 B( 62-C , 63-C ) :   1.0379
B( 62-C , 71-C ) :   0.9457 B( 63-C , 64-C ) :   1.6456 B( 63-C , 69-C ) :   1.0121
B( 64-C , 65-C ) :   1.1264 B( 64-C , 67-C ) :   1.1733 B( 65-C , 66-N ) :   2.9937
B( 67-C , 68-N ) :   2.9962 B( 69-C , 70-C ) :   1.2739 B( 69-C , 76-C ) :   1.4176
B( 70-C , 71-C ) :   0.9221 B( 70-C , 73-C ) :   1.4263 B( 71-C , 72-O ) :   2.2644
B( 73-C , 74-C ) :   1.2545 B( 73-C , 98-H ) :   1.0158 B( 74-C , 75-C ) :   1.3042
B( 74-C , 79-C ) :   1.1640 B( 75-C , 76-C ) :   1.3298 B( 75-C , 77-S ) :   1.0849
B( 76-C , 99-H ) :   0.9830 B( 77-S , 78-C ) :   1.0883 B( 78-C , 79-C ) :   1.6168
B( 78-C , 80-Br) :   1.0193 B( 79-C ,100-H ) :   1.0006

-----------------------------------------------------------------------------
         ABSORPTION SPECTRUM VIA TRANSITION ELECTRIC DIPOLE MOMENTS
-----------------------------------------------------------------------------
State   Energy  Wavelength   fosc         T2         TX        TY        TZ
        (cm-1)    (nm)                  (au**2)     (au)      (au)      (au)
-----------------------------------------------------------------------------
   0   11967.6    835.6   0.793093686  21.81685   4.55705  -0.39767   0.94448
   1   13049.8    766.3   0.117080518   2.95363   1.69022  -0.19207  -0.24474
   2   18347.0    545.0   1.856889983  33.31933  -5.54917   0.33683  -1.55325
   3   20111.8    497.2   0.424807946   6.95372  -2.48388  -0.09071   0.88082
   4   20994.4    476.3   0.023726203   0.37205  -0.09367   0.04510   0.60103
   5   22217.6    450.1   0.088780476   1.31551   1.08121   0.27937   0.26163
   6   24628.4    406.0   0.230713833   3.08399  -1.70150   0.36933  -0.22911
   7   25554.1    391.3   0.056747234   0.73107  -0.77173  -0.36810  -0.00045
   8   26049.9    383.9   0.202231893   2.55575   1.57856  -0.09244   0.23526
   9   27074.8    369.3   0.089651650   1.09011   0.25644   1.00323   0.13366
  10   27098.2    369.0   0.013452722   0.16344  -0.16369   0.19854  -0.31180
  11   27504.9    363.6   0.046696064   0.55891  -0.14459   0.53818   0.49837
  12   28303.1    353.3   0.245030985   2.85012   1.51169   0.22904   0.71585
  13   28666.8    348.8   0.014082640   0.16173   0.26056  -0.21133   0.22176
  14   28762.3    347.7   0.038842987   0.44459   0.28585  -0.59558  -0.09035
  15   29074.2    343.9   0.282097570   3.19423  -1.11388  -1.33973  -0.39828
  16   29377.8    340.4   0.003453196   0.03870  -0.11813  -0.14300   0.06552
  17   29589.9    338.0   0.168211334   1.87149   1.31889   0.31076   0.18826
  18   29842.5    335.1   0.068511452   0.75579  -0.79667  -0.29596  -0.18307
  19   30129.3    331.9   0.146864854   1.60474  -0.98928  -0.70938  -0.35050
  20   30953.6    323.1   0.062893951   0.66892  -0.81487   0.05336   0.04538
  21   31087.2    321.7   0.530662837   5.61970  -0.33027   2.10807   1.03280
  22   31515.3    317.3   0.202718857   2.11762  -0.30584  -1.30143  -0.57478
  23   31926.4    313.2   0.145445946   1.49978   0.93855   0.76574   0.18040
  24   32445.7    308.2   0.074523462   0.75616   0.61351   0.02348   0.61580
  25   32525.9    307.4   0.003403340   0.03445  -0.07380  -0.13154  -0.10816
  26   32712.6    305.7   0.304158897   3.06098   1.55160   0.60268   0.53878
  27   32823.2    304.7   0.662504588   6.64482   0.27781   2.38099   0.94791
  28   33296.5    300.3   0.174789999   1.72820   1.11152   0.62331   0.32282
  29   33500.1    298.5   0.028658440   0.28163   0.46495   0.20403  -0.15436
  30   33640.2    297.3   0.002074845   0.02031   0.10867   0.09026  -0.01867
  31   33807.2    295.8   0.239177266   2.32909  -0.88689  -1.18328  -0.37729
  32   34041.6    293.8   0.119150182   1.15228  -1.05810   0.17831  -0.03011
  33   34369.2    291.0   0.281767937   2.69897  -0.18566  -1.43868  -0.77117
  34   34452.5    290.3   0.075494678   0.72139   0.78141   0.32557   0.06926
  35   34713.7    288.1   0.249095918   2.36234   1.53533  -0.06499  -0.02947
  36   34846.8    287.0   0.007700290   0.07275  -0.26386   0.04386  -0.03468
  37   34872.0    286.8   0.192723906   1.81942   0.07727   1.25528   0.48757
  38   35146.3    284.5   0.027825069   0.26063   0.02762  -0.50950  -0.01666
  39   35377.5    282.7   0.059741138   0.55593   0.67018  -0.23697  -0.22502
  40   35747.7    279.7   0.004251074   0.03915   0.14364  -0.06574  -0.11915
  41   35803.9    279.3   0.033975745   0.31240   0.48039  -0.16086  -0.23611
  42   36053.9    277.4   0.143021341   1.30594   0.68743  -0.83158  -0.37663
  43   36151.2    276.6   0.095705238   0.87154   0.54709   0.68417   0.32272
  44   36577.7    273.4   0.008175203   0.07358  -0.23522  -0.04243  -0.12826
  45   36702.0    272.5   0.068586314   0.61521   0.53997  -0.41311  -0.39113
  46   36833.6    271.5   0.040730928   0.36405   0.54920   0.18744   0.16520
  47   37433.4    267.1   0.015095113   0.13276  -0.36133   0.00044  -0.04687
  48   37987.5    263.2   0.035202140   0.30507   0.37566   0.34849   0.20617
  49   38270.6    261.3   0.039122078   0.33654   0.18751  -0.51892  -0.17916
  50   38740.4    258.1   0.018981961   0.16131   0.24073   0.31504  -0.06405
  51   39033.6    256.2   0.149260881   1.25887  -0.83494   0.56437   0.49320
  52   39103.8    255.7   0.107987449   0.90914  -0.89410   0.27305  -0.18752
  53   39506.0    253.1   0.013497536   0.11248  -0.22496  -0.23777  -0.07304
  54   39549.3    252.8   0.011071787   0.09216   0.22757   0.09850   0.17513
  55   39728.4    251.7   0.022630017   0.18753   0.39971  -0.11591   0.11968
  56   39876.8    250.8   0.025171136   0.20781  -0.43710  -0.12711   0.02441
  57   40011.3    249.9   0.063561270   0.52298  -0.68762   0.17814   0.13576
  58   40122.1    249.2   0.070740655   0.58044  -0.25682   0.43657   0.56912

FINAL SINGLE POINT ENERGY    -10893.551423052855

DIPOLE MOMENT
-------------
                                X             Y             Z
Electronic contribution:    -11.79801      15.55551     -38.85312
Nuclear contribution   :      9.78914     -10.91925      42.23380
                        -----------------------------------------
Total Dipole Moment    :     -2.00887       4.63626       3.38067
                        -----------------------------------------
Magnitude (a.u.)       :      6.07942
Magnitude (Debye)      :     15.45267

Rotational constants in cm-1:     0.001643     0.000088     0.000085
Rotational constants in MHz :    49.254483     2.632520     2.552711

                             ****ORCA TERMINATED NORMALLY****
TOTAL RUN TIME: 0 days 0 hours 12 minutes 1 seconds 854 msec
