                         Program Version 4.2.0 -  RELEASE  -
|  1> # ORCA input file
|  2> # SCF done       -216.393592360787          0.000864493913
|  3> ! CAM-B3LYP def2-SVP def2/J RIJCOSX Grid4 TightSCF
|  4> %maxcore 5000
|  5> %tddft
|  6>     Mode sTDDFT
|  7>     Ethresh 5.0
|  8>     maxcore 5000
|  9> end
| 10>
| 11> %pal
| 12>   nprocs 6
| 13>   end
| 14> * xyz 0 1
| 15>    C       -2.26848        -2.77895         0.76590
| 16>    C       -2.82530        -3.79695         0.03426
| 17>    C       -2.20322        -5.04430        -0.18402
| 18>    N       -1.75567        -6.08071        -0.39201
| 19>    C       -4.06527        -3.74486        -0.63665
| 20>    N       -5.04906        -3.77538        -1.22900
| 21>    C       -0.93843        -2.80030         1.36095
| 22>    C       -0.66333        -1.51996         1.89878
| 23>    C        0.52198        -1.21501         2.52256
| 24>    C        1.48479        -2.22479         2.62037
| 25>    C        1.20068        -3.50337         2.08262
| 26>    C        0.00147        -3.81044         1.45207
| 27>    S        2.52521        -4.60313         2.31513
| 28>    C        3.43109        -3.34823         3.11858
| 29>    C        2.77692        -2.16580         3.20996
| 30>   Br        5.15282        -3.71896         3.76184
| 31>    C       -1.82037        -0.63095         1.68034
| 32>    O       -1.90675         0.52375         2.03929
| 33>    C       -2.84382        -1.46688         1.00759
| 34>    C       -4.15569        -1.15239         0.77639
| 35>    C       -4.82357         0.08537         0.83629
| 36>    C       -4.36444         1.39586         0.90271
| 37>    C       -5.39975         2.31768         0.84149
| 38>    C       -6.67540         1.71481         0.74069
| 39>    S       -6.58866         0.01957         0.69610
| 40>    C       -7.65094         2.73506         0.68633
| 41>    C       -7.00524         3.98379         0.73825
| 42>    C       -5.56827         3.76155         0.83723
| 43>    C       -4.59414         4.71302         0.89166
| 44>    C       -3.21650         4.40462         0.93693
| 45>    N       -2.09132         4.18794         0.95038
| 46>    C       -4.89863         6.09178         0.88776
| 47>    N       -5.14808         7.21062         0.89009
| 48>    C       -7.88926         5.05732         0.65793
| 49>    C       -9.20606         4.63578         0.55186
| 50>    S       -9.34825         2.88656         0.55521
| 51>    C      -10.36273         5.44633         0.42286
| 52>    C      -10.41645         6.81711         0.23266
| 53>    C      -11.72736         7.27433         0.11111
| 54>    C      -12.68382         6.24616         0.22142
| 55>    S      -11.96402         4.71869         0.46438
| 56>    C      -13.97684         6.80134         0.07259
| 57>    C      -13.83740         8.18760        -0.14575
| 58>    C      -12.42273         8.52856        -0.12260
| 59>    C      -11.87765         9.76722        -0.29259
| 60>    C      -10.48488         9.99024        -0.25967
| 61>    N       -9.35318        10.17066        -0.23734
| 62>    C      -12.68546        10.90164        -0.51650
| 63>    N      -13.35414        11.81396        -0.70558
| 64>    C      -15.05406         8.82826        -0.33228
| 65>    C      -16.13012         7.95287        -0.24508
| 66>    S      -15.60992         6.30094         0.07205
| 67>    C      -17.48813         8.29460        -0.38774
| 68>    C      -18.49668         7.37047        -0.22631
| 69>    C      -19.83881         7.85585        -0.37229
| 70>    O      -20.88778         7.01557        -0.36498
| 71>    C      -20.55709         5.63570        -0.38367
| 72>    C      -19.37018         5.36158         0.53205
| 73>    O      -18.23832         6.07234         0.07049
| 74>    C      -19.96337         9.22250        -0.60064
| 75>   Si      -18.24784         9.98276        -0.71526
| 76>    C      -17.92404        11.19253         0.67115
| 77>    C      -17.85795        10.63221        -2.42651
| 78>    C      -21.16287         9.92183        -0.76718
| 79>    C      -22.46674         9.62229        -0.43370
| 80>    C      -23.55249        10.36302        -1.11852
| 81>    O      -23.44094        11.33478        -1.83034
| 82>    C      -24.80127         9.63508        -0.77571
| 83>    C      -24.49218         8.60100         0.12557
| 84>    C      -25.48882         7.74587         0.56239
| 85>    C      -26.79306         7.93402         0.10570
| 86>    C      -27.09141         8.97615        -0.78597
| 87>    C      -26.08389         9.84032        -1.23075
| 88>    C      -28.41393         9.20851        -1.24166
| 89>    N      -29.44717         9.49947        -1.64021
| 90>    C      -27.89614         6.99525         0.49834
| 91>    O      -28.80833         6.73961        -0.23428
| 92>    O      -27.80347         6.44402         1.71558
| 93>    C      -23.06266         8.66508         0.44472
| 94>    C      -22.48105         8.05531         1.53569
| 95>    C      -21.18468         8.34724         1.98715
| 96>    N      -20.12318         8.55581         2.37539
| 97>    C      -23.14565         7.13043         2.35928
| 98>    N      -23.64631         6.34882         3.03726
| 99>    H        0.70037        -0.22796         2.91935
|100>    H       -0.16798        -4.80051         1.06342
|101>    H        3.18688        -1.28732         3.67377
|102>    H       -4.80632        -1.97578         0.50476
|103>    H       -3.32190         1.63961         0.99434
|104>    H       -7.60384         6.09255         0.67858
|105>    H       -9.54189         7.43812         0.17347
|106>    H      -15.18635         9.87623        -0.52336
|107>    H      -20.31133         5.33669        -1.41072
|108>    H      -21.44862         5.10194        -0.05051
|109>    H      -19.09883         4.30563         0.52502
|110>    H      -19.61114         5.67730         1.55579
|111>    H      -18.15781        10.75928         1.64307
|112>    H      -18.53254        12.08931         0.56820
|113>    H      -16.88657        11.52022         0.70293
|114>    H      -17.98758         9.87828        -3.20160
|115>    H      -16.83266        10.99009        -2.49709
|116>    H      -18.49906        11.47121        -2.68938
|117>    H      -21.06913        10.86152        -1.30453
|118>    H      -25.25458         6.91469         1.21090
|119>    H      -26.30751        10.64369        -1.91602
|120>    H      -27.03829         6.73984         2.22804
|121> *
|122>
|123>                          ****END OF INPUT****

CARTESIAN COORDINATES (ANGSTROEM)
---------------------------------
  C     -2.268480   -2.778950    0.765900
  C     -2.825300   -3.796950    0.034260
  C     -2.203220   -5.044300   -0.184020
  N     -1.755670   -6.080710   -0.392010
  C     -4.065270   -3.744860   -0.636650
  N     -5.049060   -3.775380   -1.229000
  C     -0.938430   -2.800300    1.360950
  C     -0.663330   -1.519960    1.898780
  C      0.521980   -1.215010    2.522560
  C      1.484790   -2.224790    2.620370
  C      1.200680   -3.503370    2.082620
  C      0.001470   -3.810440    1.452070
  S      2.525210   -4.603130    2.315130
  C      3.431090   -3.348230    3.118580
  C      2.776920   -2.165800    3.209960
  Br     5.152820   -3.718960    3.761840
  C     -1.820370   -0.630950    1.680340
  O     -1.906750    0.523750    2.039290
  C     -2.843820   -1.466880    1.007590
  C     -4.155690   -1.152390    0.776390
  C     -4.823570    0.085370    0.836290
  C     -4.364440    1.395860    0.902710
  C     -5.399750    2.317680    0.841490
  C     -6.675400    1.714810    0.740690
  S     -6.588660    0.019570    0.696100
  C     -7.650940    2.735060    0.686330
  C     -7.005240    3.983790    0.738250
  C     -5.568270    3.761550    0.837230
  C     -4.594140    4.713020    0.891660
  C     -3.216500    4.404620    0.936930
  N     -2.091320    4.187940    0.950380
  C     -4.898630    6.091780    0.887760
  N     -5.148080    7.210620    0.890090
  C     -7.889260    5.057320    0.657930
  C     -9.206060    4.635780    0.551860
  S     -9.348250    2.886560    0.555210
  C    -10.362730    5.446330    0.422860
  C    -10.416450    6.817110    0.232660
  C    -11.727360    7.274330    0.111110
  C    -12.683820    6.246160    0.221420
  S    -11.964020    4.718690    0.464380
  C    -13.976840    6.801340    0.072590
  C    -13.837400    8.187600   -0.145750
  C    -12.422730    8.528560   -0.122600
  C    -11.877650    9.767220   -0.292590
  C    -10.484880    9.990240   -0.259670
  N     -9.353180   10.170660   -0.237340
  C    -12.685460   10.901640   -0.516500
  N    -13.354140   11.813960   -0.705580
  C    -15.054060    8.828260   -0.332280
  C    -16.130120    7.952870   -0.245080
  S    -15.609920    6.300940    0.072050
  C    -17.488130    8.294600   -0.387740
  C    -18.496680    7.370470   -0.226310
  C    -19.838810    7.855850   -0.372290
  O    -20.887780    7.015570   -0.364980
  C    -20.557090    5.635700   -0.383670
  C    -19.370180    5.361580    0.532050
  O    -18.238320    6.072340    0.070490
  C    -19.963370    9.222500   -0.600640
  Si   -18.247840    9.982760   -0.715260
  C    -17.924040   11.192530    0.671150
  C    -17.857950   10.632210   -2.426510
  C    -21.162870    9.921830   -0.767180
  C    -22.466740    9.622290   -0.433700
  C    -23.552490   10.363020   -1.118520
  O    -23.440940   11.334780   -1.830340
  C    -24.801270    9.635080   -0.775710
  C    -24.492180    8.601000    0.125570
  C    -25.488820    7.745870    0.562390
  C    -26.793060    7.934020    0.105700
  C    -27.091410    8.976150   -0.785970
  C    -26.083890    9.840320   -1.230750
  C    -28.413930    9.208510   -1.241660
  N    -29.447170    9.499470   -1.640210
  C    -27.896140    6.995250    0.498340
  O    -28.808330    6.739610   -0.234280
  O    -27.803470    6.444020    1.715580
  C    -23.062660    8.665080    0.444720
  C    -22.481050    8.055310    1.535690
  C    -21.184680    8.347240    1.987150
  N    -20.123180    8.555810    2.375390
  C    -23.145650    7.130430    2.359280
  N    -23.646310    6.348820    3.037260
  H      0.700370   -0.227960    2.919350
  H     -0.167980   -4.800510    1.063420
  H      3.186880   -1.287320    3.673770
  H     -4.806320   -1.975780    0.504760
  H     -3.321900    1.639610    0.994340
  H     -7.603840    6.092550    0.678580
  H     -9.541890    7.438120    0.173470
  H    -15.186350    9.876230   -0.523360
  H    -20.311330    5.336690   -1.410720
  H    -21.448620    5.101940   -0.050510
  H    -19.098830    4.305630    0.525020
  H    -19.611140    5.677300    1.555790
  H    -18.157810   10.759280    1.643070
  H    -18.532540   12.089310    0.568200
  H    -16.886570   11.520220    0.702930
  H    -17.987580    9.878280   -3.201600
  H    -16.832660   10.990090   -2.497090
  H    -18.499060   11.471210   -2.689380
  H    -21.069130   10.861520   -1.304530
  H    -25.254580    6.914690    1.210900
  H    -26.307510   10.643690   -1.916020
  H    -27.038290    6.739840    2.228040

 Total Charge           Charge          ....    0
 Multiplicity           Mult            ....    1
 Number of Electrons    NEL             ....  634
 Basis Dimension        Dim             .... 1328

ORBITAL ENERGIES
----------------

  NO   OCC          E(Eh)            E(eV)
   0   2.0000    -482.887544    -13140.0381
   1   2.0000     -89.006499     -2421.9900
   2   2.0000     -89.005820     -2421.9715
   3   2.0000     -89.001912     -2421.8651
   4   2.0000     -88.996647     -2421.7219
   5   2.0000     -88.978050     -2421.2158
   6   2.0000     -66.217822     -1801.8785
   7   2.0000     -62.565246     -1702.4869
   8   2.0000     -56.399198     -1534.7002
   9   2.0000     -56.396478     -1534.6262
  10   2.0000     -56.396447     -1534.6254
  11   2.0000     -19.312253      -525.5131
  12   2.0000     -19.297517      -525.1121
  13   2.0000     -19.273833      -524.4677
  14   2.0000     -19.227414      -523.2045
  15   2.0000     -19.222443      -523.0693
  16   2.0000     -19.212772      -522.8061
  17   2.0000     -14.442345      -392.9962
  18   2.0000     -14.439304      -392.9134
  19   2.0000     -14.438554      -392.8930
  20   2.0000     -14.435715      -392.8158
  21   2.0000     -14.432111      -392.7177
  22   2.0000     -14.432035      -392.7156
  23   2.0000     -14.420615      -392.4049
  24   2.0000     -14.417785      -392.3279
  25   2.0000     -14.408070      -392.0635
  26   2.0000     -10.418251      -283.4950
  27   2.0000     -10.394750      -282.8555
  28   2.0000     -10.377164      -282.3770
  29   2.0000     -10.375837      -282.3409
  30   2.0000     -10.375806      -282.3400
  31   2.0000     -10.375261      -282.3252
  32   2.0000     -10.373862      -282.2871
  33   2.0000     -10.372537      -282.2511
  34   2.0000     -10.371260      -282.2163
  35   2.0000     -10.363038      -281.9926
  36   2.0000     -10.361748      -281.9575
  37   2.0000     -10.361361      -281.9470
  38   2.0000     -10.353092      -281.7219
  39   2.0000     -10.351705      -281.6842
  40   2.0000     -10.350307      -281.6462
  41   2.0000     -10.349019      -281.6111
  42   2.0000     -10.347071      -281.5581
  43   2.0000     -10.345849      -281.5249
  44   2.0000     -10.345274      -281.5092
  45   2.0000     -10.344585      -281.4905
  46   2.0000     -10.344445      -281.4867
  47   2.0000     -10.344370      -281.4846
  48   2.0000     -10.342785      -281.4415
  49   2.0000     -10.339512      -281.3524
  50   2.0000     -10.339085      -281.3408
  51   2.0000     -10.338105      -281.3141
  52   2.0000     -10.336420      -281.2683
  53   2.0000     -10.335334      -281.2387
  54   2.0000     -10.334596      -281.2187
  55   2.0000     -10.334519      -281.2166
  56   2.0000     -10.333782      -281.1965
  57   2.0000     -10.332444      -281.1601
  58   2.0000     -10.332147      -281.1520
  59   2.0000     -10.330351      -281.1031
  60   2.0000     -10.328349      -281.0487
  61   2.0000     -10.325369      -280.9676
  62   2.0000     -10.324214      -280.9361
  63   2.0000     -10.323826      -280.9256
  64   2.0000     -10.323026      -280.9038
  65   2.0000     -10.322361      -280.8857
  66   2.0000     -10.320832      -280.8441
  67   2.0000     -10.317565      -280.7552
  68   2.0000     -10.317122      -280.7432
  69   2.0000     -10.316020      -280.7132
  70   2.0000     -10.314684      -280.6768
  71   2.0000     -10.313858      -280.6544
  72   2.0000     -10.313801      -280.6528
  73   2.0000     -10.313252      -280.6379
  74   2.0000     -10.312415      -280.6151
  75   2.0000     -10.311121      -280.5799
  76   2.0000     -10.310318      -280.5580
  77   2.0000     -10.308524      -280.5092
  78   2.0000     -10.307896      -280.4921
  79   2.0000     -10.305294      -280.4213
  80   2.0000     -10.303610      -280.3755
  81   2.0000     -10.299806      -280.2720
  82   2.0000     -10.298888      -280.2470
  83   2.0000     -10.297765      -280.2164
  84   2.0000     -10.295323      -280.1500
  85   2.0000     -10.284123      -279.8452
  86   2.0000     -10.269528      -279.4481
  87   2.0000     -10.263193      -279.2757
  88   2.0000      -8.794676      -239.3153
  89   2.0000      -8.101282      -220.4471
  90   2.0000      -8.100639      -220.4296
  91   2.0000      -8.096685      -220.3220
  92   2.0000      -8.090392      -220.1508
  93   2.0000      -8.074019      -219.7052
  94   2.0000      -6.630975      -180.4380
  95   2.0000      -6.616420      -180.0419
  96   2.0000      -6.616200      -180.0359
  97   2.0000      -6.070614      -165.1898
  98   2.0000      -6.069926      -165.1711
  99   2.0000      -6.066405      -165.0753
 100   2.0000      -6.065797      -165.0587
 101   2.0000      -6.065745      -165.0573
 102   2.0000      -6.063491      -164.9960
 103   2.0000      -6.062905      -164.9800
 104   2.0000      -6.061679      -164.9467
 105   2.0000      -6.059753      -164.8943
 106   2.0000      -6.059215      -164.8796
 107   2.0000      -6.055201      -164.7704
 108   2.0000      -6.052902      -164.7078
 109   2.0000      -6.043698      -164.4574
 110   2.0000      -6.039428      -164.3412
 111   2.0000      -6.035257      -164.2277
 112   2.0000      -5.384291      -146.5140
 113   2.0000      -3.748165      -101.9928
 114   2.0000      -3.746286      -101.9416
 115   2.0000      -3.744972      -101.9059
 116   2.0000      -2.746865       -74.7460
 117   2.0000      -2.742754       -74.6341
 118   2.0000      -2.742598       -74.6299
 119   2.0000      -2.731017       -74.3147
 120   2.0000      -2.731011       -74.3146
 121   2.0000      -1.232836       -33.5472
 122   2.0000      -1.197313       -32.5805
 123   2.0000      -1.192386       -32.4465
 124   2.0000      -1.141977       -31.0748
 125   2.0000      -1.138154       -30.9707
 126   2.0000      -1.112570       -30.2746
 127   2.0000      -1.059543       -28.8316
 128   2.0000      -1.055293       -28.7160
 129   2.0000      -1.035003       -28.1639
 130   2.0000      -1.033094       -28.1119
 131   2.0000      -1.029972       -28.0270
 132   2.0000      -1.026489       -27.9322
 133   2.0000      -1.019078       -27.7305
 134   2.0000      -1.018737       -27.7212
 135   2.0000      -1.017983       -27.7007
 136   2.0000      -1.016737       -27.6668
 137   2.0000      -1.013685       -27.5838
 138   2.0000      -1.012068       -27.5398
 139   2.0000      -1.004220       -27.3262
 140   2.0000      -0.998070       -27.1589
 141   2.0000      -0.994613       -27.0648
 142   2.0000      -0.993228       -27.0271
 143   2.0000      -0.977430       -26.5972
 144   2.0000      -0.970402       -26.4060
 145   2.0000      -0.967017       -26.3139
 146   2.0000      -0.961507       -26.1639
 147   2.0000      -0.946744       -25.7622
 148   2.0000      -0.932483       -25.3741
 149   2.0000      -0.921859       -25.0851
 150   2.0000      -0.918193       -24.9853
 151   2.0000      -0.911506       -24.8033
 152   2.0000      -0.905191       -24.6315
 153   2.0000      -0.899313       -24.4715
 154   2.0000      -0.893017       -24.3002
 155   2.0000      -0.888725       -24.1834
 156   2.0000      -0.888293       -24.1717
 157   2.0000      -0.884101       -24.0576
 158   2.0000      -0.876092       -23.8397
 159   2.0000      -0.872627       -23.7454
 160   2.0000      -0.866889       -23.5893
 161   2.0000      -0.865141       -23.5417
 162   2.0000      -0.859138       -23.3783
 163   2.0000      -0.837064       -22.7777
 164   2.0000      -0.832011       -22.6402
 165   2.0000      -0.823389       -22.4055
 166   2.0000      -0.811943       -22.0941
 167   2.0000      -0.804472       -21.8908
 168   2.0000      -0.797637       -21.7048
 169   2.0000      -0.796637       -21.6776
 170   2.0000      -0.785344       -21.3703
 171   2.0000      -0.784494       -21.3472
 172   2.0000      -0.781851       -21.2752
 173   2.0000      -0.764389       -20.8001
 174   2.0000      -0.759849       -20.6765
 175   2.0000      -0.754486       -20.5306
 176   2.0000      -0.745204       -20.2780
 177   2.0000      -0.732890       -19.9429
 178   2.0000      -0.720315       -19.6008
 179   2.0000      -0.719564       -19.5803
 180   2.0000      -0.709487       -19.3061
 181   2.0000      -0.706412       -19.2224
 182   2.0000      -0.702538       -19.1170
 183   2.0000      -0.700678       -19.0664
 184   2.0000      -0.699833       -19.0434
 185   2.0000      -0.694602       -18.9011
 186   2.0000      -0.694002       -18.8847
 187   2.0000      -0.685102       -18.6426
 188   2.0000      -0.684215       -18.6184
 189   2.0000      -0.677549       -18.4370
 190   2.0000      -0.668287       -18.1850
 191   2.0000      -0.662946       -18.0397
 192   2.0000      -0.656930       -17.8760
 193   2.0000      -0.652187       -17.7469
 194   2.0000      -0.645162       -17.5557
 195   2.0000      -0.644104       -17.5270
 196   2.0000      -0.641254       -17.4494
 197   2.0000      -0.635728       -17.2990
 198   2.0000      -0.630952       -17.1691
 199   2.0000      -0.628398       -17.0996
 200   2.0000      -0.625029       -17.0079
 201   2.0000      -0.621740       -16.9184
 202   2.0000      -0.609890       -16.5959
 203   2.0000      -0.608296       -16.5526
 204   2.0000      -0.602441       -16.3933
 205   2.0000      -0.596700       -16.2370
 206   2.0000      -0.591841       -16.1048
 207   2.0000      -0.589688       -16.0462
 208   2.0000      -0.581965       -15.8361
 209   2.0000      -0.577519       -15.7151
 210   2.0000      -0.574448       -15.6315
 211   2.0000      -0.570049       -15.5118
 212   2.0000      -0.563629       -15.3371
 213   2.0000      -0.563205       -15.3256
 214   2.0000      -0.561734       -15.2856
 215   2.0000      -0.558165       -15.1884
 216   2.0000      -0.556773       -15.1506
 217   2.0000      -0.555830       -15.1249
 218   2.0000      -0.550669       -14.9845
 219   2.0000      -0.546797       -14.8791
 220   2.0000      -0.545482       -14.8433
 221   2.0000      -0.543698       -14.7948
 222   2.0000      -0.541253       -14.7282
 223   2.0000      -0.539444       -14.6790
 224   2.0000      -0.537397       -14.6233
 225   2.0000      -0.533663       -14.5217
 226   2.0000      -0.532626       -14.4935
 227   2.0000      -0.527653       -14.3582
 228   2.0000      -0.525702       -14.3051
 229   2.0000      -0.522114       -14.2074
 230   2.0000      -0.521096       -14.1797
 231   2.0000      -0.519349       -14.1322
 232   2.0000      -0.518057       -14.0971
 233   2.0000      -0.514714       -14.0061
 234   2.0000      -0.513713       -13.9789
 235   2.0000      -0.511998       -13.9322
 236   2.0000      -0.509465       -13.8633
 237   2.0000      -0.508312       -13.8319
 238   2.0000      -0.506470       -13.7817
 239   2.0000      -0.504911       -13.7393
 240   2.0000      -0.504460       -13.7271
 241   2.0000      -0.502184       -13.6651
 242   2.0000      -0.500764       -13.6265
 243   2.0000      -0.497616       -13.5408
 244   2.0000      -0.495591       -13.4857
 245   2.0000      -0.493997       -13.4423
 246   2.0000      -0.493809       -13.4372
 247   2.0000      -0.488934       -13.3046
 248   2.0000      -0.488403       -13.2901
 249   2.0000      -0.486065       -13.2265
 250   2.0000      -0.483454       -13.1555
 251   2.0000      -0.480680       -13.0800
 252   2.0000      -0.477300       -12.9880
 253   2.0000      -0.476757       -12.9732
 254   2.0000      -0.474466       -12.9109
 255   2.0000      -0.471825       -12.8390
 256   2.0000      -0.467734       -12.7277
 257   2.0000      -0.467612       -12.7244
 258   2.0000      -0.467329       -12.7167
 259   2.0000      -0.467050       -12.7091
 260   2.0000      -0.463585       -12.6148
 261   2.0000      -0.462312       -12.5802
 262   2.0000      -0.461313       -12.5530
 263   2.0000      -0.460044       -12.5184
 264   2.0000      -0.458224       -12.4689
 265   2.0000      -0.455479       -12.3942
 266   2.0000      -0.453026       -12.3275
 267   2.0000      -0.451400       -12.2832
 268   2.0000      -0.450744       -12.2654
 269   2.0000      -0.449631       -12.2351
 270   2.0000      -0.449173       -12.2226
 271   2.0000      -0.447050       -12.1648
 272   2.0000      -0.446854       -12.1595
 273   2.0000      -0.446258       -12.1433
 274   2.0000      -0.445543       -12.1238
 275   2.0000      -0.445369       -12.1191
 276   2.0000      -0.442157       -12.0317
 277   2.0000      -0.441930       -12.0255
 278   2.0000      -0.438630       -11.9357
 279   2.0000      -0.437741       -11.9115
 280   2.0000      -0.435480       -11.8500
 281   2.0000      -0.432624       -11.7723
 282   2.0000      -0.431751       -11.7485
 283   2.0000      -0.430789       -11.7224
 284   2.0000      -0.427637       -11.6366
 285   2.0000      -0.426263       -11.5992
 286   2.0000      -0.424671       -11.5559
 287   2.0000      -0.420468       -11.4415
 288   2.0000      -0.418982       -11.4011
 289   2.0000      -0.415962       -11.3189
 290   2.0000      -0.412365       -11.2210
 291   2.0000      -0.411630       -11.2010
 292   2.0000      -0.410833       -11.1793
 293   2.0000      -0.405403       -11.0316
 294   2.0000      -0.404726       -11.0132
 295   2.0000      -0.401089       -10.9142
 296   2.0000      -0.394896       -10.7457
 297   2.0000      -0.388724       -10.5777
 298   2.0000      -0.376824       -10.2539
 299   2.0000      -0.376344       -10.2408
 300   2.0000      -0.374272       -10.1844
 301   2.0000      -0.370074       -10.0702
 302   2.0000      -0.365558        -9.9474
 303   2.0000      -0.359763        -9.7896
 304   2.0000      -0.359189        -9.7740
 305   2.0000      -0.356031        -9.6881
 306   2.0000      -0.348774        -9.4906
 307   2.0000      -0.345619        -9.4048
 308   2.0000      -0.336224        -9.1491
 309   2.0000      -0.334393        -9.0993
 310   2.0000      -0.331314        -9.0155
 311   2.0000      -0.326548        -8.8858
 312   2.0000      -0.318551        -8.6682
 313   2.0000      -0.309646        -8.4259
 314   2.0000      -0.296535        -8.0691
 315   2.0000      -0.278552        -7.5798
 316   2.0000      -0.249871        -6.7993
 317   0.0000      -0.126205        -3.4342
 318   0.0000      -0.113010        -3.0752
 319   0.0000      -0.100520        -2.7353
 320   0.0000      -0.093858        -2.5540
 321   0.0000      -0.087837        -2.3902

MULLIKEN ATOMIC CHARGES
-----------------------
   0 C :    0.309016
   1 C :   -0.350435
   2 C :   -0.183579
   3 N :    0.148159
   4 C :   -0.201495
   5 N :    0.153745
   6 C :    0.014241
   7 C :   -0.015885
   8 C :   -0.069651
   9 C :    0.118880
  10 C :   -0.091978
  11 C :   -0.018526
  12 S :    0.187743
  13 C :   -0.124550
  14 C :    0.041708
  15 Br:    0.026464
  16 C :    0.151961
  17 O :   -0.150463
  18 C :   -0.089876
  19 C :    0.031993
  20 C :   -0.115905
  21 C :    0.012266
  22 C :   -0.013122
  23 C :   -0.080234
  24 S :    0.205660
  25 C :   -0.106625
  26 C :    0.027942
  27 C :    0.302194
  28 C :   -0.286882
  29 C :   -0.187666
  30 N :    0.192537
  31 C :   -0.192191
  32 N :    0.179534
  33 C :   -0.053725
  34 C :   -0.046157
  35 S :    0.190004
  36 C :   -0.060551
  37 C :   -0.045427
  38 C :    0.015155
  39 C :   -0.101362
  40 S :    0.186005
  41 C :   -0.090523
  42 C :    0.037402
  43 C :    0.302202
  44 C :   -0.290121
  45 C :   -0.191795
  46 N :    0.183956
  47 C :   -0.185080
  48 N :    0.167081
  49 C :   -0.070388
  50 C :   -0.060562
  51 S :    0.205624
  52 C :   -0.161122
  53 C :    0.103002
  54 C :    0.131422
  55 O :   -0.266608
  56 C :    0.173488
  57 C :    0.175177
  58 O :   -0.316613
  59 C :   -0.211643
  60 Si:    0.466830
  61 C :   -0.178928
  62 C :   -0.180254
  63 C :    0.044696
  64 C :   -0.126545
  65 C :    0.137570
  66 O :   -0.135760
  67 C :    0.013958
  68 C :    0.032636
  69 C :   -0.100416
  70 C :    0.010195
  71 C :   -0.078860
  72 C :   -0.039446
  73 C :   -0.157602
  74 N :    0.142225
  75 C :    0.178508
  76 O :   -0.148981
  77 O :   -0.145477
  78 C :    0.306606
  79 C :   -0.348322
  80 C :   -0.185861
  81 N :    0.150243
  82 C :   -0.192989
  83 N :    0.134915
  84 H :   -0.006637
  85 H :   -0.006106
  86 H :   -0.001873
  87 H :    0.016159
  88 H :    0.037762
  89 H :    0.016477
  90 H :    0.016587
  91 H :    0.016720
  92 H :    0.048618
  93 H :    0.054603
  94 H :    0.048116
  95 H :    0.054644
  96 H :    0.072953
  97 H :    0.051846
  98 H :    0.049704
  99 H :    0.057242
 100 H :    0.053526
 101 H :    0.055990
 102 H :    0.018574
 103 H :   -0.004181
 104 H :    0.015755
 105 H :    0.190756
Sum of atomic charges:   -0.0000000

LOEWDIN ATOMIC CHARGES
----------------------
   0 C :    0.076580
   1 C :   -0.143896
   2 C :   -0.018525
   3 N :   -0.053308
   4 C :   -0.024735
   5 N :   -0.055018
   6 C :   -0.021988
   7 C :   -0.050597
   8 C :    0.024345
   9 C :   -0.031717
  10 C :   -0.143629
  11 C :   -0.009326
  12 S :    0.433846
  13 C :   -0.270821
  14 C :   -0.069424
  15 Br:    0.138847
  16 C :    0.085524
  17 O :   -0.138119
  18 C :   -0.096930
  19 C :    0.041687
  20 C :   -0.177160
  21 C :    0.021723
  22 C :   -0.075863
  23 C :   -0.158621
  24 S :    0.494541
  25 C :   -0.193543
  26 C :   -0.048358
  27 C :    0.074260
  28 C :   -0.089106
  29 C :   -0.021416
  30 N :   -0.013232
  31 C :   -0.017558
  32 N :   -0.023372
  33 C :   -0.028411
  34 C :   -0.169382
  35 S :    0.468993
  36 C :   -0.185318
  37 C :   -0.018848
  38 C :   -0.066674
  39 C :   -0.174923
  40 S :    0.467263
  41 C :   -0.187752
  42 C :   -0.068147
  43 C :    0.081285
  44 C :   -0.099283
  45 C :   -0.020414
  46 N :   -0.022706
  47 C :   -0.012367
  48 N :   -0.035880
  49 C :   -0.025992
  50 C :   -0.161820
  51 S :    0.493936
  52 C :   -0.177383
  53 C :    0.007048
  54 C :    0.076493
  55 O :   -0.042134
  56 C :    0.078545
  57 C :    0.077250
  58 O :   -0.097048
  59 C :   -0.220639
  60 Si:    0.680085
  61 C :   -0.239042
  62 C :   -0.239393
  63 C :    0.062158
  64 C :   -0.115176
  65 C :    0.082855
  66 O :   -0.136060
  67 C :   -0.033368
  68 C :    0.005423
  69 C :   -0.012021
  70 C :   -0.038785
  71 C :   -0.029321
  72 C :    0.047868
  73 C :   -0.034532
  74 N :   -0.028141
  75 C :    0.080082
  76 O :   -0.121391
  77 O :   -0.017407
  78 C :    0.065763
  79 C :   -0.157138
  80 C :   -0.010781
  81 N :   -0.067046
  82 C :   -0.023495
  83 N :   -0.072152
  84 H :    0.042610
  85 H :    0.041180
  86 H :    0.039558
  87 H :    0.043051
  88 H :    0.044727
  89 H :    0.043714
  90 H :    0.044225
  91 H :    0.037298
  92 H :    0.031360
  93 H :    0.041143
  94 H :    0.040203
  95 H :    0.032583
  96 H :    0.049705
  97 H :    0.042776
  98 H :    0.040642
  99 H :    0.043349
 100 H :    0.042584
 101 H :    0.043110
 102 H :    0.041953
 103 H :    0.033318
 104 H :    0.052639
 105 H :    0.098503

  Mayer bond orders larger than 0.100000
B(  0-C ,  1-C ) :   1.6205 B(  0-C ,  6-C ) :   1.0023 B(  0-C , 18-C ) :   1.0797
B(  1-C ,  2-C ) :   1.1433 B(  1-C ,  4-C ) :   1.1435 B(  2-C ,  3-N ) :   2.9691
B(  4-C ,  5-N ) :   2.9831 B(  6-C ,  7-C ) :   1.2749 B(  6-C , 11-C ) :   1.4076
B(  7-C ,  8-C ) :   1.4246 B(  7-C , 16-C ) :   0.9476 B(  8-C ,  9-C ) :   1.2429
B(  8-C , 84-H ) :   1.0171 B(  9-C , 10-C ) :   1.3047 B(  9-C , 14-C ) :   1.1646
B( 10-C , 11-C ) :   1.3318 B( 10-C , 12-S ) :   1.0869 B( 11-C , 85-H ) :   0.9796
B( 12-S , 13-C ) :   1.0867 B( 13-C , 14-C ) :   1.6170 B( 13-C , 15-Br) :   1.0207
B( 14-C , 86-H ) :   1.0003 B( 16-C , 17-O ) :   2.1825 B( 16-C , 18-C ) :   0.9427
B( 18-C , 19-C ) :   1.5933 B( 19-C , 20-C ) :   1.2120 B( 19-C , 87-H ) :   0.9173
B( 20-C , 21-C ) :   1.4001 B( 20-C , 24-S ) :   1.0724 B( 21-C , 22-C ) :   1.3249
B( 21-C , 88-H ) :   0.9727 B( 22-C , 23-C ) :   1.3742 B( 22-C , 27-C ) :   1.0013
B( 23-C , 24-S ) :   1.1668 B( 23-C , 25-C ) :   1.2129 B( 25-C , 26-C ) :   1.4319
B( 25-C , 35-S ) :   1.1052 B( 26-C , 27-C ) :   0.9924 B( 26-C , 33-C ) :   1.2982
B( 27-C , 28-C ) :   1.7186 B( 28-C , 29-C ) :   1.1341 B( 28-C , 31-C ) :   1.1345
B( 29-C , 30-N ) :   2.9943 B( 31-C , 32-N ) :   2.9877 B( 33-C , 34-C ) :   1.4725
B( 33-C , 89-H ) :   0.9938 B( 34-C , 35-S ) :   1.1103 B( 34-C , 36-C ) :   1.1275
B( 36-C , 37-C ) :   1.4801 B( 36-C , 40-S ) :   1.0931 B( 37-C , 38-C ) :   1.2954
B( 37-C , 90-H ) :   0.9933 B( 38-C , 39-C ) :   1.4310 B( 38-C , 43-C ) :   0.9933
B( 39-C , 40-S ) :   1.1256 B( 39-C , 41-C ) :   1.2021 B( 41-C , 42-C ) :   1.4134
B( 41-C , 51-S ) :   1.1053 B( 42-C , 43-C ) :   0.9977 B( 42-C , 49-C ) :   1.2937
B( 43-C , 44-C ) :   1.7154 B( 44-C , 45-C ) :   1.1312 B( 44-C , 47-C ) :   1.1335
B( 45-C , 46-N ) :   2.9935 B( 47-C , 48-N ) :   2.9904 B( 49-C , 50-C ) :   1.4027
B( 49-C , 91-H ) :   0.9911 B( 50-C , 51-S ) :   1.0889 B( 50-C , 52-C ) :   1.2089
B( 52-C , 53-C ) :   1.6085 B( 52-C , 60-Si) :   0.8445 B( 53-C , 54-C ) :   1.0790
B( 53-C , 58-O ) :   1.1224 B( 54-C , 55-O ) :   1.2017 B( 54-C , 59-C ) :   1.5005
B( 55-O , 56-C ) :   0.9108 B( 56-C , 57-C ) :   1.0793 B( 56-C , 92-H ) :   0.9464
B( 56-C , 93-H ) :   0.9525 B( 57-C , 58-O ) :   0.9310 B( 57-C , 94-H ) :   0.9516
B( 57-C , 95-H ) :   0.9451 B( 59-C , 60-Si) :   0.8598 B( 59-C , 63-C ) :   1.2751
B( 60-Si, 61-C ) :   1.0945 B( 60-Si, 62-C ) :   1.0797 B( 61-C , 96-H ) :   0.9398
B( 61-C , 97-H ) :   0.9450 B( 61-C , 98-H ) :   0.9470 B( 62-C , 99-H ) :   0.9440
B( 62-C ,100-H ) :   0.9474 B( 62-C ,101-H ) :   0.9491 B( 63-C , 64-C ) :   1.4717
B( 63-C ,102-H ) :   0.9290 B( 64-C , 65-C ) :   0.9634 B( 64-C , 78-C ) :   1.1398
B( 65-C , 66-O ) :   2.2600 B( 65-C , 67-C ) :   0.8958 B( 67-C , 68-C ) :   1.3446
B( 67-C , 72-C ) :   1.3659 B( 68-C , 69-C ) :   1.3954 B( 68-C , 78-C ) :   0.9856
B( 69-C , 70-C ) :   1.3103 B( 69-C ,103-H ) :   0.9661 B( 70-C , 71-C ) :   1.4071
B( 70-C , 75-C ) :   0.8706 B( 71-C , 72-C ) :   1.3538 B( 71-C , 73-C ) :   1.0677
B( 72-C ,104-H ) :   1.0163 B( 73-C , 74-N ) :   3.0406 B( 75-C , 76-O ) :   2.1704
B( 75-C , 77-O ) :   1.2520 B( 77-O ,105-H ) :   0.9464 B( 78-C , 79-C ) :   1.5666
B( 79-C , 80-C ) :   1.1988 B( 79-C , 82-C ) :   1.1451 B( 80-C , 81-N ) :   2.9299
B( 82-C , 83-N ) :   2.9692

-----------------------------------------------------------------------------
         ABSORPTION SPECTRUM VIA TRANSITION ELECTRIC DIPOLE MOMENTS
-----------------------------------------------------------------------------
State   Energy  Wavelength   fosc         T2         TX        TY        TZ
        (cm-1)    (nm)                  (au**2)     (au)      (au)      (au)
-----------------------------------------------------------------------------
   0   10915.7    916.1   0.680037084  20.50955   4.08950  -1.93856   0.16576
   1   13170.0    759.3   0.159847784   3.99572  -1.38072   1.44132  -0.10915
   2   16994.6    588.4   1.274799729  24.69480   4.84672  -1.03774  -0.35660
   3   19945.1    501.4   0.038948526   0.64288  -0.50432   0.60171  -0.16274
   4   20439.2    489.3   0.940683892  15.15150  -2.28904   3.10560  -0.51676
   5   21756.6    459.6   0.078708617   1.19099  -0.82369  -0.57118  -0.43160
   6   22586.5    442.7   0.126949613   1.85037   0.88090  -1.02989  -0.11709
   7   25342.0    394.6   0.036817438   0.47829   0.56057   0.14469   0.37830
   8   26600.4    375.9   0.082581266   1.02204   1.00023  -0.10111  -0.10656
   9   26931.0    371.3   0.193563208   2.36617  -1.18424   0.49888  -0.84550
  10   27458.4    364.2   0.026698937   0.32011   0.56525  -0.02379  -0.00524
  11   27607.6    362.2   0.024146950   0.28795   0.37450   0.37610   0.07900
  12   28026.9    356.8   0.020538613   0.24125  -0.33171   0.25661   0.25568
  13   28649.9    349.0   0.006749139   0.07755   0.18717  -0.13374   0.15694
  14   28828.7    346.9   0.036902111   0.42141   0.60923  -0.21023   0.07777
  15   29398.5    340.2   0.124626678   1.39560   1.09682  -0.42463   0.11081
  16   29681.2    336.9   0.179658578   1.99270  -0.74081   1.16773  -0.28339
  17   30125.1    331.9   0.192883753   2.10786  -1.23039  -0.22084  -0.73839
  18   30250.5    330.6   0.075779564   0.82470   0.83856  -0.34264   0.06412
  19   30409.2    328.8   0.132378449   1.43314   1.02811  -0.02961   0.61257
  20   31075.6    321.8   0.132459271   1.40326   1.14208   0.17531   0.26111
  21   31319.0    319.3   0.579935604   6.09604  -0.80788  -2.26769   0.54860
  22   31632.4    316.1   0.184961002   1.92497   0.78617   1.07112   0.39952
  23   32021.9    312.3   0.165279391   1.69921   1.15116   0.19632   0.57922
  24   32042.4    312.1   0.060071524   0.61719   0.52548   0.54781   0.20239
  25   32468.6    308.0   0.194617525   1.97330   1.35365  -0.25417   0.27628
  26   32762.7    305.2   0.027754036   0.27888  -0.50387   0.15324   0.03893
  27   32985.4    303.2   0.004955260   0.04946   0.11596  -0.09399   0.16485
  28   33125.0    301.9   0.034323440   0.34112   0.23023  -0.51056  -0.16566
  29   33519.0    298.3   0.011658404   0.11450  -0.12408  -0.27997  -0.14397
  30   33581.1    297.8   0.125778951   1.23307  -1.10058   0.12651   0.07607
  31   33854.9    295.4   0.197730144   1.92277   1.00119   0.95925   0.01508
  32   34024.5    293.9   0.329086405   3.18415  -1.30129  -0.78314  -0.93674
  33   34207.4    292.3   0.125209577   1.20502   0.36204  -1.03411   0.06744
  34   34667.2    288.5   0.047754696   0.45350   0.17977  -0.55866   0.33027
  35   34729.1    287.9   0.562555656   5.33271  -1.82457   0.70345  -1.22834
  36   35260.2    283.6   0.094632524   0.88355   0.56097   0.74082   0.14159
  37   35387.7    282.6   0.102060728   0.94947   0.58095  -0.70669   0.33549
  38   35633.0    280.6   0.020138758   0.18606  -0.39898  -0.05678  -0.15379
  39   36022.6    277.6   0.011309405   0.10336  -0.28878  -0.00200  -0.14128
  40   36134.7    276.7   0.021568452   0.19650   0.29698  -0.26058   0.20101
  41   36400.9    274.7   0.158776500   1.43599  -0.77038  -0.91260   0.09823
  42   36612.0    273.1   0.020580715   0.18506  -0.31417  -0.04000  -0.29113
  43   37137.2    269.3   0.015747913   0.13960   0.31883   0.19404  -0.01726
  44   37430.4    267.2   0.068304933   0.60076   0.24328   0.73201   0.07575
  45   37579.3    266.1   0.022732972   0.19915  -0.06739  -0.43870   0.04640
  46   37741.0    265.0   0.005992329   0.05227   0.09322   0.06021  -0.19989
  47   37827.7    264.4   0.018353715   0.15973  -0.25369   0.30257  -0.06182
  48   38413.3    260.3   0.041345017   0.35434   0.41688   0.42424   0.02397
  49   38769.5    257.9   0.114421938   0.97162   0.92736  -0.23810   0.23436
  50   38853.9    257.4   0.139229321   1.17970  -0.23877   1.01221   0.31325
  51   39056.5    256.0   0.044742513   0.37714  -0.26373   0.49964  -0.24073
  52   39170.1    255.3   0.016837499   0.14151  -0.33454  -0.00687  -0.17191
  53   39365.7    254.0   0.019785041   0.16546  -0.07323  -0.37282  -0.14528
  54   39577.9    252.7   0.011441149   0.09517   0.14306   0.21026   0.17462
  55   39849.1    250.9   0.104433350   0.86277   0.08370   0.81919   0.42976
  56   40052.8    249.7   0.031202395   0.25647   0.35399  -0.14605   0.33140
  57   40203.7    248.7   0.013542468   0.11089  -0.21551  -0.15009  -0.20475

FINAL SINGLE POINT ENERGY     -8169.322154821799

DIPOLE MOMENT
-------------
                                X             Y             Z
Electronic contribution:    225.40480    -118.84878      38.72983
Nuclear contribution   :   -223.46332     117.83885     -37.81679
                        -----------------------------------------
Total Dipole Moment    :      1.94148      -1.00992       0.91303
                        -----------------------------------------
Magnitude (a.u.)       :      2.37127
Magnitude (Debye)      :      6.02729

Rotational constants in cm-1:     0.001691     0.000112     0.000107
Rotational constants in MHz :    50.694477     3.359457     3.205472

                             ****ORCA TERMINATED NORMALLY****
TOTAL RUN TIME: 0 days 0 hours 13 minutes 57 seconds 733 msec
