                         Program Version 4.2.0 -  RELEASE  -
|  1> # ORCA input file
|  2> # SCF done       -196.724274463734          0.000377150443
|  3> ! CAM-B3LYP def2-SVP def2/J RIJCOSX Grid4 TightSCF
|  4> %maxcore 5000
|  5> %tddft
|  6>     Mode sTDDFT
|  7>     Ethresh 5.0
|  8>     maxcore 5000
|  9> end
| 10>
| 11> %pal
| 12>   nprocs 6
| 13>   end
| 14> * xyz 0 1
| 15>    C       -3.66057        -1.64068         4.35867
| 16>    C       -2.29559        -1.62196         4.23170
| 17>    C       -1.44481        -2.64500         4.70084
| 18>    N       -0.69967        -3.44121         5.05929
| 19>    C       -1.54158        -0.60943         3.60202
| 20>    N       -0.85716         0.16331         3.09848
| 21>    C       -4.43502        -2.71863         4.96682
| 22>    C       -5.81385        -2.42178         4.82990
| 23>    C       -6.80559        -3.24794         5.29982
| 24>    C       -6.41712        -4.42730         5.94358
| 25>    C       -5.03806        -4.71562         6.08143
| 26>    C       -4.03631        -3.87989         5.60162
| 27>    S       -4.78065        -6.21856         6.91308
| 28>    C       -6.50469        -6.43676         7.06177
| 29>    C       -7.23761        -5.43666         6.51699
| 30>   Br       -7.17117        -7.96298         7.92307
| 31>    C       -5.96014        -1.13266         4.13755
| 32>    O       -7.01037        -0.58812         3.84158
| 33>    C       -4.60164        -0.63896         3.89142
| 34>    C       -4.28456         0.59057         3.37170
| 35>    C       -5.11784         1.62090         2.91081
| 36>    C       -4.60155         2.85037         2.48051
| 37>    C       -5.58834         3.72694         2.07415
| 38>    C       -6.88192         3.15743         2.17469
| 39>    S       -6.87809         1.57014         2.78851
| 40>    C       -7.81808         4.12859         1.75053
| 41>    C       -7.13401         5.30345         1.38929
| 42>    C       -5.70742         5.08755         1.57514
| 43>    C       -4.70407         5.97951         1.33549
| 44>    C       -3.34602         5.66786         1.55883
| 45>    N       -2.24049         5.42503         1.74001
| 46>    C       -4.96100         7.27866         0.84895
| 47>    N       -5.17282         8.33411         0.45364
| 48>    C       -7.98640         6.32403         0.97512
| 49>    C       -9.31583         5.93644         1.00752
| 50>    S       -9.50874         4.27750         1.56367
| 51>    C      -10.45704         6.72397         0.67479
| 52>    C      -11.72593         6.19664         0.62488
| 53>    C      -12.88590         6.91261         0.33354
| 54>    C      -12.80169         8.34273        -0.00615
| 55>    C      -11.65642         9.05989        -0.02245
| 56>    S      -10.11485         8.41784         0.35410
| 57>    C      -14.12944         8.74533        -0.30905
| 58>    C      -14.98629         7.65269        -0.17822
| 59>    C      -16.32717         7.98979        -0.46732
| 60>    C      -16.44796         9.30012        -0.80481
| 61>    S      -14.95335        10.17597        -0.78451
| 62>    C      -14.23033         6.49902         0.23579
| 63>    C      -14.86198         5.24460         0.44079
| 64>    C      -14.34187         4.14212         1.03335
| 65>    C      -14.98111         2.86630         1.18605
| 66>    C      -16.29308         2.52805         0.81675
| 67>    F      -17.11487         3.44698         0.28172
| 68>    C      -16.80664         1.25724         0.98571
| 69>    F      -18.07965         1.05332         0.60036
| 70>    C      -16.07360         0.19442         1.53915
| 71>    C      -14.75894         0.52984         1.91134
| 72>    C      -14.24933         1.80042         1.74418
| 73>    F      -12.97689         2.02284         2.11877
| 74>    F      -13.94269        -0.40160         2.42608
| 75>    C      -16.62306        -1.12736         1.69783
| 76>    C      -16.11240        -2.18204         2.43255
| 77>    C      -16.90863        -3.32454         2.33639
| 78>    C      -18.03107        -3.13871         1.51790
| 79>    S      -18.12053        -1.56670         0.88174
| 80>    C      -18.77002        -4.35721         1.48303
| 81>    C      -18.11165        -5.30194         2.27680
| 82>    C      -16.92159        -4.69018         2.84400
| 83>    C      -16.01297        -5.27432         3.67668
| 84>    C      -14.88700        -4.58991         4.18108
| 85>    N      -13.96737        -4.05165         4.60447
| 86>    C      -16.13782        -6.61514         4.09855
| 87>    N      -16.23243        -7.70396         4.44558
| 88>    C      -18.77700        -6.54268         2.29761
| 89>    C      -19.90411        -6.51226         1.53340
| 90>    S      -20.18855        -4.98399         0.77031
| 91>    H       -7.84629        -2.99246         5.17652
| 92>    H       -3.00107        -4.14542         5.73458
| 93>    H       -8.31198        -5.40917         6.51841
| 94>    H       -3.23227         0.84200         3.31405
| 95>    H       -3.54633         3.06000         2.48340
| 96>    H       -7.66920         7.30171         0.66000
| 97>    H      -11.79855         5.13528         0.81078
| 98>    H      -11.63661        10.10807        -0.27653
| 99>    H      -17.15803         7.30902        -0.43008
|100>    H      -17.34166         9.82930        -1.07219
|101>    H      -15.87904         5.21660         0.07957
|102>    H      -13.34964         4.18086         1.45382
|103>    H      -15.21515        -2.12602         3.01898
|104>    H      -18.44854        -7.40900         2.84187
|105>    H      -20.60348        -7.30643         1.36416
|106> *
|107>
|108>                          ****END OF INPUT****

CARTESIAN COORDINATES (ANGSTROEM)
---------------------------------
  C     -3.660570   -1.640680    4.358670
  C     -2.295590   -1.621960    4.231700
  C     -1.444810   -2.645000    4.700840
  N     -0.699670   -3.441210    5.059290
  C     -1.541580   -0.609430    3.602020
  N     -0.857160    0.163310    3.098480
  C     -4.435020   -2.718630    4.966820
  C     -5.813850   -2.421780    4.829900
  C     -6.805590   -3.247940    5.299820
  C     -6.417120   -4.427300    5.943580
  C     -5.038060   -4.715620    6.081430
  C     -4.036310   -3.879890    5.601620
  S     -4.780650   -6.218560    6.913080
  C     -6.504690   -6.436760    7.061770
  C     -7.237610   -5.436660    6.516990
  Br    -7.171170   -7.962980    7.923070
  C     -5.960140   -1.132660    4.137550
  O     -7.010370   -0.588120    3.841580
  C     -4.601640   -0.638960    3.891420
  C     -4.284560    0.590570    3.371700
  C     -5.117840    1.620900    2.910810
  C     -4.601550    2.850370    2.480510
  C     -5.588340    3.726940    2.074150
  C     -6.881920    3.157430    2.174690
  S     -6.878090    1.570140    2.788510
  C     -7.818080    4.128590    1.750530
  C     -7.134010    5.303450    1.389290
  C     -5.707420    5.087550    1.575140
  C     -4.704070    5.979510    1.335490
  C     -3.346020    5.667860    1.558830
  N     -2.240490    5.425030    1.740010
  C     -4.961000    7.278660    0.848950
  N     -5.172820    8.334110    0.453640
  C     -7.986400    6.324030    0.975120
  C     -9.315830    5.936440    1.007520
  S     -9.508740    4.277500    1.563670
  C    -10.457040    6.723970    0.674790
  C    -11.725930    6.196640    0.624880
  C    -12.885900    6.912610    0.333540
  C    -12.801690    8.342730   -0.006150
  C    -11.656420    9.059890   -0.022450
  S    -10.114850    8.417840    0.354100
  C    -14.129440    8.745330   -0.309050
  C    -14.986290    7.652690   -0.178220
  C    -16.327170    7.989790   -0.467320
  C    -16.447960    9.300120   -0.804810
  S    -14.953350   10.175970   -0.784510
  C    -14.230330    6.499020    0.235790
  C    -14.861980    5.244600    0.440790
  C    -14.341870    4.142120    1.033350
  C    -14.981110    2.866300    1.186050
  C    -16.293080    2.528050    0.816750
  F    -17.114870    3.446980    0.281720
  C    -16.806640    1.257240    0.985710
  F    -18.079650    1.053320    0.600360
  C    -16.073600    0.194420    1.539150
  C    -14.758940    0.529840    1.911340
  C    -14.249330    1.800420    1.744180
  F    -12.976890    2.022840    2.118770
  F    -13.942690   -0.401600    2.426080
  C    -16.623060   -1.127360    1.697830
  C    -16.112400   -2.182040    2.432550
  C    -16.908630   -3.324540    2.336390
  C    -18.031070   -3.138710    1.517900
  S    -18.120530   -1.566700    0.881740
  C    -18.770020   -4.357210    1.483030
  C    -18.111650   -5.301940    2.276800
  C    -16.921590   -4.690180    2.844000
  C    -16.012970   -5.274320    3.676680
  C    -14.887000   -4.589910    4.181080
  N    -13.967370   -4.051650    4.604470
  C    -16.137820   -6.615140    4.098550
  N    -16.232430   -7.703960    4.445580
  C    -18.777000   -6.542680    2.297610
  C    -19.904110   -6.512260    1.533400
  S    -20.188550   -4.983990    0.770310
  H     -7.846290   -2.992460    5.176520
  H     -3.001070   -4.145420    5.734580
  H     -8.311980   -5.409170    6.518410
  H     -3.232270    0.842000    3.314050
  H     -3.546330    3.060000    2.483400
  H     -7.669200    7.301710    0.660000
  H    -11.798550    5.135280    0.810780
  H    -11.636610   10.108070   -0.276530
  H    -17.158030    7.309020   -0.430080
  H    -17.341660    9.829300   -1.072190
  H    -15.879040    5.216600    0.079570
  H    -13.349640    4.180860    1.453820
  H    -15.215150   -2.126020    3.018980
  H    -18.448540   -7.409000    2.841870
  H    -20.603480   -7.306430    1.364160

 Total Charge           Charge          ....    0
 Multiplicity           Mult            ....    1
 Number of Electrons    NEL             ....  590
 Basis Dimension        Dim             .... 1185

ORBITAL ENERGIES
----------------

  NO   OCC          E(Eh)            E(eV)
   0   2.0000    -482.884070    -13139.9436
   1   2.0000     -88.997973     -2421.7580
   2   2.0000     -88.991059     -2421.5698
   3   2.0000     -88.988301     -2421.4948
   4   2.0000     -88.987415     -2421.4707
   5   2.0000     -88.987193     -2421.4646
   6   2.0000     -88.975158     -2421.1371
   7   2.0000     -88.962146     -2420.7831
   8   2.0000     -62.561795     -1702.3930
   9   2.0000     -56.395749     -1534.6063
  10   2.0000     -56.393024     -1534.5322
  11   2.0000     -56.392994     -1534.5314
  12   2.0000     -24.812401      -675.1797
  13   2.0000     -24.806753      -675.0261
  14   2.0000     -24.806527      -675.0199
  15   2.0000     -24.803966      -674.9502
  16   2.0000     -19.225802      -523.1607
  17   2.0000     -14.434312      -392.7776
  18   2.0000     -14.432263      -392.7219
  19   2.0000     -14.428267      -392.6131
  20   2.0000     -14.427964      -392.6049
  21   2.0000     -14.416907      -392.3040
  22   2.0000     -14.414465      -392.2375
  23   2.0000     -10.384986      -282.5898
  24   2.0000     -10.384508      -282.5768
  25   2.0000     -10.382671      -282.5269
  26   2.0000     -10.380423      -282.4657
  27   2.0000     -10.373219      -282.2696
  28   2.0000     -10.368832      -282.1503
  29   2.0000     -10.361529      -281.9515
  30   2.0000     -10.358140      -281.8593
  31   2.0000     -10.356870      -281.8248
  32   2.0000     -10.349900      -281.6351
  33   2.0000     -10.342988      -281.4470
  34   2.0000     -10.342290      -281.4280
  35   2.0000     -10.339747      -281.3588
  36   2.0000     -10.339511      -281.3524
  37   2.0000     -10.337365      -281.2940
  38   2.0000     -10.336730      -281.2767
  39   2.0000     -10.335801      -281.2514
  40   2.0000     -10.334553      -281.2175
  41   2.0000     -10.331892      -281.1451
  42   2.0000     -10.329590      -281.0824
  43   2.0000     -10.328804      -281.0610
  44   2.0000     -10.328572      -281.0547
  45   2.0000     -10.328514      -281.0531
  46   2.0000     -10.328343      -281.0485
  47   2.0000     -10.328275      -281.0467
  48   2.0000     -10.328044      -281.0404
  49   2.0000     -10.327651      -281.0297
  50   2.0000     -10.325696      -280.9765
  51   2.0000     -10.319444      -280.8063
  52   2.0000     -10.318462      -280.7796
  53   2.0000     -10.317529      -280.7542
  54   2.0000     -10.314677      -280.6766
  55   2.0000     -10.314535      -280.6728
  56   2.0000     -10.311836      -280.5993
  57   2.0000     -10.309337      -280.5313
  58   2.0000     -10.309177      -280.5270
  59   2.0000     -10.308949      -280.5208
  60   2.0000     -10.307542      -280.4825
  61   2.0000     -10.307195      -280.4730
  62   2.0000     -10.306936      -280.4660
  63   2.0000     -10.305970      -280.4397
  64   2.0000     -10.302370      -280.3417
  65   2.0000     -10.302093      -280.3342
  66   2.0000     -10.300141      -280.2811
  67   2.0000     -10.299768      -280.2709
  68   2.0000     -10.299257      -280.2570
  69   2.0000     -10.298538      -280.2375
  70   2.0000     -10.297167      -280.2002
  71   2.0000     -10.297113      -280.1987
  72   2.0000     -10.295641      -280.1586
  73   2.0000     -10.293589      -280.1028
  74   2.0000     -10.292512      -280.0735
  75   2.0000     -10.289692      -279.9967
  76   2.0000     -10.288192      -279.9559
  77   2.0000     -10.283849      -279.8378
  78   2.0000     -10.280230      -279.7393
  79   2.0000     -10.279011      -279.7061
  80   2.0000      -8.791240      -239.2218
  81   2.0000      -8.092207      -220.2001
  82   2.0000      -8.083323      -219.9584
  83   2.0000      -8.082548      -219.9373
  84   2.0000      -8.082451      -219.9347
  85   2.0000      -8.082351      -219.9320
  86   2.0000      -8.071158      -219.6274
  87   2.0000      -8.057583      -219.2580
  88   2.0000      -6.627567      -180.3453
  89   2.0000      -6.612961      -179.9478
  90   2.0000      -6.612755      -179.9422
  91   2.0000      -6.061441      -164.9402
  92   2.0000      -6.057391      -164.8300
  93   2.0000      -6.054507      -164.7515
  94   2.0000      -6.052759      -164.7040
  95   2.0000      -6.051941      -164.6817
  96   2.0000      -6.051832      -164.6787
  97   2.0000      -6.051696      -164.6750
  98   2.0000      -6.047953      -164.5732
  99   2.0000      -6.047432      -164.5590
 100   2.0000      -6.047363      -164.5571
 101   2.0000      -6.047278      -164.5548
 102   2.0000      -6.045884      -164.5169
 103   2.0000      -6.045079      -164.4950
 104   2.0000      -6.044963      -164.4918
 105   2.0000      -6.044233      -164.4719
 106   2.0000      -6.040823      -164.3792
 107   2.0000      -6.036576      -164.2636
 108   2.0000      -6.032395      -164.1498
 109   2.0000      -6.027018      -164.0035
 110   2.0000      -6.022811      -163.8890
 111   2.0000      -6.019568      -163.8008
 112   2.0000      -2.743430       -74.6525
 113   2.0000      -2.739344       -74.5413
 114   2.0000      -2.739184       -74.5370
 115   2.0000      -2.727577       -74.2212
 116   2.0000      -2.727557       -74.2206
 117   2.0000      -1.333557       -36.2879
 118   2.0000      -1.328763       -36.1575
 119   2.0000      -1.314484       -35.7689
 120   2.0000      -1.311007       -35.6743
 121   2.0000      -1.141574       -31.0638
 122   2.0000      -1.050461       -28.5845
 123   2.0000      -1.041790       -28.3485
 124   2.0000      -1.025698       -27.9107
 125   2.0000      -1.023591       -27.8533
 126   2.0000      -1.020018       -27.7561
 127   2.0000      -1.015870       -27.6432
 128   2.0000      -1.013598       -27.5814
 129   2.0000      -1.010692       -27.5023
 130   2.0000      -1.005828       -27.3700
 131   2.0000      -1.004586       -27.3362
 132   2.0000      -1.001434       -27.2504
 133   2.0000      -0.994487       -27.0614
 134   2.0000      -0.991079       -26.9686
 135   2.0000      -0.987226       -26.8638
 136   2.0000      -0.980385       -26.6776
 137   2.0000      -0.962148       -26.1814
 138   2.0000      -0.955293       -25.9949
 139   2.0000      -0.943250       -25.6671
 140   2.0000      -0.937068       -25.4989
 141   2.0000      -0.925329       -25.1795
 142   2.0000      -0.919565       -25.0226
 143   2.0000      -0.909046       -24.7364
 144   2.0000      -0.905188       -24.6314
 145   2.0000      -0.899468       -24.4758
 146   2.0000      -0.889502       -24.2046
 147   2.0000      -0.886064       -24.1110
 148   2.0000      -0.877564       -23.8797
 149   2.0000      -0.872678       -23.7468
 150   2.0000      -0.863764       -23.5042
 151   2.0000      -0.860318       -23.4104
 152   2.0000      -0.858979       -23.3740
 153   2.0000      -0.857296       -23.3282
 154   2.0000      -0.851074       -23.1589
 155   2.0000      -0.844423       -22.9779
 156   2.0000      -0.829834       -22.5809
 157   2.0000      -0.824688       -22.4409
 158   2.0000      -0.811309       -22.0768
 159   2.0000      -0.800335       -21.7782
 160   2.0000      -0.788607       -21.4591
 161   2.0000      -0.780120       -21.2282
 162   2.0000      -0.776279       -21.1236
 163   2.0000      -0.767724       -20.8908
 164   2.0000      -0.762486       -20.7483
 165   2.0000      -0.756407       -20.5829
 166   2.0000      -0.736745       -20.0478
 167   2.0000      -0.734434       -19.9850
 168   2.0000      -0.728480       -19.8229
 169   2.0000      -0.712363       -19.3844
 170   2.0000      -0.704466       -19.1695
 171   2.0000      -0.702866       -19.1260
 172   2.0000      -0.700126       -19.0514
 173   2.0000      -0.695847       -18.9350
 174   2.0000      -0.692418       -18.8417
 175   2.0000      -0.689716       -18.7681
 176   2.0000      -0.684619       -18.6294
 177   2.0000      -0.675118       -18.3709
 178   2.0000      -0.669288       -18.2123
 179   2.0000      -0.664591       -18.0844
 180   2.0000      -0.661902       -18.0113
 181   2.0000      -0.656507       -17.8645
 182   2.0000      -0.652943       -17.7675
 183   2.0000      -0.645553       -17.5664
 184   2.0000      -0.639930       -17.4134
 185   2.0000      -0.635026       -17.2799
 186   2.0000      -0.631261       -17.1775
 187   2.0000      -0.629114       -17.1191
 188   2.0000      -0.625011       -17.0074
 189   2.0000      -0.624606       -16.9964
 190   2.0000      -0.620206       -16.8767
 191   2.0000      -0.614393       -16.7185
 192   2.0000      -0.612777       -16.6745
 193   2.0000      -0.606470       -16.5029
 194   2.0000      -0.604693       -16.4545
 195   2.0000      -0.601005       -16.3542
 196   2.0000      -0.597079       -16.2473
 197   2.0000      -0.589993       -16.0545
 198   2.0000      -0.583580       -15.8800
 199   2.0000      -0.583051       -15.8656
 200   2.0000      -0.577211       -15.7067
 201   2.0000      -0.569491       -15.4966
 202   2.0000      -0.568379       -15.4664
 203   2.0000      -0.561081       -15.2678
 204   2.0000      -0.559029       -15.2120
 205   2.0000      -0.556104       -15.1324
 206   2.0000      -0.553809       -15.0699
 207   2.0000      -0.550769       -14.9872
 208   2.0000      -0.549477       -14.9520
 209   2.0000      -0.543978       -14.8024
 210   2.0000      -0.543900       -14.8003
 211   2.0000      -0.542895       -14.7729
 212   2.0000      -0.541854       -14.7446
 213   2.0000      -0.536473       -14.5982
 214   2.0000      -0.532811       -14.4985
 215   2.0000      -0.530750       -14.4424
 216   2.0000      -0.523080       -14.2337
 217   2.0000      -0.521666       -14.1953
 218   2.0000      -0.520666       -14.1681
 219   2.0000      -0.519542       -14.1375
 220   2.0000      -0.516305       -14.0494
 221   2.0000      -0.515634       -14.0311
 222   2.0000      -0.510896       -13.9022
 223   2.0000      -0.507552       -13.8112
 224   2.0000      -0.504371       -13.7246
 225   2.0000      -0.501903       -13.6575
 226   2.0000      -0.501109       -13.6359
 227   2.0000      -0.499470       -13.5913
 228   2.0000      -0.496860       -13.5202
 229   2.0000      -0.495982       -13.4963
 230   2.0000      -0.494646       -13.4600
 231   2.0000      -0.492521       -13.4022
 232   2.0000      -0.490769       -13.3545
 233   2.0000      -0.489067       -13.3082
 234   2.0000      -0.483976       -13.1697
 235   2.0000      -0.481102       -13.0915
 236   2.0000      -0.480251       -13.0683
 237   2.0000      -0.473901       -12.8955
 238   2.0000      -0.473384       -12.8814
 239   2.0000      -0.467633       -12.7250
 240   2.0000      -0.464254       -12.6330
 241   2.0000      -0.464171       -12.6307
 242   2.0000      -0.460255       -12.5242
 243   2.0000      -0.459860       -12.5134
 244   2.0000      -0.459800       -12.5118
 245   2.0000      -0.458948       -12.4886
 246   2.0000      -0.456268       -12.4157
 247   2.0000      -0.455287       -12.3890
 248   2.0000      -0.454622       -12.3709
 249   2.0000      -0.449493       -12.2313
 250   2.0000      -0.448970       -12.2171
 251   2.0000      -0.447124       -12.1669
 252   2.0000      -0.446207       -12.1419
 253   2.0000      -0.443533       -12.0692
 254   2.0000      -0.443186       -12.0597
 255   2.0000      -0.442616       -12.0442
 256   2.0000      -0.439792       -11.9673
 257   2.0000      -0.438543       -11.9334
 258   2.0000      -0.438026       -11.9193
 259   2.0000      -0.436762       -11.8849
 260   2.0000      -0.435042       -11.8381
 261   2.0000      -0.434693       -11.8286
 262   2.0000      -0.433714       -11.8020
 263   2.0000      -0.429621       -11.6906
 264   2.0000      -0.429333       -11.6828
 265   2.0000      -0.426889       -11.6162
 266   2.0000      -0.424502       -11.5513
 267   2.0000      -0.423324       -11.5192
 268   2.0000      -0.417814       -11.3693
 269   2.0000      -0.415496       -11.3062
 270   2.0000      -0.414713       -11.2849
 271   2.0000      -0.412189       -11.2162
 272   2.0000      -0.407524       -11.0893
 273   2.0000      -0.403026       -10.9669
 274   2.0000      -0.396027       -10.7764
 275   2.0000      -0.390656       -10.6303
 276   2.0000      -0.385911       -10.5012
 277   2.0000      -0.373342       -10.1592
 278   2.0000      -0.368499       -10.0274
 279   2.0000      -0.361734        -9.8433
 280   2.0000      -0.354603        -9.6493
 281   2.0000      -0.346884        -9.4392
 282   2.0000      -0.344972        -9.3872
 283   2.0000      -0.341899        -9.3035
 284   2.0000      -0.333336        -9.0705
 285   2.0000      -0.325373        -8.8539
 286   2.0000      -0.325271        -8.8511
 287   2.0000      -0.322570        -8.7776
 288   2.0000      -0.318627        -8.6703
 289   2.0000      -0.315923        -8.5967
 290   2.0000      -0.295070        -8.0293
 291   2.0000      -0.290912        -7.9161
 292   2.0000      -0.278691        -7.5836
 293   2.0000      -0.265907        -7.2357
 294   2.0000      -0.235183        -6.3997
 295   0.0000      -0.114758        -3.1227
 296   0.0000      -0.100439        -2.7331
 297   0.0000      -0.089868        -2.4454
 298   0.0000      -0.075726        -2.0606
 299   0.0000      -0.062407        -1.6982

MULLIKEN ATOMIC CHARGES
-----------------------
   0 C :    0.324050
   1 C :   -0.350794
   2 C :   -0.184598
   3 N :    0.148797
   4 C :   -0.194096
   5 N :    0.155375
   6 C :    0.013391
   7 C :   -0.008656
   8 C :   -0.075308
   9 C :    0.117002
  10 C :   -0.088782
  11 C :   -0.024276
  12 S :    0.187856
  13 C :   -0.124112
  14 C :    0.038394
  15 Br:    0.027381
  16 C :    0.167476
  17 O :   -0.192238
  18 C :   -0.088699
  19 C :   -0.036180
  20 C :   -0.051851
  21 C :   -0.063752
  22 C :    0.045654
  23 C :   -0.067085
  24 S :    0.247845
  25 C :   -0.102718
  26 C :    0.025239
  27 C :    0.306100
  28 C :   -0.293462
  29 C :   -0.194724
  30 N :    0.185735
  31 C :   -0.186820
  32 N :    0.173191
  33 C :   -0.057891
  34 C :   -0.059549
  35 S :    0.186884
  36 C :   -0.023769
  37 C :   -0.096009
  38 C :    0.060679
  39 C :    0.052390
  40 C :   -0.119797
  41 S :    0.141944
  42 C :   -0.103741
  43 C :    0.042440
  44 C :    0.009967
  45 C :   -0.067700
  46 S :    0.130927
  47 C :    0.079130
  48 C :    0.003361
  49 C :   -0.043632
  50 C :   -0.028786
  51 C :    0.176870
  52 F :   -0.174623
  53 C :    0.149005
  54 F :   -0.178903
  55 C :    0.020760
  56 C :    0.166453
  57 C :    0.178234
  58 F :   -0.179250
  59 F :   -0.166816
  60 C :   -0.101670
  61 C :   -0.043976
  62 C :    0.005913
  63 C :   -0.096850
  64 S :    0.203175
  65 C :   -0.121017
  66 C :   -0.031321
  67 C :    0.304820
  68 C :   -0.302983
  69 C :   -0.190467
  70 N :    0.173979
  71 C :   -0.193368
  72 N :    0.172272
  73 C :    0.035446
  74 C :   -0.081362
  75 S :    0.183614
  76 H :   -0.005028
  77 H :   -0.005561
  78 H :    0.003232
  79 H :    0.018761
  80 H :    0.028563
  81 H :    0.022033
  82 H :   -0.004477
  83 H :    0.041288
  84 H :   -0.010296
  85 H :    0.028802
  86 H :   -0.010051
  87 H :   -0.021783
  88 H :    0.015763
  89 H :    0.011535
  90 H :    0.037103
Sum of atomic charges:   -0.0000000

LOEWDIN ATOMIC CHARGES
----------------------
   0 C :    0.076711
   1 C :   -0.141558
   2 C :   -0.017984
   3 N :   -0.052963
   4 C :   -0.023607
   5 N :   -0.048270
   6 C :   -0.020282
   7 C :   -0.051910
   8 C :    0.024514
   9 C :   -0.032356
  10 C :   -0.143407
  11 C :   -0.009126
  12 S :    0.434371
  13 C :   -0.270988
  14 C :   -0.068837
  15 Br:    0.139460
  16 C :    0.086613
  17 O :   -0.174387
  18 C :   -0.110980
  19 C :    0.055073
  20 C :   -0.183959
  21 C :    0.012298
  22 C :   -0.079129
  23 C :   -0.166904
  24 S :    0.551551
  25 C :   -0.185925
  26 C :   -0.053039
  27 C :    0.078453
  28 C :   -0.099494
  29 C :   -0.020354
  30 N :   -0.022699
  31 C :   -0.015972
  32 N :   -0.032027
  33 C :   -0.042991
  34 C :   -0.168430
  35 S :    0.489144
  36 C :   -0.182306
  37 C :   -0.027326
  38 C :   -0.016516
  39 C :   -0.045221
  40 C :   -0.138482
  41 S :    0.471346
  42 C :   -0.204226
  43 C :   -0.037780
  44 C :   -0.063666
  45 C :   -0.161283
  46 S :    0.423612
  47 C :   -0.051848
  48 C :    0.005659
  49 C :   -0.048103
  50 C :   -0.060730
  51 C :    0.060805
  52 F :   -0.046007
  53 C :    0.050936
  54 F :   -0.054260
  55 C :   -0.083273
  56 C :    0.060816
  57 C :    0.060005
  58 F :   -0.053251
  59 F :   -0.039549
  60 C :   -0.171696
  61 C :   -0.020986
  62 C :   -0.076715
  63 C :   -0.181621
  64 S :    0.494559
  65 C :   -0.185817
  66 C :   -0.074363
  67 C :    0.084067
  68 C :   -0.105874
  69 C :   -0.017838
  70 N :   -0.034907
  71 C :   -0.016731
  72 N :   -0.035763
  73 C :   -0.034607
  74 C :   -0.177289
  75 S :    0.478972
  76 H :    0.043023
  77 H :    0.041340
  78 H :    0.041231
  79 H :    0.053743
  80 H :    0.048154
  81 H :    0.035589
  82 H :    0.026843
  83 H :    0.039217
  84 H :    0.032271
  85 H :    0.024500
  86 H :    0.028337
  87 H :    0.024141
  88 H :    0.038038
  89 H :    0.042380
  90 H :    0.027840

  Mayer bond orders larger than 0.100000
B(  0-C ,  1-C ) :   1.6269 B(  0-C ,  6-C ) :   1.0004 B(  0-C , 18-C ) :   1.0748
B(  1-C ,  2-C ) :   1.1443 B(  1-C ,  4-C ) :   1.1435 B(  2-C ,  3-N ) :   2.9673
B(  4-C ,  5-N ) :   2.9665 B(  6-C ,  7-C ) :   1.2731 B(  6-C , 11-C ) :   1.4135
B(  7-C ,  8-C ) :   1.4147 B(  7-C , 16-C ) :   0.9640 B(  8-C ,  9-C ) :   1.2434
B(  8-C , 76-H ) :   1.0198 B(  9-C , 10-C ) :   1.3053 B(  9-C , 14-C ) :   1.1636
B( 10-C , 11-C ) :   1.3251 B( 10-C , 12-S ) :   1.0883 B( 11-C , 77-H ) :   0.9810
B( 12-S , 13-C ) :   1.0863 B( 13-C , 14-C ) :   1.6166 B( 13-C , 15-Br) :   1.0216
B( 14-C , 78-H ) :   1.0014 B( 16-C , 17-O ) :   2.1040 B( 16-C , 18-C ) :   0.9845
B( 18-C , 19-C ) :   1.4909 B( 19-C , 20-C ) :   1.2676 B( 19-C , 79-H ) :   0.9425
B( 20-C , 21-C ) :   1.3260 B( 20-C , 24-S ) :   1.0687 B( 21-C , 22-C ) :   1.3333
B( 21-C , 80-H ) :   1.0096 B( 22-C , 23-C ) :   1.3512 B( 22-C , 27-C ) :   0.9853
B( 23-C , 24-S ) :   1.1285 B( 23-C , 25-C ) :   1.2054 B( 25-C , 26-C ) :   1.4315
B( 25-C , 35-S ) :   1.1190 B( 26-C , 27-C ) :   0.9977 B( 26-C , 33-C ) :   1.3095
B( 27-C , 28-C ) :   1.7167 B( 28-C , 29-C ) :   1.1334 B( 28-C , 31-C ) :   1.1328
B( 29-C , 30-N ) :   2.9968 B( 31-C , 32-N ) :   2.9881 B( 33-C , 34-C ) :   1.4478
B( 33-C , 81-H ) :   0.9790 B( 34-C , 35-S ) :   1.1167 B( 34-C , 36-C ) :   1.1614
B( 36-C , 37-C ) :   1.5191 B( 36-C , 41-S ) :   1.0634 B( 37-C , 38-C ) :   1.2433
B( 37-C , 82-H ) :   0.9640 B( 38-C , 39-C ) :   1.0546 B( 38-C , 47-C ) :   1.3784
B( 39-C , 40-C ) :   1.6062 B( 39-C , 42-C ) :   1.1824 B( 40-C , 41-S ) :   1.1411
B( 40-C , 83-H ) :   0.9402 B( 42-C , 43-C ) :   1.4382 B( 42-C , 46-S ) :   1.0741
B( 43-C , 44-C ) :   1.2202 B( 43-C , 47-C ) :   1.1045 B( 44-C , 45-C ) :   1.5857
B( 44-C , 84-H ) :   0.9973 B( 45-C , 46-S ) :   1.1551 B( 45-C , 85-H ) :   0.9662
B( 47-C , 48-C ) :   1.1566 B( 48-C , 49-C ) :   1.6026 B( 48-C , 86-H ) :   0.9605
B( 49-C , 50-C ) :   1.1403 B( 49-C , 87-H ) :   0.9721 B( 50-C , 51-C ) :   1.2544
B( 50-C , 55-C ) :   0.1206 B( 50-C , 57-C ) :   1.2748 B( 51-C , 52-F ) :   1.1204
B( 51-C , 53-C ) :   1.3402 B( 53-C , 54-F ) :   1.1256 B( 53-C , 55-C ) :   1.2779
B( 55-C , 56-C ) :   1.2723 B( 55-C , 60-C ) :   1.1001 B( 56-C , 57-C ) :   1.3325
B( 56-C , 59-F ) :   1.1429 B( 57-C , 58-F ) :   1.1249 B( 60-C , 61-C ) :   1.4794
B( 60-C , 64-S ) :   1.1028 B( 61-C , 62-C ) :   1.2776 B( 61-C , 88-H ) :   0.9945
B( 62-C , 63-C ) :   1.4494 B( 62-C , 67-C ) :   0.9970 B( 63-C , 64-S ) :   1.1249
B( 63-C , 65-C ) :   1.1774 B( 65-C , 66-C ) :   1.4633 B( 65-C , 75-S ) :   1.1375
B( 66-C , 67-C ) :   1.0132 B( 66-C , 73-C ) :   1.2786 B( 67-C , 68-C ) :   1.7064
B( 68-C , 69-C ) :   1.1350 B( 68-C , 71-C ) :   1.1313 B( 69-C , 70-N ) :   2.9948
B( 71-C , 72-N ) :   3.0021 B( 73-C , 74-C ) :   1.5482 B( 73-C , 89-H ) :   0.9959
B( 74-C , 75-S ) :   1.1525 B( 74-C , 90-H ) :   0.9639

-----------------------------------------------------------------------------
         ABSORPTION SPECTRUM VIA TRANSITION ELECTRIC DIPOLE MOMENTS
-----------------------------------------------------------------------------
State   Energy  Wavelength   fosc         T2         TX        TY        TZ
        (cm-1)    (nm)                  (au**2)     (au)      (au)      (au)
-----------------------------------------------------------------------------
   0   11439.7    874.2   0.286113307   8.23380  -2.52866   1.11764  -0.76848
   1   15199.4    657.9   0.133368478   2.88870  -1.05141  -1.33466   0.04368
   2   17241.1    580.0   0.221720250   4.23366   2.01319   0.35356   0.23610
   3   18312.5    546.1   0.476343705   8.56344  -2.65481   0.96819  -0.76029
   4   20810.4    480.5   0.771561430  12.20579   0.36067  -3.29368   1.10787
   5   21665.7    461.6   0.040098986   0.60931   0.23386   0.71537  -0.20704
   6   23912.2    418.2   0.276875733   3.81190   0.45816  -1.81547   0.55323
   7   24127.6    414.5   0.421479423   5.75093   0.66904   2.23279  -0.56390
   8   25187.3    397.0   0.221129439   2.89028   0.58755  -1.50216   0.53721
   9   25634.6    390.1   0.120654178   1.54950   0.49703   1.13763  -0.09092
  10   25830.4    387.1   0.014903695   0.18995  -0.09880   0.38847  -0.17111
  11   26612.1    375.8   0.420824690   5.20592  -0.90678  -1.90855   0.86089
  12   27109.6    368.9   0.436870312   5.30524  -0.55872  -2.20473   0.36364
  13   28603.1    349.6   0.030305375   0.34880  -0.15270  -0.50264   0.26989
  14   28667.2    348.8   0.107656269   1.23631  -0.01063  -1.07879   0.26909
  15   28984.9    345.0   0.278539376   3.16366  -0.56756   1.62156  -0.46053
  16   29108.4    343.5   0.049722120   0.56235   0.21437   0.62030  -0.36280
  17   30109.9    332.1   0.157936274   1.72682  -1.14733  -0.63447   0.08889
  18   30481.0    328.1   0.010887097   0.11759  -0.28648   0.11098   0.15232
  19   30587.8    326.9   0.068131310   0.73329  -0.25615  -0.81382   0.07325
  20   31029.6    322.3   0.364177502   3.86378   0.04067  -1.82593   0.72670
  21   31448.7    318.0   0.099323193   1.03974   0.63985   0.71436  -0.34643
  22   31599.8    316.5   0.087956289   0.91634   0.95146  -0.09072   0.05329
  23   31888.7    313.6   0.716757626   7.39966  -2.04419   0.89642  -1.55479
  24   32113.2    311.4   0.806054362   8.26336   1.96673   1.86624  -0.95524
  25   32361.4    309.0   0.131508297   1.33783  -0.76858  -0.85943  -0.09214
  26   32752.1    305.3   0.049192671   0.49447  -0.66796   0.11697  -0.18603
  27   32834.5    304.6   0.117126943   1.17436  -0.70816  -0.72357  -0.38643
  28   33065.4    302.4   0.009624434   0.09582   0.21048  -0.17956   0.13885
  29   33293.1    300.4   0.024364025   0.24092  -0.22624  -0.43536   0.01413
  30   33605.8    297.6   0.092000586   0.90126   0.49395   0.74653  -0.31619
  31   33887.1    295.1   0.142997297   1.38921   0.24105   1.06677  -0.43945
  32   33977.1    294.3   0.013145885   0.12737   0.31018  -0.01500   0.17589
  33   34219.0    292.2   0.236234736   2.27275  -1.49784   0.16469  -0.04571
  34   34375.0    290.9   0.015490511   0.14835  -0.32951  -0.13684   0.14510
  35   34759.4    287.7   0.060638610   0.57432   0.64072  -0.29427   0.27786
  36   35049.1    285.3   0.110796060   1.04069   0.08045   0.91302  -0.44790
  37   35366.3    282.8   0.104867066   0.97617   0.85381   0.44934  -0.21276
  38   35730.4    279.9   0.081828320   0.75395  -0.67401  -0.54740  -0.00327
  39   36090.4    277.1   0.464412187   4.23631  -1.81041   0.92616  -0.31769
  40   36454.7    274.3   0.006761328   0.06106  -0.18249  -0.16421   0.02817
  41   36573.0    273.4   0.122336655   1.10122   0.76865   0.71374  -0.03093
  42   36885.8    271.1   0.041461215   0.37005   0.38546  -0.37838   0.27982
  43   37209.0    268.8   0.087497116   0.77414  -0.71147   0.30173  -0.42061
  44   37614.6    265.9   0.018796675   0.16451  -0.40507   0.01896  -0.00853
  45   37998.6    263.2   0.044611242   0.38650  -0.43856   0.36166  -0.25174
  46   38073.9    262.6   0.083400390   0.72113  -0.15999   0.77771  -0.30118
  47   38278.4    261.2   0.012713416   0.10934  -0.15952   0.26364  -0.11995
  48   38685.3    258.5   0.029773662   0.25337   0.48504  -0.11333  -0.07256
  49   39029.8    256.2   0.057628155   0.48609   0.38472  -0.48349   0.32298
  50   39335.7    254.2   0.015939784   0.13340  -0.00426   0.36405  -0.02919
  51   39359.1    254.1   0.055449708   0.46380   0.64214  -0.14443   0.17490
  52   39807.9    251.2   0.007711079   0.06377  -0.24742  -0.04999  -0.00739
  53   40172.5    248.9   0.127534139   1.04514   0.76492  -0.59745   0.32106

FINAL SINGLE POINT ENERGY     -8340.761753987144

DIPOLE MOMENT
-------------
                                X             Y             Z
Electronic contribution:     22.97433     -88.80300      50.51355
Nuclear contribution   :    -28.05176      89.61280     -51.52338
                        -----------------------------------------
Total Dipole Moment    :     -5.07744       0.80980      -1.00983
                        -----------------------------------------
Magnitude (a.u.)       :      5.23984
Magnitude (Debye)      :     13.31861

Rotational constants in cm-1:     0.000477     0.000404     0.000222
Rotational constants in MHz :    14.287039    12.099734     6.659972

                             ****ORCA TERMINATED NORMALLY****
TOTAL RUN TIME: 0 days 0 hours 9 minutes 1 seconds 524 msec
