                         Program Version 4.2.0 -  RELEASE  -
|  1> # ORCA input file
|  2> # SCF done       -196.527947295138          0.000466872353
|  3> ! CAM-B3LYP def2-SVP def2/J RIJCOSX Grid4 TightSCF
|  4> %maxcore 5000
|  5> %tddft
|  6>     Mode sTDDFT
|  7>     Ethresh 5.0
|  8>     maxcore 5000
|  9> end
| 10>
| 11> %pal
| 12>   nprocs 6
| 13>   end
| 14> * xyz 0 1
| 15>    C       -5.39577        -1.71877        -1.26086
| 16>    C       -4.45806        -2.10838        -0.33926
| 17>    C       -3.77854        -3.34397        -0.38660
| 18>    N       -3.18620        -4.32749        -0.37649
| 19>    C       -4.05964        -1.38760         0.80768
| 20>    N       -3.68702        -0.90680         1.78253
| 21>    C       -5.87338        -2.54194        -2.36428
| 22>    C       -6.96606        -1.88044        -2.97165
| 23>    C       -7.65216        -2.40386        -4.04041
| 24>    C       -7.23192        -3.63976        -4.54184
| 25>    C       -6.13187        -4.29096        -3.93479
| 26>    C       -5.44350        -3.76356        -2.84912
| 27>    S       -5.77292        -5.80080        -4.71698
| 28>    C       -7.08872        -5.54067        -5.83138
| 29>    C       -7.76319        -4.38384        -5.63071
| 30>   Br       -7.44697        -6.81982        -7.15571
| 31>    C       -7.21270        -0.59545        -2.28875
| 32>    O       -8.12163         0.16566        -2.55919
| 33>    C       -6.14329        -0.46652        -1.27280
| 34>    C       -5.73726         0.61880        -0.54472
| 35>    C       -6.25887         1.93030        -0.35853
| 36>    C       -5.42623         2.87886         0.30226
| 37>    O       -4.19357         2.45795         0.66518
| 38>    C       -3.35782         3.31133         1.41362
| 39>    C       -5.89026         4.16266         0.51474
| 40>    C       -7.17115         4.57445         0.12710
| 41>    C       -7.99658         3.62580        -0.52446
| 42>    C       -7.53947         2.34453        -0.74505
| 43>    O       -9.23452         4.05119        -0.88650
| 44>    C      -10.09295         3.16664        -1.57234
| 45>    C       -7.61393         5.92940         0.38557
| 46>    C       -7.02980         6.70419         1.35896
| 47>    C       -7.33478         8.03416         1.64460
| 48>    C       -8.30626         8.76442         0.82158
| 49>    C       -9.02892         8.18785        -0.16532
| 50>    S       -8.92563         6.53743        -0.60933
| 51>    C       -8.29066        10.09873         1.30346
| 52>    C       -7.37970        10.20142         2.35597
| 53>    C       -7.32326        11.51177         2.88232
| 54>    C       -8.16955        12.34938         2.22941
| 55>    S       -9.07024        11.59158         0.95770
| 56>    C       -6.78491         8.91405         2.59974
| 57>    C       -5.82870         8.71134         3.62934
| 58>    C       -5.39137         7.53310         4.13728
| 59>    C       -4.42813         7.36274         5.18585
| 60>    C       -4.07404         6.04317         5.58151
| 61>    O       -4.63411         5.02590         4.86454
| 62>    C       -4.41634         3.70101         5.29370
| 63>    C       -3.19963         5.85931         6.62642
| 64>    C       -2.65920         6.93459         7.35496
| 65>    C       -2.95593         8.24818         6.91332
| 66>    C       -3.81871         8.42925         5.84922
| 67>    O       -2.32516         9.26456         7.55354
| 68>    C       -2.54412        10.58872         7.12628
| 69>    C       -1.78864         6.61920         8.43901
| 70>    C       -1.38172         7.30944         9.54294
| 71>    C       -1.82357         8.51437        10.19893
| 72>    C       -3.08043         9.06320        10.14411
| 73>    C       -3.45556        10.25131        10.79877
| 74>    N       -3.80884        11.23494        11.27570
| 75>    C       -4.15882         8.46831         9.46372
| 76>    N       -5.06982         8.00732         8.93844
| 77>    C       -0.76459         8.93556        11.11138
| 78>    C        0.20953         7.90908        11.18193
| 79>    C       -0.17446         6.81848        10.26239
| 80>    O        0.38980         5.76010        10.09595
| 81>    C        1.31387         7.99388        11.99373
| 82>    C        1.47141         9.15242        12.76284
| 83>    C        0.50079        10.17739        12.67424
| 84>    C       -0.62285        10.08714        11.86094
| 85>    S        0.89709        11.52338        13.69992
| 86>    C        2.33931        10.69887        14.23082
| 87>    C        2.51780         9.48044        13.66888
| 88>   Br        3.47333        11.52760        15.47469
| 89>    H       -8.48505        -1.87524        -4.47707
| 90>    H       -4.61003        -4.29808        -2.42558
| 91>    H       -8.60026        -4.06625        -6.22525
| 92>    H       -4.80216         0.48480        -0.01431
| 93>    H       -2.49887         2.70115         1.68789
| 94>    H       -3.85417         3.66968         2.31944
| 95>    H       -3.02150         4.16507         0.81683
| 96>    H       -5.23128         4.88542         0.96424
| 97>    H       -8.17044         1.62647        -1.23609
| 98>    H      -10.97872         3.75214        -1.81266
| 99>    H      -10.37548         2.31973        -0.94085
|100>    H       -9.63557         2.79525        -2.49270
|101>    H       -6.26319         6.23863         1.95611
|102>    H       -9.75916         8.74027        -0.73629
|103>    H       -6.69754        11.82527         3.69843
|104>    H       -8.33325        13.39312         2.41438
|105>    H       -5.45106         9.63331         4.05228
|106>    H       -5.81388         6.60811         3.78121
|107>    H       -5.01826         3.07381         4.63710
|108>    H       -4.74502         3.55761         6.32671
|109>    H       -3.36382         3.41531         5.20081
|110>    H       -2.93484         4.86585         6.95161
|111>    H       -4.06033         9.42870         5.53155
|112>    H       -1.92832        11.21102         7.77452
|113>    H       -3.59325        10.87812         7.24197
|114>    H       -2.23349        10.73115         6.08690
|115>    H       -1.30968         5.64558         8.35661
|116>    H        2.03475         7.19252        12.03649
|117>    H       -1.33527        10.89475        11.82553
|118>    H        3.35207         8.83745        13.88238
|119> *
|120>
|121>                          ****END OF INPUT****

CARTESIAN COORDINATES (ANGSTROEM)
---------------------------------
  C     -5.395770   -1.718770   -1.260860
  C     -4.458060   -2.108380   -0.339260
  C     -3.778540   -3.343970   -0.386600
  N     -3.186200   -4.327490   -0.376490
  C     -4.059640   -1.387600    0.807680
  N     -3.687020   -0.906800    1.782530
  C     -5.873380   -2.541940   -2.364280
  C     -6.966060   -1.880440   -2.971650
  C     -7.652160   -2.403860   -4.040410
  C     -7.231920   -3.639760   -4.541840
  C     -6.131870   -4.290960   -3.934790
  C     -5.443500   -3.763560   -2.849120
  S     -5.772920   -5.800800   -4.716980
  C     -7.088720   -5.540670   -5.831380
  C     -7.763190   -4.383840   -5.630710
  Br    -7.446970   -6.819820   -7.155710
  C     -7.212700   -0.595450   -2.288750
  O     -8.121630    0.165660   -2.559190
  C     -6.143290   -0.466520   -1.272800
  C     -5.737260    0.618800   -0.544720
  C     -6.258870    1.930300   -0.358530
  C     -5.426230    2.878860    0.302260
  O     -4.193570    2.457950    0.665180
  C     -3.357820    3.311330    1.413620
  C     -5.890260    4.162660    0.514740
  C     -7.171150    4.574450    0.127100
  C     -7.996580    3.625800   -0.524460
  C     -7.539470    2.344530   -0.745050
  O     -9.234520    4.051190   -0.886500
  C    -10.092950    3.166640   -1.572340
  C     -7.613930    5.929400    0.385570
  C     -7.029800    6.704190    1.358960
  C     -7.334780    8.034160    1.644600
  C     -8.306260    8.764420    0.821580
  C     -9.028920    8.187850   -0.165320
  S     -8.925630    6.537430   -0.609330
  C     -8.290660   10.098730    1.303460
  C     -7.379700   10.201420    2.355970
  C     -7.323260   11.511770    2.882320
  C     -8.169550   12.349380    2.229410
  S     -9.070240   11.591580    0.957700
  C     -6.784910    8.914050    2.599740
  C     -5.828700    8.711340    3.629340
  C     -5.391370    7.533100    4.137280
  C     -4.428130    7.362740    5.185850
  C     -4.074040    6.043170    5.581510
  O     -4.634110    5.025900    4.864540
  C     -4.416340    3.701010    5.293700
  C     -3.199630    5.859310    6.626420
  C     -2.659200    6.934590    7.354960
  C     -2.955930    8.248180    6.913320
  C     -3.818710    8.429250    5.849220
  O     -2.325160    9.264560    7.553540
  C     -2.544120   10.588720    7.126280
  C     -1.788640    6.619200    8.439010
  C     -1.381720    7.309440    9.542940
  C     -1.823570    8.514370   10.198930
  C     -3.080430    9.063200   10.144110
  C     -3.455560   10.251310   10.798770
  N     -3.808840   11.234940   11.275700
  C     -4.158820    8.468310    9.463720
  N     -5.069820    8.007320    8.938440
  C     -0.764590    8.935560   11.111380
  C      0.209530    7.909080   11.181930
  C     -0.174460    6.818480   10.262390
  O      0.389800    5.760100   10.095950
  C      1.313870    7.993880   11.993730
  C      1.471410    9.152420   12.762840
  C      0.500790   10.177390   12.674240
  C     -0.622850   10.087140   11.860940
  S      0.897090   11.523380   13.699920
  C      2.339310   10.698870   14.230820
  C      2.517800    9.480440   13.668880
  Br     3.473330   11.527600   15.474690
  H     -8.485050   -1.875240   -4.477070
  H     -4.610030   -4.298080   -2.425580
  H     -8.600260   -4.066250   -6.225250
  H     -4.802160    0.484800   -0.014310
  H     -2.498870    2.701150    1.687890
  H     -3.854170    3.669680    2.319440
  H     -3.021500    4.165070    0.816830
  H     -5.231280    4.885420    0.964240
  H     -8.170440    1.626470   -1.236090
  H    -10.978720    3.752140   -1.812660
  H    -10.375480    2.319730   -0.940850
  H     -9.635570    2.795250   -2.492700
  H     -6.263190    6.238630    1.956110
  H     -9.759160    8.740270   -0.736290
  H     -6.697540   11.825270    3.698430
  H     -8.333250   13.393120    2.414380
  H     -5.451060    9.633310    4.052280
  H     -5.813880    6.608110    3.781210
  H     -5.018260    3.073810    4.637100
  H     -4.745020    3.557610    6.326710
  H     -3.363820    3.415310    5.200810
  H     -2.934840    4.865850    6.951610
  H     -4.060330    9.428700    5.531550
  H     -1.928320   11.211020    7.774520
  H     -3.593250   10.878120    7.241970
  H     -2.233490   10.731150    6.086900
  H     -1.309680    5.645580    8.356610
  H      2.034750    7.192520   12.036490
  H     -1.335270   10.894750   11.825530
  H      3.352070    8.837450   13.882380

 Total Charge           Charge          ....    0
 Multiplicity           Mult            ....    1
 Number of Electrons    NEL             ....  588
 Basis Dimension        Dim             .... 1238

ORBITAL ENERGIES
----------------

  NO   OCC          E(Eh)            E(eV)
   0   2.0000    -482.886609    -13140.0127
   1   2.0000    -482.880119    -13139.8360
   2   2.0000     -88.976389     -2421.1706
   3   2.0000     -88.968964     -2420.9686
   4   2.0000     -88.968663     -2420.9604
   5   2.0000     -88.951485     -2420.4930
   6   2.0000     -62.564310     -1702.4614
   7   2.0000     -62.557829     -1702.2851
   8   2.0000     -56.398262     -1534.6747
   9   2.0000     -56.395545     -1534.6008
  10   2.0000     -56.395512     -1534.5999
  11   2.0000     -56.391772     -1534.4981
  12   2.0000     -56.389074     -1534.4247
  13   2.0000     -56.389032     -1534.4236
  14   2.0000     -19.261089      -524.1209
  15   2.0000     -19.258018      -524.0373
  16   2.0000     -19.256113      -523.9855
  17   2.0000     -19.250069      -523.8210
  18   2.0000     -19.221141      -523.0338
  19   2.0000     -19.204522      -522.5816
  20   2.0000     -14.413004      -392.1978
  21   2.0000     -14.412916      -392.1954
  22   2.0000     -14.407927      -392.0596
  23   2.0000     -14.402741      -391.9185
  24   2.0000     -10.372388      -282.2470
  25   2.0000     -10.359906      -281.9074
  26   2.0000     -10.354486      -281.7599
  27   2.0000     -10.351841      -281.6879
  28   2.0000     -10.350598      -281.6541
  29   2.0000     -10.340962      -281.3919
  30   2.0000     -10.340761      -281.3864
  31   2.0000     -10.339862      -281.3620
  32   2.0000     -10.339281      -281.3461
  33   2.0000     -10.330652      -281.1113
  34   2.0000     -10.330491      -281.1069
  35   2.0000     -10.329663      -281.0844
  36   2.0000     -10.328765      -281.0600
  37   2.0000     -10.326874      -281.0085
  38   2.0000     -10.326387      -280.9953
  39   2.0000     -10.325769      -280.9785
  40   2.0000     -10.325411      -280.9687
  41   2.0000     -10.320825      -280.8439
  42   2.0000     -10.318620      -280.7839
  43   2.0000     -10.318196      -280.7724
  44   2.0000     -10.316258      -280.7197
  45   2.0000     -10.316202      -280.7181
  46   2.0000     -10.313029      -280.6318
  47   2.0000     -10.311161      -280.5809
  48   2.0000     -10.309550      -280.5371
  49   2.0000     -10.308421      -280.5064
  50   2.0000     -10.307928      -280.4930
  51   2.0000     -10.305681      -280.4318
  52   2.0000     -10.304094      -280.3887
  53   2.0000     -10.302344      -280.3410
  54   2.0000     -10.301958      -280.3305
  55   2.0000     -10.299192      -280.2553
  56   2.0000     -10.299075      -280.2521
  57   2.0000     -10.297730      -280.2155
  58   2.0000     -10.297709      -280.2149
  59   2.0000     -10.296619      -280.1853
  60   2.0000     -10.293668      -280.1050
  61   2.0000     -10.293411      -280.0979
  62   2.0000     -10.292956      -280.0856
  63   2.0000     -10.292672      -280.0778
  64   2.0000     -10.292642      -280.0770
  65   2.0000     -10.290791      -280.0266
  66   2.0000     -10.290308      -280.0135
  67   2.0000     -10.288019      -279.9512
  68   2.0000     -10.284959      -279.8680
  69   2.0000     -10.284610      -279.8585
  70   2.0000     -10.283005      -279.8148
  71   2.0000     -10.281990      -279.7872
  72   2.0000     -10.281427      -279.7719
  73   2.0000     -10.280999      -279.7602
  74   2.0000     -10.278043      -279.6798
  75   2.0000     -10.277430      -279.6631
  76   2.0000     -10.277127      -279.6548
  77   2.0000     -10.271647      -279.5057
  78   2.0000     -10.271335      -279.4972
  79   2.0000     -10.270019      -279.4614
  80   2.0000     -10.267877      -279.4031
  81   2.0000     -10.264795      -279.3193
  82   2.0000      -8.793725      -239.2894
  83   2.0000      -8.787247      -239.1131
  84   2.0000      -8.072323      -219.6591
  85   2.0000      -8.064730      -219.4525
  86   2.0000      -8.063366      -219.4153
  87   2.0000      -8.046950      -218.9687
  88   2.0000      -6.630032      -180.4123
  89   2.0000      -6.623508      -180.2348
  90   2.0000      -6.615463      -180.0159
  91   2.0000      -6.615254      -180.0102
  92   2.0000      -6.608989      -179.8397
  93   2.0000      -6.608824      -179.8352
  94   2.0000      -6.042011      -164.4115
  95   2.0000      -6.037739      -164.2952
  96   2.0000      -6.034435      -164.2053
  97   2.0000      -6.033561      -164.1816
  98   2.0000      -6.032936      -164.1645
  99   2.0000      -6.030153      -164.0888
 100   2.0000      -6.028066      -164.0320
 101   2.0000      -6.025922      -163.9737
 102   2.0000      -6.025495      -163.9621
 103   2.0000      -6.016449      -163.7159
 104   2.0000      -6.012198      -163.6002
 105   2.0000      -6.008865      -163.5095
 106   2.0000      -2.745905       -74.7199
 107   2.0000      -2.741796       -74.6081
 108   2.0000      -2.741669       -74.6046
 109   2.0000      -2.739394       -74.5427
 110   2.0000      -2.735298       -74.4313
 111   2.0000      -2.735181       -74.4281
 112   2.0000      -2.730083       -74.2893
 113   2.0000      -2.730067       -74.2889
 114   2.0000      -2.723640       -74.1140
 115   2.0000      -2.723624       -74.1136
 116   2.0000      -1.166710       -31.7478
 117   2.0000      -1.162532       -31.6341
 118   2.0000      -1.162454       -31.6320
 119   2.0000      -1.151992       -31.3473
 120   2.0000      -1.135279       -30.8925
 121   2.0000      -1.119204       -30.4551
 122   2.0000      -1.023017       -27.8377
 123   2.0000      -1.013901       -27.5896
 124   2.0000      -1.012322       -27.5467
 125   2.0000      -1.003768       -27.3139
 126   2.0000      -1.000910       -27.2362
 127   2.0000      -0.991388       -26.9770
 128   2.0000      -0.989368       -26.9221
 129   2.0000      -0.984605       -26.7925
 130   2.0000      -0.978947       -26.6385
 131   2.0000      -0.977099       -26.5882
 132   2.0000      -0.958628       -26.0856
 133   2.0000      -0.958388       -26.0791
 134   2.0000      -0.942252       -25.6400
 135   2.0000      -0.933144       -25.3921
 136   2.0000      -0.924307       -25.1517
 137   2.0000      -0.910840       -24.7852
 138   2.0000      -0.908106       -24.7108
 139   2.0000      -0.902198       -24.5501
 140   2.0000      -0.899292       -24.4710
 141   2.0000      -0.887430       -24.1482
 142   2.0000      -0.885677       -24.1005
 143   2.0000      -0.877941       -23.8900
 144   2.0000      -0.876421       -23.8486
 145   2.0000      -0.867951       -23.6182
 146   2.0000      -0.858839       -23.3702
 147   2.0000      -0.853656       -23.2292
 148   2.0000      -0.848821       -23.0976
 149   2.0000      -0.837559       -22.7911
 150   2.0000      -0.833278       -22.6747
 151   2.0000      -0.829025       -22.5589
 152   2.0000      -0.821735       -22.3606
 153   2.0000      -0.818168       -22.2635
 154   2.0000      -0.816359       -22.2143
 155   2.0000      -0.811383       -22.0789
 156   2.0000      -0.801019       -21.7968
 157   2.0000      -0.781097       -21.2547
 158   2.0000      -0.778080       -21.1726
 159   2.0000      -0.771926       -21.0052
 160   2.0000      -0.763010       -20.7625
 161   2.0000      -0.759931       -20.6788
 162   2.0000      -0.751108       -20.4387
 163   2.0000      -0.743985       -20.2449
 164   2.0000      -0.732723       -19.9384
 165   2.0000      -0.727539       -19.7973
 166   2.0000      -0.705912       -19.2089
 167   2.0000      -0.697611       -18.9830
 168   2.0000      -0.697468       -18.9791
 169   2.0000      -0.695300       -18.9201
 170   2.0000      -0.687851       -18.7174
 171   2.0000      -0.679589       -18.4926
 172   2.0000      -0.677983       -18.4489
 173   2.0000      -0.674009       -18.3407
 174   2.0000      -0.664927       -18.0936
 175   2.0000      -0.658620       -17.9220
 176   2.0000      -0.655140       -17.8273
 177   2.0000      -0.653570       -17.7845
 178   2.0000      -0.646681       -17.5971
 179   2.0000      -0.636696       -17.3254
 180   2.0000      -0.634424       -17.2635
 181   2.0000      -0.626184       -17.0393
 182   2.0000      -0.621591       -16.9144
 183   2.0000      -0.616720       -16.7818
 184   2.0000      -0.615561       -16.7503
 185   2.0000      -0.613273       -16.6880
 186   2.0000      -0.611962       -16.6523
 187   2.0000      -0.606623       -16.5071
 188   2.0000      -0.598357       -16.2821
 189   2.0000      -0.596695       -16.2369
 190   2.0000      -0.588007       -16.0005
 191   2.0000      -0.586421       -15.9573
 192   2.0000      -0.582559       -15.8522
 193   2.0000      -0.571663       -15.5558
 194   2.0000      -0.569397       -15.4941
 195   2.0000      -0.568465       -15.4687
 196   2.0000      -0.567461       -15.4414
 197   2.0000      -0.564782       -15.3685
 198   2.0000      -0.564199       -15.3526
 199   2.0000      -0.560419       -15.2498
 200   2.0000      -0.555610       -15.1189
 201   2.0000      -0.552908       -15.0454
 202   2.0000      -0.548241       -14.9184
 203   2.0000      -0.543697       -14.7947
 204   2.0000      -0.542063       -14.7503
 205   2.0000      -0.540133       -14.6978
 206   2.0000      -0.536873       -14.6090
 207   2.0000      -0.534710       -14.5502
 208   2.0000      -0.534502       -14.5445
 209   2.0000      -0.530794       -14.4436
 210   2.0000      -0.528656       -14.3855
 211   2.0000      -0.525842       -14.3089
 212   2.0000      -0.522180       -14.2092
 213   2.0000      -0.521360       -14.1869
 214   2.0000      -0.520491       -14.1633
 215   2.0000      -0.514170       -13.9913
 216   2.0000      -0.510450       -13.8900
 217   2.0000      -0.509361       -13.8604
 218   2.0000      -0.505806       -13.7637
 219   2.0000      -0.505117       -13.7449
 220   2.0000      -0.504248       -13.7213
 221   2.0000      -0.503093       -13.6899
 222   2.0000      -0.498198       -13.5567
 223   2.0000      -0.497905       -13.5487
 224   2.0000      -0.497106       -13.5269
 225   2.0000      -0.493928       -13.4405
 226   2.0000      -0.492277       -13.3955
 227   2.0000      -0.489645       -13.3239
 228   2.0000      -0.487742       -13.2721
 229   2.0000      -0.487401       -13.2629
 230   2.0000      -0.482682       -13.1344
 231   2.0000      -0.478632       -13.0242
 232   2.0000      -0.475134       -12.9291
 233   2.0000      -0.472905       -12.8684
 234   2.0000      -0.467642       -12.7252
 235   2.0000      -0.464040       -12.6272
 236   2.0000      -0.462252       -12.5785
 237   2.0000      -0.458208       -12.4685
 238   2.0000      -0.455724       -12.4009
 239   2.0000      -0.450566       -12.2605
 240   2.0000      -0.449905       -12.2425
 241   2.0000      -0.448861       -12.2141
 242   2.0000      -0.447603       -12.1799
 243   2.0000      -0.445102       -12.1118
 244   2.0000      -0.443600       -12.0710
 245   2.0000      -0.442994       -12.0545
 246   2.0000      -0.442095       -12.0300
 247   2.0000      -0.439082       -11.9480
 248   2.0000      -0.438822       -11.9409
 249   2.0000      -0.438497       -11.9321
 250   2.0000      -0.436672       -11.8825
 251   2.0000      -0.435163       -11.8414
 252   2.0000      -0.434036       -11.8107
 253   2.0000      -0.430559       -11.7161
 254   2.0000      -0.424888       -11.5618
 255   2.0000      -0.423177       -11.5152
 256   2.0000      -0.420740       -11.4489
 257   2.0000      -0.420193       -11.4340
 258   2.0000      -0.418941       -11.4000
 259   2.0000      -0.416741       -11.3401
 260   2.0000      -0.416403       -11.3309
 261   2.0000      -0.413209       -11.2440
 262   2.0000      -0.410735       -11.1767
 263   2.0000      -0.406853       -11.0710
 264   2.0000      -0.404630       -11.0105
 265   2.0000      -0.401824       -10.9342
 266   2.0000      -0.401032       -10.9126
 267   2.0000      -0.397623       -10.8199
 268   2.0000      -0.396539       -10.7904
 269   2.0000      -0.394844       -10.7442
 270   2.0000      -0.388138       -10.5618
 271   2.0000      -0.385399       -10.4872
 272   2.0000      -0.383737       -10.4420
 273   2.0000      -0.381064       -10.3693
 274   2.0000      -0.376444       -10.2436
 275   2.0000      -0.376021       -10.2320
 276   2.0000      -0.369682       -10.0595
 277   2.0000      -0.367018        -9.9871
 278   2.0000      -0.351970        -9.5776
 279   2.0000      -0.347315        -9.4509
 280   2.0000      -0.340975        -9.2784
 281   2.0000      -0.338558        -9.2126
 282   2.0000      -0.328517        -8.9394
 283   2.0000      -0.319700        -8.6995
 284   2.0000      -0.316687        -8.6175
 285   2.0000      -0.310471        -8.4484
 286   2.0000      -0.307939        -8.3795
 287   2.0000      -0.298239        -8.1155
 288   2.0000      -0.293876        -7.9968
 289   2.0000      -0.284559        -7.7433
 290   2.0000      -0.283100        -7.7035
 291   2.0000      -0.275152        -7.4873
 292   2.0000      -0.263480        -7.1697
 293   2.0000      -0.222301        -6.0491
 294   0.0000      -0.093811        -2.5527
 295   0.0000      -0.077632        -2.1125
 296   0.0000      -0.063270        -1.7217
 297   0.0000      -0.051941        -1.4134
 298   0.0000      -0.038241        -1.0406

MULLIKEN ATOMIC CHARGES
-----------------------
   0 C :    0.296313
   1 C :   -0.350719
   2 C :   -0.189247
   3 N :    0.146010
   4 C :   -0.201700
   5 N :    0.158100
   6 C :    0.015016
   7 C :   -0.004755
   8 C :   -0.072699
   9 C :    0.117234
  10 C :   -0.091103
  11 C :   -0.018436
  12 S :    0.186757
  13 C :   -0.123381
  14 C :    0.040158
  15 Br:    0.023284
  16 C :    0.159756
  17 O :   -0.168419
  18 C :   -0.053372
  19 C :   -0.027545
  20 C :    0.010640
  21 C :    0.253899
  22 O :   -0.305028
  23 C :    0.174711
  24 C :   -0.175987
  25 C :    0.107933
  26 C :    0.207480
  27 C :   -0.138323
  28 O :   -0.338971
  29 C :    0.183999
  30 C :   -0.078205
  31 C :   -0.050519
  32 C :    0.050045
  33 C :    0.060157
  34 C :   -0.129070
  35 S :    0.174615
  36 C :   -0.104684
  37 C :    0.046319
  38 C :    0.005723
  39 C :   -0.067365
  40 S :    0.121620
  41 C :    0.079579
  42 C :    0.021503
  43 C :   -0.049840
  44 C :    0.090653
  45 C :    0.232260
  46 O :   -0.332095
  47 C :    0.173488
  48 C :   -0.147072
  49 C :    0.072755
  50 C :    0.224638
  51 C :   -0.141713
  52 O :   -0.310290
  53 C :    0.179622
  54 C :   -0.005091
  55 C :   -0.103984
  56 C :    0.310280
  57 C :   -0.344688
  58 C :   -0.193787
  59 N :    0.145203
  60 C :   -0.218326
  61 N :    0.177929
  62 C :    0.009642
  63 C :    0.006160
  64 C :    0.126297
  65 O :   -0.151049
  66 C :   -0.076192
  67 C :    0.111400
  68 C :   -0.085944
  69 C :   -0.036069
  70 S :    0.178151
  71 C :   -0.125229
  72 C :    0.040254
  73 Br:    0.016736
  74 H :   -0.013357
  75 H :   -0.005992
  76 H :   -0.004675
  77 H :    0.033882
  78 H :    0.050617
  79 H :    0.023466
  80 H :    0.030346
  81 H :   -0.023599
  82 H :   -0.019196
  83 H :    0.033775
  84 H :    0.032163
  85 H :    0.041125
  86 H :   -0.027029
  87 H :    0.031575
  88 H :   -0.020124
  89 H :    0.024899
  90 H :   -0.036143
  91 H :   -0.003394
  92 H :    0.045269
  93 H :    0.037711
  94 H :    0.025425
  95 H :   -0.032884
  96 H :   -0.052045
  97 H :    0.041894
  98 H :    0.037763
  99 H :    0.030926
 100 H :    0.016409
 101 H :   -0.010916
 102 H :   -0.008256
 103 H :   -0.005058
Sum of atomic charges:   -0.0000000

LOEWDIN ATOMIC CHARGES
----------------------
   0 C :    0.078261
   1 C :   -0.142854
   2 C :   -0.017389
   3 N :   -0.056947
   4 C :   -0.025870
   5 N :   -0.053976
   6 C :   -0.020692
   7 C :   -0.050356
   8 C :    0.020957
   9 C :   -0.033270
  10 C :   -0.143294
  11 C :   -0.009602
  12 S :    0.432757
  13 C :   -0.271449
  14 C :   -0.070739
  15 Br:    0.136652
  16 C :    0.090334
  17 O :   -0.151561
  18 C :   -0.100820
  19 C :    0.086620
  20 C :   -0.064599
  21 C :    0.074738
  22 O :   -0.086986
  23 C :    0.080420
  24 C :   -0.066565
  25 C :   -0.020234
  26 C :    0.032988
  27 C :   -0.024990
  28 O :   -0.114438
  29 C :    0.081948
  30 C :   -0.166350
  31 C :   -0.012079
  32 C :   -0.017713
  33 C :   -0.052536
  34 C :   -0.147328
  35 S :    0.493450
  36 C :   -0.204660
  37 C :   -0.039954
  38 C :   -0.066200
  39 C :   -0.164945
  40 S :    0.414662
  41 C :   -0.055223
  42 C :    0.002137
  43 C :   -0.041430
  44 C :   -0.004938
  45 C :    0.045687
  46 O :   -0.109167
  47 C :    0.075593
  48 C :   -0.039487
  49 C :   -0.057906
  50 C :    0.068599
  51 C :   -0.056414
  52 O :   -0.077161
  53 C :    0.077653
  54 C :    0.073631
  55 C :   -0.096356
  56 C :    0.069536
  57 C :   -0.141712
  58 C :   -0.021047
  59 N :   -0.064920
  60 C :   -0.020277
  61 N :   -0.051996
  62 C :   -0.014009
  63 C :   -0.053549
  64 C :    0.084547
  65 O :   -0.148970
  66 C :    0.021417
  67 C :   -0.037309
  68 C :   -0.143397
  69 C :   -0.019300
  70 S :    0.426200
  71 C :   -0.274849
  72 C :   -0.069878
  73 Br:    0.131375
  74 H :    0.039527
  75 H :    0.041117
  76 H :    0.038415
  77 H :    0.045994
  78 H :    0.035622
  79 H :    0.017554
  80 H :    0.019097
  81 H :    0.032096
  82 H :    0.029957
  83 H :    0.028518
  84 H :    0.020997
  85 H :    0.023521
  86 H :    0.035680
  87 H :    0.034597
  88 H :    0.028208
  89 H :    0.022726
  90 H :    0.024606
  91 H :    0.024380
  92 H :    0.029171
  93 H :    0.020196
  94 H :    0.014751
  95 H :    0.031734
  96 H :    0.026588
  97 H :    0.031587
  98 H :    0.020450
  99 H :    0.018898
 100 H :    0.044118
 101 H :    0.040344
 102 H :    0.038944
 103 H :    0.038134

  Mayer bond orders larger than 0.100000
B(  0-C ,  1-C ) :   1.6256 B(  0-C ,  6-C ) :   0.9998 B(  0-C , 18-C ) :   1.0749
B(  1-C ,  2-C ) :   1.1468 B(  1-C ,  4-C ) :   1.1370 B(  2-C ,  3-N ) :   2.9701
B(  4-C ,  5-N ) :   2.9961 B(  6-C ,  7-C ) :   1.2795 B(  6-C , 11-C ) :   1.4059
B(  7-C ,  8-C ) :   1.4215 B(  7-C , 16-C ) :   0.9597 B(  8-C ,  9-C ) :   1.2447
B(  8-C , 74-H ) :   1.0170 B(  9-C , 10-C ) :   1.3073 B(  9-C , 14-C ) :   1.1611
B( 10-C , 11-C ) :   1.3313 B( 10-C , 12-S ) :   1.0850 B( 11-C , 75-H ) :   0.9809
B( 12-S , 13-C ) :   1.0867 B( 13-C , 14-C ) :   1.6180 B( 13-C , 15-Br) :   1.0185
B( 14-C , 76-H ) :   1.0011 B( 16-C , 17-O ) :   2.1402 B( 16-C , 18-C ) :   0.9374
B( 17-O , 82-H ) :   0.1068 B( 18-C , 19-C ) :   1.5289 B( 19-C , 20-C ) :   1.2083
B( 19-C , 77-H ) :   0.9290 B( 20-C , 21-C ) :   1.2674 B( 20-C , 27-C ) :   1.2771
B( 21-C , 22-O ) :   1.1686 B( 21-C , 24-C ) :   1.3162 B( 22-O , 23-C ) :   0.9459
B( 23-C , 78-H ) :   0.9748 B( 23-C , 79-H ) :   0.9657 B( 23-C , 80-H ) :   0.9684
B( 24-C , 25-C ) :   1.3197 B( 24-C , 81-H ) :   0.9898 B( 25-C , 26-C ) :   1.3033
B( 25-C , 30-C ) :   1.0678 B( 26-C , 27-C ) :   1.3345 B( 26-C , 28-O ) :   1.1173
B( 27-C , 82-H ) :   0.9692 B( 28-O , 29-C ) :   0.9440 B( 29-C , 83-H ) :   0.9748
B( 29-C , 84-H ) :   0.9711 B( 29-C , 85-H ) :   0.9694 B( 30-C , 31-C ) :   1.5200
B( 30-C , 35-S ) :   1.0724 B( 31-C , 32-C ) :   1.2366 B( 31-C , 86-H ) :   0.9668
B( 32-C , 33-C ) :   1.0653 B( 32-C , 41-C ) :   1.3641 B( 33-C , 34-C ) :   1.5736
B( 33-C , 36-C ) :   1.1867 B( 34-C , 35-S ) :   1.1491 B( 34-C , 87-H ) :   0.9400
B( 36-C , 37-C ) :   1.4310 B( 36-C , 40-S ) :   1.0682 B( 37-C , 38-C ) :   1.2117
B( 37-C , 41-C ) :   1.1142 B( 38-C , 39-C ) :   1.5917 B( 38-C , 88-H ) :   0.9973
B( 39-C , 40-S ) :   1.1503 B( 39-C , 89-H ) :   0.9659 B( 41-C , 42-C ) :   1.1669
B( 42-C , 43-C ) :   1.5952 B( 42-C , 90-H ) :   0.9529 B( 43-C , 44-C ) :   1.1308
B( 43-C , 91-H ) :   0.9736 B( 44-C , 45-C ) :   1.2745 B( 44-C , 51-C ) :   1.3251
B( 45-C , 46-O ) :   1.1363 B( 45-C , 48-C ) :   1.3371 B( 46-O , 47-C ) :   0.9486
B( 47-C , 92-H ) :   0.9745 B( 47-C , 93-H ) :   0.9716 B( 47-C , 94-H ) :   0.9677
B( 48-C , 49-C ) :   1.2489 B( 48-C , 95-H ) :   1.0036 B( 49-C , 50-C ) :   1.2989
B( 49-C , 54-C ) :   1.1236 B( 50-C , 51-C ) :   1.3090 B( 50-C , 52-O ) :   1.1651
B( 51-C , 96-H ) :   0.9872 B( 52-O , 53-C ) :   0.9449 B( 53-C , 97-H ) :   0.9750
B( 53-C , 98-H ) :   0.9673 B( 53-C , 99-H ) :   0.9695 B( 54-C , 55-C ) :   1.6189
B( 54-C ,100-H ) :   0.9341 B( 55-C , 56-C ) :   1.0554 B( 55-C , 64-C ) :   0.9470
B( 56-C , 57-C ) :   1.6243 B( 56-C , 62-C ) :   1.0148 B( 57-C , 58-C ) :   1.1424
B( 57-C , 60-C ) :   1.1754 B( 58-C , 59-N ) :   2.9764 B( 60-C , 61-N ) :   3.0040
B( 62-C , 63-C ) :   1.2722 B( 62-C , 69-C ) :   1.4163 B( 63-C , 64-C ) :   0.9231
B( 63-C , 66-C ) :   1.4268 B( 64-C , 65-O ) :   2.2475 B( 66-C , 67-C ) :   1.2498
B( 66-C ,101-H ) :   1.0158 B( 67-C , 68-C ) :   1.3135 B( 67-C , 72-C ) :   1.1603
B( 68-C , 69-C ) :   1.3225 B( 68-C , 70-S ) :   1.0822 B( 69-C ,102-H ) :   0.9825
B( 70-S , 71-C ) :   1.0840 B( 71-C , 72-C ) :   1.6226 B( 71-C , 73-Br) :   1.0148
B( 72-C ,103-H ) :   1.0002

-----------------------------------------------------------------------------
         ABSORPTION SPECTRUM VIA TRANSITION ELECTRIC DIPOLE MOMENTS
-----------------------------------------------------------------------------
State   Energy  Wavelength   fosc         T2         TX        TY        TZ
        (cm-1)    (nm)                  (au**2)     (au)      (au)      (au)
-----------------------------------------------------------------------------
   0   14361.6    696.3   1.041440894  23.87299  -1.19351  -3.22037  -3.47530
   1   18008.5    555.3   0.521902062   9.54087   1.79923  -0.95935   2.32019
   2   21697.2    460.9   0.364190161   5.52587   0.43718  -2.30922  -0.04722
   3   22291.8    448.6   0.125902085   1.85936  -0.57622   1.23343  -0.07744
   4   23152.4    431.9   0.026154948   0.37191   0.28231   0.41629   0.34483
   5   23996.6    416.7   0.056400972   0.77377  -0.23998  -0.54394  -0.64832
   6   25024.7    399.6   0.323054590   4.24993   1.29225  -0.94234   1.30077
   7   26157.4    382.3   0.160928759   2.02542   0.83297  -1.10890   0.31927
   8   27575.7    362.6   0.038108616   0.45496   0.55569  -0.35910   0.13123
   9   27888.0    358.6   0.213116085   2.51579   0.37921   0.91538   1.23858
  10   28151.0    355.2   0.114154782   1.33498  -0.75477   0.77816   0.39971
  11   28266.2    353.8   0.009282831   0.10812   0.08905   0.17329   0.26487
  12   28952.8    345.4   0.015314016   0.17413  -0.39076  -0.08004   0.12259
  13   29639.3    337.4   0.197192818   2.19027   0.40982   0.93322   1.07304
  14   29871.2    334.8   0.515964519   5.68647  -1.42770  -0.99386  -1.63107
  15   30307.5    330.0   0.040790283   0.44308   0.54396   0.06252   0.37852
  16   30481.0    328.1   0.003939418   0.04255  -0.13216  -0.07936  -0.13706
  17   30891.0    323.7   0.023751122   0.25312  -0.27661   0.40691   0.10502
  18   31358.2    318.9   0.255747621   2.68495  -0.18359   1.46750   0.70547
  19   31621.8    316.2   0.001103764   0.01149   0.05436   0.04307   0.08174
  20   31759.6    314.9   0.001091074   0.01131   0.02328  -0.02707   0.10018
  21   32391.3    308.7   0.157894111   1.60477  -0.95333  -0.16409  -0.81792
  22   32607.8    306.7   0.150645506   1.52093  -1.10672   0.34789  -0.41843
  23   33245.4    300.8   0.128349472   1.27098   0.52798   0.03382   0.99553
  24   33321.8    300.1   0.390208783   3.85517   0.34832   1.45595   1.27046
  25   33629.5    297.4   0.077383807   0.75754   0.69734  -0.04522   0.51886
  26   33758.3    296.2   0.517585172   5.04750  -1.53705   0.29301  -1.61218
  27   34039.4    293.8   0.042361551   0.40970  -0.36861  -0.44356  -0.27763
  28   34828.9    287.1   0.326440498   3.08560   1.55935   0.11962   0.79982
  29   35178.1    284.3   0.089117297   0.83400  -0.00921   0.73586   0.54076
  30   35599.2    280.9   0.122858980   1.13617  -0.72782  -0.05859  -0.77654
  31   35750.8    279.7   0.082564802   0.76030   0.50168  -0.67139   0.24052
  32   36118.9    276.9   0.044105425   0.40201  -0.31348   0.52877  -0.15539
  33   36804.6    271.7   0.121660845   1.08824   0.33663  -0.96885  -0.19042
  34   36919.7    270.9   0.101920241   0.90882   0.31292   0.60304   0.66876
  35   37171.6    269.0   0.135602111   1.20097  -0.14536   1.04816   0.28495
  36   37477.1    266.8   0.004231441   0.03717  -0.13271   0.10317  -0.09443
  37   37917.8    263.7   0.019011256   0.16506  -0.18953  -0.24501  -0.26289
  38   38190.7    261.8   0.059862701   0.51603   0.24285   0.58243   0.34326
  39   38391.6    260.5   0.104325238   0.89460   0.39724  -0.85445  -0.08191
  40   38763.8    258.0   0.019861652   0.16868  -0.12185   0.38059  -0.09480
  41   38804.7    257.7   0.116084044   0.98484  -0.56443   0.80911  -0.10762
  42   39080.7    255.9   0.109432149   0.92185  -0.03149   0.86309   0.41945
  43   39440.9    253.5   0.148693198   1.24114   0.94344  -0.12399   0.57937
  44   39773.3    251.4   0.014682171   0.12153  -0.33919  -0.01598   0.07887
  45   40212.0    248.7   0.054174911   0.44352  -0.51556   0.40354   0.12199

FINAL SINGLE POINT ENERGY     -9635.016990006237

DIPOLE MOMENT
-------------
                                X             Y             Z
Electronic contribution:     58.87611     -63.73148      16.68914
Nuclear contribution   :    -59.58192      64.56283     -19.71958
                        -----------------------------------------
Total Dipole Moment    :     -0.70581       0.83135      -3.03044
                        -----------------------------------------
Magnitude (a.u.)       :      3.22069
Magnitude (Debye)      :      8.18635

Rotational constants in cm-1:     0.001081     0.000178     0.000154
Rotational constants in MHz :    32.414215     5.322410     4.623670

                             ****ORCA TERMINATED NORMALLY****
TOTAL RUN TIME: 0 days 0 hours 15 minutes 41 seconds 435 msec
