                         Program Version 4.2.0 -  RELEASE  -
|  1> # ORCA input file
|  2> # SCF done       -201.041199271414          0.000952021436
|  3> ! CAM-B3LYP def2-SVP def2/J RIJCOSX Grid4 TightSCF
|  4> %maxcore 5000
|  5> %tddft
|  6>     Mode sTDDFT
|  7>     Ethresh 5.0
|  8>     maxcore 5000
|  9> end
| 10>
| 11> %pal
| 12>   nprocs 6
| 13>   end
| 14> * xyz 0 1
| 15>    C       -7.60388        -2.56723        -4.43401
| 16>    C       -8.12948        -1.98360        -5.55835
| 17>    C       -8.20486        -2.62065        -6.81595
| 18>    N       -8.29808        -3.07586        -7.86590
| 19>    C       -8.65599        -0.67869        -5.66736
| 20>    N       -9.09751         0.36356        -5.86416
| 21>    C       -7.03511        -3.90982        -4.38757
| 22>    C       -6.52814        -4.14038        -3.08745
| 23>    C       -5.92178        -5.31686        -2.71959
| 24>    C       -5.81083        -6.32158        -3.68538
| 25>    C       -6.32215        -6.08572        -4.98421
| 26>    C       -6.93423        -4.89457        -5.35409
| 27>    S       -6.08374        -7.45844        -6.02250
| 28>    C       -5.31059        -8.31727        -4.71642
| 29>    C       -5.23440        -7.61500        -3.56095
| 30>   Br       -4.67812       -10.05949        -5.00084
| 31>    C       -6.76217        -2.95296        -2.24564
| 32>    O       -6.42545        -2.84488        -1.08483
| 33>    C       -7.47584        -1.97995        -3.10652
| 34>    C       -7.98954        -0.75718        -2.76758
| 35>    C       -7.95742        -0.02872        -1.56049
| 36>    C       -7.38773        -0.26624        -0.32284
| 37>    C       -7.62189         0.75343         0.59615
| 38>   Cl       -7.14807         0.62038         2.23715
| 39>    C       -8.36435         1.81761         0.09261
| 40>    S       -8.79741         1.51177        -1.55459
| 41>    C       -8.80175         3.00114         0.75485
| 42>    C       -8.13262         3.81945         1.65312
| 43>   Cl       -6.47201         3.65013         2.03834
| 44>    C       -8.89701         4.87797         2.14512
| 45>    C      -10.17980         4.91469         1.62604
| 46>    S      -10.40668         3.61493         0.48083
| 47>    C      -11.25911         5.77925         1.89168
| 48>    C      -11.34108         6.73950         2.86645
| 49>    C      -12.47935         7.55025         3.12483
| 50>    C      -12.34787         8.38613         4.18945
| 51>    C      -11.09322         8.29508         4.83541
| 52>    S      -10.08249         7.11686         4.02677
| 53>    C      -10.64953         8.97141         5.95316
| 54>    C      -11.34844         9.90177         6.75677
| 55>    C      -10.63459        10.35120         7.82347
| 56>    C       -9.32322         9.81302         7.92590
| 57>    S       -9.04046         8.71245         6.59111
| 58>    C       -8.43240        10.08744         8.93069
| 59>    C       -7.11789         9.60228         9.07437
| 60>    C       -6.34057         8.82528         8.23221
| 61>    C       -5.06483         8.57236         8.73775
| 62>   Cl       -3.95869         7.53852         7.93605
| 63>    C       -4.81897         9.14403         9.97628
| 64>    S       -6.22901        10.00124        10.52492
| 65>    C       -3.65346         9.08309        10.79459
| 66>    C       -2.31565         9.20091        10.45201
| 67>   Cl       -1.76898         9.58154         8.87441
| 68>    C       -1.44400         9.06998        11.53506
| 69>    C       -2.08814         8.89040        12.74370
| 70>    S       -3.81604         8.84787        12.50569
| 71>    C       -1.45600         8.63927        13.98447
| 72>    C       -1.97816         8.60553        15.23958
| 73>    C       -3.23822         9.06131        15.78779
| 74>    C       -3.92401        10.18295        15.40210
| 75>    C       -5.10664        10.62986        16.02338
| 76>    N       -6.08195        11.01740        16.48838
| 77>    C       -3.44677        11.06776        14.41213
| 78>    N       -3.04755        11.83648        13.65938
| 79>    C       -3.47932         8.29597        17.00539
| 80>    C       -2.29161         7.59737        17.34228
| 81>    C       -1.27087         7.83693        16.30172
| 82>    O       -0.12692         7.44756        16.27719
| 83>    C       -2.19126         6.81957        18.47027
| 84>    C       -3.31782         6.71480        19.29309
| 85>    C       -4.50240         7.40491        18.93894
| 86>    C       -4.60136         8.20263        17.80530
| 87>    S       -5.77416         7.12156        20.08759
| 88>    C       -4.71224         6.09697        21.01753
| 89>    C       -3.46889         5.97201        20.49621
| 90>   Br       -5.34711         5.28774        22.58537
| 91>    H       -5.54633        -5.45586        -1.71790
| 92>    H       -7.30786        -4.76988        -6.35621
| 93>    H       -4.79079        -7.99147        -2.65733
| 94>    H       -8.52909        -0.23653        -3.54969
| 95>    H       -6.83799        -1.16070        -0.09265
| 96>    H       -8.50414         5.59891         2.83618
| 97>    H      -12.13935         5.63989         1.27802
| 98>    H      -13.36207         7.47624         2.51483
| 99>    H      -13.11367         9.05963         4.52954
|100>    H      -12.35571        10.20241         6.53156
|101>    H      -11.00267        11.05460         8.54911
|102>    H       -8.77916        10.74928         9.71343
|103>    H       -6.66786         8.44844         7.28228
|104>    H       -0.37555         9.14117        11.44360
|105>    H       -0.41817         8.32705        13.91262
|106>    H       -1.27372         6.30593        18.71067
|107>    H       -5.52347         8.70773        17.56873
|108>    H       -2.68903         5.37982        20.93907
|109> *
|110>
|111>                          ****END OF INPUT****

CARTESIAN COORDINATES (ANGSTROEM)
---------------------------------
  C     -7.603880   -2.567230   -4.434010
  C     -8.129480   -1.983600   -5.558350
  C     -8.204860   -2.620650   -6.815950
  N     -8.298080   -3.075860   -7.865900
  C     -8.655990   -0.678690   -5.667360
  N     -9.097510    0.363560   -5.864160
  C     -7.035110   -3.909820   -4.387570
  C     -6.528140   -4.140380   -3.087450
  C     -5.921780   -5.316860   -2.719590
  C     -5.810830   -6.321580   -3.685380
  C     -6.322150   -6.085720   -4.984210
  C     -6.934230   -4.894570   -5.354090
  S     -6.083740   -7.458440   -6.022500
  C     -5.310590   -8.317270   -4.716420
  C     -5.234400   -7.615000   -3.560950
  Br    -4.678120  -10.059490   -5.000840
  C     -6.762170   -2.952960   -2.245640
  O     -6.425450   -2.844880   -1.084830
  C     -7.475840   -1.979950   -3.106520
  C     -7.989540   -0.757180   -2.767580
  C     -7.957420   -0.028720   -1.560490
  C     -7.387730   -0.266240   -0.322840
  C     -7.621890    0.753430    0.596150
  Cl    -7.148070    0.620380    2.237150
  C     -8.364350    1.817610    0.092610
  S     -8.797410    1.511770   -1.554590
  C     -8.801750    3.001140    0.754850
  C     -8.132620    3.819450    1.653120
  Cl    -6.472010    3.650130    2.038340
  C     -8.897010    4.877970    2.145120
  C    -10.179800    4.914690    1.626040
  S    -10.406680    3.614930    0.480830
  C    -11.259110    5.779250    1.891680
  C    -11.341080    6.739500    2.866450
  C    -12.479350    7.550250    3.124830
  C    -12.347870    8.386130    4.189450
  C    -11.093220    8.295080    4.835410
  S    -10.082490    7.116860    4.026770
  C    -10.649530    8.971410    5.953160
  C    -11.348440    9.901770    6.756770
  C    -10.634590   10.351200    7.823470
  C     -9.323220    9.813020    7.925900
  S     -9.040460    8.712450    6.591110
  C     -8.432400   10.087440    8.930690
  C     -7.117890    9.602280    9.074370
  C     -6.340570    8.825280    8.232210
  C     -5.064830    8.572360    8.737750
  Cl    -3.958690    7.538520    7.936050
  C     -4.818970    9.144030    9.976280
  S     -6.229010   10.001240   10.524920
  C     -3.653460    9.083090   10.794590
  C     -2.315650    9.200910   10.452010
  Cl    -1.768980    9.581540    8.874410
  C     -1.444000    9.069980   11.535060
  C     -2.088140    8.890400   12.743700
  S     -3.816040    8.847870   12.505690
  C     -1.456000    8.639270   13.984470
  C     -1.978160    8.605530   15.239580
  C     -3.238220    9.061310   15.787790
  C     -3.924010   10.182950   15.402100
  C     -5.106640   10.629860   16.023380
  N     -6.081950   11.017400   16.488380
  C     -3.446770   11.067760   14.412130
  N     -3.047550   11.836480   13.659380
  C     -3.479320    8.295970   17.005390
  C     -2.291610    7.597370   17.342280
  C     -1.270870    7.836930   16.301720
  O     -0.126920    7.447560   16.277190
  C     -2.191260    6.819570   18.470270
  C     -3.317820    6.714800   19.293090
  C     -4.502400    7.404910   18.938940
  C     -4.601360    8.202630   17.805300
  S     -5.774160    7.121560   20.087590
  C     -4.712240    6.096970   21.017530
  C     -3.468890    5.972010   20.496210
  Br    -5.347110    5.287740   22.585370
  H     -5.546330   -5.455860   -1.717900
  H     -7.307860   -4.769880   -6.356210
  H     -4.790790   -7.991470   -2.657330
  H     -8.529090   -0.236530   -3.549690
  H     -6.837990   -1.160700   -0.092650
  H     -8.504140    5.598910    2.836180
  H    -12.139350    5.639890    1.278020
  H    -13.362070    7.476240    2.514830
  H    -13.113670    9.059630    4.529540
  H    -12.355710   10.202410    6.531560
  H    -11.002670   11.054600    8.549110
  H     -8.779160   10.749280    9.713430
  H     -6.667860    8.448440    7.282280
  H     -0.375550    9.141170   11.443600
  H     -0.418170    8.327050   13.912620
  H     -1.273720    6.305930   18.710670
  H     -5.523470    8.707730   17.568730
  H     -2.689030    5.379820   20.939070

 Total Charge           Charge          ....    0
 Multiplicity           Mult            ....    1
 Number of Electrons    NEL             ....  664
 Basis Dimension        Dim             .... 1238

ORBITAL ENERGIES
----------------

  NO   OCC          E(Eh)            E(eV)
   0   2.0000    -482.886818    -13140.0183
   1   2.0000    -482.886116    -13139.9992
   2   2.0000    -101.590693     -2764.4233
   3   2.0000    -101.590616     -2764.4212
   4   2.0000    -101.590535     -2764.4190
   5   2.0000    -101.588887     -2764.3742
   6   2.0000     -88.977209     -2421.1929
   7   2.0000     -88.976042     -2421.1612
   8   2.0000     -88.975933     -2421.1582
   9   2.0000     -88.975213     -2421.1386
  10   2.0000     -88.970577     -2421.0125
  11   2.0000     -88.969836     -2420.9923
  12   2.0000     -88.959222     -2420.7035
  13   2.0000     -88.959152     -2420.7016
  14   2.0000     -62.564529     -1702.4674
  15   2.0000     -62.563824     -1702.4482
  16   2.0000     -56.398482     -1534.6807
  17   2.0000     -56.397775     -1534.6615
  18   2.0000     -56.395763     -1534.6067
  19   2.0000     -56.395731     -1534.6059
  20   2.0000     -56.395057     -1534.5875
  21   2.0000     -56.395027     -1534.5867
  22   2.0000     -19.220745      -523.0231
  23   2.0000     -19.216021      -522.8945
  24   2.0000     -14.418299      -392.3419
  25   2.0000     -14.417685      -392.3252
  26   2.0000     -14.414672      -392.2432
  27   2.0000     -14.413560      -392.2129
  28   2.0000     -10.371507      -282.2230
  29   2.0000     -10.367895      -282.1248
  30   2.0000     -10.360224      -281.9160
  31   2.0000     -10.359655      -281.9006
  32   2.0000     -10.345668      -281.5199
  33   2.0000     -10.343875      -281.4712
  34   2.0000     -10.343222      -281.4534
  35   2.0000     -10.342410      -281.4313
  36   2.0000     -10.338779      -281.3325
  37   2.0000     -10.338103      -281.3141
  38   2.0000     -10.337860      -281.3075
  39   2.0000     -10.336455      -281.2692
  40   2.0000     -10.334948      -281.2282
  41   2.0000     -10.333001      -281.1753
  42   2.0000     -10.327760      -281.0326
  43   2.0000     -10.326434      -280.9966
  44   2.0000     -10.326138      -280.9885
  45   2.0000     -10.324278      -280.9379
  46   2.0000     -10.323994      -280.9302
  47   2.0000     -10.323696      -280.9220
  48   2.0000     -10.322976      -280.9025
  49   2.0000     -10.322598      -280.8922
  50   2.0000     -10.322558      -280.8911
  51   2.0000     -10.322538      -280.8906
  52   2.0000     -10.321950      -280.8745
  53   2.0000     -10.321434      -280.8605
  54   2.0000     -10.321020      -280.8492
  55   2.0000     -10.320618      -280.8383
  56   2.0000     -10.320585      -280.8374
  57   2.0000     -10.320427      -280.8331
  58   2.0000     -10.317927      -280.7651
  59   2.0000     -10.315611      -280.7020
  60   2.0000     -10.310902      -280.5739
  61   2.0000     -10.309047      -280.5234
  62   2.0000     -10.308647      -280.5125
  63   2.0000     -10.308243      -280.5015
  64   2.0000     -10.307744      -280.4880
  65   2.0000     -10.305900      -280.4378
  66   2.0000     -10.303070      -280.3608
  67   2.0000     -10.302818      -280.3539
  68   2.0000     -10.302415      -280.3430
  69   2.0000     -10.301360      -280.3143
  70   2.0000     -10.299849      -280.2731
  71   2.0000     -10.299644      -280.2676
  72   2.0000     -10.299030      -280.2509
  73   2.0000     -10.298650      -280.2405
  74   2.0000     -10.298647      -280.2404
  75   2.0000     -10.298026      -280.2235
  76   2.0000     -10.297702      -280.2147
  77   2.0000     -10.297600      -280.2119
  78   2.0000     -10.297261      -280.2027
  79   2.0000     -10.294934      -280.1394
  80   2.0000     -10.292341      -280.0688
  81   2.0000     -10.291827      -280.0548
  82   2.0000     -10.287966      -279.9498
  83   2.0000     -10.287650      -279.9412
  84   2.0000      -9.545614      -259.7494
  85   2.0000      -9.545558      -259.7478
  86   2.0000      -9.545477      -259.7456
  87   2.0000      -9.543828      -259.7008
  88   2.0000      -8.793956      -239.2957
  89   2.0000      -8.793248      -239.2764
  90   2.0000      -8.073166      -219.6820
  91   2.0000      -8.072021      -219.6509
  92   2.0000      -8.071058      -219.6247
  93   2.0000      -8.070899      -219.6203
  94   2.0000      -8.066276      -219.4945
  95   2.0000      -8.065534      -219.4743
  96   2.0000      -8.055258      -219.1947
  97   2.0000      -8.055193      -219.1929
  98   2.0000      -7.316022      -199.0791
  99   2.0000      -7.315936      -199.0767
 100   2.0000      -7.315873      -199.0750
 101   2.0000      -7.314269      -199.0314
 102   2.0000      -7.305745      -198.7994
 103   2.0000      -7.305683      -198.7977
 104   2.0000      -7.305614      -198.7959
 105   2.0000      -7.305287      -198.7870
 106   2.0000      -7.305236      -198.7856
 107   2.0000      -7.305127      -198.7826
 108   2.0000      -7.303943      -198.7504
 109   2.0000      -7.303448      -198.7369
 110   2.0000      -6.630260      -180.4185
 111   2.0000      -6.629550      -180.3992
 112   2.0000      -6.615680      -180.0218
 113   2.0000      -6.615497      -180.0168
 114   2.0000      -6.614994      -180.0031
 115   2.0000      -6.614772      -179.9971
 116   2.0000      -6.042864      -164.4347
 117   2.0000      -6.041693      -164.4028
 118   2.0000      -6.040374      -164.3669
 119   2.0000      -6.040073      -164.3587
 120   2.0000      -6.038579      -164.3181
 121   2.0000      -6.037441      -164.2871
 122   2.0000      -6.036284      -164.2556
 123   2.0000      -6.036067      -164.2497
 124   2.0000      -6.035601      -164.2370
 125   2.0000      -6.034835      -164.2162
 126   2.0000      -6.034407      -164.2046
 127   2.0000      -6.033248      -164.1730
 128   2.0000      -6.033001      -164.1663
 129   2.0000      -6.032985      -164.1659
 130   2.0000      -6.031615      -164.1286
 131   2.0000      -6.030836      -164.1074
 132   2.0000      -6.028091      -164.0327
 133   2.0000      -6.027374      -164.0132
 134   2.0000      -6.025021      -163.9492
 135   2.0000      -6.024951      -163.9473
 136   2.0000      -6.020880      -163.8365
 137   2.0000      -6.020844      -163.8355
 138   2.0000      -6.016190      -163.7088
 139   2.0000      -6.016159      -163.7080
 140   2.0000      -2.746142       -74.7263
 141   2.0000      -2.745430       -74.7070
 142   2.0000      -2.742044       -74.6148
 143   2.0000      -2.741884       -74.6104
 144   2.0000      -2.741332       -74.5954
 145   2.0000      -2.741178       -74.5912
 146   2.0000      -2.730314       -74.2956
 147   2.0000      -2.730287       -74.2949
 148   2.0000      -2.729600       -74.2762
 149   2.0000      -2.729590       -74.2759
 150   2.0000      -1.135854       -30.9082
 151   2.0000      -1.131727       -30.7959
 152   2.0000      -1.028149       -27.9774
 153   2.0000      -1.026330       -27.9278
 154   2.0000      -1.023942       -27.8629
 155   2.0000      -1.023619       -27.8541
 156   2.0000      -1.014518       -27.6064
 157   2.0000      -1.014419       -27.6038
 158   2.0000      -1.009820       -27.4786
 159   2.0000      -1.004643       -27.3377
 160   2.0000      -1.002462       -27.2784
 161   2.0000      -0.994953       -27.0741
 162   2.0000      -0.994412       -27.0593
 163   2.0000      -0.990784       -26.9606
 164   2.0000      -0.990282       -26.9470
 165   2.0000      -0.985723       -26.8229
 166   2.0000      -0.958962       -26.0947
 167   2.0000      -0.958263       -26.0757
 168   2.0000      -0.950281       -25.8585
 169   2.0000      -0.949253       -25.8305
 170   2.0000      -0.942053       -25.6346
 171   2.0000      -0.941706       -25.6251
 172   2.0000      -0.913489       -24.8573
 173   2.0000      -0.910234       -24.7687
 174   2.0000      -0.909141       -24.7390
 175   2.0000      -0.908387       -24.7185
 176   2.0000      -0.900615       -24.5070
 177   2.0000      -0.890304       -24.2264
 178   2.0000      -0.887729       -24.1563
 179   2.0000      -0.886414       -24.1205
 180   2.0000      -0.878502       -23.9053
 181   2.0000      -0.869470       -23.6595
 182   2.0000      -0.861669       -23.4472
 183   2.0000      -0.851509       -23.1707
 184   2.0000      -0.849093       -23.1050
 185   2.0000      -0.837256       -22.7829
 186   2.0000      -0.833278       -22.6746
 187   2.0000      -0.830954       -22.6114
 188   2.0000      -0.830165       -22.5899
 189   2.0000      -0.826543       -22.4914
 190   2.0000      -0.825282       -22.4571
 191   2.0000      -0.820842       -22.3362
 192   2.0000      -0.812583       -22.1115
 193   2.0000      -0.799788       -21.7633
 194   2.0000      -0.784805       -21.3556
 195   2.0000      -0.770870       -20.9765
 196   2.0000      -0.763494       -20.7757
 197   2.0000      -0.760365       -20.6906
 198   2.0000      -0.753389       -20.5008
 199   2.0000      -0.738025       -20.0827
 200   2.0000      -0.719405       -19.5760
 201   2.0000      -0.712161       -19.3789
 202   2.0000      -0.702688       -19.1211
 203   2.0000      -0.695100       -18.9146
 204   2.0000      -0.692741       -18.8504
 205   2.0000      -0.689196       -18.7540
 206   2.0000      -0.687967       -18.7205
 207   2.0000      -0.680962       -18.5299
 208   2.0000      -0.680279       -18.5113
 209   2.0000      -0.672937       -18.3115
 210   2.0000      -0.664260       -18.0754
 211   2.0000      -0.660485       -17.9727
 212   2.0000      -0.657985       -17.9047
 213   2.0000      -0.646832       -17.6012
 214   2.0000      -0.642052       -17.4711
 215   2.0000      -0.638073       -17.3628
 216   2.0000      -0.633937       -17.2503
 217   2.0000      -0.631400       -17.1813
 218   2.0000      -0.627779       -17.0827
 219   2.0000      -0.625433       -17.0189
 220   2.0000      -0.623211       -16.9584
 221   2.0000      -0.617274       -16.7969
 222   2.0000      -0.613146       -16.6845
 223   2.0000      -0.598955       -16.2984
 224   2.0000      -0.598294       -16.2804
 225   2.0000      -0.595953       -16.2167
 226   2.0000      -0.591517       -16.0960
 227   2.0000      -0.585066       -15.9204
 228   2.0000      -0.575594       -15.6627
 229   2.0000      -0.573779       -15.6133
 230   2.0000      -0.573174       -15.5969
 231   2.0000      -0.561200       -15.2710
 232   2.0000      -0.559556       -15.2263
 233   2.0000      -0.551016       -14.9939
 234   2.0000      -0.545917       -14.8552
 235   2.0000      -0.543248       -14.7825
 236   2.0000      -0.542448       -14.7608
 237   2.0000      -0.542210       -14.7543
 238   2.0000      -0.541470       -14.7342
 239   2.0000      -0.536449       -14.5975
 240   2.0000      -0.533900       -14.5282
 241   2.0000      -0.533226       -14.5098
 242   2.0000      -0.529062       -14.3965
 243   2.0000      -0.528356       -14.3773
 244   2.0000      -0.525448       -14.2982
 245   2.0000      -0.523254       -14.2385
 246   2.0000      -0.521895       -14.2015
 247   2.0000      -0.519536       -14.1373
 248   2.0000      -0.516969       -14.0674
 249   2.0000      -0.512161       -13.9366
 250   2.0000      -0.510725       -13.8975
 251   2.0000      -0.509788       -13.8720
 252   2.0000      -0.509227       -13.8568
 253   2.0000      -0.508142       -13.8272
 254   2.0000      -0.505142       -13.7456
 255   2.0000      -0.503941       -13.7129
 256   2.0000      -0.503141       -13.6912
 257   2.0000      -0.501432       -13.6446
 258   2.0000      -0.497652       -13.5418
 259   2.0000      -0.494746       -13.4627
 260   2.0000      -0.494111       -13.4454
 261   2.0000      -0.493792       -13.4368
 262   2.0000      -0.493411       -13.4264
 263   2.0000      -0.491328       -13.3697
 264   2.0000      -0.482656       -13.1337
 265   2.0000      -0.478090       -13.0095
 266   2.0000      -0.476604       -12.9691
 267   2.0000      -0.474181       -12.9031
 268   2.0000      -0.472204       -12.8493
 269   2.0000      -0.467376       -12.7180
 270   2.0000      -0.466875       -12.7043
 271   2.0000      -0.461891       -12.5687
 272   2.0000      -0.459242       -12.4966
 273   2.0000      -0.457807       -12.4576
 274   2.0000      -0.451212       -12.2781
 275   2.0000      -0.449539       -12.2326
 276   2.0000      -0.449389       -12.2285
 277   2.0000      -0.448832       -12.2133
 278   2.0000      -0.447310       -12.1719
 279   2.0000      -0.447125       -12.1669
 280   2.0000      -0.444517       -12.0959
 281   2.0000      -0.444113       -12.0849
 282   2.0000      -0.443940       -12.0802
 283   2.0000      -0.441524       -12.0145
 284   2.0000      -0.440414       -11.9843
 285   2.0000      -0.437573       -11.9070
 286   2.0000      -0.436866       -11.8877
 287   2.0000      -0.436560       -11.8794
 288   2.0000      -0.435392       -11.8476
 289   2.0000      -0.430157       -11.7052
 290   2.0000      -0.428832       -11.6691
 291   2.0000      -0.427553       -11.6343
 292   2.0000      -0.426719       -11.6116
 293   2.0000      -0.424656       -11.5555
 294   2.0000      -0.422660       -11.5012
 295   2.0000      -0.421393       -11.4667
 296   2.0000      -0.412774       -11.2322
 297   2.0000      -0.411139       -11.1877
 298   2.0000      -0.408595       -11.1184
 299   2.0000      -0.407356       -11.0847
 300   2.0000      -0.405414       -11.0319
 301   2.0000      -0.402194       -10.9443
 302   2.0000      -0.394475       -10.7342
 303   2.0000      -0.393894       -10.7184
 304   2.0000      -0.390713       -10.6318
 305   2.0000      -0.388922       -10.5831
 306   2.0000      -0.385769       -10.4973
 307   2.0000      -0.380605       -10.3568
 308   2.0000      -0.376164       -10.2359
 309   2.0000      -0.375465       -10.2169
 310   2.0000      -0.369223       -10.0471
 311   2.0000      -0.368317       -10.0224
 312   2.0000      -0.367027        -9.9873
 313   2.0000      -0.359686        -9.7875
 314   2.0000      -0.352299        -9.5865
 315   2.0000      -0.350621        -9.5409
 316   2.0000      -0.341657        -9.2970
 317   2.0000      -0.339158        -9.2290
 318   2.0000      -0.335645        -9.1334
 319   2.0000      -0.329965        -8.9788
 320   2.0000      -0.326296        -8.8790
 321   2.0000      -0.324974        -8.8430
 322   2.0000      -0.319703        -8.6996
 323   2.0000      -0.316980        -8.6255
 324   2.0000      -0.316795        -8.6204
 325   2.0000      -0.316149        -8.6029
 326   2.0000      -0.305172        -8.3042
 327   2.0000      -0.295577        -8.0431
 328   2.0000      -0.294354        -8.0098
 329   2.0000      -0.283464        -7.7134
 330   2.0000      -0.267108        -7.2684
 331   2.0000      -0.223294        -6.0761
 332   0.0000      -0.103918        -2.8278
 333   0.0000      -0.095245        -2.5917
 334   0.0000      -0.084020        -2.2863
 335   0.0000      -0.062414        -1.6984
 336   0.0000      -0.058714        -1.5977

MULLIKEN ATOMIC CHARGES
-----------------------
   0 C :    0.323227
   1 C :   -0.363264
   2 C :   -0.184578
   3 N :    0.145555
   4 C :   -0.185446
   5 N :    0.154670
   6 C :    0.012842
   7 C :   -0.011433
   8 C :   -0.072527
   9 C :    0.121305
  10 C :   -0.093762
  11 C :   -0.017172
  12 S :    0.187375
  13 C :   -0.123625
  14 C :    0.039991
  15 Br:    0.024912
  16 C :    0.156041
  17 O :   -0.154941
  18 C :   -0.088459
  19 C :    0.065850
  20 C :   -0.108044
  21 C :    0.014507
  22 C :    0.095257
  23 Cl:   -0.053384
  24 C :   -0.114416
  25 S :    0.172836
  26 C :   -0.146274
  27 C :    0.105329
  28 Cl:   -0.054170
  29 C :   -0.014978
  30 C :   -0.085772
  31 S :    0.152962
  32 C :    0.052639
  33 C :   -0.029251
  34 C :    0.036241
  35 C :    0.033578
  36 C :   -0.037076
  37 S :    0.066234
  38 C :   -0.035806
  39 C :    0.033096
  40 C :    0.037092
  41 C :   -0.029847
  42 S :    0.065658
  43 C :    0.050656
  44 C :   -0.086862
  45 C :   -0.010174
  46 C :    0.108226
  47 Cl:   -0.056565
  48 C :   -0.151596
  49 S :    0.162792
  50 C :   -0.118525
  51 C :    0.116822
  52 Cl:   -0.056022
  53 C :    0.033165
  54 C :   -0.081937
  55 S :    0.169134
  56 C :    0.066895
  57 C :   -0.135078
  58 C :    0.245527
  59 C :   -0.317583
  60 C :   -0.174768
  61 N :    0.157000
  62 C :   -0.218828
  63 N :    0.179088
  64 C :    0.006329
  65 C :    0.000529
  66 C :    0.139810
  67 O :   -0.141797
  68 C :   -0.070349
  69 C :    0.109686
  70 C :   -0.086222
  71 C :   -0.020581
  72 S :    0.185001
  73 C :   -0.125939
  74 C :    0.043560
  75 Br:    0.024378
  76 H :   -0.010520
  77 H :   -0.007752
  78 H :   -0.003227
  79 H :    0.000562
  80 H :    0.017160
  81 H :    0.001642
  82 H :   -0.011100
  83 H :   -0.005971
  84 H :   -0.008251
  85 H :   -0.008463
  86 H :   -0.005357
  87 H :   -0.009467
  88 H :   -0.002151
  89 H :    0.000970
  90 H :    0.026244
  91 H :   -0.008404
  92 H :   -0.002109
  93 H :   -0.002549
Sum of atomic charges:   -0.0000000

LOEWDIN ATOMIC CHARGES
----------------------
   0 C :    0.077775
   1 C :   -0.142601
   2 C :   -0.016990
   3 N :   -0.054650
   4 C :   -0.024599
   5 N :   -0.050288
   6 C :   -0.021747
   7 C :   -0.050479
   8 C :    0.022477
   9 C :   -0.032089
  10 C :   -0.143639
  11 C :   -0.009139
  12 S :    0.433315
  13 C :   -0.270950
  14 C :   -0.070199
  15 Br:    0.137756
  16 C :    0.088827
  17 O :   -0.140508
  18 C :   -0.096540
  19 C :    0.049129
  20 C :   -0.181101
  21 C :   -0.020043
  22 C :   -0.168371
  23 Cl:    0.154481
  24 C :   -0.192025
  25 S :    0.464597
  26 C :   -0.229825
  27 C :   -0.149212
  28 Cl:    0.155528
  29 C :   -0.083309
  30 C :   -0.157061
  31 S :    0.444318
  32 C :   -0.077847
  33 C :   -0.137589
  34 C :   -0.027277
  35 C :   -0.030609
  36 C :   -0.175090
  37 S :    0.389799
  38 C :   -0.173194
  39 C :   -0.031508
  40 C :   -0.025437
  41 C :   -0.138618
  42 S :    0.389764
  43 C :   -0.075175
  44 C :   -0.158492
  45 C :   -0.082002
  46 C :   -0.149826
  47 Cl:    0.153769
  48 C :   -0.229187
  49 S :    0.450873
  50 C :   -0.188873
  51 C :   -0.167019
  52 Cl:    0.154685
  53 C :   -0.023369
  54 C :   -0.180748
  55 S :    0.480227
  56 C :    0.054048
  57 C :   -0.097634
  58 C :    0.061444
  59 C :   -0.142672
  60 C :   -0.019667
  61 N :   -0.050660
  62 C :   -0.040829
  63 N :   -0.043987
  64 C :   -0.016880
  65 C :   -0.052338
  66 C :    0.084128
  67 O :   -0.142120
  68 C :    0.023562
  69 C :   -0.033476
  70 C :   -0.142799
  71 C :   -0.012718
  72 S :    0.431978
  73 C :   -0.271879
  74 C :   -0.069582
  75 Br:    0.137474
  76 H :    0.040980
  77 H :    0.040989
  78 H :    0.038969
  79 H :    0.042808
  80 H :    0.038125
  81 H :    0.022253
  82 H :    0.035491
  83 H :    0.035935
  84 H :    0.034253
  85 H :    0.034168
  86 H :    0.036386
  87 H :    0.036339
  88 H :    0.021240
  89 H :    0.041273
  90 H :    0.053222
  91 H :    0.041851
  92 H :    0.041016
  93 H :    0.039212

  Mayer bond orders larger than 0.100000
B(  0-C ,  1-C ) :   1.6146 B(  0-C ,  6-C ) :   0.9962 B(  0-C , 18-C ) :   1.0836
B(  1-C ,  2-C ) :   1.1490 B(  1-C ,  4-C ) :   1.1410 B(  2-C ,  3-N ) :   2.9638
B(  4-C ,  5-N ) :   2.9604 B(  6-C ,  7-C ) :   1.2780 B(  6-C , 11-C ) :   1.4048
B(  7-C ,  8-C ) :   1.4216 B(  7-C , 16-C ) :   0.9544 B(  8-C ,  9-C ) :   1.2432
B(  8-C , 76-H ) :   1.0170 B(  9-C , 10-C ) :   1.3038 B(  9-C , 14-C ) :   1.1635
B( 10-C , 11-C ) :   1.3349 B( 10-C , 12-S ) :   1.0867 B( 11-C , 77-H ) :   0.9787
B( 12-S , 13-C ) :   1.0866 B( 13-C , 14-C ) :   1.6174 B( 13-C , 15-Br) :   1.0196
B( 14-C , 78-H ) :   1.0004 B( 16-C , 17-O ) :   2.1662 B( 16-C , 18-C ) :   0.9360
B( 18-C , 19-C ) :   1.5955 B( 19-C , 20-C ) :   1.2159 B( 19-C , 79-H ) :   0.9063
B( 20-C , 21-C ) :   1.4239 B( 20-C , 24-C ) :   0.1045 B( 20-C , 25-S ) :   1.0898
B( 21-C , 22-C ) :   1.2586 B( 21-C , 80-H ) :   0.9839 B( 22-C , 23-Cl) :   1.0696
B( 22-C , 24-C ) :   1.4814 B( 24-C , 25-S ) :   1.1721 B( 24-C , 26-C ) :   1.0667
B( 26-C , 27-C ) :   1.5240 B( 26-C , 30-C ) :   0.1035 B( 26-C , 31-S ) :   1.1230
B( 27-C , 28-Cl) :   1.0696 B( 27-C , 29-C ) :   1.2733 B( 29-C , 30-C ) :   1.4420
B( 29-C , 81-H ) :   0.9858 B( 30-C , 31-S ) :   1.1091 B( 30-C , 32-C ) :   1.1585
B( 32-C , 33-C ) :   1.6081 B( 32-C , 82-H ) :   0.9516 B( 33-C , 34-C ) :   1.1407
B( 33-C , 37-S ) :   1.0430 B( 34-C , 35-C ) :   1.5978 B( 34-C , 83-H ) :   0.9987
B( 35-C , 36-C ) :   1.1814 B( 35-C , 84-H ) :   0.9931 B( 36-C , 37-S ) :   1.0400
B( 36-C , 38-C ) :   1.5188 B( 38-C , 39-C ) :   1.1802 B( 38-C , 42-S ) :   1.0419
B( 39-C , 40-C ) :   1.5993 B( 39-C , 85-H ) :   0.9930 B( 40-C , 41-C ) :   1.1381
B( 40-C , 86-H ) :   0.9994 B( 41-C , 42-S ) :   1.0415 B( 41-C , 43-C ) :   1.6119
B( 43-C , 44-C ) :   1.1564 B( 43-C , 87-H ) :   0.9529 B( 44-C , 45-C ) :   1.4413
B( 44-C , 48-C ) :   0.1037 B( 44-C , 49-S ) :   1.1107 B( 45-C , 46-C ) :   1.2754
B( 45-C , 88-H ) :   0.9855 B( 46-C , 47-Cl) :   1.0690 B( 46-C , 48-C ) :   1.5222
B( 48-C , 49-S ) :   1.1271 B( 48-C , 50-C ) :   1.0712 B( 50-C , 51-C ) :   1.5010
B( 50-C , 55-S ) :   1.1607 B( 51-C , 52-Cl) :   1.0578 B( 51-C , 53-C ) :   1.2616
B( 53-C , 54-C ) :   1.4298 B( 53-C , 89-H ) :   1.0087 B( 54-C , 55-S ) :   1.0943
B( 54-C , 56-C ) :   1.1446 B( 56-C , 57-C ) :   1.6519 B( 56-C , 90-H ) :   0.9447
B( 57-C , 58-C ) :   1.0284 B( 57-C , 66-C ) :   0.9407 B( 58-C , 59-C ) :   1.6575
B( 58-C , 64-C ) :   1.0187 B( 59-C , 60-C ) :   1.1331 B( 59-C , 62-C ) :   1.1490
B( 60-C , 61-N ) :   2.9932 B( 62-C , 63-N ) :   3.0320 B( 64-C , 65-C ) :   1.2752
B( 64-C , 71-C ) :   1.4169 B( 65-C , 66-C ) :   0.9211 B( 65-C , 68-C ) :   1.4269
B( 66-C , 67-O ) :   2.2675 B( 68-C , 69-C ) :   1.2538 B( 68-C , 91-H ) :   1.0159
B( 69-C , 70-C ) :   1.3083 B( 69-C , 74-C ) :   1.1626 B( 70-C , 71-C ) :   1.3249
B( 70-C , 72-S ) :   1.0835 B( 71-C , 92-H ) :   0.9842 B( 72-S , 73-C ) :   1.0868
B( 73-C , 74-C ) :   1.6198 B( 73-C , 75-Br) :   1.0195 B( 74-C , 93-H ) :   1.0003

-----------------------------------------------------------------------------
         ABSORPTION SPECTRUM VIA TRANSITION ELECTRIC DIPOLE MOMENTS
-----------------------------------------------------------------------------
State   Energy  Wavelength   fosc         T2         TX        TY        TZ
        (cm-1)    (nm)                  (au**2)     (au)      (au)      (au)
-----------------------------------------------------------------------------
   0   13216.1    756.7   1.931875701  48.12282  -1.61871  -3.51684  -5.75625
   1   16834.0    594.0   0.300601464   5.87868   1.34615  -2.01647   0.02066
   2   19105.0    523.4   0.083824946   1.44445   1.11815   0.13428   0.41970
   3   21976.2    455.0   0.250789156   3.75693  -1.19563   1.44997  -0.47431
   4   23695.3    422.0   0.614707783   8.54047  -0.82836   1.51367   2.35862
   5   24967.2    400.5   0.253479812   3.34233  -1.33327   1.25067  -0.02306
   6   25584.7    390.9   0.000264322   0.00340  -0.02310   0.01512   0.05137
   7   25928.2    385.7   0.134393580   1.70640   1.04262   0.16854   0.76873
   8   27178.6    367.9   0.265565512   3.21677   0.16396  -1.16548   1.35335
   9   27391.5    365.1   0.394471452   4.74107  -1.03489   1.91516  -0.04747
  10   28231.5    354.2   0.044925924   0.52389   0.69850  -0.14772   0.11904
  11   28460.5    351.4   0.287209655   3.32225   1.70867  -0.63217  -0.05543
  12   29465.5    339.4   0.018804094   0.21009   0.34867   0.25446  -0.15417
  13   29492.4    339.1   0.015256009   0.17030  -0.32362   0.10436   0.23383
  14   29596.6    337.9   0.033514115   0.37279   0.35526  -0.39208  -0.30471
  15   29910.6    334.3   0.009194955   0.10120   0.24841   0.14616   0.13467
  16   30575.7    327.1   0.025949059   0.27940   0.20130   0.21187  -0.44044
  17   30630.4    326.5   0.005020634   0.05396  -0.17985   0.14601  -0.01720
  18   31364.5    318.8   0.049587527   0.52049   0.16948   0.68558  -0.14744
  19   31601.8    316.4   0.212089376   2.20944   0.82225  -1.16887   0.40878
  20   32069.1    311.8   0.062152209   0.63804  -0.68721  -0.31458   0.25849
  21   32097.3    311.6   0.039857965   0.40881   0.07003   0.53685  -0.34015
  22   32593.3    306.8   0.016349841   0.16514  -0.10215   0.37437   0.12066
  23   32932.3    303.7   0.382268270   3.82140  -0.89648   1.51833   0.84404
  24   33013.9    302.9   0.161123835   1.60671   0.06978   0.01588   1.26554
  25   33255.1    300.7   0.026945821   0.26675   0.20452  -0.47322   0.03151
  26   33326.3    300.1   0.259244828   2.56094   0.62292  -1.09067   0.99164
  27   33484.5    298.6   0.508780145   5.00221   0.63879  -1.37911   1.64079
  28   33575.9    297.8   0.033048019   0.32404  -0.31789   0.44570  -0.15598
  29   33703.9    296.7   0.233254068   2.27837   0.84860   0.43924  -1.16847
  30   34005.9    294.1   0.237616168   2.30037  -0.01169  -1.09122   1.05331
  31   34723.7    288.0   0.030256874   0.28686   0.21182  -0.31915   0.37435
  32   34797.2    287.4   0.000959549   0.00908   0.02500  -0.01390  -0.09088
  33   35115.6    284.8   0.016825536   0.15774   0.10673  -0.16366   0.34578
  34   35450.4    282.1   0.059243390   0.55017  -0.38386   0.53756   0.33741
  35   35642.0    280.6   0.009322098   0.08610   0.18135  -0.18425   0.13881
  36   35809.1    279.3   0.029413389   0.27041  -0.46965  -0.01647  -0.22265
  37   36156.3    276.6   0.020543776   0.18706   0.21353  -0.00415  -0.37609
  38   36560.7    273.5   0.017174821   0.15465   0.15774  -0.09398  -0.34776
  39   37035.8    270.0   0.001146714   0.01019   0.07963  -0.03019  -0.05422
  40   37224.3    268.6   0.027535823   0.24353  -0.25184   0.41356  -0.09523
  41   37799.2    264.6   0.033680822   0.29334  -0.47743  -0.24962   0.05560
  42   37972.1    263.4   0.010172833   0.08820  -0.18556  -0.16064   0.16721
  43   38264.4    261.3   0.034758181   0.29905  -0.13004  -0.19698  -0.49329
  44   38586.7    259.2   0.070371544   0.60039   0.41701   0.38275   0.52915
  45   38707.7    258.3   0.107242911   0.91211  -0.35684   0.41602  -0.78212
  46   38779.1    257.9   0.112053306   0.95127  -0.64902   0.53931   0.48907
  47   39304.5    254.4   0.074774920   0.62631   0.24593   0.21771   0.72002
  48   39396.6    253.8   0.033598751   0.28076   0.08908  -0.38638  -0.35148
  49   39451.6    253.5   0.035579622   0.29690   0.45589   0.13280   0.26726
  50   39739.3    251.6   0.071234416   0.59013   0.55794  -0.28262  -0.44604
  51   39993.6    250.0   0.041995940   0.34569   0.04533  -0.26893  -0.52088
  52   40292.2    248.2   0.006609158   0.05400  -0.01331  -0.20442   0.10970

FINAL SINGLE POINT ENERGY    -12683.677608930513

DIPOLE MOMENT
-------------
                                X             Y             Z
Electronic contribution:     44.52866    -123.66397      45.33539
Nuclear contribution   :    -45.96431     122.64474     -43.38164
                        -----------------------------------------
Total Dipole Moment    :     -1.43565      -1.01924       1.95375
                        -----------------------------------------
Magnitude (a.u.)       :      2.63003
Magnitude (Debye)      :      6.68501

Rotational constants in cm-1:     0.000642     0.000114     0.000103
Rotational constants in MHz :    19.240386     3.404640     3.089508

                             ****ORCA TERMINATED NORMALLY****
TOTAL RUN TIME: 0 days 0 hours 10 minutes 17 seconds 570 msec
