                         Program Version 4.2.0 -  RELEASE  -
|  1> # ORCA input file
|  2> # SCF done       -201.062581608905          0.000518063733
|  3> ! CAM-B3LYP def2-SVP def2/J RIJCOSX Grid4 TightSCF
|  4> %maxcore 5000
|  5> %tddft
|  6>     Mode sTDDFT
|  7>     Ethresh 5.0
|  8>     maxcore 5000
|  9> end
| 10>
| 11> %pal
| 12>   nprocs 6
| 13>   end
| 14> * xyz 0 1
| 15>    C       -5.23024        -2.24041        -0.51915
| 16>    C       -4.29394        -2.48422        -1.49031
| 17>    C       -3.91582        -3.77517        -1.91745
| 18>    N       -3.56453        -4.79736        -2.30288
| 19>    C       -3.59738        -1.49569        -2.21646
| 20>    N       -3.00737        -0.73985        -2.84938
| 21>    C       -6.00160        -3.25612         0.18780
| 22>    C       -6.93895        -2.61096         1.03331
| 23>    C       -7.81890        -3.30067         1.83147
| 24>    C       -7.77050        -4.69803         1.79724
| 25>    C       -6.83042        -5.33569         0.95150
| 26>    C       -5.94273        -4.63672         0.14261
| 27>    S       -6.93878        -7.06500         1.06596
| 28>    C       -8.22644        -6.91197         2.23177
| 29>    C       -8.56022        -5.63133         2.52160
| 30>   Br       -9.00629        -8.45505         2.95596
| 31>    C       -6.78762        -1.15350         0.89898
| 32>    O       -7.44304        -0.30140         1.47033
| 33>    C       -5.67855        -0.94258        -0.04130
| 34>    C       -5.11137         0.26108        -0.35780
| 35>    C       -5.46991         1.56719         0.02070
| 36>    S       -6.85207         2.00826         0.98615
| 37>    C       -6.42634         3.67644         0.88251
| 38>    C       -5.27118         3.89165         0.15053
| 39>    C       -4.74242         2.70350        -0.36012
| 40>    C       -3.50655         2.67053        -1.20576
| 41>    C       -3.17991         4.06317        -1.76540
| 42>    C       -1.86037         4.05007        -2.35893
| 43>    N       -0.80578         4.03513        -2.79599
| 44>    C       -3.24239         5.11019        -0.63415
| 45>    C       -2.78653         6.39980        -1.10177
| 46>    N       -2.46680         7.43046        -1.47579
| 47>    C       -4.68597         5.23934        -0.13189
| 48>    C       -7.24937         4.65367         1.57129
| 49>    C       -8.62273         4.68655         1.41584
| 50>    F       -9.20780         3.87197         0.52641
| 51>    C       -9.46143         5.57193         2.11932
| 52>    F      -10.76929         5.54856         1.81720
| 53>    C       -8.98528         6.46351         3.06077
| 54>    C       -7.57676         6.46688         3.23538
| 55>    C       -6.72023         5.57945         2.50357
| 56>    N       -5.44179         5.73172         2.85636
| 57>    S       -5.33395         6.85910         3.99584
| 58>    N       -6.89150         7.22265         4.09334
| 59>    C       -9.79149         7.33039         3.88734
| 60>    S       -9.13554         8.87698         4.29885
| 61>    C      -10.41762         9.16561         5.43580
| 62>    C      -11.33414         8.13129         5.42517
| 63>    C      -10.96678         7.07685         4.56312
| 64>    C      -11.73859         5.79829         4.49942
| 65>    C      -12.58349         5.62545         5.76928
| 66>    C      -13.43368         4.46438         5.62977
| 67>    N      -14.10878         3.55402         5.49028
| 68>    C      -13.42984         6.89638         5.99259
| 69>    C      -14.38786         6.69472         7.05742
| 70>    N      -15.12589         6.54882         7.91629
| 71>    C      -12.50254         8.06437         6.35418
| 72>    C      -10.38771        10.30977         6.28589
| 73>    C       -9.26807        10.88703         6.78851
| 74>    C       -7.88730        10.43170         6.78091
| 75>    C       -7.46702         9.12816         6.84416
| 76>    C       -6.13194         8.71030         6.71231
| 77>    N       -5.07792         8.29639         6.51680
| 78>    C       -8.35557         8.04815         7.03178
| 79>    N       -9.05524         7.16530         7.25331
| 80>    C       -7.04829        11.60680         6.94823
| 81>    C       -7.87193        12.70900         7.29857
| 82>    C       -9.28797        12.28679         7.30031
| 83>    O      -10.26083        12.93863         7.59392
| 84>    C       -7.35465        13.95110         7.57678
| 85>    C       -5.96725        14.11419         7.49837
| 86>    C       -5.15582        13.00832         7.14143
| 87>    C       -5.67565        11.75000         6.86843
| 88>    S       -3.47334        13.43658         7.10251
| 89>    C       -3.87313        15.07012         7.56370
| 90>    C       -5.19964        15.28600         7.73656
| 91>   Br       -2.50427        16.33324         7.77132
| 92>    H       -8.52130        -2.77913         2.46240
| 93>    H       -5.24477        -5.16945        -0.48111
| 94>    H       -9.33098        -5.35507         3.21764
| 95>    H       -4.23376         0.22181        -0.98847
| 96>    H       -3.61859         1.97211        -2.03865
| 97>    H       -2.66273         2.31901        -0.60047
| 98>    H       -3.90474         4.33296        -2.54346
| 99>    H       -2.58966         4.79066         0.18733
|100>    H       -5.29365         5.74952        -0.88777
|101>    H       -4.70327         5.84487         0.77521
|102>    H      -11.05568         4.95214         4.39154
|103>    H      -12.39535         5.80062         3.62295
|104>    H      -11.92673         5.47482         6.63502
|105>    H      -13.98423         7.12220         5.07279
|106>    H      -12.13065         7.92841         7.37590
|107>    H      -13.05837         9.00571         6.33439
|108>    H      -11.33087        10.79258         6.52024
|109>    H       -7.99887        14.77176         7.85049
|110>    H       -5.02595        10.93385         6.59694
|111>    H       -5.62046        16.23326         8.02009
|112> *
|113>
|114>                          ****END OF INPUT****

CARTESIAN COORDINATES (ANGSTROEM)
---------------------------------
  C     -5.230240   -2.240410   -0.519150
  C     -4.293940   -2.484220   -1.490310
  C     -3.915820   -3.775170   -1.917450
  N     -3.564530   -4.797360   -2.302880
  C     -3.597380   -1.495690   -2.216460
  N     -3.007370   -0.739850   -2.849380
  C     -6.001600   -3.256120    0.187800
  C     -6.938950   -2.610960    1.033310
  C     -7.818900   -3.300670    1.831470
  C     -7.770500   -4.698030    1.797240
  C     -6.830420   -5.335690    0.951500
  C     -5.942730   -4.636720    0.142610
  S     -6.938780   -7.065000    1.065960
  C     -8.226440   -6.911970    2.231770
  C     -8.560220   -5.631330    2.521600
  Br    -9.006290   -8.455050    2.955960
  C     -6.787620   -1.153500    0.898980
  O     -7.443040   -0.301400    1.470330
  C     -5.678550   -0.942580   -0.041300
  C     -5.111370    0.261080   -0.357800
  C     -5.469910    1.567190    0.020700
  S     -6.852070    2.008260    0.986150
  C     -6.426340    3.676440    0.882510
  C     -5.271180    3.891650    0.150530
  C     -4.742420    2.703500   -0.360120
  C     -3.506550    2.670530   -1.205760
  C     -3.179910    4.063170   -1.765400
  C     -1.860370    4.050070   -2.358930
  N     -0.805780    4.035130   -2.795990
  C     -3.242390    5.110190   -0.634150
  C     -2.786530    6.399800   -1.101770
  N     -2.466800    7.430460   -1.475790
  C     -4.685970    5.239340   -0.131890
  C     -7.249370    4.653670    1.571290
  C     -8.622730    4.686550    1.415840
  F     -9.207800    3.871970    0.526410
  C     -9.461430    5.571930    2.119320
  F    -10.769290    5.548560    1.817200
  C     -8.985280    6.463510    3.060770
  C     -7.576760    6.466880    3.235380
  C     -6.720230    5.579450    2.503570
  N     -5.441790    5.731720    2.856360
  S     -5.333950    6.859100    3.995840
  N     -6.891500    7.222650    4.093340
  C     -9.791490    7.330390    3.887340
  S     -9.135540    8.876980    4.298850
  C    -10.417620    9.165610    5.435800
  C    -11.334140    8.131290    5.425170
  C    -10.966780    7.076850    4.563120
  C    -11.738590    5.798290    4.499420
  C    -12.583490    5.625450    5.769280
  C    -13.433680    4.464380    5.629770
  N    -14.108780    3.554020    5.490280
  C    -13.429840    6.896380    5.992590
  C    -14.387860    6.694720    7.057420
  N    -15.125890    6.548820    7.916290
  C    -12.502540    8.064370    6.354180
  C    -10.387710   10.309770    6.285890
  C     -9.268070   10.887030    6.788510
  C     -7.887300   10.431700    6.780910
  C     -7.467020    9.128160    6.844160
  C     -6.131940    8.710300    6.712310
  N     -5.077920    8.296390    6.516800
  C     -8.355570    8.048150    7.031780
  N     -9.055240    7.165300    7.253310
  C     -7.048290   11.606800    6.948230
  C     -7.871930   12.709000    7.298570
  C     -9.287970   12.286790    7.300310
  O    -10.260830   12.938630    7.593920
  C     -7.354650   13.951100    7.576780
  C     -5.967250   14.114190    7.498370
  C     -5.155820   13.008320    7.141430
  C     -5.675650   11.750000    6.868430
  S     -3.473340   13.436580    7.102510
  C     -3.873130   15.070120    7.563700
  C     -5.199640   15.286000    7.736560
  Br    -2.504270   16.333240    7.771320
  H     -8.521300   -2.779130    2.462400
  H     -5.244770   -5.169450   -0.481110
  H     -9.330980   -5.355070    3.217640
  H     -4.233760    0.221810   -0.988470
  H     -3.618590    1.972110   -2.038650
  H     -2.662730    2.319010   -0.600470
  H     -3.904740    4.332960   -2.543460
  H     -2.589660    4.790660    0.187330
  H     -5.293650    5.749520   -0.887770
  H     -4.703270    5.844870    0.775210
  H    -11.055680    4.952140    4.391540
  H    -12.395350    5.800620    3.622950
  H    -11.926730    5.474820    6.635020
  H    -13.984230    7.122200    5.072790
  H    -12.130650    7.928410    7.375900
  H    -13.058370    9.005710    6.334390
  H    -11.330870   10.792580    6.520240
  H     -7.998870   14.771760    7.850490
  H     -5.025950   10.933850    6.596940
  H     -5.620460   16.233260    8.020090

 Total Charge           Charge          ....    0
 Multiplicity           Mult            ....    1
 Number of Electrons    NEL             ....  610
 Basis Dimension        Dim             .... 1234

ORBITAL ENERGIES
----------------

  NO   OCC          E(Eh)            E(eV)
   0   2.0000    -482.895397    -13140.2518
   1   2.0000    -482.890224    -13140.1110
   2   2.0000     -89.048879     -2423.1432
   3   2.0000     -88.987877     -2421.4832
   4   2.0000     -88.982520     -2421.3375
   5   2.0000     -88.981831     -2421.3187
   6   2.0000     -88.978469     -2421.2272
   7   2.0000     -62.573093     -1702.7004
   8   2.0000     -62.567917     -1702.5596
   9   2.0000     -56.407057     -1534.9140
  10   2.0000     -56.404314     -1534.8394
  11   2.0000     -56.404290     -1534.8388
  12   2.0000     -56.401876     -1534.7731
  13   2.0000     -56.399143     -1534.6987
  14   2.0000     -56.399117     -1534.6980
  15   2.0000     -24.826056      -675.5513
  16   2.0000     -24.820246      -675.3932
  17   2.0000     -19.231819      -523.3244
  18   2.0000     -19.230890      -523.2991
  19   2.0000     -14.464014      -393.5858
  20   2.0000     -14.461850      -393.5270
  21   2.0000     -14.437017      -392.8512
  22   2.0000     -14.430642      -392.6777
  23   2.0000     -14.427935      -392.6041
  24   2.0000     -14.422042      -392.4437
  25   2.0000     -14.412966      -392.1967
  26   2.0000     -14.411847      -392.1663
  27   2.0000     -14.411790      -392.1647
  28   2.0000     -14.409448      -392.1010
  29   2.0000     -10.408326      -283.2250
  30   2.0000     -10.407341      -283.1982
  31   2.0000     -10.382243      -282.5152
  32   2.0000     -10.379649      -282.4446
  33   2.0000     -10.370690      -282.2008
  34   2.0000     -10.364780      -282.0400
  35   2.0000     -10.359208      -281.8884
  36   2.0000     -10.358627      -281.8726
  37   2.0000     -10.356258      -281.8081
  38   2.0000     -10.355425      -281.7854
  39   2.0000     -10.351450      -281.6773
  40   2.0000     -10.350869      -281.6615
  41   2.0000     -10.345304      -281.5100
  42   2.0000     -10.342824      -281.4426
  43   2.0000     -10.342115      -281.4233
  44   2.0000     -10.341849      -281.4160
  45   2.0000     -10.341420      -281.4043
  46   2.0000     -10.340828      -281.3882
  47   2.0000     -10.339818      -281.3607
  48   2.0000     -10.338596      -281.3275
  49   2.0000     -10.337096      -281.2867
  50   2.0000     -10.336822      -281.2792
  51   2.0000     -10.333927      -281.2005
  52   2.0000     -10.333711      -281.1946
  53   2.0000     -10.332385      -281.1585
  54   2.0000     -10.330948      -281.1194
  55   2.0000     -10.329243      -281.0730
  56   2.0000     -10.327259      -281.0190
  57   2.0000     -10.326011      -280.9851
  58   2.0000     -10.324813      -280.9524
  59   2.0000     -10.324092      -280.9328
  60   2.0000     -10.321179      -280.8536
  61   2.0000     -10.320999      -280.8487
  62   2.0000     -10.316732      -280.7326
  63   2.0000     -10.316033      -280.7135
  64   2.0000     -10.315163      -280.6899
  65   2.0000     -10.314560      -280.6734
  66   2.0000     -10.314356      -280.6679
  67   2.0000     -10.314242      -280.6648
  68   2.0000     -10.314228      -280.6644
  69   2.0000     -10.313069      -280.6329
  70   2.0000     -10.311578      -280.5923
  71   2.0000     -10.311413      -280.5878
  72   2.0000     -10.311057      -280.5781
  73   2.0000     -10.310622      -280.5663
  74   2.0000     -10.310065      -280.5511
  75   2.0000     -10.309917      -280.5471
  76   2.0000     -10.308925      -280.5201
  77   2.0000     -10.308733      -280.5149
  78   2.0000     -10.308224      -280.5010
  79   2.0000     -10.307910      -280.4925
  80   2.0000     -10.307337      -280.4769
  81   2.0000     -10.305421      -280.4248
  82   2.0000     -10.303713      -280.3783
  83   2.0000     -10.302069      -280.3335
  84   2.0000     -10.300713      -280.2967
  85   2.0000      -8.802520      -239.5288
  86   2.0000      -8.797336      -239.3877
  87   2.0000      -8.139556      -221.4886
  88   2.0000      -8.083894      -219.9739
  89   2.0000      -8.077736      -219.8064
  90   2.0000      -8.076932      -219.7845
  91   2.0000      -8.071810      -219.6451
  92   2.0000      -6.638867      -180.6528
  93   2.0000      -6.633673      -180.5114
  94   2.0000      -6.624242      -180.2548
  95   2.0000      -6.624008      -180.2484
  96   2.0000      -6.619071      -180.1141
  97   2.0000      -6.618822      -180.1073
  98   2.0000      -6.110711      -166.2809
  99   2.0000      -6.102871      -166.0676
 100   2.0000      -6.102148      -166.0479
 101   2.0000      -6.053562      -164.7258
 102   2.0000      -6.049313      -164.6102
 103   2.0000      -6.047420      -164.5587
 104   2.0000      -6.046316      -164.5286
 105   2.0000      -6.045118      -164.4960
 106   2.0000      -6.043130      -164.4419
 107   2.0000      -6.041924      -164.4091
 108   2.0000      -6.041106      -164.3868
 109   2.0000      -6.039111      -164.3326
 110   2.0000      -6.039010      -164.3298
 111   2.0000      -6.036549      -164.2628
 112   2.0000      -6.034195      -164.1988
 113   2.0000      -2.754771       -74.9611
 114   2.0000      -2.750614       -74.8480
 115   2.0000      -2.750438       -74.8432
 116   2.0000      -2.749552       -74.8191
 117   2.0000      -2.745406       -74.7063
 118   2.0000      -2.745301       -74.7034
 119   2.0000      -2.738820       -74.5271
 120   2.0000      -2.738810       -74.5268
 121   2.0000      -2.733663       -74.3867
 122   2.0000      -2.733637       -74.3860
 123   2.0000      -1.347113       -36.6568
 124   2.0000      -1.329255       -36.1709
 125   2.0000      -1.151633       -31.3375
 126   2.0000      -1.147672       -31.2297
 127   2.0000      -1.146520       -31.1984
 128   2.0000      -1.041247       -28.3338
 129   2.0000      -1.031659       -28.0729
 130   2.0000      -1.031531       -28.0694
 131   2.0000      -1.027897       -27.9705
 132   2.0000      -1.025714       -27.9111
 133   2.0000      -1.021775       -27.8039
 134   2.0000      -1.013757       -27.5857
 135   2.0000      -1.011680       -27.5292
 136   2.0000      -1.009155       -27.4605
 137   2.0000      -1.005694       -27.3663
 138   2.0000      -1.003936       -27.3185
 139   2.0000      -1.000675       -27.2298
 140   2.0000      -0.998287       -27.1648
 141   2.0000      -0.995450       -27.0876
 142   2.0000      -0.994913       -27.0729
 143   2.0000      -0.993373       -27.0311
 144   2.0000      -0.963787       -26.2260
 145   2.0000      -0.960031       -26.1238
 146   2.0000      -0.955738       -26.0069
 147   2.0000      -0.950498       -25.8644
 148   2.0000      -0.932201       -25.3665
 149   2.0000      -0.923508       -25.1299
 150   2.0000      -0.920543       -25.0493
 151   2.0000      -0.916209       -24.9313
 152   2.0000      -0.904106       -24.6020
 153   2.0000      -0.900049       -24.4916
 154   2.0000      -0.896121       -24.3847
 155   2.0000      -0.893205       -24.3053
 156   2.0000      -0.890198       -24.2235
 157   2.0000      -0.886623       -24.1262
 158   2.0000      -0.877835       -23.8871
 159   2.0000      -0.874682       -23.8013
 160   2.0000      -0.871709       -23.7204
 161   2.0000      -0.864739       -23.5307
 162   2.0000      -0.843271       -22.9466
 163   2.0000      -0.837882       -22.7999
 164   2.0000      -0.835828       -22.7440
 165   2.0000      -0.818694       -22.2778
 166   2.0000      -0.796953       -21.6862
 167   2.0000      -0.783677       -21.3249
 168   2.0000      -0.777627       -21.1603
 169   2.0000      -0.773148       -21.0384
 170   2.0000      -0.770919       -20.9778
 171   2.0000      -0.769478       -20.9385
 172   2.0000      -0.767234       -20.8775
 173   2.0000      -0.754057       -20.5189
 174   2.0000      -0.746453       -20.3120
 175   2.0000      -0.741223       -20.1697
 176   2.0000      -0.733597       -19.9622
 177   2.0000      -0.723378       -19.6841
 178   2.0000      -0.711825       -19.3698
 179   2.0000      -0.703402       -19.1405
 180   2.0000      -0.701008       -19.0754
 181   2.0000      -0.700127       -19.0514
 182   2.0000      -0.688422       -18.7329
 183   2.0000      -0.678351       -18.4589
 184   2.0000      -0.677510       -18.4360
 185   2.0000      -0.670225       -18.2378
 186   2.0000      -0.665594       -18.1117
 187   2.0000      -0.660811       -17.9816
 188   2.0000      -0.659611       -17.9489
 189   2.0000      -0.655621       -17.8403
 190   2.0000      -0.646069       -17.5804
 191   2.0000      -0.644924       -17.5493
 192   2.0000      -0.639517       -17.4021
 193   2.0000      -0.637241       -17.3402
 194   2.0000      -0.632432       -17.2093
 195   2.0000      -0.627038       -17.0626
 196   2.0000      -0.621760       -16.9190
 197   2.0000      -0.619840       -16.8667
 198   2.0000      -0.612414       -16.6646
 199   2.0000      -0.607787       -16.5387
 200   2.0000      -0.606336       -16.4992
 201   2.0000      -0.604346       -16.4451
 202   2.0000      -0.595352       -16.2004
 203   2.0000      -0.590597       -16.0710
 204   2.0000      -0.588559       -16.0155
 205   2.0000      -0.584445       -15.9036
 206   2.0000      -0.575572       -15.6621
 207   2.0000      -0.574370       -15.6294
 208   2.0000      -0.571662       -15.5557
 209   2.0000      -0.570073       -15.5125
 210   2.0000      -0.568418       -15.4675
 211   2.0000      -0.567541       -15.4436
 212   2.0000      -0.562908       -15.3175
 213   2.0000      -0.556011       -15.1298
 214   2.0000      -0.553658       -15.0658
 215   2.0000      -0.552329       -15.0296
 216   2.0000      -0.551669       -15.0117
 217   2.0000      -0.550477       -14.9792
 218   2.0000      -0.546303       -14.8657
 219   2.0000      -0.544314       -14.8115
 220   2.0000      -0.541760       -14.7420
 221   2.0000      -0.533257       -14.5107
 222   2.0000      -0.531953       -14.4752
 223   2.0000      -0.528993       -14.3946
 224   2.0000      -0.528190       -14.3728
 225   2.0000      -0.525921       -14.3110
 226   2.0000      -0.525549       -14.3009
 227   2.0000      -0.522322       -14.2131
 228   2.0000      -0.520392       -14.1606
 229   2.0000      -0.519586       -14.1386
 230   2.0000      -0.515763       -14.0346
 231   2.0000      -0.515331       -14.0229
 232   2.0000      -0.512147       -13.9362
 233   2.0000      -0.509260       -13.8577
 234   2.0000      -0.506282       -13.7766
 235   2.0000      -0.505472       -13.7546
 236   2.0000      -0.501556       -13.6480
 237   2.0000      -0.501196       -13.6382
 238   2.0000      -0.494578       -13.4581
 239   2.0000      -0.488256       -13.2861
 240   2.0000      -0.486945       -13.2504
 241   2.0000      -0.485198       -13.2029
 242   2.0000      -0.483711       -13.1624
 243   2.0000      -0.481773       -13.1097
 244   2.0000      -0.480475       -13.0744
 245   2.0000      -0.473755       -12.8915
 246   2.0000      -0.473547       -12.8859
 247   2.0000      -0.471110       -12.8196
 248   2.0000      -0.466944       -12.7062
 249   2.0000      -0.466714       -12.6999
 250   2.0000      -0.465879       -12.6772
 251   2.0000      -0.464411       -12.6373
 252   2.0000      -0.461810       -12.5665
 253   2.0000      -0.459687       -12.5087
 254   2.0000      -0.458894       -12.4871
 255   2.0000      -0.455569       -12.3967
 256   2.0000      -0.453600       -12.3431
 257   2.0000      -0.452257       -12.3065
 258   2.0000      -0.451280       -12.2799
 259   2.0000      -0.448122       -12.1940
 260   2.0000      -0.446561       -12.1516
 261   2.0000      -0.443787       -12.0761
 262   2.0000      -0.443391       -12.0653
 263   2.0000      -0.441471       -12.0130
 264   2.0000      -0.439487       -11.9590
 265   2.0000      -0.437737       -11.9114
 266   2.0000      -0.437190       -11.8965
 267   2.0000      -0.436579       -11.8799
 268   2.0000      -0.435795       -11.8586
 269   2.0000      -0.434699       -11.8288
 270   2.0000      -0.427679       -11.6377
 271   2.0000      -0.426645       -11.6096
 272   2.0000      -0.423525       -11.5247
 273   2.0000      -0.422932       -11.5086
 274   2.0000      -0.422066       -11.4850
 275   2.0000      -0.421292       -11.4639
 276   2.0000      -0.421067       -11.4578
 277   2.0000      -0.416230       -11.3262
 278   2.0000      -0.410496       -11.1702
 279   2.0000      -0.408690       -11.1210
 280   2.0000      -0.408135       -11.1059
 281   2.0000      -0.406280       -11.0554
 282   2.0000      -0.402868       -10.9626
 283   2.0000      -0.402224       -10.9451
 284   2.0000      -0.400759       -10.9052
 285   2.0000      -0.396067       -10.7775
 286   2.0000      -0.394200       -10.7267
 287   2.0000      -0.390260       -10.6195
 288   2.0000      -0.386553       -10.5186
 289   2.0000      -0.384502       -10.4628
 290   2.0000      -0.379363       -10.3230
 291   2.0000      -0.369489       -10.0543
 292   2.0000      -0.361413        -9.8345
 293   2.0000      -0.352193        -9.5837
 294   2.0000      -0.350104        -9.5268
 295   2.0000      -0.346778        -9.4363
 296   2.0000      -0.340873        -9.2756
 297   2.0000      -0.333130        -9.0649
 298   2.0000      -0.331733        -9.0269
 299   2.0000      -0.326227        -8.8771
 300   2.0000      -0.322223        -8.7681
 301   2.0000      -0.306279        -8.3343
 302   2.0000      -0.302572        -8.2334
 303   2.0000      -0.299518        -8.1503
 304   2.0000      -0.284780        -7.7493
 305   0.0000      -0.113971        -3.1013
 306   0.0000      -0.102248        -2.7823
 307   0.0000      -0.085111        -2.3160
 308   0.0000      -0.070949        -1.9306
 309   0.0000      -0.068819        -1.8727

MULLIKEN ATOMIC CHARGES
-----------------------
   0 C :    0.312669
   1 C :   -0.348368
   2 C :   -0.184732
   3 N :    0.157952
   4 C :   -0.186241
   5 N :    0.148584
   6 C :    0.011405
   7 C :   -0.010958
   8 C :   -0.067826
   9 C :    0.116197
  10 C :   -0.090212
  11 C :   -0.018553
  12 S :    0.191630
  13 C :   -0.123385
  14 C :    0.038841
  15 Br:    0.029973
  16 C :    0.161622
  17 O :   -0.173127
  18 C :   -0.081574
  19 C :   -0.060609
  20 C :   -0.087101
  21 S :    0.238920
  22 C :   -0.154979
  23 C :   -0.018459
  24 C :   -0.098503
  25 C :    0.195017
  26 C :   -0.088051
  27 C :   -0.255927
  28 N :    0.166693
  29 C :   -0.130496
  30 C :   -0.253596
  31 N :    0.165227
  32 C :    0.238891
  33 C :   -0.063427
  34 C :    0.182134
  35 F :   -0.154327
  36 C :    0.137299
  37 F :   -0.163339
  38 C :    0.027761
  39 C :    0.008843
  40 C :    0.025033
  41 N :   -0.265548
  42 S :    0.557181
  43 N :   -0.286799
  44 C :   -0.169206
  45 S :    0.206849
  46 C :   -0.222956
  47 C :   -0.004672
  48 C :   -0.039252
  49 C :    0.211065
  50 C :   -0.115321
  51 C :   -0.254326
  52 N :    0.164722
  53 C :   -0.114258
  54 C :   -0.253535
  55 N :    0.167002
  56 C :    0.217840
  57 C :    0.057462
  58 C :   -0.134345
  59 C :    0.242803
  60 C :   -0.316622
  61 C :   -0.133802
  62 N :    0.104874
  63 C :   -0.161739
  64 N :    0.150716
  65 C :    0.016524
  66 C :   -0.009288
  67 C :    0.141819
  68 O :   -0.133435
  69 C :   -0.063829
  70 C :    0.110439
  71 C :   -0.085668
  72 C :   -0.022686
  73 S :    0.190597
  74 C :   -0.125102
  75 C :    0.043740
  76 Br:    0.034484
  77 H :   -0.006468
  78 H :   -0.003927
  79 H :    0.000116
  80 H :    0.002876
  81 H :    0.063573
  82 H :    0.041280
  83 H :    0.049848
  84 H :    0.051692
  85 H :    0.026650
  86 H :    0.033495
  87 H :    0.037052
  88 H :    0.038386
  89 H :    0.064910
  90 H :    0.049363
  91 H :    0.043270
  92 H :    0.039165
  93 H :    0.030062
  94 H :   -0.004055
  95 H :   -0.004715
  96 H :    0.000801
Sum of atomic charges:   -0.0000000

LOEWDIN ATOMIC CHARGES
----------------------
   0 C :    0.078381
   1 C :   -0.141317
   2 C :   -0.019052
   3 N :   -0.048335
   4 C :   -0.018017
   5 N :   -0.052954
   6 C :   -0.021685
   7 C :   -0.051116
   8 C :    0.024589
   9 C :   -0.031058
  10 C :   -0.143257
  11 C :   -0.007274
  12 S :    0.437334
  13 C :   -0.269685
  14 C :   -0.069773
  15 Br:    0.142014
  16 C :    0.084960
  17 O :   -0.161915
  18 C :   -0.101735
  19 C :    0.055457
  20 C :   -0.191096
  21 S :    0.542294
  22 C :   -0.161093
  23 C :   -0.056482
  24 C :   -0.026680
  25 C :   -0.008709
  26 C :   -0.030669
  27 C :   -0.038279
  28 N :   -0.039518
  29 C :   -0.032920
  30 C :   -0.036370
  31 N :   -0.047017
  32 C :   -0.009767
  33 C :   -0.074032
  34 C :    0.074345
  35 F :   -0.039672
  36 C :    0.069338
  37 F :   -0.036738
  38 C :   -0.068152
  39 C :   -0.048350
  40 C :   -0.044106
  41 N :   -0.283361
  42 S :    0.699998
  43 N :   -0.292705
  44 C :   -0.154992
  45 S :    0.518923
  46 C :   -0.192696
  47 C :   -0.029592
  48 C :   -0.045853
  49 C :   -0.006801
  50 C :   -0.032249
  51 C :   -0.037250
  52 N :   -0.044345
  53 C :   -0.031912
  54 C :   -0.037981
  55 N :   -0.041797
  56 C :   -0.004365
  57 C :    0.053889
  58 C :   -0.085484
  59 C :    0.065073
  60 C :   -0.141099
  61 C :   -0.007033
  62 N :   -0.081232
  63 C :   -0.017855
  64 N :   -0.061186
  65 C :   -0.019515
  66 C :   -0.052904
  67 C :    0.083611
  68 O :   -0.133688
  69 C :    0.026107
  70 C :   -0.030283
  71 C :   -0.141812
  72 C :   -0.012400
  73 S :    0.436314
  74 C :   -0.268920
  75 C :   -0.069094
  76 Br:    0.145100
  77 H :    0.042422
  78 H :    0.041799
  79 H :    0.040152
  80 H :    0.047519
  81 H :    0.049839
  82 H :    0.049159
  83 H :    0.059053
  84 H :    0.059760
  85 H :    0.041640
  86 H :    0.036778
  87 H :    0.043721
  88 H :    0.042834
  89 H :    0.064542
  90 H :    0.058132
  91 H :    0.050642
  92 H :    0.045268
  93 H :    0.049624
  94 H :    0.043571
  95 H :    0.040539
  96 H :    0.040502

  Mayer bond orders larger than 0.100000
B(  0-C ,  1-C ) :   1.6299 B(  0-C ,  6-C ) :   1.0054 B(  0-C , 18-C ) :   1.0699
B(  1-C ,  2-C ) :   1.1429 B(  1-C ,  4-C ) :   1.1496 B(  2-C ,  3-N ) :   2.9712
B(  4-C ,  5-N ) :   2.9603 B(  6-C ,  7-C ) :   1.2724 B(  6-C , 11-C ) :   1.4128
B(  7-C ,  8-C ) :   1.4217 B(  7-C , 16-C ) :   0.9600 B(  8-C ,  9-C ) :   1.2478
B(  8-C , 77-H ) :   1.0170 B(  9-C , 10-C ) :   1.3023 B(  9-C , 14-C ) :   1.1635
B( 10-C , 11-C ) :   1.3312 B( 10-C , 12-S ) :   1.0883 B( 11-C , 78-H ) :   0.9792
B( 12-S , 13-C ) :   1.0882 B( 13-C , 14-C ) :   1.6148 B( 13-C , 15-Br) :   1.0230
B( 14-C , 79-H ) :   1.0011 B( 16-C , 17-O ) :   2.1376 B( 16-C , 18-C ) :   0.9686
B( 18-C , 19-C ) :   1.5457 B( 19-C , 20-C ) :   1.2462 B( 19-C , 80-H ) :   0.9302
B( 20-C , 21-S ) :   1.1082 B( 20-C , 22-C ) :   0.1034 B( 20-C , 24-C ) :   1.3950
B( 21-S , 22-C ) :   1.1640 B( 22-C , 23-C ) :   1.4848 B( 22-C , 33-C ) :   0.9960
B( 23-C , 24-C ) :   1.3734 B( 23-C , 32-C ) :   1.0587 B( 24-C , 25-C ) :   1.0561
B( 25-C , 26-C ) :   1.0840 B( 25-C , 81-H ) :   0.8991 B( 25-C , 82-H ) :   0.8846
B( 26-C , 27-C ) :   1.0844 B( 26-C , 29-C ) :   1.0613 B( 26-C , 83-H ) :   0.8587
B( 27-C , 28-N ) :   3.1237 B( 29-C , 30-C ) :   1.0879 B( 29-C , 32-C ) :   1.1039
B( 29-C , 84-H ) :   0.8594 B( 30-C , 31-N ) :   3.1260 B( 32-C , 85-H ) :   0.8837
B( 32-C , 86-H ) :   0.8772 B( 33-C , 34-C ) :   1.4511 B( 33-C , 38-C ) :   0.1200
B( 33-C , 40-C ) :   1.2238 B( 34-C , 35-F ) :   1.1894 B( 34-C , 36-C ) :   1.0975
B( 36-C , 37-F ) :   1.1625 B( 36-C , 38-C ) :   1.4208 B( 38-C , 39-C ) :   1.1958
B( 38-C , 44-C ) :   1.0059 B( 39-C , 40-C ) :   1.1621 B( 39-C , 43-N ) :   1.5120
B( 40-C , 41-N ) :   1.5177 B( 41-N , 42-S ) :   1.2655 B( 41-N , 43-N ) :   0.1411
B( 42-S , 43-N ) :   1.2691 B( 44-C , 45-S ) :   1.1620 B( 44-C , 46-C ) :   0.1070
B( 44-C , 48-C ) :   1.5437 B( 45-S , 46-C ) :   1.1480 B( 46-C , 47-C ) :   1.4571
B( 46-C , 57-C ) :   1.0714 B( 47-C , 48-C ) :   1.3230 B( 47-C , 56-C ) :   1.0685
B( 48-C , 49-C ) :   1.0640 B( 49-C , 50-C ) :   1.0896 B( 49-C , 87-H ) :   0.9076
B( 49-C , 88-H ) :   0.8807 B( 50-C , 51-C ) :   1.0889 B( 50-C , 53-C ) :   1.0549
B( 50-C , 89-H ) :   0.8588 B( 51-C , 52-N ) :   3.1243 B( 53-C , 54-C ) :   1.0857
B( 53-C , 56-C ) :   1.0954 B( 53-C , 90-H ) :   0.8601 B( 54-C , 55-N ) :   3.1258
B( 56-C , 91-H ) :   0.8790 B( 56-C , 92-H ) :   0.9005 B( 57-C , 58-C ) :   1.7143
B( 57-C , 93-H ) :   0.9437 B( 58-C , 59-C ) :   1.0176 B( 58-C , 67-C ) :   0.9288
B( 59-C , 60-C ) :   1.6520 B( 59-C , 65-C ) :   1.0396 B( 60-C , 61-C ) :   1.1425
B( 60-C , 63-C ) :   1.1582 B( 61-C , 62-N ) :   2.9062 B( 63-C , 64-N ) :   2.9745
B( 65-C , 66-C ) :   1.2665 B( 65-C , 72-C ) :   1.4098 B( 66-C , 67-C ) :   0.9222
B( 66-C , 69-C ) :   1.4236 B( 67-C , 68-O ) :   2.2818 B( 69-C , 70-C ) :   1.2573
B( 69-C , 94-H ) :   1.0150 B( 70-C , 71-C ) :   1.3001 B( 70-C , 75-C ) :   1.1668
B( 71-C , 72-C ) :   1.3336 B( 71-C , 73-S ) :   1.0868 B( 72-C , 95-H ) :   0.9832
B( 73-S , 74-C ) :   1.0875 B( 74-C , 75-C ) :   1.6160 B( 74-C , 76-Br) :   1.0257
B( 75-C , 96-H ) :   0.9998

-----------------------------------------------------------------------------
         ABSORPTION SPECTRUM VIA TRANSITION ELECTRIC DIPOLE MOMENTS
-----------------------------------------------------------------------------
State   Energy  Wavelength   fosc         T2         TX        TY        TZ
        (cm-1)    (nm)                  (au**2)     (au)      (au)      (au)
-----------------------------------------------------------------------------
   0   20347.3    491.5   0.799025032  12.92792  -0.00962   3.05244   1.90012
   1   23254.0    430.0   0.788138864  11.15786  -1.06191   3.13422   0.45484
   2   24931.8    401.1   0.167911449   2.21718   1.13886   0.95908   0.01888
   3   26430.6    378.3   0.123082226   1.53308   0.78279   0.92412  -0.25751
   4   26770.6    373.5   0.125865418   1.54783  -0.60024  -0.96787   0.50077
   5   27110.5    368.9   0.038010210   0.46157  -0.09618  -0.29061  -0.60652
   6   28099.4    355.9   0.015665378   0.18354  -0.32771  -0.27335   0.03770
   7   28384.5    352.3   0.018266218   0.21186  -0.26041  -0.24834   0.28700
   8   29072.5    344.0   0.011197592   0.12680   0.15238  -0.32156   0.01345
   9   29375.7    340.4   0.119499509   1.33923   0.39773   1.06710  -0.20576
  10   29790.5    335.7   0.072926044   0.80590  -0.64699  -0.60461   0.14747
  11   29864.9    334.8   0.115831738   1.27685   0.28611   1.04185  -0.33098
  12   30100.4    332.2   0.066383655   0.72605   0.23542   0.67074  -0.46982
  13   30563.1    327.2   0.107661314   1.15968   0.27011  -0.66818  -0.80016
  14   31309.9    319.4   0.134628098   1.41557  -0.61226  -1.01389  -0.11278
  15   31846.2    314.0   0.335213096   3.46528  -1.00257  -1.55004  -0.23978
  16   32565.5    307.1   0.236016117   2.38594  -0.26010   0.95321   1.18730
  17   32686.5    305.9   0.698342746   7.03358   1.40429   2.05001  -0.92682
  18   32901.7    303.9   0.125605885   1.25680   0.82165  -0.55618  -0.52187
  19   33174.0    301.4   0.018798604   0.18655  -0.24750  -0.31296  -0.16538
  20   33267.4    300.6   0.072031539   0.71282   0.19117   0.81057   0.13875
  21   33824.8    295.6   0.014279321   0.13898  -0.08323  -0.24835  -0.26528
  22   34294.7    291.6   0.034141622   0.32774  -0.51885  -0.14596   0.19295
  23   34574.0    289.2   0.138056244   1.31456  -0.96176  -0.40176   0.47767
  24   34732.6    287.9   0.136276870   1.29170   0.95512   0.34829   0.50807
  25   34957.0    286.1   0.023993900   0.22597   0.28471  -0.37193  -0.08111
  26   36617.7    273.1   0.006005120   0.05399  -0.15759  -0.01697   0.16991
  27   37139.2    269.3   0.130281274   1.15485   0.78191  -0.59347  -0.43733
  28   37254.3    268.4   0.032990946   0.29154  -0.06037   0.47389   0.25163
  29   37661.4    265.5   0.093787871   0.81983  -0.81971   0.10470   0.37006
  30   37964.6    263.4   0.092625104   0.80320   0.12668  -0.87525  -0.14524
  31   38232.3    261.6   0.075852343   0.65315   0.56807   0.51160  -0.26213
  32   38440.7    260.1   0.034512497   0.29557  -0.00159   0.44015  -0.31912
  33   38504.3    259.7   0.032218127   0.27547   0.43236   0.25598   0.15166
  34   38710.9    258.3   0.012625163   0.10737  -0.02665  -0.31312  -0.09282
  35   38869.3    257.3   0.043703074   0.37015  -0.04192  -0.35941  -0.48910
  36   39083.2    255.9   0.027671819   0.23309   0.02468   0.42112  -0.23482
  37   39215.0    255.0   0.137796179   1.15680   0.86007   0.62715  -0.15414
  38   39439.7    253.6   0.046298545   0.38646   0.34045  -0.49223  -0.16812
  39   39556.2    252.8   0.043759108   0.36419   0.37696  -0.25037  -0.39926
  40   40265.1    248.4   0.043407403   0.35490  -0.17169   0.53522   0.19741

FINAL SINGLE POINT ENERGY    -10177.987919201920

DIPOLE MOMENT
-------------
                                X             Y             Z
Electronic contribution:     30.91010     -22.36783      40.28470
Nuclear contribution   :    -31.48062      24.42239     -38.52838
                        -----------------------------------------
Total Dipole Moment    :     -0.57052       2.05456       1.75632
                        -----------------------------------------
Magnitude (a.u.)       :      2.76249
Magnitude (Debye)      :      7.02170

Rotational constants in cm-1:     0.000919     0.000240     0.000206
Rotational constants in MHz :    27.548586     7.200476     6.174694

                             ****ORCA TERMINATED NORMALLY****
TOTAL RUN TIME: 0 days 0 hours 10 minutes 57 seconds 49 msec
