                         Program Version 4.2.0 -  RELEASE  -
|  1> # ORCA input file
|  2> # SCF done       -212.680661492009          0.000640380154
|  3> ! CAM-B3LYP def2-SVP def2/J RIJCOSX Grid4 TightSCF
|  4> %maxcore 5000
|  5> %tddft
|  6>     Mode sTDDFT
|  7>     Ethresh 5.0
|  8>     maxcore 5000
|  9> end
| 10>
| 11> %pal
| 12>   nprocs 6
| 13>   end
| 14> * xyz 0 1
| 15>    C       -4.27242        -1.20014        -2.11011
| 16>    C       -2.91784        -1.22883        -1.90920
| 17>    C       -2.07273        -2.26377        -2.36314
| 18>    N       -1.33523        -3.07552        -2.70264
| 19>    C       -2.17300        -0.26079        -1.20229
| 20>    N       -1.49187         0.47269        -0.63939
| 21>    C       -5.04607        -2.21281        -2.81921
| 22>    C       -6.42142        -1.88533        -2.73163
| 23>    C       -7.40412        -2.65693        -3.30165
| 24>    C       -7.01166        -3.79863        -4.00793
| 25>    C       -5.63500        -4.11573        -4.09486
| 26>    C       -4.64187        -3.34249        -3.50787
| 27>    S       -5.37021        -5.56666        -5.01429
| 28>    C       -7.08814        -5.72439        -5.26640
| 29>    C       -7.82429        -4.74316        -4.69265
| 30>   Br       -7.74830        -7.16825        -6.26440
| 31>    C       -6.58129        -0.64427        -1.94797
| 32>    O       -7.62083        -0.19077        -1.52347
| 33>    C       -5.19936        -0.16836        -1.67422
| 34>    C       -4.88642         1.00025        -1.05948
| 35>    C       -5.78959         2.09347        -0.85201
| 36>    C       -5.66141         2.88603         0.29576
| 37>    O       -4.69817         2.47780         1.14423
| 38>    C       -4.12829         3.33812         2.11249
| 39>    C       -6.56444         3.95918         0.56234
| 40>    O       -6.48901         4.50903         1.81596
| 41>    C       -7.68979         4.69106         2.54397
| 42>    C       -7.49595         4.37656        -0.38861
| 43>    C       -7.60974         3.60021        -1.57011
| 44>    C       -6.76977         2.46334        -1.80217
| 45>    N       -6.98009         1.92691        -2.99998
| 46>    S       -8.15001         2.74304        -3.73982
| 47>    N       -8.42525         3.83948        -2.59278
| 48>    C       -8.28412         5.58577        -0.25649
| 49>    C       -7.77376         6.71216         0.33635
| 50>    C       -8.46068         7.91846         0.47377
| 51>    C       -9.82080         8.08052        -0.03474
| 52>    C      -10.50120         7.10279        -0.67873
| 53>    S       -9.87494         5.53921        -0.98820
| 54>    C      -10.18458         9.41374         0.29603
| 55>    C       -9.13555        10.04584         0.97160
| 56>    C       -9.46839        11.37572         1.31715
| 57>    C      -10.72153        11.70507         0.90837
| 58>    S      -11.55488        10.42888         0.08997
| 59>    C       -8.03935         9.11619         1.08928
| 60>    C       -6.77727         9.27838         1.69813
| 61>    C       -6.32874        10.38276         2.35032
| 62>    C       -5.05069        10.49473         2.97000
| 63>    C       -4.65830        11.71865         3.53094
| 64>    O       -5.49980        12.80797         3.35934
| 65>    C       -5.26817        13.48488         2.13365
| 66>    C       -3.43436        11.89555         4.21108
| 67>    O       -3.05512        13.03498         4.82323
| 68>    C       -3.99974        13.98872         5.27030
| 69>    C       -2.45452        10.88112         4.21309
| 70>    C       -2.81117         9.64028         3.63178
| 71>    C       -4.11066         9.42759         3.05557
| 72>    N       -4.26159         8.17833         2.62872
| 73>    S       -2.91005         7.34934         2.91868
| 74>    N       -2.06572         8.53816         3.60568
| 75>    C       -1.20185        11.12065         4.84387
| 76>    C        0.00684        10.53894         4.60925
| 77>    C        0.49501         9.72341         3.52341
| 78>    C        0.02829         9.71729         2.23288
| 79>    C        0.55037         8.90563         1.20766
| 80>    N        0.91232         8.24632         0.33957
| 81>    C       -0.98602        10.56950         1.75675
| 82>    N       -1.78112        11.26038         1.29766
| 83>    C        1.72398         9.08129         3.97688
| 84>    C        2.10041         9.64843         5.22038
| 85>    C        1.07771        10.63315         5.63391
| 86>    O        1.08831        11.33874         6.61758
| 87>    C        3.24703         9.28192         5.88097
| 88>    C        4.05512         8.30235         5.29287
| 89>    C        3.66210         7.73137         4.05964
| 90>    C        2.50611         8.10775         3.38613
| 91>    S        4.80059         6.53517         3.51773
| 92>    C        5.77870         6.81992         4.93292
| 93>    C        5.27934         7.75867         5.77081
| 94>   Br        7.36677         5.85039         5.17100
| 95>    H       -8.44390        -2.38437        -3.21144
| 96>    H       -3.60760        -3.62811        -3.60116
| 97>    H       -8.89608        -4.68641        -4.74868
| 98>    H       -3.88575         1.15867        -0.67949
| 99>    H       -4.71090         3.34024         3.03547
|100>    H       -4.03242         4.35999         1.74357
|101>    H       -3.13893         2.92360         2.30869
|102>    H       -7.98097         5.74457         2.56235
|103>    H       -7.48422         4.36133         3.56388
|104>    H       -8.50634         4.09777         2.12890
|105>    H       -6.75578         6.65913         0.69843
|106>    H      -11.50060         7.25034        -1.05715
|107>    H       -8.83181        12.06653         1.83824
|108>    H      -11.22725        12.64210         1.03741
|109>    H       -6.10640         8.43399         1.64048
|110>    H       -6.96312        11.25074         2.44020
|111>    H       -5.44391        12.82679         1.27729
|112>    H       -5.97039        14.31671         2.11179
|113>    H       -4.24234        13.86274         2.07673
|114>    H       -3.49355        14.53630         6.06624
|115>    H       -4.89962        13.51356         5.66318
|116>    H       -4.27559        14.68605         4.47694
|117>    H       -1.21901        11.83926         5.65716
|118>    H        3.51553         9.73689         6.82152
|119>    H        2.24424         7.64303         2.45002
|120>    H        5.75293         8.05760         6.68807
|121> *
|122>
|123>                          ****END OF INPUT****

CARTESIAN COORDINATES (ANGSTROEM)
---------------------------------
  C     -4.272420   -1.200140   -2.110110
  C     -2.917840   -1.228830   -1.909200
  C     -2.072730   -2.263770   -2.363140
  N     -1.335230   -3.075520   -2.702640
  C     -2.173000   -0.260790   -1.202290
  N     -1.491870    0.472690   -0.639390
  C     -5.046070   -2.212810   -2.819210
  C     -6.421420   -1.885330   -2.731630
  C     -7.404120   -2.656930   -3.301650
  C     -7.011660   -3.798630   -4.007930
  C     -5.635000   -4.115730   -4.094860
  C     -4.641870   -3.342490   -3.507870
  S     -5.370210   -5.566660   -5.014290
  C     -7.088140   -5.724390   -5.266400
  C     -7.824290   -4.743160   -4.692650
  Br    -7.748300   -7.168250   -6.264400
  C     -6.581290   -0.644270   -1.947970
  O     -7.620830   -0.190770   -1.523470
  C     -5.199360   -0.168360   -1.674220
  C     -4.886420    1.000250   -1.059480
  C     -5.789590    2.093470   -0.852010
  C     -5.661410    2.886030    0.295760
  O     -4.698170    2.477800    1.144230
  C     -4.128290    3.338120    2.112490
  C     -6.564440    3.959180    0.562340
  O     -6.489010    4.509030    1.815960
  C     -7.689790    4.691060    2.543970
  C     -7.495950    4.376560   -0.388610
  C     -7.609740    3.600210   -1.570110
  C     -6.769770    2.463340   -1.802170
  N     -6.980090    1.926910   -2.999980
  S     -8.150010    2.743040   -3.739820
  N     -8.425250    3.839480   -2.592780
  C     -8.284120    5.585770   -0.256490
  C     -7.773760    6.712160    0.336350
  C     -8.460680    7.918460    0.473770
  C     -9.820800    8.080520   -0.034740
  C    -10.501200    7.102790   -0.678730
  S     -9.874940    5.539210   -0.988200
  C    -10.184580    9.413740    0.296030
  C     -9.135550   10.045840    0.971600
  C     -9.468390   11.375720    1.317150
  C    -10.721530   11.705070    0.908370
  S    -11.554880   10.428880    0.089970
  C     -8.039350    9.116190    1.089280
  C     -6.777270    9.278380    1.698130
  C     -6.328740   10.382760    2.350320
  C     -5.050690   10.494730    2.970000
  C     -4.658300   11.718650    3.530940
  O     -5.499800   12.807970    3.359340
  C     -5.268170   13.484880    2.133650
  C     -3.434360   11.895550    4.211080
  O     -3.055120   13.034980    4.823230
  C     -3.999740   13.988720    5.270300
  C     -2.454520   10.881120    4.213090
  C     -2.811170    9.640280    3.631780
  C     -4.110660    9.427590    3.055570
  N     -4.261590    8.178330    2.628720
  S     -2.910050    7.349340    2.918680
  N     -2.065720    8.538160    3.605680
  C     -1.201850   11.120650    4.843870
  C      0.006840   10.538940    4.609250
  C      0.495010    9.723410    3.523410
  C      0.028290    9.717290    2.232880
  C      0.550370    8.905630    1.207660
  N      0.912320    8.246320    0.339570
  C     -0.986020   10.569500    1.756750
  N     -1.781120   11.260380    1.297660
  C      1.723980    9.081290    3.976880
  C      2.100410    9.648430    5.220380
  C      1.077710   10.633150    5.633910
  O      1.088310   11.338740    6.617580
  C      3.247030    9.281920    5.880970
  C      4.055120    8.302350    5.292870
  C      3.662100    7.731370    4.059640
  C      2.506110    8.107750    3.386130
  S      4.800590    6.535170    3.517730
  C      5.778700    6.819920    4.932920
  C      5.279340    7.758670    5.770810
  Br     7.366770    5.850390    5.171000
  H     -8.443900   -2.384370   -3.211440
  H     -3.607600   -3.628110   -3.601160
  H     -8.896080   -4.686410   -4.748680
  H     -3.885750    1.158670   -0.679490
  H     -4.710900    3.340240    3.035470
  H     -4.032420    4.359990    1.743570
  H     -3.138930    2.923600    2.308690
  H     -7.980970    5.744570    2.562350
  H     -7.484220    4.361330    3.563880
  H     -8.506340    4.097770    2.128900
  H     -6.755780    6.659130    0.698430
  H    -11.500600    7.250340   -1.057150
  H     -8.831810   12.066530    1.838240
  H    -11.227250   12.642100    1.037410
  H     -6.106400    8.433990    1.640480
  H     -6.963120   11.250740    2.440200
  H     -5.443910   12.826790    1.277290
  H     -5.970390   14.316710    2.111790
  H     -4.242340   13.862740    2.076730
  H     -3.493550   14.536300    6.066240
  H     -4.899620   13.513560    5.663180
  H     -4.275590   14.686050    4.476940
  H     -1.219010   11.839260    5.657160
  H      3.515530    9.736890    6.821520
  H      2.244240    7.643030    2.450020
  H      5.752930    8.057600    6.688070

 Total Charge           Charge          ....    0
 Multiplicity           Mult            ....    1
 Number of Electrons    NEL             ....  644
 Basis Dimension        Dim             .... 1310

ORBITAL ENERGIES
----------------

  NO   OCC          E(Eh)            E(eV)
   0   2.0000    -482.884482    -13139.9548
   1   2.0000    -482.876919    -13139.7490
   2   2.0000     -89.023122     -2422.4423
   3   2.0000     -89.019389     -2422.3407
   4   2.0000     -88.979503     -2421.2554
   5   2.0000     -88.973538     -2421.0930
   6   2.0000     -88.965032     -2420.8616
   7   2.0000     -88.958885     -2420.6943
   8   2.0000     -62.562220     -1702.4046
   9   2.0000     -62.554622     -1702.1978
  10   2.0000     -56.396168     -1534.6177
  11   2.0000     -56.393453     -1534.5439
  12   2.0000     -56.393423     -1534.5431
  13   2.0000     -56.388565     -1534.4109
  14   2.0000     -56.385866     -1534.3374
  15   2.0000     -56.385829     -1534.3364
  16   2.0000     -19.269008      -524.3364
  17   2.0000     -19.266918      -524.2795
  18   2.0000     -19.264396      -524.2109
  19   2.0000     -19.244154      -523.6600
  20   2.0000     -19.208914      -522.7011
  21   2.0000     -19.199845      -522.4543
  22   2.0000     -14.440988      -392.9593
  23   2.0000     -14.440233      -392.9387
  24   2.0000     -14.435663      -392.8144
  25   2.0000     -14.431249      -392.6942
  26   2.0000     -14.412619      -392.1873
  27   2.0000     -14.412035      -392.1714
  28   2.0000     -14.402035      -391.8993
  29   2.0000     -14.401684      -391.8897
  30   2.0000     -10.369962      -282.1810
  31   2.0000     -10.367207      -282.1061
  32   2.0000     -10.361523      -281.9514
  33   2.0000     -10.360369      -281.9200
  34   2.0000     -10.357541      -281.8430
  35   2.0000     -10.350249      -281.6446
  36   2.0000     -10.348534      -281.5979
  37   2.0000     -10.339708      -281.3578
  38   2.0000     -10.339009      -281.3387
  39   2.0000     -10.337899      -281.3085
  40   2.0000     -10.335241      -281.2362
  41   2.0000     -10.330697      -281.1125
  42   2.0000     -10.330356      -281.1033
  43   2.0000     -10.329705      -281.0856
  44   2.0000     -10.328242      -281.0458
  45   2.0000     -10.326622      -281.0017
  46   2.0000     -10.325804      -280.9794
  47   2.0000     -10.323413      -280.9143
  48   2.0000     -10.323129      -280.9066
  49   2.0000     -10.322977      -280.9025
  50   2.0000     -10.322810      -280.8980
  51   2.0000     -10.321531      -280.8631
  52   2.0000     -10.321308      -280.8571
  53   2.0000     -10.318799      -280.7888
  54   2.0000     -10.315281      -280.6931
  55   2.0000     -10.315012      -280.6858
  56   2.0000     -10.314246      -280.6649
  57   2.0000     -10.309931      -280.5475
  58   2.0000     -10.305612      -280.4300
  59   2.0000     -10.305263      -280.4205
  60   2.0000     -10.305178      -280.4181
  61   2.0000     -10.305129      -280.4168
  62   2.0000     -10.304040      -280.3872
  63   2.0000     -10.302864      -280.3552
  64   2.0000     -10.301400      -280.3154
  65   2.0000     -10.299942      -280.2757
  66   2.0000     -10.298524      -280.2371
  67   2.0000     -10.298301      -280.2310
  68   2.0000     -10.297890      -280.2198
  69   2.0000     -10.297832      -280.2182
  70   2.0000     -10.295622      -280.1581
  71   2.0000     -10.295130      -280.1447
  72   2.0000     -10.294874      -280.1378
  73   2.0000     -10.293211      -280.0925
  74   2.0000     -10.292649      -280.0772
  75   2.0000     -10.290846      -280.0281
  76   2.0000     -10.289952      -280.0038
  77   2.0000     -10.289236      -279.9843
  78   2.0000     -10.288564      -279.9661
  79   2.0000     -10.286820      -279.9186
  80   2.0000     -10.285064      -279.8708
  81   2.0000     -10.279150      -279.7099
  82   2.0000     -10.277257      -279.6584
  83   2.0000     -10.276901      -279.6487
  84   2.0000     -10.276709      -279.6435
  85   2.0000     -10.276623      -279.6411
  86   2.0000     -10.276050      -279.6255
  87   2.0000     -10.269430      -279.4454
  88   2.0000      -8.791668      -239.2335
  89   2.0000      -8.784037      -239.0258
  90   2.0000      -8.114850      -220.8163
  91   2.0000      -8.110914      -220.7092
  92   2.0000      -8.074183      -219.7097
  93   2.0000      -8.069519      -219.5828
  94   2.0000      -8.061037      -219.3520
  95   2.0000      -8.054321      -219.1692
  96   2.0000      -6.627972      -180.3563
  97   2.0000      -6.620306      -180.1477
  98   2.0000      -6.613399      -179.9597
  99   2.0000      -6.613201      -179.9543
 100   2.0000      -6.605785      -179.7526
 101   2.0000      -6.605595      -179.7474
 102   2.0000      -6.086149      -165.6125
 103   2.0000      -6.082351      -165.5092
 104   2.0000      -6.078472      -165.4036
 105   2.0000      -6.077020      -165.3641
 106   2.0000      -6.074571      -165.2975
 107   2.0000      -6.072944      -165.2532
 108   2.0000      -6.043645      -164.4559
 109   2.0000      -6.039218      -164.3355
 110   2.0000      -6.038862      -164.3258
 111   2.0000      -6.036438      -164.2598
 112   2.0000      -6.034946      -164.2192
 113   2.0000      -6.030745      -164.1049
 114   2.0000      -6.030721      -164.1043
 115   2.0000      -6.026457      -163.9882
 116   2.0000      -6.023755      -163.9147
 117   2.0000      -6.022242      -163.8735
 118   2.0000      -6.019505      -163.7991
 119   2.0000      -6.016374      -163.7139
 120   2.0000      -2.743811       -74.6629
 121   2.0000      -2.739758       -74.5526
 122   2.0000      -2.739634       -74.5492
 123   2.0000      -2.736160       -74.4547
 124   2.0000      -2.732088       -74.3439
 125   2.0000      -2.732005       -74.3416
 126   2.0000      -2.728028       -74.2334
 127   2.0000      -2.728019       -74.2332
 128   2.0000      -2.720428       -74.0266
 129   2.0000      -2.720416       -74.0263
 130   2.0000      -1.183016       -32.1915
 131   2.0000      -1.172836       -31.9145
 132   2.0000      -1.159267       -31.5453
 133   2.0000      -1.141217       -31.0541
 134   2.0000      -1.128435       -30.7063
 135   2.0000      -1.121806       -30.5259
 136   2.0000      -1.120556       -30.4919
 137   2.0000      -1.114340       -30.3227
 138   2.0000      -1.019969       -27.7548
 139   2.0000      -1.010576       -27.4992
 140   2.0000      -1.010432       -27.4952
 141   2.0000      -1.009997       -27.4834
 142   2.0000      -1.001168       -27.2432
 143   2.0000      -0.990851       -26.9624
 144   2.0000      -0.990239       -26.9458
 145   2.0000      -0.986474       -26.8433
 146   2.0000      -0.982319       -26.7302
 147   2.0000      -0.978145       -26.6167
 148   2.0000      -0.976612       -26.5750
 149   2.0000      -0.974005       -26.5040
 150   2.0000      -0.962823       -26.1997
 151   2.0000      -0.959446       -26.1079
 152   2.0000      -0.939484       -25.5647
 153   2.0000      -0.929692       -25.2982
 154   2.0000      -0.928480       -25.2652
 155   2.0000      -0.910222       -24.7684
 156   2.0000      -0.905771       -24.6473
 157   2.0000      -0.900038       -24.4913
 158   2.0000      -0.895687       -24.3729
 159   2.0000      -0.890714       -24.2376
 160   2.0000      -0.883353       -24.0372
 161   2.0000      -0.877292       -23.8723
 162   2.0000      -0.873626       -23.7726
 163   2.0000      -0.871949       -23.7269
 164   2.0000      -0.869774       -23.6678
 165   2.0000      -0.861931       -23.4543
 166   2.0000      -0.858482       -23.3605
 167   2.0000      -0.840021       -22.8581
 168   2.0000      -0.837679       -22.7944
 169   2.0000      -0.826546       -22.4915
 170   2.0000      -0.824797       -22.4439
 171   2.0000      -0.820889       -22.3375
 172   2.0000      -0.816917       -22.2294
 173   2.0000      -0.803691       -21.8695
 174   2.0000      -0.796114       -21.6634
 175   2.0000      -0.794890       -21.6301
 176   2.0000      -0.788239       -21.4491
 177   2.0000      -0.777384       -21.1537
 178   2.0000      -0.768824       -20.9208
 179   2.0000      -0.757681       -20.6176
 180   2.0000      -0.754375       -20.5276
 181   2.0000      -0.745392       -20.2832
 182   2.0000      -0.732833       -19.9414
 183   2.0000      -0.729488       -19.8504
 184   2.0000      -0.718034       -19.5387
 185   2.0000      -0.709241       -19.2994
 186   2.0000      -0.702586       -19.1183
 187   2.0000      -0.700557       -19.0631
 188   2.0000      -0.698287       -19.0014
 189   2.0000      -0.690837       -18.7986
 190   2.0000      -0.686847       -18.6901
 191   2.0000      -0.682627       -18.5752
 192   2.0000      -0.675891       -18.3919
 193   2.0000      -0.672028       -18.2868
 194   2.0000      -0.660918       -17.9845
 195   2.0000      -0.658677       -17.9235
 196   2.0000      -0.655889       -17.8476
 197   2.0000      -0.653075       -17.7711
 198   2.0000      -0.648048       -17.6343
 199   2.0000      -0.637680       -17.3521
 200   2.0000      -0.635487       -17.2925
 201   2.0000      -0.631707       -17.1896
 202   2.0000      -0.627090       -17.0640
 203   2.0000      -0.621346       -16.9077
 204   2.0000      -0.619686       -16.8625
 205   2.0000      -0.616484       -16.7754
 206   2.0000      -0.613576       -16.6963
 207   2.0000      -0.609832       -16.5944
 208   2.0000      -0.601886       -16.3781
 209   2.0000      -0.596896       -16.2424
 210   2.0000      -0.592067       -16.1110
 211   2.0000      -0.588544       -16.0151
 212   2.0000      -0.584736       -15.9115
 213   2.0000      -0.583034       -15.8652
 214   2.0000      -0.579650       -15.7731
 215   2.0000      -0.575595       -15.6627
 216   2.0000      -0.573962       -15.6183
 217   2.0000      -0.569464       -15.4959
 218   2.0000      -0.565280       -15.3821
 219   2.0000      -0.561540       -15.2803
 220   2.0000      -0.557490       -15.1701
 221   2.0000      -0.553884       -15.0720
 222   2.0000      -0.549247       -14.9458
 223   2.0000      -0.548910       -14.9366
 224   2.0000      -0.545257       -14.8372
 225   2.0000      -0.543540       -14.7905
 226   2.0000      -0.540944       -14.7198
 227   2.0000      -0.540522       -14.7084
 228   2.0000      -0.537547       -14.6274
 229   2.0000      -0.535066       -14.5599
 230   2.0000      -0.534345       -14.5403
 231   2.0000      -0.534144       -14.5348
 232   2.0000      -0.527885       -14.3645
 233   2.0000      -0.525880       -14.3099
 234   2.0000      -0.523558       -14.2467
 235   2.0000      -0.521562       -14.1924
 236   2.0000      -0.519700       -14.1418
 237   2.0000      -0.517491       -14.0816
 238   2.0000      -0.514703       -14.0058
 239   2.0000      -0.512764       -13.9530
 240   2.0000      -0.511421       -13.9165
 241   2.0000      -0.505972       -13.7682
 242   2.0000      -0.505695       -13.7607
 243   2.0000      -0.504020       -13.7151
 244   2.0000      -0.502900       -13.6846
 245   2.0000      -0.498006       -13.5514
 246   2.0000      -0.496003       -13.4969
 247   2.0000      -0.494998       -13.4696
 248   2.0000      -0.490688       -13.3523
 249   2.0000      -0.490470       -13.3464
 250   2.0000      -0.489045       -13.3076
 251   2.0000      -0.485011       -13.1978
 252   2.0000      -0.479271       -13.0416
 253   2.0000      -0.476215       -12.9585
 254   2.0000      -0.475377       -12.9357
 255   2.0000      -0.472294       -12.8518
 256   2.0000      -0.468510       -12.7488
 257   2.0000      -0.466992       -12.7075
 258   2.0000      -0.465207       -12.6589
 259   2.0000      -0.464803       -12.6479
 260   2.0000      -0.457423       -12.4471
 261   2.0000      -0.456494       -12.4218
 262   2.0000      -0.454351       -12.3635
 263   2.0000      -0.450047       -12.2464
 264   2.0000      -0.447871       -12.1872
 265   2.0000      -0.446946       -12.1620
 266   2.0000      -0.445776       -12.1302
 267   2.0000      -0.444600       -12.0982
 268   2.0000      -0.442531       -12.0419
 269   2.0000      -0.441347       -12.0097
 270   2.0000      -0.440588       -11.9890
 271   2.0000      -0.438391       -11.9292
 272   2.0000      -0.436938       -11.8897
 273   2.0000      -0.434686       -11.8284
 274   2.0000      -0.432447       -11.7675
 275   2.0000      -0.431976       -11.7547
 276   2.0000      -0.429490       -11.6870
 277   2.0000      -0.429241       -11.6803
 278   2.0000      -0.428248       -11.6532
 279   2.0000      -0.423810       -11.5325
 280   2.0000      -0.422452       -11.4955
 281   2.0000      -0.421479       -11.4690
 282   2.0000      -0.420414       -11.4400
 283   2.0000      -0.419368       -11.4116
 284   2.0000      -0.415021       -11.2933
 285   2.0000      -0.412745       -11.2314
 286   2.0000      -0.411799       -11.2056
 287   2.0000      -0.408786       -11.1236
 288   2.0000      -0.406234       -11.0542
 289   2.0000      -0.406009       -11.0481
 290   2.0000      -0.399598       -10.8736
 291   2.0000      -0.399524       -10.8716
 292   2.0000      -0.396758       -10.7963
 293   2.0000      -0.389305       -10.5935
 294   2.0000      -0.387411       -10.5420
 295   2.0000      -0.385824       -10.4988
 296   2.0000      -0.383051       -10.4233
 297   2.0000      -0.378567       -10.3013
 298   2.0000      -0.376875       -10.2553
 299   2.0000      -0.373906       -10.1745
 300   2.0000      -0.369626       -10.0580
 301   2.0000      -0.368627       -10.0308
 302   2.0000      -0.366543        -9.9742
 303   2.0000      -0.366325        -9.9682
 304   2.0000      -0.360549        -9.8110
 305   2.0000      -0.358415        -9.7530
 306   2.0000      -0.350198        -9.5294
 307   2.0000      -0.335735        -9.1358
 308   2.0000      -0.333068        -9.0633
 309   2.0000      -0.331490        -9.0203
 310   2.0000      -0.327742        -8.9183
 311   2.0000      -0.315588        -8.5876
 312   2.0000      -0.312520        -8.5041
 313   2.0000      -0.310248        -8.4423
 314   2.0000      -0.309415        -8.4196
 315   2.0000      -0.302899        -8.2423
 316   2.0000      -0.293850        -7.9961
 317   2.0000      -0.289454        -7.8764
 318   2.0000      -0.281891        -7.6707
 319   2.0000      -0.279809        -7.6140
 320   2.0000      -0.270601        -7.3634
 321   2.0000      -0.228736        -6.2242
 322   0.0000      -0.099267        -2.7012
 323   0.0000      -0.085945        -2.3387
 324   0.0000      -0.064952        -1.7674
 325   0.0000      -0.053724        -1.4619
 326   0.0000      -0.041277        -1.1232

MULLIKEN ATOMIC CHARGES
-----------------------
   0 C :    0.307956
   1 C :   -0.351296
   2 C :   -0.186189
   3 N :    0.147088
   4 C :   -0.179522
   5 N :    0.150126
   6 C :    0.019982
   7 C :   -0.006579
   8 C :   -0.078991
   9 C :    0.119548
  10 C :   -0.089252
  11 C :   -0.025316
  12 S :    0.185267
  13 C :   -0.123709
  14 C :    0.037133
  15 Br:    0.022233
  16 C :    0.153206
  17 O :   -0.149918
  18 C :   -0.054052
  19 C :   -0.043942
  20 C :   -0.033992
  21 C :    0.171510
  22 O :   -0.294090
  23 C :    0.207426
  24 C :    0.036852
  25 O :   -0.353080
  26 C :    0.190580
  27 C :    0.084217
  28 C :   -0.008406
  29 C :    0.062279
  30 N :   -0.274845
  31 S :    0.508727
  32 N :   -0.298446
  33 C :   -0.168839
  34 C :   -0.040479
  35 C :    0.037036
  36 C :    0.070030
  37 C :   -0.134632
  38 S :    0.211145
  39 C :   -0.114183
  40 C :    0.059286
  41 C :   -0.012419
  42 C :   -0.064825
  43 S :    0.125347
  44 C :    0.104515
  45 C :    0.005939
  46 C :   -0.114598
  47 C :    0.118689
  48 C :   -0.003465
  49 O :   -0.366857
  50 C :    0.194528
  51 C :    0.190546
  52 O :   -0.291786
  53 C :    0.200015
  54 C :   -0.038022
  55 C :    0.004872
  56 C :    0.046034
  57 N :   -0.295597
  58 S :    0.491066
  59 N :   -0.282588
  60 C :   -0.004043
  61 C :   -0.108714
  62 C :    0.341727
  63 C :   -0.343345
  64 C :   -0.198077
  65 N :    0.145497
  66 C :   -0.199699
  67 N :    0.147308
  68 C :    0.000011
  69 C :    0.005911
  70 C :    0.124918
  71 O :   -0.150223
  72 C :   -0.074909
  73 C :    0.111116
  74 C :   -0.086538
  75 C :   -0.026839
  76 S :    0.180103
  77 C :   -0.127590
  78 C :    0.043003
  79 Br:    0.015823
  80 H :   -0.013644
  81 H :   -0.006285
  82 H :   -0.003590
  83 H :    0.027211
  84 H :    0.027543
  85 H :    0.019474
  86 H :    0.047320
  87 H :    0.047547
  88 H :    0.036054
  89 H :    0.035289
  90 H :    0.015026
  91 H :    0.035433
  92 H :   -0.007438
  93 H :    0.024030
  94 H :   -0.005722
  95 H :   -0.042913
  96 H :    0.034518
  97 H :    0.033253
  98 H :    0.032280
  99 H :    0.036973
 100 H :    0.034267
 101 H :    0.022151
 102 H :    0.022271
 103 H :   -0.014267
 104 H :   -0.008354
 105 H :   -0.007125
Sum of atomic charges:   -0.0000000

LOEWDIN ATOMIC CHARGES
----------------------
   0 C :    0.078500
   1 C :   -0.138138
   2 C :   -0.017445
   3 N :   -0.054387
   4 C :   -0.018988
   5 N :   -0.050779
   6 C :   -0.020656
   7 C :   -0.045425
   8 C :    0.018666
   9 C :   -0.031948
  10 C :   -0.144338
  11 C :   -0.009727
  12 S :    0.431394
  13 C :   -0.271642
  14 C :   -0.071558
  15 Br:    0.135874
  16 C :    0.084489
  17 O :   -0.142260
  18 C :   -0.079343
  19 C :    0.082881
  20 C :   -0.071009
  21 C :    0.078011
  22 O :   -0.075975
  23 C :    0.084654
  24 C :    0.030800
  25 O :   -0.109027
  26 C :    0.084467
  27 C :   -0.064290
  28 C :   -0.056522
  29 C :   -0.034033
  30 N :   -0.277907
  31 S :    0.638964
  32 N :   -0.301759
  33 C :   -0.169976
  34 C :   -0.008762
  35 C :   -0.011904
  36 C :   -0.056152
  37 C :   -0.142481
  38 S :    0.512235
  39 C :   -0.201091
  40 C :   -0.037022
  41 C :   -0.065921
  42 C :   -0.165342
  43 S :    0.421109
  44 C :   -0.056186
  45 C :    0.017252
  46 C :   -0.055255
  47 C :   -0.001777
  48 C :    0.006120
  49 O :   -0.136402
  50 C :    0.079364
  51 C :    0.088842
  52 O :   -0.075392
  53 C :    0.084522
  54 C :   -0.094195
  55 C :   -0.037505
  56 C :   -0.039407
  57 N :   -0.275804
  58 S :    0.618515
  59 N :   -0.284016
  60 C :    0.080966
  61 C :   -0.096039
  62 C :    0.080917
  63 C :   -0.147253
  64 C :   -0.021072
  65 N :   -0.065258
  66 C :   -0.012186
  67 N :   -0.071656
  68 C :   -0.013057
  69 C :   -0.051903
  70 C :    0.083645
  71 O :   -0.149727
  72 C :    0.019777
  73 C :   -0.036633
  74 C :   -0.143951
  75 C :   -0.015340
  76 S :    0.427976
  77 C :   -0.274754
  78 C :   -0.070576
  79 Br:    0.131044
  80 H :    0.039481
  81 H :    0.040843
  82 H :    0.038457
  83 H :    0.044354
  84 H :    0.018699
  85 H :    0.014261
  86 H :    0.030328
  87 H :    0.023170
  88 H :    0.024812
  89 H :    0.023011
  90 H :    0.042927
  91 H :    0.036551
  92 H :    0.030215
  93 H :    0.023285
  94 H :    0.026452
  95 H :    0.024219
  96 H :    0.019902
  97 H :    0.023311
  98 H :    0.018533
  99 H :    0.026210
 100 H :    0.022007
 101 H :    0.018118
 102 H :    0.044444
 103 H :    0.039394
 104 H :    0.039726
 105 H :    0.037458

  Mayer bond orders larger than 0.100000
B(  0-C ,  1-C ) :   1.6385 B(  0-C ,  6-C ) :   1.0076 B(  0-C , 18-C ) :   1.0645
B(  1-C ,  2-C ) :   1.1399 B(  1-C ,  4-C ) :   1.1433 B(  2-C ,  3-N ) :   2.9695
B(  4-C ,  5-N ) :   2.9644 B(  6-C ,  7-C ) :   1.2764 B(  6-C , 11-C ) :   1.4020
B(  7-C ,  8-C ) :   1.4210 B(  7-C , 16-C ) :   0.9344 B(  8-C ,  9-C ) :   1.2477
B(  8-C , 80-H ) :   1.0176 B(  9-C , 10-C ) :   1.3051 B(  9-C , 14-C ) :   1.1619
B( 10-C , 11-C ) :   1.3359 B( 10-C , 12-S ) :   1.0829 B( 11-C , 81-H ) :   0.9802
B( 12-S , 13-C ) :   1.0869 B( 13-C , 14-C ) :   1.6180 B( 13-C , 15-Br) :   1.0182
B( 14-C , 82-H ) :   1.0005 B( 16-C , 17-O ) :   2.2379 B( 16-C , 18-C ) :   0.9313
B( 18-C , 19-C ) :   1.6579 B( 19-C , 20-C ) :   1.1068 B( 19-C , 83-H ) :   0.9226
B( 20-C , 21-C ) :   1.4211 B( 20-C , 27-C ) :   0.1018 B( 20-C , 29-C ) :   1.1969
B( 21-C , 22-O ) :   1.2545 B( 21-C , 24-C ) :   1.1356 B( 22-O , 23-C ) :   0.9133
B( 23-C , 84-H ) :   0.9768 B( 23-C , 85-H ) :   0.9734 B( 23-C , 86-H ) :   0.9757
B( 24-C , 25-O ) :   1.1357 B( 24-C , 27-C ) :   1.4194 B( 25-O , 26-C ) :   0.9239
B( 26-C , 87-H ) :   0.9672 B( 26-C , 88-H ) :   0.9763 B( 26-C , 89-H ) :   0.9627
B( 27-C , 28-C ) :   1.1525 B( 27-C , 33-C ) :   1.0321 B( 28-C , 29-C ) :   1.1698
B( 28-C , 32-N ) :   1.5335 B( 29-C , 30-N ) :   1.5422 B( 30-N , 31-S ) :   1.2546
B( 30-N , 32-N ) :   0.1429 B( 31-S , 32-N ) :   1.2526 B( 33-C , 34-C ) :   1.5240
B( 33-C , 38-S ) :   1.0922 B( 34-C , 35-C ) :   1.2505 B( 34-C , 90-H ) :   0.9687
B( 35-C , 36-C ) :   1.0755 B( 35-C , 44-C ) :   1.3469 B( 36-C , 37-C ) :   1.5592
B( 36-C , 39-C ) :   1.1823 B( 37-C , 38-S ) :   1.1732 B( 37-C , 91-H ) :   0.9397
B( 39-C , 40-C ) :   1.4436 B( 39-C , 43-S ) :   1.0758 B( 40-C , 41-C ) :   1.2130
B( 40-C , 44-C ) :   1.0709 B( 41-C , 42-C ) :   1.5874 B( 41-C , 92-H ) :   1.0013
B( 42-C , 43-S ) :   1.1534 B( 42-C , 93-H ) :   0.9644 B( 44-C , 45-C ) :   1.1892
B( 45-C , 46-C ) :   1.5374 B( 45-C , 94-H ) :   0.9433 B( 46-C , 47-C ) :   1.1865
B( 46-C , 95-H ) :   0.9732 B( 47-C , 48-C ) :   1.3728 B( 47-C , 54-C ) :   0.1118
B( 47-C , 56-C ) :   1.1064 B( 48-C , 49-O ) :   1.1049 B( 48-C , 51-C ) :   1.1786
B( 49-O , 50-C ) :   0.9216 B( 50-C , 96-H ) :   0.9673 B( 50-C , 97-H ) :   0.9806
B( 50-C , 98-H ) :   0.9672 B( 51-C , 52-O ) :   1.2685 B( 51-C , 54-C ) :   1.3459
B( 52-O , 53-C ) :   0.9217 B( 53-C , 99-H ) :   0.9771 B( 53-C ,100-H ) :   0.9730
B( 53-C ,101-H ) :   0.9754 B( 54-C , 55-C ) :   1.1876 B( 54-C , 60-C ) :   1.1348
B( 55-C , 56-C ) :   1.1550 B( 55-C , 59-N ) :   1.5555 B( 56-C , 57-N ) :   1.5399
B( 57-N , 58-S ) :   1.2426 B( 57-N , 59-N ) :   0.1354 B( 58-S , 59-N ) :   1.2310
B( 60-C , 61-C ) :   1.6082 B( 60-C ,102-H ) :   0.9377 B( 61-C , 62-C ) :   1.0593
B( 61-C , 70-C ) :   0.9492 B( 62-C , 63-C ) :   1.6120 B( 62-C , 68-C ) :   1.0196
B( 63-C , 64-C ) :   1.1446 B( 63-C , 66-C ) :   1.1737 B( 64-C , 65-N ) :   2.9814
B( 66-C , 67-N ) :   2.9996 B( 68-C , 69-C ) :   1.2758 B( 68-C , 75-C ) :   1.4155
B( 69-C , 70-C ) :   0.9167 B( 69-C , 72-C ) :   1.4261 B( 70-C , 71-O ) :   2.2643
B( 72-C , 73-C ) :   1.2493 B( 72-C ,103-H ) :   1.0161 B( 73-C , 74-C ) :   1.3143
B( 73-C , 78-C ) :   1.1597 B( 74-C , 75-C ) :   1.3218 B( 74-C , 76-S ) :   1.0808
B( 75-C ,104-H ) :   0.9835 B( 76-S , 77-C ) :   1.0861 B( 77-C , 78-C ) :   1.6211
B( 77-C , 79-Br) :   1.0141 B( 78-C ,105-H ) :   1.0003

-----------------------------------------------------------------------------
         ABSORPTION SPECTRUM VIA TRANSITION ELECTRIC DIPOLE MOMENTS
-----------------------------------------------------------------------------
State   Energy  Wavelength   fosc         T2         TX        TY        TZ
        (cm-1)    (nm)                  (au**2)     (au)      (au)      (au)
-----------------------------------------------------------------------------
   0   13485.6    741.5   0.774856001  18.91583   2.73653   2.79003   1.90865
   1   16969.1    589.3   0.460139008   8.92702  -2.57483   1.51448  -0.06014
   2   22004.9    454.4   0.797672769  11.93384  -2.02869   2.65480   0.87766
   3   22605.7    442.4   0.060138482   0.87581   0.66485  -0.65574  -0.06161
   4   23339.7    428.5   0.010963671   0.15464   0.13725   0.20426  -0.30673
   5   24052.4    415.8   0.004389646   0.06008  -0.14826   0.13350  -0.14241
   6   24518.8    407.8   0.021753778   0.29209   0.05991  -0.53677  -0.01940
   7   25578.9    390.9   0.251568044   3.23780   1.41856  -0.04720   1.10601
   8   26296.9    380.3   0.112177772   1.40436   0.41075  -0.95671  -0.56600
   9   26880.7    372.0   0.029504334   0.36134   0.21533  -0.31147   0.46687
  10   27135.2    368.5   0.267984144   3.25126  -1.06424  -1.02350  -1.03494
  11   27426.3    364.6   0.235548041   2.82740  -1.52969  -0.40540  -0.56841
  12   27894.2    358.5   0.011507622   0.13581   0.19151  -0.08516   0.30312
  13   28628.3    349.3   0.171941871   1.97725  -0.35843  -1.20168  -0.63619
  14   29202.4    342.4   0.052944747   0.59687   0.18134   0.57125   0.48750
  15   29265.6    341.7   0.058636792   0.65961   0.06672   0.70354   0.40023
  16   29491.6    339.1   0.035196377   0.39289  -0.36520   0.50620   0.05728
  17   29536.6    338.6   0.021171070   0.23597   0.48030  -0.03388   0.06429
  18   29956.6    333.8   0.037334074   0.41029  -0.58961   0.15990  -0.19257
  19   30136.7    331.8   0.037814761   0.41309   0.17045   0.26901   0.55827
  20   30250.9    330.6   0.123454264   1.34352   0.28427  -1.11537   0.13661
  21   30404.7    328.9   0.008065047   0.08733  -0.24742  -0.14269  -0.07581
  22   31491.3    317.5   0.079088502   0.82680   0.78716  -0.21651   0.40038
  23   31877.8    313.7   0.034140951   0.35258   0.14429   0.56995   0.08320
  24   32201.9    310.5   0.020970881   0.21439  -0.14785   0.29329  -0.32636
  25   32401.7    308.6   0.065330521   0.66378   0.52803   0.09792   0.61268
  26   32716.8    305.7   0.208835992   2.10141   1.08480   0.11321   0.95488
  27   33036.5    302.7   0.028869927   0.28769  -0.03430   0.53166  -0.06206
  28   33165.1    301.5   0.282039129   2.79965   0.76357   1.46374   0.27221
  29   33181.5    301.4   0.623845389   6.18951  -2.07263   0.10098  -1.37242
  30   33597.0    297.6   0.180870292   1.77232  -1.14684   0.09367  -0.66956
  31   34067.1    293.5   0.103714545   1.00226   0.39822   0.80650   0.43959
  32   34329.8    291.3   0.056599288   0.54277   0.30887   0.50803   0.43505
  33   34876.6    286.7   0.036537333   0.34489  -0.15861   0.43996  -0.35520
  34   35431.9    282.2   0.051744899   0.48078  -0.59714  -0.26868  -0.22808
  35   35460.2    282.0   0.043489754   0.40376  -0.14754  -0.57384  -0.22955
  36   35846.2    279.0   0.023642931   0.21714   0.14781  -0.36741   0.24556
  37   35911.9    278.5   0.022043479   0.20208  -0.10342   0.07683   0.43067
  38   36102.1    277.0   0.020733227   0.18906   0.39888   0.15081  -0.08494
  39   36485.7    274.1   0.033007480   0.29783   0.42420   0.17537   0.29517
  40   36570.2    273.4   0.041824969   0.37652  -0.58696  -0.17539  -0.03514
  41   36781.0    271.9   0.029008522   0.25964  -0.23863   0.41694  -0.16989
  42   36896.9    271.0   0.060102693   0.53627   0.28844   0.34911   0.57549
  43   37215.0    268.7   0.100865447   0.89228  -0.06578  -0.61099  -0.71738
  44   37294.2    268.1   0.034913522   0.30820  -0.41014   0.36862   0.06404
  45   37537.0    266.4   0.129831037   1.13866  -0.77387   0.64940   0.34361
  46   37616.6    265.8   0.101592230   0.88911   0.92555  -0.07795   0.16248
  47   37830.7    264.3   0.004896131   0.04261  -0.08323   0.17342   0.07486
  48   38067.7    262.7   0.033150215   0.28668   0.34311  -0.39809  -0.10239
  49   38394.6    260.5   0.072572680   0.62227  -0.52537   0.55982  -0.18126
  50   38478.5    259.9   0.019999163   0.17111  -0.13266   0.36547  -0.14120
  51   38528.4    259.5   0.068622480   0.58635   0.18282   0.67406   0.31395
  52   38696.8    258.4   0.117788761   1.00208  -0.48725   0.87228  -0.06161
  53   38837.0    257.5   0.105064112   0.89060   0.16577  -0.75576  -0.54032
  54   38945.5    256.8   0.217775846   1.84089   1.02718  -0.85738  -0.22516
  55   39083.5    255.9   0.201626087   1.69836   0.17352   0.82209   0.99620
  56   39268.5    254.7   0.066228653   0.55524   0.39395  -0.58009   0.25205
  57   39593.2    252.6   0.018344925   0.15254  -0.37946   0.09239  -0.00312
  58   40133.9    249.2   0.057124176   0.46858   0.31671   0.53274   0.29062
  59   40242.9    248.5   0.044057908   0.36042  -0.24686   0.27307  -0.47425

FINAL SINGLE POINT ENERGY    -10647.448108874178

DIPOLE MOMENT
-------------
                                X             Y             Z
Electronic contribution:     91.76143    -166.31717     -55.74263
Nuclear contribution   :    -96.10445     167.04808      56.56566
                        -----------------------------------------
Total Dipole Moment    :     -4.34303       0.73092       0.82303
                        -----------------------------------------
Magnitude (a.u.)       :      4.48035
Magnitude (Debye)      :     11.38814

Rotational constants in cm-1:     0.000593     0.000261     0.000185
Rotational constants in MHz :    17.765893     7.828531     5.560916

                             ****ORCA TERMINATED NORMALLY****
TOTAL RUN TIME: 0 days 0 hours 19 minutes 32 seconds 27 msec
