                         Program Version 4.2.0 -  RELEASE  -
|  1> # ORCA input file
|  2> # SCF done       -164.112625057595          0.000350160164
|  3> ! CAM-B3LYP def2-SVP def2/J RIJCOSX Grid4 TightSCF
|  4> %maxcore 5000
|  5> %tddft
|  6>     Mode sTDDFT
|  7>     Ethresh 5.0
|  8>     maxcore 5000
|  9> end
| 10>
| 11> %pal
| 12>   nprocs 6
| 13>   end
| 14> * xyz 0 1
| 15>    C       -1.23891         1.21168        -1.10027
| 16>    C       -1.11959        -0.01346        -1.70057
| 17>    C        0.11357        -0.60099        -2.05698
| 18>    N        1.08262        -1.12979        -2.37059
| 19>    C       -2.18706        -0.87407        -2.03572
| 20>    N       -2.99501        -1.63343        -2.33359
| 21>    C       -0.12733         2.08003        -0.72584
| 22>    C       -0.64562         3.22617        -0.07263
| 23>    C        0.14830         4.25262         0.37813
| 24>    C        1.52752         4.13765         0.18180
| 25>    C        2.04264         2.98167        -0.45239
| 26>    C        1.23603         1.94814        -0.91490
| 27>    S        3.77429         3.04207        -0.57900
| 28>    C        3.78253         4.60165         0.20086
| 29>    C        2.55176         5.05436         0.54228
| 30>   Br        5.40867         5.48575         0.49670
| 31>    C       -2.10825         3.11587         0.00808
| 32>    O       -2.85799         3.91672         0.53868
| 33>    C       -2.46832         1.87368        -0.69036
| 34>    C       -3.74062         1.46511        -0.98101
| 35>    C       -4.97380         2.03929        -0.61326
| 36>    S       -5.22054         3.40082         0.45433
| 37>    C       -6.94577         3.30017         0.32248
| 38>    C       -7.29135         2.26885        -0.56827
| 39>    C       -6.19371         1.55235        -1.04712
| 40>    N       -8.59512         1.88249        -0.97110
| 41>    O       -9.47121         2.72945        -0.99747
| 42>    O       -8.75571         0.72316        -1.29386
| 43>    C       -7.76382         4.16002         1.10669
| 44>    S       -9.34083         4.68496         0.55880
| 45>    C       -9.59267         5.55310         2.00321
| 46>    C       -8.57748         5.41985         2.90423
| 47>    C       -8.56314         6.03651         4.26283
| 48>    C       -7.49937         4.65464         2.38681
| 49>    C       -6.36336         4.37103         3.24728
| 50>    C       -5.07049         4.67374         3.03669
| 51>    C       -4.04916         4.32615         3.97270
| 52>    C       -2.73274         4.52811         3.75492
| 53>    C       -1.73157         4.14242         4.70825
| 54>    N       -2.10835         3.60022         5.85714
| 55>    N       -1.27721         3.24183         6.78503
| 56>    C        0.03616         3.37884         6.68066
| 57>    C        0.58329         3.93086         5.48744
| 58>    C       -0.33721         4.32811         4.46438
| 59>    N        0.28628         4.82692         3.40068
| 60>    S        1.87580         4.79370         3.67143
| 61>    N        1.84749         4.14855         5.14290
| 62>    C        0.83076         2.96640         7.78960
| 63>    C        2.19998         3.04744         7.94682
| 64>    C        2.59908         2.55155         9.18787
| 65>    C        1.51912         2.09270         9.96220
| 66>    S        0.01746         2.27346         9.17706
| 67>    C        2.03485         1.60920        11.19992
| 68>    C        3.42548         1.76754        11.20211
| 69>    C        3.83025         2.36779         9.94237
| 70>    C        5.09372         2.70105         9.54994
| 71>    C        5.36282         3.28765         8.29520
| 72>    N        5.59295         3.76421         7.27796
| 73>    C        6.21785         2.48653        10.37480
| 74>    N        7.13438         2.31716        11.04285
| 75>    C        4.01724         1.31123        12.39473
| 76>    C        3.08043         0.82478        13.25631
| 77>    S        1.46199         0.90785        12.64656
| 78>    H       -0.27445         5.11127         0.87344
| 79>    H        1.67685         1.09481        -1.40217
| 80>    H        2.36932         6.00112         1.01634
| 81>    H       -3.85206         0.58092        -1.59702
| 82>    H       -6.30111         0.70880        -1.70675
| 83>    H      -10.50204         6.10672         2.13469
| 84>    H       -9.42544         6.68411         4.39410
| 85>    H       -7.65450         6.61841         4.40770
| 86>    H       -8.59109         5.26276         5.02993
| 87>    H       -6.63531         3.92704         4.19989
| 88>    H       -4.75904         5.20687         2.15048
| 89>    H       -4.34564         3.85065         4.89824
| 90>    H       -2.38106         4.97427         2.83644
| 91>    H        2.84609         3.44910         7.18740
| 92>    H        5.06987         1.33732        12.60931
| 93>    H        3.23946         0.41302        14.23286
| 94> *
| 95>
| 96>                          ****END OF INPUT****

CARTESIAN COORDINATES (ANGSTROEM)
---------------------------------
  C     -1.238910    1.211680   -1.100270
  C     -1.119590   -0.013460   -1.700570
  C      0.113570   -0.600990   -2.056980
  N      1.082620   -1.129790   -2.370590
  C     -2.187060   -0.874070   -2.035720
  N     -2.995010   -1.633430   -2.333590
  C     -0.127330    2.080030   -0.725840
  C     -0.645620    3.226170   -0.072630
  C      0.148300    4.252620    0.378130
  C      1.527520    4.137650    0.181800
  C      2.042640    2.981670   -0.452390
  C      1.236030    1.948140   -0.914900
  S      3.774290    3.042070   -0.579000
  C      3.782530    4.601650    0.200860
  C      2.551760    5.054360    0.542280
  Br     5.408670    5.485750    0.496700
  C     -2.108250    3.115870    0.008080
  O     -2.857990    3.916720    0.538680
  C     -2.468320    1.873680   -0.690360
  C     -3.740620    1.465110   -0.981010
  C     -4.973800    2.039290   -0.613260
  S     -5.220540    3.400820    0.454330
  C     -6.945770    3.300170    0.322480
  C     -7.291350    2.268850   -0.568270
  C     -6.193710    1.552350   -1.047120
  N     -8.595120    1.882490   -0.971100
  O     -9.471210    2.729450   -0.997470
  O     -8.755710    0.723160   -1.293860
  C     -7.763820    4.160020    1.106690
  S     -9.340830    4.684960    0.558800
  C     -9.592670    5.553100    2.003210
  C     -8.577480    5.419850    2.904230
  C     -8.563140    6.036510    4.262830
  C     -7.499370    4.654640    2.386810
  C     -6.363360    4.371030    3.247280
  C     -5.070490    4.673740    3.036690
  C     -4.049160    4.326150    3.972700
  C     -2.732740    4.528110    3.754920
  C     -1.731570    4.142420    4.708250
  N     -2.108350    3.600220    5.857140
  N     -1.277210    3.241830    6.785030
  C      0.036160    3.378840    6.680660
  C      0.583290    3.930860    5.487440
  C     -0.337210    4.328110    4.464380
  N      0.286280    4.826920    3.400680
  S      1.875800    4.793700    3.671430
  N      1.847490    4.148550    5.142900
  C      0.830760    2.966400    7.789600
  C      2.199980    3.047440    7.946820
  C      2.599080    2.551550    9.187870
  C      1.519120    2.092700    9.962200
  S      0.017460    2.273460    9.177060
  C      2.034850    1.609200   11.199920
  C      3.425480    1.767540   11.202110
  C      3.830250    2.367790    9.942370
  C      5.093720    2.701050    9.549940
  C      5.362820    3.287650    8.295200
  N      5.592950    3.764210    7.277960
  C      6.217850    2.486530   10.374800
  N      7.134380    2.317160   11.042850
  C      4.017240    1.311230   12.394730
  C      3.080430    0.824780   13.256310
  S      1.461990    0.907850   12.646560
  H     -0.274450    5.111270    0.873440
  H      1.676850    1.094810   -1.402170
  H      2.369320    6.001120    1.016340
  H     -3.852060    0.580920   -1.597020
  H     -6.301110    0.708800   -1.706750
  H    -10.502040    6.106720    2.134690
  H     -9.425440    6.684110    4.394100
  H     -7.654500    6.618410    4.407700
  H     -8.591090    5.262760    5.029930
  H     -6.635310    3.927040    4.199890
  H     -4.759040    5.206870    2.150480
  H     -4.345640    3.850650    4.898240
  H     -2.381060    4.974270    2.836440
  H      2.846090    3.449100    7.187400
  H      5.069870    1.337320   12.609310
  H      3.239460    0.413020   14.232860

 Total Charge           Charge          ....    0
 Multiplicity           Mult            ....    1
 Number of Electrons    NEL             ....  498
 Basis Dimension        Dim             .... 1004

ORBITAL ENERGIES
----------------

  NO   OCC          E(Eh)            E(eV)
   0   2.0000    -482.893336    -13140.1957
   1   2.0000     -89.051457     -2423.2133
   2   2.0000     -88.987301     -2421.4676
   3   2.0000     -88.985072     -2421.4069
   4   2.0000     -88.984701     -2421.3968
   5   2.0000     -88.980240     -2421.2754
   6   2.0000     -88.959591     -2420.7135
   7   2.0000     -62.571059     -1702.6451
   8   2.0000     -56.405028     -1534.8589
   9   2.0000     -56.402282     -1534.7841
  10   2.0000     -56.402238     -1534.7829
  11   2.0000     -19.246839      -523.7331
  12   2.0000     -19.243227      -523.6348
  13   2.0000     -19.235343      -523.4203
  14   2.0000     -14.651868      -398.6976
  15   2.0000     -14.467561      -393.6823
  16   2.0000     -14.466013      -393.6402
  17   2.0000     -14.448065      -393.1518
  18   2.0000     -14.444209      -393.0469
  19   2.0000     -14.427045      -392.5799
  20   2.0000     -14.426984      -392.5782
  21   2.0000     -14.423609      -392.4864
  22   2.0000     -14.421514      -392.4294
  23   2.0000     -10.382113      -282.5117
  24   2.0000     -10.368489      -282.1409
  25   2.0000     -10.360456      -281.9223
  26   2.0000     -10.350634      -281.6551
  27   2.0000     -10.349954      -281.6366
  28   2.0000     -10.348693      -281.6023
  29   2.0000     -10.348138      -281.5871
  30   2.0000     -10.346857      -281.5523
  31   2.0000     -10.344946      -281.5003
  32   2.0000     -10.343525      -281.4616
  33   2.0000     -10.335656      -281.2475
  34   2.0000     -10.334602      -281.2188
  35   2.0000     -10.334593      -281.2186
  36   2.0000     -10.334479      -281.2155
  37   2.0000     -10.330153      -281.0977
  38   2.0000     -10.327860      -281.0353
  39   2.0000     -10.327628      -281.0290
  40   2.0000     -10.327591      -281.0281
  41   2.0000     -10.325905      -280.9822
  42   2.0000     -10.325320      -280.9663
  43   2.0000     -10.324190      -280.9355
  44   2.0000     -10.318843      -280.7900
  45   2.0000     -10.316961      -280.7388
  46   2.0000     -10.316900      -280.7371
  47   2.0000     -10.315670      -280.7037
  48   2.0000     -10.313396      -280.6418
  49   2.0000     -10.312542      -280.6185
  50   2.0000     -10.311654      -280.5944
  51   2.0000     -10.308291      -280.5028
  52   2.0000     -10.308207      -280.5006
  53   2.0000     -10.306861      -280.4639
  54   2.0000     -10.300488      -280.2905
  55   2.0000     -10.299970      -280.2764
  56   2.0000     -10.298587      -280.2388
  57   2.0000     -10.297604      -280.2121
  58   2.0000     -10.297372      -280.2057
  59   2.0000     -10.295291      -280.1491
  60   2.0000     -10.292875      -280.0834
  61   2.0000     -10.290488      -280.0184
  62   2.0000     -10.286360      -279.9061
  63   2.0000     -10.285015      -279.8695
  64   2.0000     -10.282270      -279.7948
  65   2.0000     -10.280651      -279.7507
  66   2.0000     -10.272336      -279.5245
  67   2.0000      -8.800515      -239.4742
  68   2.0000      -8.142580      -221.5709
  69   2.0000      -8.082347      -219.9318
  70   2.0000      -8.080690      -219.8867
  71   2.0000      -8.078978      -219.8402
  72   2.0000      -8.073136      -219.6812
  73   2.0000      -8.054248      -219.1672
  74   2.0000      -6.636878      -180.5986
  75   2.0000      -6.622228      -180.2000
  76   2.0000      -6.621997      -180.1937
  77   2.0000      -6.113735      -166.3632
  78   2.0000      -6.105878      -166.1494
  79   2.0000      -6.105176      -166.1303
  80   2.0000      -6.051586      -164.6720
  81   2.0000      -6.050365      -164.6388
  82   2.0000      -6.048227      -164.5806
  83   2.0000      -6.047141      -164.5511
  84   2.0000      -6.046072      -164.5220
  85   2.0000      -6.044976      -164.4922
  86   2.0000      -6.043901      -164.4629
  87   2.0000      -6.042679      -164.4297
  88   2.0000      -6.041933      -164.4094
  89   2.0000      -6.041527      -164.3983
  90   2.0000      -6.037810      -164.2972
  91   2.0000      -6.035257      -164.2277
  92   2.0000      -6.023692      -163.9130
  93   2.0000      -6.018887      -163.7822
  94   2.0000      -6.016578      -163.7194
  95   2.0000      -2.752725       -74.9055
  96   2.0000      -2.748644       -74.7944
  97   2.0000      -2.748453       -74.7892
  98   2.0000      -2.736821       -74.4727
  99   2.0000      -2.736806       -74.4723
 100   2.0000      -1.325482       -36.0682
 101   2.0000      -1.153857       -31.3980
 102   2.0000      -1.150774       -31.3141
 103   2.0000      -1.143702       -31.1217
 104   2.0000      -1.123867       -30.5820
 105   2.0000      -1.040906       -28.3245
 106   2.0000      -1.031797       -28.0766
 107   2.0000      -1.022256       -27.8170
 108   2.0000      -1.020147       -27.7596
 109   2.0000      -1.018857       -27.7245
 110   2.0000      -1.008806       -27.4510
 111   2.0000      -1.004598       -27.3365
 112   2.0000      -1.001339       -27.2478
 113   2.0000      -0.998788       -27.1784
 114   2.0000      -0.992268       -27.0010
 115   2.0000      -0.988374       -26.8950
 116   2.0000      -0.959011       -26.0960
 117   2.0000      -0.952232       -25.9116
 118   2.0000      -0.945110       -25.7177
 119   2.0000      -0.928161       -25.2565
 120   2.0000      -0.925376       -25.1808
 121   2.0000      -0.917201       -24.9583
 122   2.0000      -0.914304       -24.8795
 123   2.0000      -0.901096       -24.5201
 124   2.0000      -0.898608       -24.4524
 125   2.0000      -0.894694       -24.3459
 126   2.0000      -0.887631       -24.1537
 127   2.0000      -0.872739       -23.7484
 128   2.0000      -0.863179       -23.4883
 129   2.0000      -0.858586       -23.3633
 130   2.0000      -0.849894       -23.1268
 131   2.0000      -0.841014       -22.8852
 132   2.0000      -0.837081       -22.7781
 133   2.0000      -0.822806       -22.3897
 134   2.0000      -0.800773       -21.7901
 135   2.0000      -0.790214       -21.5028
 136   2.0000      -0.785833       -21.3836
 137   2.0000      -0.777702       -21.1624
 138   2.0000      -0.773006       -21.0346
 139   2.0000      -0.770242       -20.9594
 140   2.0000      -0.754250       -20.5242
 141   2.0000      -0.747983       -20.3537
 142   2.0000      -0.735713       -20.0198
 143   2.0000      -0.723134       -19.6775
 144   2.0000      -0.707839       -19.2613
 145   2.0000      -0.700818       -19.0702
 146   2.0000      -0.700212       -19.0537
 147   2.0000      -0.698775       -19.0146
 148   2.0000      -0.686869       -18.6907
 149   2.0000      -0.678634       -18.4666
 150   2.0000      -0.673786       -18.3347
 151   2.0000      -0.669206       -18.2100
 152   2.0000      -0.662929       -18.0392
 153   2.0000      -0.659625       -17.9493
 154   2.0000      -0.646075       -17.5806
 155   2.0000      -0.640599       -17.4316
 156   2.0000      -0.637752       -17.3541
 157   2.0000      -0.635063       -17.2809
 158   2.0000      -0.629900       -17.1405
 159   2.0000      -0.622057       -16.9270
 160   2.0000      -0.619034       -16.8448
 161   2.0000      -0.615307       -16.7434
 162   2.0000      -0.611521       -16.6403
 163   2.0000      -0.607650       -16.5350
 164   2.0000      -0.605027       -16.4636
 165   2.0000      -0.596088       -16.2204
 166   2.0000      -0.593358       -16.1461
 167   2.0000      -0.582407       -15.8481
 168   2.0000      -0.579598       -15.7717
 169   2.0000      -0.573183       -15.5971
 170   2.0000      -0.568442       -15.4681
 171   2.0000      -0.564214       -15.3530
 172   2.0000      -0.555531       -15.1168
 173   2.0000      -0.552377       -15.0309
 174   2.0000      -0.548503       -14.9255
 175   2.0000      -0.546915       -14.8823
 176   2.0000      -0.543151       -14.7799
 177   2.0000      -0.541033       -14.7222
 178   2.0000      -0.534201       -14.5364
 179   2.0000      -0.529708       -14.4141
 180   2.0000      -0.524310       -14.2672
 181   2.0000      -0.522143       -14.2082
 182   2.0000      -0.518795       -14.1171
 183   2.0000      -0.517104       -14.0711
 184   2.0000      -0.514912       -14.0115
 185   2.0000      -0.512651       -13.9500
 186   2.0000      -0.508656       -13.8412
 187   2.0000      -0.505703       -13.7609
 188   2.0000      -0.504802       -13.7364
 189   2.0000      -0.500603       -13.6221
 190   2.0000      -0.500168       -13.6102
 191   2.0000      -0.499303       -13.5867
 192   2.0000      -0.493216       -13.4211
 193   2.0000      -0.491920       -13.3858
 194   2.0000      -0.489245       -13.3130
 195   2.0000      -0.483355       -13.1528
 196   2.0000      -0.481464       -13.1013
 197   2.0000      -0.480765       -13.0823
 198   2.0000      -0.471144       -12.8205
 199   2.0000      -0.468588       -12.7509
 200   2.0000      -0.466303       -12.6888
 201   2.0000      -0.459664       -12.5081
 202   2.0000      -0.458851       -12.4860
 203   2.0000      -0.456690       -12.4272
 204   2.0000      -0.455226       -12.3873
 205   2.0000      -0.454979       -12.3806
 206   2.0000      -0.450917       -12.2701
 207   2.0000      -0.450474       -12.2580
 208   2.0000      -0.449963       -12.2441
 209   2.0000      -0.449040       -12.2190
 210   2.0000      -0.447871       -12.1872
 211   2.0000      -0.444558       -12.0970
 212   2.0000      -0.442114       -12.0305
 213   2.0000      -0.438707       -11.9378
 214   2.0000      -0.437423       -11.9029
 215   2.0000      -0.436926       -11.8894
 216   2.0000      -0.434648       -11.8274
 217   2.0000      -0.434109       -11.8127
 218   2.0000      -0.428644       -11.6640
 219   2.0000      -0.427502       -11.6329
 220   2.0000      -0.423562       -11.5257
 221   2.0000      -0.422011       -11.4835
 222   2.0000      -0.415295       -11.3007
 223   2.0000      -0.409051       -11.1308
 224   2.0000      -0.407073       -11.0770
 225   2.0000      -0.402302       -10.9472
 226   2.0000      -0.400244       -10.8912
 227   2.0000      -0.396065       -10.7775
 228   2.0000      -0.389903       -10.6098
 229   2.0000      -0.388348       -10.5675
 230   2.0000      -0.384361       -10.4590
 231   2.0000      -0.382874       -10.4185
 232   2.0000      -0.382410       -10.4059
 233   2.0000      -0.377235       -10.2651
 234   2.0000      -0.368299       -10.0219
 235   2.0000      -0.364286        -9.9127
 236   2.0000      -0.356878        -9.7112
 237   2.0000      -0.344981        -9.3874
 238   2.0000      -0.343818        -9.3558
 239   2.0000      -0.340822        -9.2742
 240   2.0000      -0.330662        -8.9978
 241   2.0000      -0.323868        -8.8129
 242   2.0000      -0.319276        -8.6880
 243   2.0000      -0.316343        -8.6081
 244   2.0000      -0.307993        -8.3809
 245   2.0000      -0.301983        -8.2174
 246   2.0000      -0.293458        -7.9854
 247   2.0000      -0.277379        -7.5479
 248   2.0000      -0.259373        -7.0579
 249   0.0000      -0.105651        -2.8749
 250   0.0000      -0.099768        -2.7148
 251   0.0000      -0.091275        -2.4837
 252   0.0000      -0.071175        -1.9368
 253   0.0000      -0.052765        -1.4358

MULLIKEN ATOMIC CHARGES
-----------------------
   0 C :    0.321359
   1 C :   -0.346509
   2 C :   -0.183092
   3 N :    0.153107
   4 C :   -0.195204
   5 N :    0.156762
   6 C :    0.019076
   7 C :   -0.017673
   8 C :   -0.048389
   9 C :    0.090218
  10 C :   -0.086246
  11 C :   -0.028062
  12 S :    0.196747
  13 C :   -0.125042
  14 C :    0.023555
  15 Br:    0.035755
  16 C :    0.178889
  17 O :   -0.190324
  18 C :   -0.093524
  19 C :    0.004020
  20 C :   -0.041879
  21 S :    0.192948
  22 C :   -0.109858
  23 C :    0.165936
  24 C :   -0.024944
  25 N :    0.271964
  26 O :   -0.248364
  27 O :   -0.235766
  28 C :   -0.175999
  29 S :    0.198240
  30 C :   -0.108861
  31 C :   -0.102266
  32 C :    0.141417
  33 C :    0.129013
  34 C :   -0.107330
  35 C :    0.070232
  36 C :    0.046594
  37 C :   -0.050835
  38 C :   -0.032820
  39 N :   -0.063649
  40 N :   -0.059971
  41 C :    0.004444
  42 C :    0.018803
  43 C :    0.071322
  44 N :   -0.268417
  45 S :    0.524770
  46 N :   -0.233379
  47 C :   -0.133505
  48 C :   -0.048816
  49 C :    0.002384
  50 C :   -0.084982
  51 S :    0.239669
  52 C :   -0.125599
  53 C :   -0.024252
  54 C :    0.302153
  55 C :   -0.303596
  56 C :   -0.188095
  57 N :    0.172614
  58 C :   -0.191766
  59 N :    0.171103
  60 C :    0.031794
  61 C :   -0.076734
  62 S :    0.186320
  63 H :   -0.005338
  64 H :   -0.003933
  65 H :   -0.000732
  66 H :    0.017563
  67 H :    0.023648
  68 H :    0.019863
  69 H :    0.010809
  70 H :    0.029499
  71 H :    0.024650
  72 H :    0.018024
  73 H :    0.025335
  74 H :    0.013660
  75 H :   -0.004703
  76 H :    0.016952
  77 H :    0.013035
  78 H :    0.036203
Sum of atomic charges:   -0.0000000

LOEWDIN ATOMIC CHARGES
----------------------
   0 C :    0.076258
   1 C :   -0.136737
   2 C :   -0.017858
   3 N :   -0.049250
   4 C :   -0.023260
   5 N :   -0.045064
   6 C :   -0.018357
   7 C :   -0.054663
   8 C :    0.028261
   9 C :   -0.041377
  10 C :   -0.142819
  11 C :   -0.010478
  12 S :    0.440763
  13 C :   -0.271057
  14 C :   -0.089508
  15 Br:    0.145206
  16 C :    0.091866
  17 O :   -0.167651
  18 C :   -0.106411
  19 C :    0.064333
  20 C :   -0.195590
  21 S :    0.571549
  22 C :   -0.143423
  23 C :   -0.088237
  24 C :    0.004833
  25 N :    0.284295
  26 O :   -0.216530
  27 O :   -0.201037
  28 C :   -0.210856
  29 S :    0.502108
  30 C :   -0.186352
  31 C :   -0.064683
  32 C :   -0.044037
  33 C :   -0.045942
  34 C :   -0.019511
  35 C :   -0.023793
  36 C :    0.024708
  37 C :   -0.038451
  38 C :   -0.013586
  39 N :   -0.047641
  40 N :   -0.068742
  41 C :   -0.029224
  42 C :   -0.056449
  43 C :   -0.055458
  44 N :   -0.266570
  45 S :    0.682929
  46 N :   -0.262409
  47 C :   -0.184618
  48 C :   -0.010747
  49 C :   -0.079162
  50 C :   -0.169883
  51 S :    0.517063
  52 C :   -0.187521
  53 C :   -0.071182
  54 C :    0.082916
  55 C :   -0.105941
  56 C :   -0.016742
  57 N :   -0.035721
  58 C :   -0.017112
  59 N :   -0.035730
  60 C :   -0.035083
  61 C :   -0.174652
  62 S :    0.481760
  63 H :    0.037048
  64 H :    0.041887
  65 H :    0.031557
  66 H :    0.053356
  67 H :    0.047912
  68 H :    0.024687
  69 H :    0.033321
  70 H :    0.036828
  71 H :    0.036032
  72 H :    0.035641
  73 H :    0.023674
  74 H :    0.034789
  75 H :    0.030292
  76 H :    0.040433
  77 H :    0.042807
  78 H :    0.027994

  Mayer bond orders larger than 0.100000
B(  0-C ,  1-C ) :   1.6386 B(  0-C ,  6-C ) :   1.0008 B(  0-C , 18-C ) :   1.0658
B(  1-C ,  2-C ) :   1.1414 B(  1-C ,  4-C ) :   1.1427 B(  2-C ,  3-N ) :   2.9691
B(  4-C ,  5-N ) :   2.9676 B(  6-C ,  7-C ) :   1.2695 B(  6-C , 11-C ) :   1.4129
B(  7-C ,  8-C ) :   1.4156 B(  7-C , 16-C ) :   0.9671 B(  8-C ,  9-C ) :   1.2587
B(  8-C , 63-H ) :   1.0074 B(  9-C , 10-C ) :   1.3085 B(  9-C , 14-C ) :   1.1610
B( 10-C , 11-C ) :   1.3254 B( 10-C , 12-S ) :   1.0893 B( 11-C , 64-H ) :   0.9796
B( 12-S , 13-C ) :   1.0940 B( 13-C , 14-C ) :   1.6106 B( 13-C , 15-Br) :   1.0279
B( 14-C , 65-H ) :   0.9924 B( 16-C , 17-O ) :   2.0752 B( 16-C , 18-C ) :   0.9823
B( 18-C , 19-C ) :   1.5279 B( 19-C , 20-C ) :   1.2323 B( 19-C , 66-H ) :   0.9406
B( 20-C , 21-S ) :   1.0739 B( 20-C , 24-C ) :   1.3687 B( 21-S , 22-C ) :   1.1762
B( 22-C , 23-C ) :   1.3806 B( 22-C , 28-C ) :   1.1627 B( 23-C , 24-C ) :   1.3027
B( 23-C , 25-N ) :   0.9275 B( 24-C , 67-H ) :   1.0084 B( 25-N , 26-O ) :   1.4822
B( 25-N , 27-O ) :   1.5503 B( 26-O , 27-O ) :   0.2602 B( 28-C , 29-S ) :   1.1494
B( 28-C , 33-C ) :   1.4375 B( 29-S , 30-C ) :   1.1702 B( 30-C , 31-C ) :   1.5428
B( 30-C , 68-H ) :   0.9663 B( 31-C , 32-C ) :   1.0996 B( 31-C , 33-C ) :   1.2975
B( 32-C , 69-H ) :   0.9495 B( 32-C , 70-H ) :   0.9395 B( 32-C , 71-H ) :   0.9391
B( 33-C , 34-C ) :   0.9933 B( 34-C , 35-C ) :   1.7430 B( 34-C , 72-H ) :   0.9544
B( 35-C , 36-C ) :   1.0957 B( 35-C , 73-H ) :   0.9639 B( 36-C , 37-C ) :   1.6549
B( 36-C , 74-H ) :   0.9838 B( 37-C , 38-C ) :   1.1192 B( 37-C , 75-H ) :   0.9831
B( 38-C , 39-N ) :   1.6572 B( 38-C , 41-C ) :   0.1171 B( 38-C , 43-C ) :   1.0718
B( 39-N , 40-N ) :   1.2281 B( 40-N , 41-C ) :   1.7109 B( 41-C , 42-C ) :   1.1245
B( 41-C , 47-C ) :   1.1623 B( 42-C , 43-C ) :   1.1856 B( 42-C , 46-N ) :   1.5651
B( 43-C , 44-N ) :   1.5501 B( 44-N , 45-S ) :   1.2685 B( 44-N , 46-N ) :   0.1442
B( 45-S , 46-N ) :   1.2779 B( 47-C , 48-C ) :   1.4919 B( 47-C , 51-S ) :   1.0838
B( 48-C , 49-C ) :   1.2627 B( 48-C , 76-H ) :   0.9828 B( 49-C , 50-C ) :   1.4421
B( 49-C , 54-C ) :   0.9983 B( 50-C , 51-S ) :   1.1340 B( 50-C , 52-C ) :   1.1836
B( 52-C , 53-C ) :   1.4593 B( 52-C , 62-S ) :   1.1356 B( 53-C , 54-C ) :   1.0105
B( 53-C , 60-C ) :   1.2802 B( 54-C , 55-C ) :   1.7069 B( 55-C , 56-C ) :   1.1374
B( 55-C , 58-C ) :   1.1303 B( 56-C , 57-N ) :   2.9909 B( 58-C , 59-N ) :   3.0019
B( 60-C , 61-C ) :   1.5440 B( 60-C , 77-H ) :   0.9965 B( 61-C , 62-S ) :   1.1569
B( 61-C , 78-H ) :   0.9638

-----------------------------------------------------------------------------
         ABSORPTION SPECTRUM VIA TRANSITION ELECTRIC DIPOLE MOMENTS
-----------------------------------------------------------------------------
State   Energy  Wavelength   fosc         T2         TX        TY        TZ
        (cm-1)    (nm)                  (au**2)     (au)      (au)      (au)
-----------------------------------------------------------------------------
   0   15492.9    645.5   0.155983529   3.31453  -0.91980   0.40762  -1.51734
   1   18567.5    538.6   0.485489697   8.60799   1.43373  -0.20217   2.55177
   2   19692.2    507.8   0.005273295   0.08816  -0.08760   0.01763  -0.28315
   3   21084.0    474.3   0.587175340   9.16832   2.78411  -1.18938   0.04904
   4   22998.6    434.8   0.335186097   4.79800  -2.00665   0.79224   0.37910
   5   25283.7    395.5   0.169249924   2.20375   1.43141  -0.16711  -0.35622
   6   26245.4    381.0   0.022246225   0.27905   0.49601  -0.06027  -0.17144
   7   26726.6    374.2   0.030043506   0.37007  -0.57887   0.10181   0.15690
   8   27568.0    362.7   0.080154668   0.95719  -0.83288  -0.51009   0.05749
   9   28203.0    354.6   0.098760544   1.15283  -0.97474  -0.45002  -0.01350
  10   28663.8    348.9   0.018164659   0.20863   0.00221  -0.15958  -0.42797
  11   28879.0    346.3   0.062988927   0.71806  -0.56230  -0.48762  -0.40509
  12   29233.8    342.1   0.262201001   2.95273   0.76174   0.64860   1.39707
  13   29333.0    340.9   0.184330440   2.06879   0.90605   0.99736   0.50313
  14   29433.1    339.8   0.039125360   0.43762  -0.44125  -0.49280  -0.00841
  15   29909.8    334.3   0.027183473   0.29920   0.43819  -0.26278   0.19530
  16   30139.6    331.8   0.007033880   0.07683   0.13236   0.19750   0.14249
  17   30905.0    323.6   0.226665869   2.41453  -1.42256  -0.39814   0.48202
  18   31440.8    318.1   0.286887979   3.00396  -1.63826   0.55533  -0.10804
  19   31556.6    316.9   0.027402158   0.28587  -0.11724  -0.33570   0.39928
  20   32048.2    312.0   0.004123152   0.04235   0.03461   0.14734   0.13946
  21   32394.4    308.7   0.047086541   0.47852   0.40254   0.56215   0.02173
  22   32583.0    306.9   0.321232086   3.24566  -1.05517  -1.17164  -0.87151
  23   32971.1    303.3   0.478208353   4.77485  -2.14277  -0.42776   0.01977
  24   33189.4    301.3   0.032863954   0.32598   0.54225   0.01039  -0.17845
  25   33364.6    299.7   0.065989041   0.65112  -0.31271  -0.68930   0.27964
  26   33472.3    298.8   0.076861458   0.75596  -0.73265  -0.36201   0.29687
  27   33661.2    297.1   0.620976801   6.07326  -1.71557   0.42570  -1.71722
  28   34147.9    292.8   0.140845372   1.35786   0.13596  -1.08195  -0.41079
  29   34479.1    290.0   0.055421185   0.52917  -0.29923  -0.13460  -0.64924
  30   34589.1    289.1   0.020055704   0.19089   0.13521  -0.12057   0.39758
  31   34980.0    285.9   0.041732073   0.39276  -0.00253  -0.16219  -0.60535
  32   35324.2    283.1   0.020370452   0.18985  -0.04554  -0.32079  -0.29131
  33   35902.2    278.5   0.057969337   0.53156  -0.36650  -0.62893  -0.04107
  34   36119.6    276.9   0.008507516   0.07754  -0.15889   0.22867   0.00238
  35   36241.3    275.9   0.070500159   0.64041   0.68532  -0.31055   0.27259
  36   36517.6    273.8   0.106853958   0.96331   0.26050   0.41211  -0.85183
  37   36862.9    271.3   0.031913800   0.28501   0.44780  -0.10367   0.27155
  38   36932.5    270.8   0.176944531   1.57726  -1.09227   0.26787  -0.55899
  39   37075.3    269.7   0.006931788   0.06155   0.12089   0.13872  -0.16642
  40   37377.7    267.5   0.230830521   2.03309  -1.40340  -0.11276   0.22548
  41   37495.6    266.7   0.084506099   0.74196   0.81129  -0.28754   0.03304
  42   37722.3    265.1   0.032540415   0.28399   0.11594  -0.48229  -0.19479
  43   38341.8    260.8   0.015778938   0.13548  -0.24807  -0.09104   0.25623
  44   38586.4    259.2   0.002634180   0.02247   0.12998   0.05696  -0.04834
  45   38739.4    258.1   0.001411268   0.01199   0.05457  -0.08415  -0.04398
  46   39056.8    256.0   0.017516798   0.14765   0.11868   0.35039  -0.10387
  47   39076.2    255.9   0.099590470   0.83904  -0.15921   0.64208   0.63358
  48   39162.5    255.3   0.032946287   0.27696  -0.24225   0.46647  -0.02603
  49   39345.5    254.2   0.000517415   0.00433  -0.05048   0.00014  -0.04220
  50   40189.8    248.8   0.026473080   0.21685   0.20738   0.29939  -0.29019
  51   40255.2    248.4   0.007422272   0.06070   0.01982   0.08101   0.23183

FINAL SINGLE POINT ENERGY     -7363.843324658459

DIPOLE MOMENT
-------------
                                X             Y             Z
Electronic contribution:     92.10473      13.76063     -31.69198
Nuclear contribution   :    -92.38568     -11.32209      33.62192
                        -----------------------------------------
Total Dipole Moment    :     -0.28095       2.43854       1.92994
                        -----------------------------------------
Magnitude (a.u.)       :      3.12251
Magnitude (Debye)      :      7.93679

Rotational constants in cm-1:     0.001080     0.000521     0.000401
Rotational constants in MHz :    32.370757    15.611229    12.024897

                             ****ORCA TERMINATED NORMALLY****
TOTAL RUN TIME: 0 days 0 hours 7 minutes 19 seconds 716 msec
