                         Program Version 4.2.0 -  RELEASE  -
|  1> # ORCA input file
|  2> # SCF done       -188.059422657125          0.000603445369
|  3> ! CAM-B3LYP def2-SVP def2/J RIJCOSX Grid4 TightSCF
|  4> %maxcore 5000
|  5> %tddft
|  6>     Mode sTDDFT
|  7>     Ethresh 5.0
|  8>     maxcore 5000
|  9> end
| 10>
| 11> %pal
| 12>   nprocs 6
| 13>   end
| 14> * xyz 0 1
| 15>    C       -2.90460        -1.66977        -1.41555
| 16>    C       -3.36955        -2.87720        -0.96811
| 17>    C       -2.66183        -4.09259        -1.08744
| 18>    N       -2.13736        -5.11074        -1.15947
| 19>    C       -4.60090        -3.07976        -0.30825
| 20>    N       -5.57645        -3.32377         0.24572
| 21>    C       -1.60721        -1.43164        -2.03213
| 22>    C       -1.45265        -0.04103        -2.25566
| 23>    C       -0.32521         0.49470        -2.83025
| 24>    C        0.70121        -0.38151        -3.19727
| 25>    C        0.53680        -1.77004        -2.97212
| 26>    C       -0.60371        -2.31231        -2.39478
| 27>    S        1.91994        -2.67322        -3.50959
| 28>    C        2.69091        -1.19532        -4.02099
| 29>    C        1.95229        -0.08117        -3.80144
| 30>   Br        4.39617        -1.26277        -4.79704
| 31>    C       -2.66885         0.67017        -1.81773
| 32>    O       -2.90704         1.84750        -1.96990
| 33>    C       -3.57588        -0.38526        -1.28600
| 34>    C       -4.86108        -0.17636        -0.90716
| 35>    C       -5.44440         1.10820        -0.64317
| 36>    C       -6.75196         1.40899        -1.02360
| 37>    N       -7.36328         2.56887        -0.85149
| 38>    C       -6.74889         3.57437        -0.24348
| 39>    C       -5.42523         3.39931         0.24108
| 40>    C       -4.76549         2.14185         0.04677
| 41>    N       -3.56715         2.11917         0.62875
| 42>    S       -3.28850         3.54703         1.29972
| 43>    N       -4.67964         4.26296         0.92529
| 44>    C       -7.45464         4.80066        -0.06965
| 45>    C       -8.73048         5.08401        -0.53131
| 46>    C       -9.13015         6.36714        -0.17619
| 47>    C       -8.14692         7.05546         0.56675
| 48>    S       -6.73529         6.12857         0.81137
| 49>    C       -8.65101         8.33987         0.89050
| 50>    C       -9.94389         8.46841         0.34753
| 51>    C      -10.28768         7.23300        -0.33834
| 52>    C      -11.45265         6.94935        -0.98712
| 53>    C      -11.68364         5.70776        -1.61799
| 54>    N      -11.88534         4.70429        -2.13379
| 55>    C      -12.51362         7.87703        -1.06954
| 56>    N      -13.38255         8.62158        -1.13951
| 57>    C      -10.52429         9.70522         0.61532
| 58>    C       -9.69208        10.51673         1.36605
| 59>    S       -8.16076         9.73595         1.73795
| 60>    C       -9.96734        11.83808         1.82671
| 61>    C       -9.10535        12.54086         2.67215
| 62>    N       -9.28397        13.77149         3.11124
| 63>    C      -10.36229        14.47095         2.78430
| 64>    C      -11.34992        13.87210         1.95727
| 65>    C      -11.14447        12.54050         1.45977
| 66>    N      -12.15303        12.14436         0.68330
| 67>    S      -13.23783        13.32311         0.59440
| 68>    N      -12.49763        14.39443         1.53079
| 69>    C      -10.56167        15.78893         3.30580
| 70>    C       -9.67572        16.57615         3.96152
| 71>    C       -8.24675        16.45670         4.18880
| 72>    C       -7.33187        15.91893         3.32810
| 73>    C       -5.94397        15.89168         3.57533
| 74>    N       -4.80986        15.83177         3.74205
| 75>    C       -7.65718        15.42631         2.04565
| 76>    N       -7.83543        15.09986         0.95972
| 77>    C       -7.93721        17.24077         5.37856
| 78>    C       -9.07065        18.02381         5.71806
| 79>    C      -10.17612        17.71377         4.79062
| 80>    O      -11.27001        18.22236         4.73941
| 81>    C       -9.06935        18.90222         6.77520
| 82>    C       -7.90216        19.00313         7.53886
| 83>    C       -6.78158        18.20535         7.20079
| 84>    C       -6.77815        17.32426         6.12669
| 85>    S       -5.45247        18.47931         8.28474
| 86>    C       -6.40333        19.64856         9.16279
| 87>    C       -7.65308        19.82502         8.67211
| 88>   Br       -5.65716        20.52155        10.64465
| 89>    H       -0.23795         1.55771        -2.99160
| 90>    H       -0.68497        -3.37677        -2.25141
| 91>    H        2.27474         0.91174        -4.05650
| 92>    H       -5.53295        -1.02012        -0.81081
| 93>    H       -7.34055         0.66433        -1.54320
| 94>    H       -9.30141         4.36629        -1.09093
| 95>    H      -11.49845        10.02847         0.29632
| 96>    H       -8.19201        12.06882         3.01272
| 97>    H      -11.57628        16.16413         3.22880
| 98>    H       -9.94195        19.49254         7.00679
| 99>    H       -5.90515        16.73164         5.90826
|100>    H       -8.37161        20.50563         9.09090
|101> *
|102>
|103>                          ****END OF INPUT****

CARTESIAN COORDINATES (ANGSTROEM)
---------------------------------
  C     -2.904600   -1.669770   -1.415550
  C     -3.369550   -2.877200   -0.968110
  C     -2.661830   -4.092590   -1.087440
  N     -2.137360   -5.110740   -1.159470
  C     -4.600900   -3.079760   -0.308250
  N     -5.576450   -3.323770    0.245720
  C     -1.607210   -1.431640   -2.032130
  C     -1.452650   -0.041030   -2.255660
  C     -0.325210    0.494700   -2.830250
  C      0.701210   -0.381510   -3.197270
  C      0.536800   -1.770040   -2.972120
  C     -0.603710   -2.312310   -2.394780
  S      1.919940   -2.673220   -3.509590
  C      2.690910   -1.195320   -4.020990
  C      1.952290   -0.081170   -3.801440
  Br     4.396170   -1.262770   -4.797040
  C     -2.668850    0.670170   -1.817730
  O     -2.907040    1.847500   -1.969900
  C     -3.575880   -0.385260   -1.286000
  C     -4.861080   -0.176360   -0.907160
  C     -5.444400    1.108200   -0.643170
  C     -6.751960    1.408990   -1.023600
  N     -7.363280    2.568870   -0.851490
  C     -6.748890    3.574370   -0.243480
  C     -5.425230    3.399310    0.241080
  C     -4.765490    2.141850    0.046770
  N     -3.567150    2.119170    0.628750
  S     -3.288500    3.547030    1.299720
  N     -4.679640    4.262960    0.925290
  C     -7.454640    4.800660   -0.069650
  C     -8.730480    5.084010   -0.531310
  C     -9.130150    6.367140   -0.176190
  C     -8.146920    7.055460    0.566750
  S     -6.735290    6.128570    0.811370
  C     -8.651010    8.339870    0.890500
  C     -9.943890    8.468410    0.347530
  C    -10.287680    7.233000   -0.338340
  C    -11.452650    6.949350   -0.987120
  C    -11.683640    5.707760   -1.617990
  N    -11.885340    4.704290   -2.133790
  C    -12.513620    7.877030   -1.069540
  N    -13.382550    8.621580   -1.139510
  C    -10.524290    9.705220    0.615320
  C     -9.692080   10.516730    1.366050
  S     -8.160760    9.735950    1.737950
  C     -9.967340   11.838080    1.826710
  C     -9.105350   12.540860    2.672150
  N     -9.283970   13.771490    3.111240
  C    -10.362290   14.470950    2.784300
  C    -11.349920   13.872100    1.957270
  C    -11.144470   12.540500    1.459770
  N    -12.153030   12.144360    0.683300
  S    -13.237830   13.323110    0.594400
  N    -12.497630   14.394430    1.530790
  C    -10.561670   15.788930    3.305800
  C     -9.675720   16.576150    3.961520
  C     -8.246750   16.456700    4.188800
  C     -7.331870   15.918930    3.328100
  C     -5.943970   15.891680    3.575330
  N     -4.809860   15.831770    3.742050
  C     -7.657180   15.426310    2.045650
  N     -7.835430   15.099860    0.959720
  C     -7.937210   17.240770    5.378560
  C     -9.070650   18.023810    5.718060
  C    -10.176120   17.713770    4.790620
  O    -11.270010   18.222360    4.739410
  C     -9.069350   18.902220    6.775200
  C     -7.902160   19.003130    7.538860
  C     -6.781580   18.205350    7.200790
  C     -6.778150   17.324260    6.126690
  S     -5.452470   18.479310    8.284740
  C     -6.403330   19.648560    9.162790
  C     -7.653080   19.825020    8.672110
  Br    -5.657160   20.521550   10.644650
  H     -0.237950    1.557710   -2.991600
  H     -0.684970   -3.376770   -2.251410
  H      2.274740    0.911740   -4.056500
  H     -5.532950   -1.020120   -0.810810
  H     -7.340550    0.664330   -1.543200
  H     -9.301410    4.366290   -1.090930
  H    -11.498450   10.028470    0.296320
  H     -8.192010   12.068820    3.012720
  H    -11.576280   16.164130    3.228800
  H     -9.941950   19.492540    7.006790
  H     -5.905150   16.731640    5.908260
  H     -8.371610   20.505630    9.090900

 Total Charge           Charge          ....    0
 Multiplicity           Mult            ....    1
 Number of Electrons    NEL             ....  590
 Basis Dimension        Dim             .... 1156

ORBITAL ENERGIES
----------------

  NO   OCC          E(Eh)            E(eV)
   0   2.0000    -482.889135    -13140.0814
   1   2.0000    -482.888475    -13140.0634
   2   2.0000     -89.047636     -2423.1094
   3   2.0000     -89.044415     -2423.0217
   4   2.0000     -88.995743     -2421.6973
   5   2.0000     -88.993557     -2421.6378
   6   2.0000     -88.979597     -2421.2579
   7   2.0000     -88.979039     -2421.2427
   8   2.0000     -62.566861     -1702.5308
   9   2.0000     -62.566193     -1702.5127
  10   2.0000     -56.400818     -1534.7443
  11   2.0000     -56.400147     -1534.7260
  12   2.0000     -56.398088     -1534.6700
  13   2.0000     -56.398061     -1534.6693
  14   2.0000     -56.397425     -1534.6520
  15   2.0000     -56.397392     -1534.6511
  16   2.0000     -19.220989      -523.0297
  17   2.0000     -19.220616      -523.0196
  18   2.0000     -14.461815      -393.5260
  19   2.0000     -14.460863      -393.5001
  20   2.0000     -14.458071      -393.4241
  21   2.0000     -14.451949      -393.2575
  22   2.0000     -14.435350      -392.8058
  23   2.0000     -14.431138      -392.6912
  24   2.0000     -14.430445      -392.6724
  25   2.0000     -14.426089      -392.5538
  26   2.0000     -14.420687      -392.4068
  27   2.0000     -14.420580      -392.4039
  28   2.0000     -14.420306      -392.3965
  29   2.0000     -14.415033      -392.2530
  30   2.0000     -10.371715      -282.2287
  31   2.0000     -10.371618      -282.2261
  32   2.0000     -10.366992      -282.1002
  33   2.0000     -10.363197      -281.9969
  34   2.0000     -10.362103      -281.9672
  35   2.0000     -10.355052      -281.7753
  36   2.0000     -10.353893      -281.7438
  37   2.0000     -10.348703      -281.6025
  38   2.0000     -10.347236      -281.5626
  39   2.0000     -10.347039      -281.5573
  40   2.0000     -10.346179      -281.5338
  41   2.0000     -10.343789      -281.4688
  42   2.0000     -10.342863      -281.4436
  43   2.0000     -10.342438      -281.4320
  44   2.0000     -10.341634      -281.4102
  45   2.0000     -10.339618      -281.3553
  46   2.0000     -10.339435      -281.3503
  47   2.0000     -10.336933      -281.2822
  48   2.0000     -10.332020      -281.1486
  49   2.0000     -10.331293      -281.1288
  50   2.0000     -10.331112      -281.1239
  51   2.0000     -10.330606      -281.1101
  52   2.0000     -10.330269      -281.1009
  53   2.0000     -10.330131      -281.0972
  54   2.0000     -10.330124      -281.0970
  55   2.0000     -10.325597      -280.9738
  56   2.0000     -10.323494      -280.9166
  57   2.0000     -10.323161      -280.9075
  58   2.0000     -10.322985      -280.9027
  59   2.0000     -10.322717      -280.8954
  60   2.0000     -10.322594      -280.8921
  61   2.0000     -10.318839      -280.7899
  62   2.0000     -10.315175      -280.6902
  63   2.0000     -10.313309      -280.6394
  64   2.0000     -10.312952      -280.6297
  65   2.0000     -10.312473      -280.6167
  66   2.0000     -10.311303      -280.5848
  67   2.0000     -10.310257      -280.5563
  68   2.0000     -10.309315      -280.5307
  69   2.0000     -10.308397      -280.5057
  70   2.0000     -10.308052      -280.4964
  71   2.0000     -10.307865      -280.4913
  72   2.0000     -10.307280      -280.4753
  73   2.0000     -10.306726      -280.4603
  74   2.0000     -10.305746      -280.4336
  75   2.0000     -10.305580      -280.4291
  76   2.0000     -10.305524      -280.4276
  77   2.0000     -10.302494      -280.3451
  78   2.0000     -10.300760      -280.2979
  79   2.0000     -10.299894      -280.2744
  80   2.0000     -10.297412      -280.2068
  81   2.0000     -10.297028      -280.1964
  82   2.0000      -8.796298      -239.3595
  83   2.0000      -8.795627      -239.3412
  84   2.0000      -8.138982      -221.4730
  85   2.0000      -8.135815      -221.3868
  86   2.0000      -8.090189      -220.1452
  87   2.0000      -8.087062      -220.0601
  88   2.0000      -8.075611      -219.7485
  89   2.0000      -8.075064      -219.7337
  90   2.0000      -6.632642      -180.4834
  91   2.0000      -6.631952      -180.4646
  92   2.0000      -6.618028      -180.0857
  93   2.0000      -6.617794      -180.0793
  94   2.0000      -6.617335      -180.0668
  95   2.0000      -6.617156      -180.0620
  96   2.0000      -6.110082      -166.2638
  97   2.0000      -6.106924      -166.1778
  98   2.0000      -6.102227      -166.0500
  99   2.0000      -6.101754      -166.0372
 100   2.0000      -6.099206      -165.9678
 101   2.0000      -6.098437      -165.9469
 102   2.0000      -6.059407      -164.8848
 103   2.0000      -6.056362      -164.8020
 104   2.0000      -6.055238      -164.7714
 105   2.0000      -6.052624      -164.7003
 106   2.0000      -6.051876      -164.6799
 107   2.0000      -6.049643      -164.6192
 108   2.0000      -6.045291      -164.5007
 109   2.0000      -6.044756      -164.4862
 110   2.0000      -6.041025      -164.3847
 111   2.0000      -6.040481      -164.3698
 112   2.0000      -6.036830      -164.2705
 113   2.0000      -6.036277      -164.2554
 114   2.0000      -2.748457       -74.7893
 115   2.0000      -2.747817       -74.7719
 116   2.0000      -2.744417       -74.6794
 117   2.0000      -2.744276       -74.6756
 118   2.0000      -2.743748       -74.6612
 119   2.0000      -2.743548       -74.6557
 120   2.0000      -2.732641       -74.3589
 121   2.0000      -2.732613       -74.3582
 122   2.0000      -2.731966       -74.3406
 123   2.0000      -2.731952       -74.3402
 124   2.0000      -1.147372       -31.2216
 125   2.0000      -1.145108       -31.1600
 126   2.0000      -1.136505       -30.9259
 127   2.0000      -1.135073       -30.8869
 128   2.0000      -1.067644       -29.0521
 129   2.0000      -1.064552       -28.9679
 130   2.0000      -1.047575       -28.5060
 131   2.0000      -1.027539       -27.9608
 132   2.0000      -1.026197       -27.9243
 133   2.0000      -1.023032       -27.8381
 134   2.0000      -1.018099       -27.7039
 135   2.0000      -1.015693       -27.6384
 136   2.0000      -1.008871       -27.4528
 137   2.0000      -1.007089       -27.4043
 138   2.0000      -1.000523       -27.2256
 139   2.0000      -0.998923       -27.1821
 140   2.0000      -0.996257       -27.1095
 141   2.0000      -0.994333       -27.0572
 142   2.0000      -0.993130       -27.0244
 143   2.0000      -0.992431       -27.0054
 144   2.0000      -0.962219       -26.1833
 145   2.0000      -0.949373       -25.8337
 146   2.0000      -0.946506       -25.7557
 147   2.0000      -0.931364       -25.3437
 148   2.0000      -0.928974       -25.2787
 149   2.0000      -0.914035       -24.8721
 150   2.0000      -0.912948       -24.8426
 151   2.0000      -0.911502       -24.8032
 152   2.0000      -0.910730       -24.7822
 153   2.0000      -0.898029       -24.4366
 154   2.0000      -0.890437       -24.2300
 155   2.0000      -0.889606       -24.2074
 156   2.0000      -0.886813       -24.1314
 157   2.0000      -0.881882       -23.9972
 158   2.0000      -0.870808       -23.6959
 159   2.0000      -0.859185       -23.3796
 160   2.0000      -0.855468       -23.2785
 161   2.0000      -0.844692       -22.9852
 162   2.0000      -0.833619       -22.6839
 163   2.0000      -0.832697       -22.6588
 164   2.0000      -0.812865       -22.1192
 165   2.0000      -0.799803       -21.7637
 166   2.0000      -0.781826       -21.2746
 167   2.0000      -0.775112       -21.0919
 168   2.0000      -0.769572       -20.9411
 169   2.0000      -0.767093       -20.8737
 170   2.0000      -0.760480       -20.6937
 171   2.0000      -0.757174       -20.6037
 172   2.0000      -0.744173       -20.2500
 173   2.0000      -0.738820       -20.1043
 174   2.0000      -0.734591       -19.9892
 175   2.0000      -0.717718       -19.5301
 176   2.0000      -0.708769       -19.2866
 177   2.0000      -0.705725       -19.2038
 178   2.0000      -0.696258       -18.9462
 179   2.0000      -0.695290       -18.9198
 180   2.0000      -0.689731       -18.7685
 181   2.0000      -0.687492       -18.7076
 182   2.0000      -0.680145       -18.5077
 183   2.0000      -0.673082       -18.3155
 184   2.0000      -0.663853       -18.0644
 185   2.0000      -0.662368       -18.0240
 186   2.0000      -0.652589       -17.7579
 187   2.0000      -0.648141       -17.6368
 188   2.0000      -0.641273       -17.4499
 189   2.0000      -0.636771       -17.3274
 190   2.0000      -0.628066       -17.0906
 191   2.0000      -0.627352       -17.0711
 192   2.0000      -0.623423       -16.9642
 193   2.0000      -0.619439       -16.8558
 194   2.0000      -0.617058       -16.7910
 195   2.0000      -0.605846       -16.4859
 196   2.0000      -0.602840       -16.4041
 197   2.0000      -0.599626       -16.3166
 198   2.0000      -0.595313       -16.1993
 199   2.0000      -0.588857       -16.0236
 200   2.0000      -0.585967       -15.9450
 201   2.0000      -0.582854       -15.8603
 202   2.0000      -0.577350       -15.7105
 203   2.0000      -0.572971       -15.5913
 204   2.0000      -0.571091       -15.5402
 205   2.0000      -0.558654       -15.2018
 206   2.0000      -0.554338       -15.0843
 207   2.0000      -0.552409       -15.0318
 208   2.0000      -0.549756       -14.9596
 209   2.0000      -0.546534       -14.8720
 210   2.0000      -0.545429       -14.8419
 211   2.0000      -0.542472       -14.7614
 212   2.0000      -0.541078       -14.7235
 213   2.0000      -0.535020       -14.5586
 214   2.0000      -0.533777       -14.5248
 215   2.0000      -0.528031       -14.3684
 216   2.0000      -0.527835       -14.3631
 217   2.0000      -0.525292       -14.2939
 218   2.0000      -0.518636       -14.1128
 219   2.0000      -0.517383       -14.0787
 220   2.0000      -0.515413       -14.0251
 221   2.0000      -0.514334       -13.9958
 222   2.0000      -0.512972       -13.9587
 223   2.0000      -0.510420       -13.8892
 224   2.0000      -0.508476       -13.8363
 225   2.0000      -0.504997       -13.7417
 226   2.0000      -0.503365       -13.6973
 227   2.0000      -0.500362       -13.6155
 228   2.0000      -0.498125       -13.5547
 229   2.0000      -0.496820       -13.5192
 230   2.0000      -0.496737       -13.5169
 231   2.0000      -0.492548       -13.4029
 232   2.0000      -0.489566       -13.3218
 233   2.0000      -0.487131       -13.2555
 234   2.0000      -0.481927       -13.1139
 235   2.0000      -0.480753       -13.0820
 236   2.0000      -0.479029       -13.0350
 237   2.0000      -0.478507       -13.0208
 238   2.0000      -0.473036       -12.8720
 239   2.0000      -0.463330       -12.6078
 240   2.0000      -0.461827       -12.5669
 241   2.0000      -0.461696       -12.5634
 242   2.0000      -0.458860       -12.4862
 243   2.0000      -0.456609       -12.4250
 244   2.0000      -0.453476       -12.3397
 245   2.0000      -0.453278       -12.3343
 246   2.0000      -0.452629       -12.3167
 247   2.0000      -0.451086       -12.2747
 248   2.0000      -0.449866       -12.2415
 249   2.0000      -0.448788       -12.2122
 250   2.0000      -0.447967       -12.1898
 251   2.0000      -0.446676       -12.1547
 252   2.0000      -0.443559       -12.0699
 253   2.0000      -0.442061       -12.0291
 254   2.0000      -0.440899       -11.9975
 255   2.0000      -0.439719       -11.9654
 256   2.0000      -0.436613       -11.8808
 257   2.0000      -0.431429       -11.7398
 258   2.0000      -0.430699       -11.7199
 259   2.0000      -0.429175       -11.6785
 260   2.0000      -0.427860       -11.6427
 261   2.0000      -0.427043       -11.6204
 262   2.0000      -0.418762       -11.3951
 263   2.0000      -0.418504       -11.3881
 264   2.0000      -0.414629       -11.2826
 265   2.0000      -0.414064       -11.2673
 266   2.0000      -0.411568       -11.1993
 267   2.0000      -0.411270       -11.1912
 268   2.0000      -0.408878       -11.1261
 269   2.0000      -0.394608       -10.7378
 270   2.0000      -0.392044       -10.6681
 271   2.0000      -0.388949       -10.5839
 272   2.0000      -0.386303       -10.5118
 273   2.0000      -0.383672       -10.4402
 274   2.0000      -0.380484       -10.3535
 275   2.0000      -0.378530       -10.3003
 276   2.0000      -0.377827       -10.2812
 277   2.0000      -0.376952       -10.2574
 278   2.0000      -0.369565       -10.0564
 279   2.0000      -0.368900       -10.0383
 280   2.0000      -0.359675        -9.7873
 281   2.0000      -0.356031        -9.6881
 282   2.0000      -0.354836        -9.6556
 283   2.0000      -0.351979        -9.5778
 284   2.0000      -0.348134        -9.4732
 285   2.0000      -0.341027        -9.2798
 286   2.0000      -0.337534        -9.1848
 287   2.0000      -0.325202        -8.8492
 288   2.0000      -0.323761        -8.8100
 289   2.0000      -0.319239        -8.6869
 290   2.0000      -0.318626        -8.6702
 291   2.0000      -0.300595        -8.1796
 292   2.0000      -0.296988        -8.0815
 293   2.0000      -0.294489        -8.0134
 294   2.0000      -0.259595        -7.0639
 295   0.0000      -0.122818        -3.3420
 296   0.0000      -0.105406        -2.8682
 297   0.0000      -0.098574        -2.6823
 298   0.0000      -0.078044        -2.1237
 299   0.0000      -0.072570        -1.9747

MULLIKEN ATOMIC CHARGES
-----------------------
   0 C :    0.301634
   1 C :   -0.341170
   2 C :   -0.183162
   3 N :    0.152255
   4 C :   -0.196155
   5 N :    0.163016
   6 C :    0.019402
   7 C :   -0.017105
   8 C :   -0.073488
   9 C :    0.123191
  10 C :   -0.089205
  11 C :   -0.024314
  12 S :    0.189742
  13 C :   -0.121532
  14 C :    0.034763
  15 Br:    0.027250
  16 C :    0.154658
  17 O :   -0.146798
  18 C :   -0.059514
  19 C :   -0.040479
  20 C :   -0.001745
  21 C :   -0.002733
  22 N :   -0.042383
  23 C :    0.024945
  24 C :   -0.020146
  25 C :    0.114301
  26 N :   -0.272117
  27 S :    0.540804
  28 N :   -0.295156
  29 C :   -0.098409
  30 C :   -0.060244
  31 C :    0.040142
  32 C :   -0.078567
  33 S :    0.233737
  34 C :   -0.090171
  35 C :    0.027331
  36 C :    0.305280
  37 C :   -0.303081
  38 C :   -0.197017
  39 N :    0.187198
  40 C :   -0.183166
  41 N :    0.176212
  42 C :   -0.049980
  43 C :   -0.103447
  44 S :    0.184667
  45 C :    0.102990
  46 C :   -0.044493
  47 N :   -0.051177
  48 C :   -0.044689
  49 C :    0.036463
  50 C :    0.039722
  51 N :   -0.281731
  52 S :    0.556963
  53 N :   -0.247128
  54 C :    0.004776
  55 C :   -0.074355
  56 C :    0.276558
  57 C :   -0.290472
  58 C :   -0.189973
  59 N :    0.151371
  60 C :   -0.181183
  61 N :    0.155003
  62 C :    0.007308
  63 C :   -0.004125
  64 C :    0.133353
  65 O :   -0.133005
  66 C :   -0.065913
  67 C :    0.109256
  68 C :   -0.086034
  69 C :   -0.019983
  70 S :    0.186541
  71 C :   -0.123934
  72 C :    0.040870
  73 Br:    0.025953
  74 H :   -0.010245
  75 H :   -0.005222
  76 H :   -0.002297
  77 H :    0.037036
  78 H :    0.011864
  79 H :    0.022803
  80 H :    0.024345
  81 H :    0.009037
  82 H :    0.026158
  83 H :   -0.007311
  84 H :   -0.002531
  85 H :   -0.001818
Sum of atomic charges:   -0.0000000

LOEWDIN ATOMIC CHARGES
----------------------
   0 C :    0.075169
   1 C :   -0.133187
   2 C :   -0.017758
   3 N :   -0.048588
   4 C :   -0.022522
   5 N :   -0.045712
   6 C :   -0.021511
   7 C :   -0.048755
   8 C :    0.021762
   9 C :   -0.030851
  10 C :   -0.143310
  11 C :   -0.008822
  12 S :    0.434806
  13 C :   -0.270195
  14 C :   -0.070501
  15 Br:    0.139796
  16 C :    0.085799
  17 O :   -0.138872
  18 C :   -0.074938
  19 C :    0.075334
  20 C :   -0.069517
  21 C :    0.050106
  22 N :   -0.072386
  23 C :    0.017953
  24 C :   -0.073157
  25 C :   -0.023279
  26 N :   -0.273414
  27 S :    0.674138
  28 N :   -0.292721
  29 C :   -0.183557
  30 C :    0.012695
  31 C :   -0.069630
  32 C :   -0.174395
  33 S :    0.522509
  34 C :   -0.173760
  35 C :   -0.064674
  36 C :    0.078118
  37 C :   -0.097164
  38 C :   -0.019174
  39 N :   -0.025346
  40 C :   -0.016803
  41 N :   -0.029396
  42 C :   -0.010932
  43 C :   -0.160766
  44 S :    0.485314
  45 C :   -0.042963
  46 C :    0.011178
  47 N :   -0.036304
  48 C :   -0.002741
  49 C :   -0.054884
  50 C :   -0.032459
  51 N :   -0.276124
  52 S :    0.687231
  53 N :   -0.269402
  54 C :    0.055456
  55 C :   -0.052913
  56 C :    0.069893
  57 C :   -0.116782
  58 C :   -0.018305
  59 N :   -0.050172
  60 C :   -0.015407
  61 N :   -0.055881
  62 C :   -0.015012
  63 C :   -0.054484
  64 C :    0.084257
  65 O :   -0.132658
  66 C :    0.024476
  67 C :   -0.033334
  68 C :   -0.141388
  69 C :   -0.013083
  70 S :    0.432775
  71 C :   -0.271451
  72 C :   -0.069653
  73 Br:    0.138677
  74 H :    0.040903
  75 H :    0.041421
  76 H :    0.039173
  77 H :    0.048683
  78 H :    0.031456
  79 H :    0.048090
  80 H :    0.040859
  81 H :    0.018771
  82 H :    0.051498
  83 H :    0.042164
  84 H :    0.041070
  85 H :    0.039464

  Mayer bond orders larger than 0.100000
B(  0-C ,  1-C ) :   1.6501 B(  0-C ,  6-C ) :   1.0121 B(  0-C , 18-C ) :   1.0543
B(  1-C ,  2-C ) :   1.1385 B(  1-C ,  4-C ) :   1.1421 B(  2-C ,  3-N ) :   2.9711
B(  4-C ,  5-N ) :   2.9820 B(  6-C ,  7-C ) :   1.2722 B(  6-C , 11-C ) :   1.3999
B(  7-C ,  8-C ) :   1.4208 B(  7-C , 16-C ) :   0.9466 B(  8-C ,  9-C ) :   1.2466
B(  8-C , 74-H ) :   1.0176 B(  9-C , 10-C ) :   1.2998 B(  9-C , 14-C ) :   1.1624
B( 10-C , 11-C ) :   1.3365 B( 10-C , 12-S ) :   1.0870 B( 11-C , 75-H ) :   0.9809
B( 12-S , 13-C ) :   1.0866 B( 13-C , 14-C ) :   1.6174 B( 13-C , 15-Br) :   1.0206
B( 14-C , 76-H ) :   1.0010 B( 16-C , 17-O ) :   2.2253 B( 16-C , 18-C ) :   0.9300
B( 18-C , 19-C ) :   1.6803 B( 19-C , 20-C ) :   1.0723 B( 19-C , 77-H ) :   0.9402
B( 20-C , 21-C ) :   1.3900 B( 20-C , 25-C ) :   1.2136 B( 21-C , 22-N ) :   1.4597
B( 21-C , 78-H ) :   0.9826 B( 22-N , 23-C ) :   1.6603 B( 23-C , 24-C ) :   1.1276
B( 23-C , 29-C ) :   1.1435 B( 24-C , 25-C ) :   1.2037 B( 24-C , 28-N ) :   1.5141
B( 25-C , 26-N ) :   1.5031 B( 26-N , 27-S ) :   1.2845 B( 26-N , 28-N ) :   0.1495
B( 27-S , 28-N ) :   1.2742 B( 29-C , 30-C ) :   1.4036 B( 29-C , 33-S ) :   1.1125
B( 30-C , 31-C ) :   1.2710 B( 30-C , 79-H ) :   1.0142 B( 31-C , 32-C ) :   1.3976
B( 31-C , 36-C ) :   0.9860 B( 32-C , 33-S ) :   1.1240 B( 32-C , 34-C ) :   1.1944
B( 34-C , 35-C ) :   1.4296 B( 34-C , 44-S ) :   1.1312 B( 35-C , 36-C ) :   0.9961
B( 35-C , 42-C ) :   1.2566 B( 36-C , 37-C ) :   1.7209 B( 37-C , 38-C ) :   1.1371
B( 37-C , 40-C ) :   1.1337 B( 38-C , 39-N ) :   3.0010 B( 40-C , 41-N ) :   2.9885
B( 42-C , 43-C ) :   1.4665 B( 42-C , 80-H ) :   0.9835 B( 43-C , 44-S ) :   1.0926
B( 43-C , 45-C ) :   1.1325 B( 45-C , 46-C ) :   1.3834 B( 45-C , 48-C ) :   0.1089
B( 45-C , 50-C ) :   1.2122 B( 46-C , 47-N ) :   1.4610 B( 46-C , 81-H ) :   0.9770
B( 47-N , 48-C ) :   1.5698 B( 48-C , 49-C ) :   1.1386 B( 48-C , 54-C ) :   1.1024
B( 49-C , 50-C ) :   1.1828 B( 49-C , 53-N ) :   1.5658 B( 50-C , 51-N ) :   1.5106
B( 51-N , 52-S ) :   1.2742 B( 51-N , 53-N ) :   0.1480 B( 52-S , 53-N ) :   1.2901
B( 54-C , 55-C ) :   1.6592 B( 54-C , 82-H ) :   0.9528 B( 55-C , 56-C ) :   1.0140
B( 55-C , 64-C ) :   0.9255 B( 56-C , 57-C ) :   1.6945 B( 56-C , 62-C ) :   1.0153
B( 57-C , 58-C ) :   1.1341 B( 57-C , 60-C ) :   1.1528 B( 58-C , 59-N ) :   2.9873
B( 60-C , 61-N ) :   2.9826 B( 62-C , 63-C ) :   1.2713 B( 62-C , 69-C ) :   1.4130
B( 63-C , 64-C ) :   0.9215 B( 63-C , 66-C ) :   1.4199 B( 64-C , 65-O ) :   2.2788
B( 66-C , 67-C ) :   1.2595 B( 66-C , 83-H ) :   1.0155 B( 67-C , 68-C ) :   1.3037
B( 67-C , 72-C ) :   1.1614 B( 68-C , 69-C ) :   1.3298 B( 68-C , 70-S ) :   1.0854
B( 69-C , 84-H ) :   0.9829 B( 70-S , 71-C ) :   1.0852 B( 71-C , 72-C ) :   1.6208
B( 71-C , 73-Br) :   1.0203 B( 72-C , 85-H ) :   1.0004

-----------------------------------------------------------------------------
         ABSORPTION SPECTRUM VIA TRANSITION ELECTRIC DIPOLE MOMENTS
-----------------------------------------------------------------------------
State   Energy  Wavelength   fosc         T2         TX        TY        TZ
        (cm-1)    (nm)                  (au**2)     (au)      (au)      (au)
-----------------------------------------------------------------------------
   0   13571.8    736.8   0.769401168  18.66335  -1.45630   3.90708   1.13017
   1   17237.5    580.1   0.834905813  15.94553  -0.74198   3.71192   1.27148
   2   19814.1    504.7   0.495141287   8.22680   2.50724  -1.39105   0.07427
   3   22957.0    435.6   0.062806889   0.90067   0.47060  -0.50481  -0.65144
   4   24397.6    409.9   0.097841589   1.32024  -0.94876  -0.05473  -0.64584
   5   25671.4    389.5   0.044216226   0.56703   0.55052  -0.20029  -0.47313
   6   25976.5    385.0   0.133309810   1.68950  -1.28337  -0.18095   0.09854
   7   26493.4    377.5   0.085018014   1.05645   0.68599   0.74530   0.17432
   8   26855.3    372.4   0.054691258   0.67045  -0.05629   0.17576   0.79774
   9   27038.6    369.8   0.000733880   0.00894   0.06315  -0.02330   0.06636
  10   28188.9    354.7   0.015418578   0.18007   0.11378   0.39060   0.12066
  11   28361.3    352.6   0.016535840   0.19194   0.19781  -0.33067  -0.20850
  12   28534.5    350.5   0.018535637   0.21385   0.07590  -0.16707  -0.42447
  13   28610.9    349.5   0.023028774   0.26498  -0.19761   0.38129   0.28382
  14   29048.6    344.3   0.004082928   0.04627   0.03861   0.02869   0.20966
  15   29303.8    341.3   0.166972509   1.87584   0.11006   0.94622   0.98407
  16   29862.0    334.9   0.258940311   2.85467   1.67529  -0.17711   0.12920
  17   30121.0    332.0   0.144657718   1.58106  -0.89661   0.59945   0.64638
  18   30635.3    326.4   0.253745055   2.72679   0.91011   0.70116   1.18612
  19   31158.1    320.9   0.108158587   1.14279  -0.22511   0.82199   0.64533
  20   31562.5    316.8   0.491337031   5.12488  -1.46123  -1.60942  -0.63202
  21   31734.2    315.1   0.354410162   3.67667   1.13835   0.29772  -1.51399
  22   32429.6    308.4   0.295933766   3.00420  -0.60277   0.82581   1.39960
  23   32567.4    307.1   0.204658165   2.06881  -0.62184  -0.70095  -1.09124
  24   32730.5    305.5   0.013757377   0.13838   0.05976  -0.36070   0.06856
  25   33192.4    301.3   0.037065996   0.36763  -0.43527  -0.40207   0.12851
  26   33291.6    300.4   0.028897278   0.28576  -0.26463   0.31488   0.34144
  27   33547.8    298.1   0.130552878   1.28114  -0.72563   0.37549  -0.78334
  28   34038.7    293.8   0.185985714   1.79880   1.07260   0.57113   0.56757
  29   34087.2    293.4   0.071772011   0.69317  -0.19163  -0.78823  -0.18748
  30   34169.3    292.7   0.077232155   0.74411  -0.60347  -0.07708  -0.61155
  31   34728.7    287.9   0.178930184   1.69618  -1.18943  -0.40556   0.34198
  32   35068.2    285.2   0.027329896   0.25657   0.41421  -0.15909   0.24431
  33   35117.0    284.8   0.156123954   1.46362  -0.76965   0.91137   0.20165
  34   35550.0    281.3   0.081354805   0.75339   0.63160  -0.59431  -0.03559
  35   35653.9    280.5   0.070600244   0.65189  -0.39779   0.69021   0.13136
  36   35876.9    278.7   0.010079172   0.09249   0.22085  -0.06386  -0.19908
  37   36088.7    277.1   0.013747847   0.12541  -0.30885   0.02944  -0.17075
  38   36153.6    276.6   0.023053567   0.20992  -0.03804   0.34200  -0.30251
  39   36474.8    274.2   0.078717020   0.71048  -0.21108   0.80762  -0.11692
  40   36640.4    272.9   0.045397828   0.40790  -0.08673  -0.63103  -0.04662
  41   36788.1    271.8   0.055248418   0.49441   0.15346   0.66210  -0.18023
  42   37008.0    270.2   0.047993250   0.42693  -0.59356   0.06597   0.26509
  43   37088.4    269.6   0.004292001   0.03810   0.15114  -0.12309  -0.01010
  44   37274.9    268.3   0.074354340   0.65670   0.24349   0.75568  -0.16236
  45   37771.9    264.7   0.038787183   0.33806  -0.47001   0.27089  -0.20921
  46   37831.7    264.3   0.146425086   1.27419  -0.30832   1.04078   0.30969
  47   37916.5    263.7   0.042141220   0.36589   0.01668   0.54816   0.25521
  48   38079.1    262.6   0.091004708   0.78678  -0.26317  -0.73956  -0.41299
  49   38212.5    261.7   0.161186399   1.38867   0.89177  -0.75524  -0.15179
  50   38395.2    260.4   0.035152420   0.30141  -0.15837   0.05035   0.52325
  51   38778.8    257.9   0.054391524   0.46176   0.66307  -0.13395   0.06438
  52   39020.9    256.3   0.015318017   0.12924   0.06329  -0.25280   0.24764
  53   39378.0    253.9   0.135738009   1.13481   0.51408   0.77757   0.51567
  54   39574.1    252.7   0.008807093   0.07327  -0.08788   0.01579   0.25552
  55   39915.9    250.5   0.076478042   0.63076  -0.66010   0.28146   0.34030
  56   40046.0    249.7   0.006625052   0.05446  -0.11608   0.10236  -0.17467
  57   40186.4    248.8   0.002804699   0.02298   0.08110  -0.10829  -0.06835
  58   40262.0    248.4   0.009753066   0.07975   0.22874  -0.11782  -0.11637

FINAL SINGLE POINT ENERGY    -10328.893607736094

DIPOLE MOMENT
-------------
                                X             Y             Z
Electronic contribution:    104.59146      29.60414      31.07842
Nuclear contribution   :   -102.99369     -27.66600     -29.60620
                        -----------------------------------------
Total Dipole Moment    :      1.59777       1.93814       1.47223
                        -----------------------------------------
Magnitude (a.u.)       :      2.91147
Magnitude (Debye)      :      7.40038

Rotational constants in cm-1:     0.000898     0.000159     0.000142
Rotational constants in MHz :    26.925013     4.764614     4.254352

                             ****ORCA TERMINATED NORMALLY****
TOTAL RUN TIME: 0 days 0 hours 15 minutes 6 seconds 220 msec
