                         Program Version 4.2.0 -  RELEASE  -
|  1> # ORCA input file
|  2> # SCF done       -182.221696800749          0.000737591871
|  3> ! CAM-B3LYP def2-SVP def2/J RIJCOSX Grid4 TightSCF
|  4> %maxcore 5000
|  5> %tddft
|  6>     Mode sTDDFT
|  7>     Ethresh 5.0
|  8>     maxcore 5000
|  9> end
| 10>
| 11> %pal
| 12>   nprocs 6
| 13>   end
| 14> * xyz 0 1
| 15>    C       -4.77889         2.51045         5.50756
| 16>    C       -6.11163         2.43773         5.80773
| 17>    C       -6.62584         1.89489         7.00760
| 18>    N       -7.12132         1.44502         7.93925
| 19>    C       -7.19022         2.82774         4.98465
| 20>    N       -8.13890         3.12168         4.40674
| 21>    C       -3.69880         2.08298         6.38227
| 22>    C       -2.48143         2.09886         5.65659
| 23>    C       -1.28201         1.73498         6.22169
| 24>    C       -1.28761         1.31463         7.55595
| 25>    C       -2.50539         1.32708         8.27774
| 26>    C       -3.71466         1.71077         7.71474
| 27>    S       -2.29039         0.77838         9.91105
| 28>    C       -0.60212         0.48763         9.59055
| 29>    C       -0.20661         0.82266         8.33918
| 30>   Br        0.46080        -0.26622        10.93909
| 31>    C       -2.73415         2.56343         4.27705
| 32>    O       -1.91638         2.67777         3.39133
| 33>    C       -4.18515         2.87370         4.22227
| 34>    C       -4.90231         3.26678         3.14575
| 35>    C       -4.56243         3.33467         1.74350
| 36>    C       -3.58279         4.02476         1.06361
| 37>    C       -2.59454         5.03350         1.46121
| 38>    O       -1.73837         5.37417         0.67610
| 39>    C       -2.73708         5.65864         2.82382
| 40>    S       -3.68615         3.75614        -0.64656
| 41>    C       -5.05451         2.75182        -0.45641
| 42>    C       -5.42208         2.60312         0.84883
| 43>    C       -6.47557         1.74762         1.38787
| 44>    C       -6.16699         0.92249         2.42910
| 45>    C       -7.08876         0.22208         3.21378
| 46>    C       -8.52550         0.39358         2.97380
| 47>    C       -9.03767         1.07467         1.92207
| 48>    S       -8.09522         1.92450         0.76552
| 49>    C       -9.16748        -0.25826         4.06327
| 50>    C       -8.20676        -0.77852         4.93127
| 51>    C       -8.78351        -1.39131         6.06350
| 52>    C      -10.14062        -1.32298         6.02666
| 53>    S      -10.76842        -0.52057         4.62839
| 54>    C       -6.89481        -0.52145         4.39216
| 55>    C       -5.67495        -0.88215         5.02335
| 56>    C       -4.48563        -0.90720         4.36701
| 57>    C       -3.14757        -1.03548         4.83872
| 58>    C       -2.08007        -0.80051         3.96146
| 59>    C       -2.09619        -0.24734         2.61339
| 60>    O       -3.11792         0.13396         2.06686
| 61>    C       -0.75711        -0.10665         1.94127
| 62>    S       -0.55006        -1.11538         4.71749
| 63>    C       -1.30453        -1.52799         6.17507
| 64>    C       -2.67706        -1.43378         6.14069
| 65>    C       -3.46631        -1.59656         7.32366
| 66>    C       -3.15787        -2.29415         8.44339
| 67>    C       -2.12704        -3.26878         8.74694
| 68>    C       -1.61855        -4.20613         7.88888
| 69>    C       -0.69654        -5.20005         8.27482
| 70>    N        0.06529        -6.01431         8.54605
| 71>    C       -2.01556        -4.31057         6.53944
| 72>    N       -2.32995        -4.44268         5.44389
| 73>    C       -1.90059        -3.21176        10.18495
| 74>    C       -2.93195        -2.43995        10.77985
| 75>    C       -3.83261        -1.93695         9.72473
| 76>    O       -4.85680        -1.30720         9.84822
| 77>    C       -2.97979        -2.19404        12.13068
| 78>    C       -1.95672        -2.72123        12.92561
| 79>    C       -0.92893        -3.48490        12.31982
| 80>    C       -0.88678        -3.74609        10.95620
| 81>    S        0.24410        -4.01572        13.48264
| 82>    C       -0.64834        -3.22081        14.75150
| 83>    C       -1.76885        -2.58867        14.32794
| 84>   Br       -0.01698        -3.29914        16.51408
| 85>    H       -0.36744         1.76348         5.65005
| 86>    H       -4.61368         1.70430         8.30879
| 87>    H        0.79966         0.71682         7.97628
| 88>    H       -5.96467         3.41584         3.30930
| 89>    H       -3.77026         5.67327         3.15828
| 90>    H       -2.33412         6.66798         2.79125
| 91>    H       -2.14068         5.08163         3.52675
| 92>    H       -5.51693         2.29814        -1.31104
| 93>    H       -5.11765         0.85459         2.66285
| 94>    H      -10.09903         1.15267         1.74779
| 95>    H       -8.23386        -1.84744         6.86644
| 96>    H      -10.83565        -1.70081         6.75063
| 97>    H       -5.76033        -1.13413         6.07115
| 98>    H       -4.53213        -0.80492         3.29589
| 99>    H       -0.12220        -0.97288         2.10926
|100>    H       -0.26756         0.77910         2.34671
|101>    H       -0.90833         0.04815         0.87609
|102>    H       -0.69741        -1.76247         7.02855
|103>    H       -4.35685        -0.98522         7.40368
|104>    H       -3.77456        -1.60412        12.55935
|105>    H       -0.07930        -4.32092        10.53343
|106>    H       -2.43483        -2.04888        14.97595
|107> *
|108>
|109>                          ****END OF INPUT****

CARTESIAN COORDINATES (ANGSTROEM)
---------------------------------
  C     -4.778890    2.510450    5.507560
  C     -6.111630    2.437730    5.807730
  C     -6.625840    1.894890    7.007600
  N     -7.121320    1.445020    7.939250
  C     -7.190220    2.827740    4.984650
  N     -8.138900    3.121680    4.406740
  C     -3.698800    2.082980    6.382270
  C     -2.481430    2.098860    5.656590
  C     -1.282010    1.734980    6.221690
  C     -1.287610    1.314630    7.555950
  C     -2.505390    1.327080    8.277740
  C     -3.714660    1.710770    7.714740
  S     -2.290390    0.778380    9.911050
  C     -0.602120    0.487630    9.590550
  C     -0.206610    0.822660    8.339180
  Br     0.460800   -0.266220   10.939090
  C     -2.734150    2.563430    4.277050
  O     -1.916380    2.677770    3.391330
  C     -4.185150    2.873700    4.222270
  C     -4.902310    3.266780    3.145750
  C     -4.562430    3.334670    1.743500
  C     -3.582790    4.024760    1.063610
  C     -2.594540    5.033500    1.461210
  O     -1.738370    5.374170    0.676100
  C     -2.737080    5.658640    2.823820
  S     -3.686150    3.756140   -0.646560
  C     -5.054510    2.751820   -0.456410
  C     -5.422080    2.603120    0.848830
  C     -6.475570    1.747620    1.387870
  C     -6.166990    0.922490    2.429100
  C     -7.088760    0.222080    3.213780
  C     -8.525500    0.393580    2.973800
  C     -9.037670    1.074670    1.922070
  S     -8.095220    1.924500    0.765520
  C     -9.167480   -0.258260    4.063270
  C     -8.206760   -0.778520    4.931270
  C     -8.783510   -1.391310    6.063500
  C    -10.140620   -1.322980    6.026660
  S    -10.768420   -0.520570    4.628390
  C     -6.894810   -0.521450    4.392160
  C     -5.674950   -0.882150    5.023350
  C     -4.485630   -0.907200    4.367010
  C     -3.147570   -1.035480    4.838720
  C     -2.080070   -0.800510    3.961460
  C     -2.096190   -0.247340    2.613390
  O     -3.117920    0.133960    2.066860
  C     -0.757110   -0.106650    1.941270
  S     -0.550060   -1.115380    4.717490
  C     -1.304530   -1.527990    6.175070
  C     -2.677060   -1.433780    6.140690
  C     -3.466310   -1.596560    7.323660
  C     -3.157870   -2.294150    8.443390
  C     -2.127040   -3.268780    8.746940
  C     -1.618550   -4.206130    7.888880
  C     -0.696540   -5.200050    8.274820
  N      0.065290   -6.014310    8.546050
  C     -2.015560   -4.310570    6.539440
  N     -2.329950   -4.442680    5.443890
  C     -1.900590   -3.211760   10.184950
  C     -2.931950   -2.439950   10.779850
  C     -3.832610   -1.936950    9.724730
  O     -4.856800   -1.307200    9.848220
  C     -2.979790   -2.194040   12.130680
  C     -1.956720   -2.721230   12.925610
  C     -0.928930   -3.484900   12.319820
  C     -0.886780   -3.746090   10.956200
  S      0.244100   -4.015720   13.482640
  C     -0.648340   -3.220810   14.751500
  C     -1.768850   -2.588670   14.327940
  Br    -0.016980   -3.299140   16.514080
  H     -0.367440    1.763480    5.650050
  H     -4.613680    1.704300    8.308790
  H      0.799660    0.716820    7.976280
  H     -5.964670    3.415840    3.309300
  H     -3.770260    5.673270    3.158280
  H     -2.334120    6.667980    2.791250
  H     -2.140680    5.081630    3.526750
  H     -5.516930    2.298140   -1.311040
  H     -5.117650    0.854590    2.662850
  H    -10.099030    1.152670    1.747790
  H     -8.233860   -1.847440    6.866440
  H    -10.835650   -1.700810    6.750630
  H     -5.760330   -1.134130    6.071150
  H     -4.532130   -0.804920    3.295890
  H     -0.122200   -0.972880    2.109260
  H     -0.267560    0.779100    2.346710
  H     -0.908330    0.048150    0.876090
  H     -0.697410   -1.762470    7.028550
  H     -4.356850   -0.985220    7.403680
  H     -3.774560   -1.604120   12.559350
  H     -0.079300   -4.320920   10.533430
  H     -2.434830   -2.048880   14.975950

 Total Charge           Charge          ....    0
 Multiplicity           Mult            ....    1
 Number of Electrons    NEL             ....  572
 Basis Dimension        Dim             .... 1150

ORBITAL ENERGIES
----------------

  NO   OCC          E(Eh)            E(eV)
   0   2.0000    -482.898085    -13140.3249
   1   2.0000    -482.890739    -13140.1250
   2   2.0000     -88.986705     -2421.4514
   3   2.0000     -88.982119     -2421.3265
   4   2.0000     -88.979269     -2421.2490
   5   2.0000     -88.972775     -2421.0723
   6   2.0000     -88.966356     -2420.8976
   7   2.0000     -88.945365     -2420.3264
   8   2.0000     -62.575467     -1702.7650
   9   2.0000     -62.568492     -1702.5752
  10   2.0000     -56.409449     -1534.9791
  11   2.0000     -56.406738     -1534.9054
  12   2.0000     -56.406641     -1534.9027
  13   2.0000     -56.402447     -1534.7886
  14   2.0000     -56.399723     -1534.7145
  15   2.0000     -56.399686     -1534.7135
  16   2.0000     -19.228335      -523.2296
  17   2.0000     -19.221331      -523.0390
  18   2.0000     -19.202822      -522.5354
  19   2.0000     -19.201282      -522.4934
  20   2.0000     -14.421661      -392.4333
  21   2.0000     -14.421418      -392.4267
  22   2.0000     -14.420240      -392.3947
  23   2.0000     -14.417441      -392.3185
  24   2.0000     -10.377714      -282.3920
  25   2.0000     -10.372979      -282.2631
  26   2.0000     -10.370557      -282.1972
  27   2.0000     -10.364762      -282.0395
  28   2.0000     -10.362955      -281.9903
  29   2.0000     -10.361424      -281.9487
  30   2.0000     -10.350271      -281.6452
  31   2.0000     -10.349288      -281.6184
  32   2.0000     -10.347954      -281.5821
  33   2.0000     -10.346779      -281.5502
  34   2.0000     -10.334833      -281.2251
  35   2.0000     -10.332146      -281.1520
  36   2.0000     -10.326919      -281.0098
  37   2.0000     -10.324294      -280.9383
  38   2.0000     -10.323960      -280.9292
  39   2.0000     -10.322614      -280.8926
  40   2.0000     -10.321862      -280.8721
  41   2.0000     -10.321785      -280.8701
  42   2.0000     -10.321130      -280.8522
  43   2.0000     -10.318443      -280.7791
  44   2.0000     -10.317437      -280.7517
  45   2.0000     -10.316384      -280.7231
  46   2.0000     -10.315887      -280.7095
  47   2.0000     -10.315569      -280.7009
  48   2.0000     -10.314034      -280.6591
  49   2.0000     -10.312906      -280.6284
  50   2.0000     -10.312787      -280.6252
  51   2.0000     -10.310023      -280.5500
  52   2.0000     -10.308667      -280.5131
  53   2.0000     -10.308175      -280.4997
  54   2.0000     -10.307959      -280.4938
  55   2.0000     -10.307168      -280.4723
  56   2.0000     -10.306828      -280.4631
  57   2.0000     -10.306277      -280.4481
  58   2.0000     -10.306091      -280.4430
  59   2.0000     -10.302779      -280.3529
  60   2.0000     -10.302505      -280.3454
  61   2.0000     -10.302484      -280.3448
  62   2.0000     -10.301780      -280.3257
  63   2.0000     -10.301604      -280.3209
  64   2.0000     -10.300231      -280.2835
  65   2.0000     -10.298785      -280.2442
  66   2.0000     -10.290432      -280.0169
  67   2.0000     -10.285249      -279.8759
  68   2.0000     -10.282832      -279.8101
  69   2.0000     -10.280544      -279.7478
  70   2.0000     -10.280155      -279.7372
  71   2.0000     -10.275954      -279.6229
  72   2.0000     -10.267598      -279.3956
  73   2.0000     -10.264957      -279.3237
  74   2.0000     -10.264888      -279.3218
  75   2.0000     -10.264559      -279.3128
  76   2.0000     -10.263576      -279.2861
  77   2.0000     -10.263121      -279.2737
  78   2.0000      -8.804774      -239.5901
  79   2.0000      -8.797953      -239.4045
  80   2.0000      -8.081530      -219.9096
  81   2.0000      -8.078189      -219.8187
  82   2.0000      -8.074355      -219.7144
  83   2.0000      -8.068094      -219.5440
  84   2.0000      -8.061823      -219.3733
  85   2.0000      -8.040758      -218.8001
  86   2.0000      -6.641043      -180.7120
  87   2.0000      -6.634291      -180.5282
  88   2.0000      -6.626542      -180.3174
  89   2.0000      -6.626299      -180.3108
  90   2.0000      -6.619670      -180.1304
  91   2.0000      -6.619466      -180.1248
  92   2.0000      -6.051336      -164.6652
  93   2.0000      -6.047846      -164.5703
  94   2.0000      -6.046939      -164.5456
  95   2.0000      -6.043600      -164.4547
  96   2.0000      -6.043460      -164.4509
  97   2.0000      -6.042802      -164.4330
  98   2.0000      -6.039428      -164.3412
  99   2.0000      -6.039120      -164.3328
 100   2.0000      -6.037509      -164.2890
 101   2.0000      -6.037119      -164.2784
 102   2.0000      -6.032966      -164.1654
 103   2.0000      -6.031004      -164.1120
 104   2.0000      -6.030310      -164.0931
 105   2.0000      -6.026486      -163.9890
 106   2.0000      -6.024468      -163.9341
 107   2.0000      -6.010227      -163.5466
 108   2.0000      -6.005957      -163.4304
 109   2.0000      -6.002769      -163.3436
 110   2.0000      -2.756904       -75.0192
 111   2.0000      -2.752881       -74.9097
 112   2.0000      -2.752688       -74.9044
 113   2.0000      -2.750122       -74.8346
 114   2.0000      -2.746072       -74.7244
 115   2.0000      -2.745918       -74.7202
 116   2.0000      -2.741160       -74.5908
 117   2.0000      -2.741146       -74.5904
 118   2.0000      -2.734296       -74.4040
 119   2.0000      -2.734272       -74.4033
 120   2.0000      -1.142922       -31.1005
 121   2.0000      -1.137183       -30.9443
 122   2.0000      -1.122256       -30.5381
 123   2.0000      -1.119567       -30.4650
 124   2.0000      -1.032547       -28.0970
 125   2.0000      -1.029537       -28.0151
 126   2.0000      -1.021537       -27.7974
 127   2.0000      -1.018979       -27.7278
 128   2.0000      -1.005589       -27.3635
 129   2.0000      -1.005115       -27.3506
 130   2.0000      -0.999728       -27.2040
 131   2.0000      -0.997235       -27.1362
 132   2.0000      -0.996461       -27.1151
 133   2.0000      -0.995015       -27.0757
 134   2.0000      -0.992852       -27.0169
 135   2.0000      -0.961377       -26.1604
 136   2.0000      -0.952174       -25.9100
 137   2.0000      -0.948987       -25.8232
 138   2.0000      -0.922649       -25.1066
 139   2.0000      -0.918048       -24.9814
 140   2.0000      -0.914754       -24.8917
 141   2.0000      -0.912936       -24.8422
 142   2.0000      -0.912507       -24.8306
 143   2.0000      -0.897104       -24.4114
 144   2.0000      -0.894961       -24.3531
 145   2.0000      -0.892650       -24.2902
 146   2.0000      -0.885976       -24.1086
 147   2.0000      -0.878717       -23.9111
 148   2.0000      -0.873694       -23.7744
 149   2.0000      -0.850498       -23.1432
 150   2.0000      -0.847015       -23.0484
 151   2.0000      -0.844312       -22.9749
 152   2.0000      -0.839601       -22.8467
 153   2.0000      -0.835689       -22.7402
 154   2.0000      -0.832863       -22.6634
 155   2.0000      -0.819742       -22.3063
 156   2.0000      -0.813269       -22.1302
 157   2.0000      -0.810429       -22.0529
 158   2.0000      -0.791612       -21.5409
 159   2.0000      -0.775593       -21.1049
 160   2.0000      -0.774656       -21.0795
 161   2.0000      -0.767090       -20.8736
 162   2.0000      -0.762006       -20.7352
 163   2.0000      -0.758446       -20.6384
 164   2.0000      -0.727164       -19.7871
 165   2.0000      -0.721898       -19.6438
 166   2.0000      -0.717135       -19.5142
 167   2.0000      -0.708535       -19.2802
 168   2.0000      -0.705766       -19.2049
 169   2.0000      -0.698608       -19.0101
 170   2.0000      -0.697189       -18.9715
 171   2.0000      -0.693703       -18.8766
 172   2.0000      -0.688219       -18.7274
 173   2.0000      -0.679504       -18.4902
 174   2.0000      -0.672506       -18.2998
 175   2.0000      -0.666200       -18.1282
 176   2.0000      -0.664005       -18.0685
 177   2.0000      -0.644170       -17.5287
 178   2.0000      -0.638831       -17.3835
 179   2.0000      -0.635566       -17.2946
 180   2.0000      -0.633532       -17.2393
 181   2.0000      -0.629400       -17.1268
 182   2.0000      -0.626257       -17.0413
 183   2.0000      -0.617398       -16.8003
 184   2.0000      -0.610999       -16.6261
 185   2.0000      -0.607843       -16.5402
 186   2.0000      -0.603171       -16.4131
 187   2.0000      -0.594958       -16.1896
 188   2.0000      -0.590006       -16.0549
 189   2.0000      -0.587431       -15.9848
 190   2.0000      -0.580682       -15.8012
 191   2.0000      -0.572978       -15.5915
 192   2.0000      -0.567841       -15.4517
 193   2.0000      -0.563776       -15.3411
 194   2.0000      -0.559420       -15.2226
 195   2.0000      -0.558824       -15.2064
 196   2.0000      -0.555405       -15.1133
 197   2.0000      -0.552422       -15.0322
 198   2.0000      -0.548938       -14.9374
 199   2.0000      -0.546713       -14.8768
 200   2.0000      -0.545567       -14.8456
 201   2.0000      -0.543182       -14.7807
 202   2.0000      -0.540312       -14.7026
 203   2.0000      -0.534281       -14.5385
 204   2.0000      -0.531135       -14.4529
 205   2.0000      -0.530803       -14.4439
 206   2.0000      -0.530007       -14.4222
 207   2.0000      -0.528735       -14.3876
 208   2.0000      -0.524057       -14.2603
 209   2.0000      -0.520575       -14.1656
 210   2.0000      -0.519740       -14.1428
 211   2.0000      -0.516115       -14.0442
 212   2.0000      -0.515341       -14.0231
 213   2.0000      -0.514095       -13.9892
 214   2.0000      -0.509775       -13.8717
 215   2.0000      -0.507832       -13.8188
 216   2.0000      -0.505448       -13.7539
 217   2.0000      -0.504206       -13.7202
 218   2.0000      -0.502953       -13.6860
 219   2.0000      -0.500513       -13.6197
 220   2.0000      -0.499088       -13.5809
 221   2.0000      -0.497805       -13.5460
 222   2.0000      -0.490065       -13.3353
 223   2.0000      -0.489720       -13.3259
 224   2.0000      -0.484249       -13.1771
 225   2.0000      -0.480573       -13.0771
 226   2.0000      -0.479290       -13.0421
 227   2.0000      -0.474313       -12.9067
 228   2.0000      -0.473526       -12.8853
 229   2.0000      -0.466922       -12.7056
 230   2.0000      -0.464840       -12.6489
 231   2.0000      -0.461814       -12.5666
 232   2.0000      -0.460718       -12.5368
 233   2.0000      -0.458248       -12.4696
 234   2.0000      -0.456984       -12.4352
 235   2.0000      -0.454747       -12.3743
 236   2.0000      -0.453262       -12.3339
 237   2.0000      -0.451797       -12.2940
 238   2.0000      -0.450359       -12.2549
 239   2.0000      -0.448657       -12.2086
 240   2.0000      -0.447770       -12.1844
 241   2.0000      -0.446882       -12.1603
 242   2.0000      -0.444626       -12.0989
 243   2.0000      -0.444125       -12.0852
 244   2.0000      -0.439558       -11.9610
 245   2.0000      -0.437418       -11.9028
 246   2.0000      -0.433325       -11.7914
 247   2.0000      -0.432112       -11.7584
 248   2.0000      -0.431142       -11.7320
 249   2.0000      -0.430854       -11.7241
 250   2.0000      -0.428355       -11.6561
 251   2.0000      -0.427440       -11.6312
 252   2.0000      -0.426271       -11.5994
 253   2.0000      -0.424479       -11.5507
 254   2.0000      -0.421396       -11.4668
 255   2.0000      -0.419286       -11.4094
 256   2.0000      -0.414971       -11.2919
 257   2.0000      -0.412451       -11.2234
 258   2.0000      -0.411402       -11.1948
 259   2.0000      -0.404872       -11.0171
 260   2.0000      -0.402504       -10.9527
 261   2.0000      -0.395814       -10.7706
 262   2.0000      -0.394275       -10.7288
 263   2.0000      -0.388399       -10.5689
 264   2.0000      -0.385784       -10.4977
 265   2.0000      -0.380161       -10.3447
 266   2.0000      -0.379764       -10.3339
 267   2.0000      -0.375951       -10.2301
 268   2.0000      -0.368686       -10.0325
 269   2.0000      -0.360570        -9.8116
 270   2.0000      -0.355827        -9.6825
 271   2.0000      -0.343118        -9.3367
 272   2.0000      -0.339394        -9.2354
 273   2.0000      -0.332628        -9.0513
 274   2.0000      -0.328751        -8.9458
 275   2.0000      -0.327011        -8.8984
 276   2.0000      -0.325547        -8.8586
 277   2.0000      -0.319017        -8.6809
 278   2.0000      -0.313867        -8.5407
 279   2.0000      -0.310580        -8.4513
 280   2.0000      -0.305185        -8.3045
 281   2.0000      -0.303451        -8.2573
 282   2.0000      -0.298609        -8.1256
 283   2.0000      -0.295572        -8.0429
 284   2.0000      -0.269690        -7.3387
 285   2.0000      -0.229198        -6.2368
 286   0.0000      -0.096572        -2.6278
 287   0.0000      -0.091989        -2.5031
 288   0.0000      -0.069968        -1.9039
 289   0.0000      -0.063068        -1.7162
 290   0.0000      -0.057343        -1.5604

MULLIKEN ATOMIC CHARGES
-----------------------
   0 C :    0.332389
   1 C :   -0.349590
   2 C :   -0.207798
   3 N :    0.181609
   4 C :   -0.188380
   5 N :    0.164174
   6 C :    0.018149
   7 C :   -0.005133
   8 C :   -0.085257
   9 C :    0.140513
  10 C :   -0.097948
  11 C :   -0.040680
  12 S :    0.185115
  13 C :   -0.127871
  14 C :    0.020668
  15 Br:    0.032379
  16 C :    0.145267
  17 O :   -0.148793
  18 C :   -0.015976
  19 C :   -0.144193
  20 C :    0.153019
  21 C :   -0.190746
  22 C :    0.032777
  23 O :   -0.186817
  24 C :    0.039232
  25 S :    0.190648
  26 C :   -0.100034
  27 C :    0.093860
  28 C :   -0.175258
  29 C :   -0.020620
  30 C :    0.044741
  31 C :    0.069659
  32 C :   -0.124805
  33 S :    0.168282
  34 C :   -0.098412
  35 C :    0.048175
  36 C :    0.014855
  37 C :   -0.068059
  38 S :    0.126593
  39 C :    0.043669
  40 C :   -0.015511
  41 C :   -0.085098
  42 C :    0.195282
  43 C :   -0.209951
  44 C :    0.049380
  45 O :   -0.208864
  46 C :    0.031920
  47 S :    0.133854
  48 C :   -0.074797
  49 C :    0.000533
  50 C :    0.037432
  51 C :   -0.115274
  52 C :    0.240376
  53 C :   -0.328923
  54 C :   -0.183609
  55 N :    0.158175
  56 C :   -0.202374
  57 N :    0.187800
  58 C :    0.009578
  59 C :    0.002261
  60 C :    0.138155
  61 O :   -0.141482
  62 C :   -0.081320
  63 C :    0.116247
  64 C :   -0.086106
  65 C :   -0.024409
  66 S :    0.184146
  67 C :   -0.128126
  68 C :    0.043810
  69 Br:    0.027975
  70 H :   -0.011355
  71 H :    0.004200
  72 H :   -0.003911
  73 H :    0.049304
  74 H :    0.029054
  75 H :    0.032064
  76 H :    0.051920
  77 H :    0.028652
  78 H :    0.018705
  79 H :    0.036579
  80 H :   -0.012832
  81 H :    0.024463
  82 H :   -0.021959
  83 H :    0.027921
  84 H :    0.037345
  85 H :    0.052145
  86 H :    0.039768
  87 H :    0.048740
  88 H :    0.040907
  89 H :   -0.006974
  90 H :   -0.004341
  91 H :   -0.000880
Sum of atomic charges:   -0.0000000

LOEWDIN ATOMIC CHARGES
----------------------
   0 C :    0.073963
   1 C :   -0.123052
   2 C :   -0.019848
   3 N :   -0.039326
   4 C :   -0.017674
   5 N :   -0.045372
   6 C :   -0.018911
   7 C :   -0.050938
   8 C :    0.018545
   9 C :   -0.033340
  10 C :   -0.143876
  11 C :   -0.011411
  12 S :    0.460380
  13 C :   -0.275170
  14 C :   -0.074016
  15 Br:    0.146929
  16 C :    0.085992
  17 O :   -0.135943
  18 C :   -0.079374
  19 C :    0.082418
  20 C :   -0.042457
  21 C :   -0.195599
  22 C :    0.066214
  23 O :   -0.153429
  24 C :   -0.077737
  25 S :    0.511662
  26 C :   -0.166128
  27 C :   -0.066569
  28 C :   -0.176747
  29 C :   -0.019609
  30 C :   -0.011361
  31 C :   -0.042014
  32 C :   -0.130687
  33 S :    0.468518
  34 C :   -0.204442
  35 C :   -0.041198
  36 C :   -0.059998
  37 C :   -0.163613
  38 S :    0.421720
  39 C :   -0.064513
  40 C :    0.003228
  41 C :   -0.051149
  42 C :    0.003489
  43 C :   -0.230722
  44 C :    0.071964
  45 O :   -0.167065
  46 C :   -0.084458
  47 S :    0.500711
  48 C :   -0.137559
  49 C :   -0.076430
  50 C :    0.073193
  51 C :   -0.088954
  52 C :    0.063470
  53 C :   -0.137606
  54 C :   -0.021517
  55 N :   -0.049048
  56 C :   -0.022841
  57 N :   -0.035306
  58 C :   -0.019709
  59 C :   -0.058266
  60 C :    0.072908
  61 O :   -0.142391
  62 C :    0.020131
  63 C :   -0.032911
  64 C :   -0.146037
  65 C :   -0.012044
  66 S :    0.432692
  67 C :   -0.272427
  68 C :   -0.069118
  69 Br:    0.140059
  70 H :    0.034257
  71 H :    0.043443
  72 H :    0.038014
  73 H :    0.051321
  74 H :    0.031073
  75 H :    0.043308
  76 H :    0.047918
  77 H :    0.028677
  78 H :    0.037902
  79 H :    0.036760
  80 H :    0.032405
  81 H :    0.022997
  82 H :    0.026731
  83 H :    0.036743
  84 H :    0.027984
  85 H :    0.048756
  86 H :    0.044714
  87 H :    0.025548
  88 H :    0.040866
  89 H :    0.041972
  90 H :    0.040504
  91 H :    0.039830

  Mayer bond orders larger than 0.100000
B(  0-C ,  1-C ) :   1.6534 B(  0-C ,  6-C ) :   1.0027 B(  0-C , 18-C ) :   1.0360
B(  1-C ,  2-C ) :   1.1520 B(  1-C ,  4-C ) :   1.1539 B(  2-C ,  3-N ) :   2.9594
B(  4-C ,  5-N ) :   2.9210 B(  6-C ,  7-C ) :   1.2728 B(  6-C , 11-C ) :   1.3865
B(  7-C ,  8-C ) :   1.4045 B(  7-C , 16-C ) :   0.9381 B(  8-C ,  9-C ) :   1.2380
B(  8-C , 70-H ) :   1.0112 B(  9-C , 10-C ) :   1.3117 B(  9-C , 14-C ) :   1.1517
B( 10-C , 11-C ) :   1.3264 B( 10-C , 12-S ) :   1.0901 B( 11-C , 71-H ) :   0.9838
B( 12-S , 13-C ) :   1.0866 B( 13-C , 14-C ) :   1.6048 B( 13-C , 15-Br) :   1.0252
B( 14-C , 72-H ) :   1.0051 B( 16-C , 17-O ) :   2.1830 B( 16-C , 18-C ) :   0.9271
B( 18-C , 19-C ) :   1.7352 B( 19-C , 20-C ) :   1.0454 B( 19-C , 73-H ) :   0.8880
B( 20-C , 21-C ) :   1.4836 B( 20-C , 27-C ) :   1.2728 B( 21-C , 22-C ) :   0.9496
B( 21-C , 25-S ) :   1.1662 B( 22-C , 23-O ) :   2.1948 B( 22-C , 24-C ) :   1.0753
B( 24-C , 74-H ) :   0.9505 B( 24-C , 75-H ) :   0.9384 B( 24-C , 76-H ) :   0.9330
B( 25-S , 26-C ) :   1.1880 B( 26-C , 27-C ) :   1.5457 B( 26-C , 77-H ) :   0.9710
B( 27-C , 28-C ) :   0.9868 B( 28-C , 29-C ) :   1.5676 B( 28-C , 33-S ) :   1.0866
B( 29-C , 30-C ) :   1.2216 B( 29-C , 78-H ) :   0.9379 B( 30-C , 31-C ) :   1.0789
B( 30-C , 39-C ) :   1.3856 B( 31-C , 32-C ) :   1.5950 B( 31-C , 34-C ) :   1.1754
B( 32-C , 33-S ) :   1.1446 B( 32-C , 79-H ) :   0.9353 B( 34-C , 35-C ) :   1.4453
B( 34-C , 38-S ) :   1.0717 B( 35-C , 36-C ) :   1.2320 B( 35-C , 39-C ) :   1.0821
B( 36-C , 37-C ) :   1.5801 B( 36-C , 80-H ) :   0.9979 B( 37-C , 38-S ) :   1.1583
B( 37-C , 81-H ) :   0.9649 B( 39-C , 40-C ) :   1.1639 B( 40-C , 41-C ) :   1.5738
B( 40-C , 82-H ) :   0.9598 B( 41-C , 42-C ) :   1.1792 B( 41-C , 83-H ) :   0.9580
B( 42-C , 43-C ) :   1.4063 B( 42-C , 49-C ) :   1.1991 B( 43-C , 44-C ) :   1.0184
B( 43-C , 47-S ) :   1.1031 B( 44-C , 45-O ) :   2.0267 B( 44-C , 46-C ) :   1.0780
B( 46-C , 84-H ) :   0.9499 B( 46-C , 85-H ) :   0.9333 B( 46-C , 86-H ) :   0.9425
B( 47-S , 48-C ) :   1.2252 B( 48-C , 49-C ) :   1.4931 B( 48-C , 87-H ) :   0.9492
B( 49-C , 50-C ) :   1.0678 B( 50-C , 51-C ) :   1.7287 B( 50-C , 88-H ) :   0.9148
B( 51-C , 52-C ) :   1.0086 B( 51-C , 60-C ) :   0.9297 B( 52-C , 53-C ) :   1.6756
B( 52-C , 58-C ) :   1.0122 B( 53-C , 54-C ) :   1.1259 B( 53-C , 56-C ) :   1.1580
B( 54-C , 55-N ) :   2.9944 B( 56-C , 57-N ) :   3.0231 B( 58-C , 59-C ) :   1.2722
B( 58-C , 65-C ) :   1.4120 B( 59-C , 60-C ) :   0.9142 B( 59-C , 62-C ) :   1.4175
B( 60-C , 61-O ) :   2.2527 B( 62-C , 63-C ) :   1.2506 B( 62-C , 89-H ) :   1.0179
B( 63-C , 64-C ) :   1.3035 B( 63-C , 68-C ) :   1.1643 B( 64-C , 65-C ) :   1.3249
B( 64-C , 66-S ) :   1.0830 B( 65-C , 90-H ) :   0.9862 B( 66-S , 67-C ) :   1.0865
B( 67-C , 68-C ) :   1.6161 B( 67-C , 69-Br) :   1.0216 B( 68-C , 91-H ) :   1.0008

-----------------------------------------------------------------------------
         ABSORPTION SPECTRUM VIA TRANSITION ELECTRIC DIPOLE MOMENTS
-----------------------------------------------------------------------------
State   Energy  Wavelength   fosc         T2         TX        TY        TZ
        (cm-1)    (nm)                  (au**2)     (au)      (au)      (au)
-----------------------------------------------------------------------------
   0   10099.8    990.1   0.005769575   0.18807  -0.24091   0.07398  -0.35292
   1   15109.3    661.8   0.155314231   3.38408   0.95565  -0.86416   1.31303
   2   17088.6    585.2   0.033370521   0.64288  -0.13227  -0.75115  -0.24732
   3   19469.8    513.6   0.192816636   3.26031   1.32170  -0.78367   0.94830
   4   20772.8    481.4   0.055619421   0.88147   0.70097  -0.02635   0.62403
   5   22781.2    439.0   0.006404125   0.09255  -0.27204  -0.00545   0.13606
   6   24304.9    411.4   0.075736360   1.02586  -1.01213   0.03534  -0.01444
   7   25384.1    393.9   0.043661408   0.56625   0.11463  -0.33809   0.66243
   8   25706.6    389.0   0.079966577   1.02409   0.94500  -0.35663   0.06234
   9   26159.7    382.3   0.188051442   2.36657  -0.00514   1.07059  -1.10471
  10   26853.5    372.4   0.053832433   0.65996   0.03169   0.19576  -0.78780
  11   27351.6    365.6   0.040966795   0.49309   0.56287   0.01238   0.41966
  12   27558.5    362.9   0.022155228   0.26466  -0.00857  -0.22073   0.46462
  13   27793.0    359.8   0.044514313   0.52728  -0.69596  -0.20530  -0.02776
  14   27926.2    358.1   0.130507845   1.53851   0.18875  -0.20757   1.20822
  15   28240.3    354.1   0.190464655   2.22034   0.17795   0.51098   1.38837
  16   28542.7    350.4   0.253119537   2.91948  -0.79155   0.42439  -1.45355
  17   28873.0    346.3   0.112553403   1.28334  -1.05298   0.15733  -0.38708
  18   29255.9    341.8   0.023961513   0.26964  -0.06080  -0.44374  -0.26274
  19   29675.3    337.0   0.015597930   0.17304  -0.11313   0.00672  -0.40025
  20   29854.6    335.0   0.008166228   0.09005  -0.08624   0.08516   0.27452
  21   29984.8    333.5   0.039342020   0.43195   0.21969  -0.26474   0.56000
  22   30130.9    331.9   0.100439356   1.09741  -0.95533   0.05445  -0.42636
  23   30207.8    331.0   0.019360656   0.21100   0.27800  -0.27573   0.24018
  24   30284.9    330.2   0.008087995   0.08792  -0.01391  -0.26930   0.12330
  25   30430.4    328.6   0.135050167   1.46104   0.15570  -0.69274   0.97822
  26   30761.4    325.1   0.026217318   0.28058  -0.21130  -0.10408   0.47445
  27   31084.8    321.7   0.003581980   0.03794   0.14728  -0.12165  -0.03801
  28   31779.5    314.7   0.011936681   0.12365  -0.31713  -0.15146   0.01204
  29   31952.4    313.0   0.011687238   0.12042  -0.30576   0.01996  -0.16288
  30   32344.2    309.2   0.069028457   0.70260  -0.52220   0.26170   0.60118
  31   32438.4    308.3   0.251431786   2.55174   1.30196  -0.67046   0.63807
  32   32639.7    306.4   0.071936460   0.72557   0.34670   0.12943  -0.76721
  33   32815.3    304.7   0.045393202   0.45540  -0.28298  -0.61263  -0.00276
  34   33024.5    302.8   0.072834335   0.72607   0.57234  -0.00317   0.63126
  35   33157.9    301.6   0.034764606   0.34516   0.57414  -0.03612  -0.11924
  36   33202.8    301.2   0.094805131   0.94001  -0.88447   0.03803  -0.39533
  37   33462.3    298.8   0.094353437   0.92828  -0.71681   0.35049  -0.54001
  38   33671.1    297.0   0.433841767   4.24179  -0.24653   0.08519   2.04298
  39   34016.5    294.0   0.129983300   1.25798   0.00741  -0.11761  -1.11539
  40   34248.4    292.0   0.035106799   0.33746   0.33694  -0.30721   0.35994
  41   34443.5    290.3   0.271404584   2.59409  -0.07795  -0.33792  -1.57284
  42   34507.6    289.8   0.013418727   0.12802  -0.00450  -0.33851  -0.11579
  43   34708.3    288.1   0.177858978   1.68701   0.96122  -0.23074   0.84251
  44   34762.6    287.7   0.064003804   0.60613  -0.60440   0.10597  -0.47917
  45   35055.5    285.3   0.033904776   0.31841   0.36970  -0.42343  -0.04930
  46   35515.1    281.6   0.013846328   0.12835  -0.24346   0.25804  -0.04991
  47   35786.6    279.4   0.032464757   0.29865   0.05255   0.23846  -0.48890
  48   35906.3    278.5   0.049755088   0.45619  -0.11363  -0.34553   0.56911
  49   36023.6    277.6   0.129133131   1.18012  -1.00437   0.33668  -0.24084
  50   36269.4    275.7   0.037499072   0.34037  -0.55519  -0.16921  -0.05919
  51   36511.5    273.9   0.150069293   1.35312  -0.11008  -0.50438   1.04240
  52   36560.4    273.5   0.128858917   1.16032   0.14520   0.76269  -0.74669
  53   36728.3    272.3   0.005705499   0.05114  -0.11163   0.09752  -0.17079
  54   37000.0    270.3   0.087968115   0.78271  -0.36234  -0.29906   0.74965
  55   37448.0    267.0   0.061381683   0.53962   0.70098  -0.21726   0.03224
  56   37545.9    266.3   0.010610998   0.09304  -0.26267   0.15167  -0.03227
  57   37919.8    263.7   0.000881345   0.00765  -0.05967   0.01017   0.06315
  58   38022.7    263.0   0.033997567   0.29436   0.09306   0.22877  -0.48308
  59   38220.9    261.6   0.084625845   0.72892   0.37751   0.22956  -0.73055
  60   38280.6    261.2   0.063909855   0.54962   0.14735   0.23763  -0.68662
  61   38326.0    260.9   0.055883878   0.48003  -0.21959  -0.31541   0.57648
  62   38458.5    260.0   0.035339090   0.30251  -0.04579  -0.25155   0.48697
  63   38466.6    260.0   0.038095651   0.32604  -0.13663   0.19594  -0.51863
  64   38863.8    257.3   0.070459414   0.59686  -0.11769  -0.21904   0.73145
  65   39297.2    254.5   0.050573473   0.42368   0.16097   0.03398   0.62977
  66   39578.8    252.7   0.034493069   0.28691  -0.48751   0.16163   0.15206
  67   39734.9    251.7   0.005874887   0.04867   0.21627   0.04190   0.01214
  68   40003.2    250.0   0.004390711   0.03613   0.02315  -0.05996   0.17889
  69   40246.3    248.5   0.193435893   1.58229   0.24359   0.75789  -0.97394

FINAL SINGLE POINT ENERGY    -10123.831507826930

DIPOLE MOMENT
-------------
                                X             Y             Z
Electronic contribution:     74.04449     -44.79310     159.65531
Nuclear contribution   :    -73.19080      45.69835    -157.93103
                        -----------------------------------------
Total Dipole Moment    :      0.85369       0.90524       1.72428
                        -----------------------------------------
Magnitude (a.u.)       :      2.12636
Magnitude (Debye)      :      5.40477

Rotational constants in cm-1:     0.001666     0.000469     0.000429
Rotational constants in MHz :    49.937020    14.074294    12.856875

                             ****ORCA TERMINATED NORMALLY****
TOTAL RUN TIME: 0 days 0 hours 13 minutes 51 seconds 334 msec
