                         Program Version 4.2.0 -  RELEASE  -
|  1> # ORCA input file
|  2> # SCF done       -197.351420465105          0.000716179635
|  3> ! CAM-B3LYP def2-SVP def2/J RIJCOSX Grid4 TightSCF
|  4> %maxcore 5000
|  5> %tddft
|  6>     Mode sTDDFT
|  7>     Ethresh 5.0
|  8>     maxcore 5000
|  9> end
| 10>
| 11> %pal
| 12>   nprocs 6
| 13>   end
| 14> * xyz 0 1
| 15>    C       -9.79268        11.02709        -0.50103
| 16>    C       -8.79494        11.88914        -0.13223
| 17>    C       -8.97791        13.27762         0.04393
| 18>    N       -9.06194        14.41092         0.20456
| 19>    C       -7.46506        11.52534         0.17127
| 20>    N       -6.37548        11.31426         0.46600
| 21>    C      -11.19092        11.39022        -0.69409
| 22>    C      -11.93508        10.20747        -0.92048
| 23>    C      -13.29282        10.21364        -1.12921
| 24>    C      -13.94609        11.45000        -1.12989
| 25>    C      -13.19077        12.62914        -0.92341
| 26>    C      -11.82021        12.62088        -0.69873
| 27>    S      -14.18936        14.04806        -0.99302
| 28>    C      -15.58939        13.05278        -1.28956
| 29>    C      -15.32516        11.72532        -1.33642
| 30>   Br      -17.26811        13.85802        -1.51394
| 31>    C      -11.01489         9.05932        -0.97351
| 32>    O      -11.31201         7.93109        -1.33911
| 33>    C       -9.67709         9.58777        -0.68823
| 34>    C       -8.48334         8.92127        -0.78246
| 35>    C       -8.16363         7.54928        -0.83659
| 36>    S       -6.63482         7.19645        -1.63837
| 37>    C       -6.81004         5.53233        -1.33090
| 38>    C       -7.93761         5.24229        -0.61551
| 39>    C       -8.71923         6.37997        -0.31689
| 40>    C       -9.96121         6.29360         0.49482
| 41>    C      -10.30322         4.89560         1.03246
| 42>    C       -9.84523         3.82911         0.02699
| 43>    C       -8.33606         3.87602        -0.16907
| 44>    C       -9.76621         4.61369         2.42105
| 45>    C       -8.61852         5.13893         2.85424
| 46>    C      -10.57649         3.73301         3.25665
| 47>    C      -11.53855         2.89775         2.76936
| 48>    C      -12.36116         2.05935         3.53259
| 49>    C      -12.30404         2.06240         4.99672
| 50>    C      -11.41968         2.79797         5.70314
| 51>    S      -10.25366         3.83666         4.98821
| 52>    C      -13.33305         1.17174         5.40608
| 53>    C      -13.98353         0.64777         4.28555
| 54>    C      -14.99292        -0.27189         4.65091
| 55>    C      -15.08809        -0.40668         5.99941
| 56>    S      -13.96019         0.56165         6.88574
| 57>    C      -13.37258         1.19494         3.09933
| 58>    C      -13.67645         0.91148         1.73564
| 59>    C      -14.84400         0.39426         1.29385
| 60>    C      -15.20095         0.05435        -0.04599
| 61>    S      -16.90208        -0.23688        -0.33581
| 62>    C      -16.60036        -0.64573        -1.97082
| 63>    C      -15.27825        -0.56892        -2.28810
| 64>    C      -14.46878        -0.15422        -1.20077
| 65>    C      -12.97538        -0.06571        -1.30938
| 66>    C      -12.42261        -0.41524        -2.70210
| 67>    C      -13.28284        -1.48372        -3.38517
| 68>    C      -14.69575        -0.95432        -3.60989
| 69>    C      -12.26191         0.79708        -3.59654
| 70>    C      -11.59074         0.72009        -4.74704
| 71>    C      -12.91958         2.03361        -3.22114
| 72>    C      -12.43342         3.29274        -3.27802
| 73>    C      -11.09738         3.82326        -3.50733
| 74>    C       -9.90901         3.15263        -3.36997
| 75>    C       -8.64510         3.71474        -3.63725
| 76>    N       -7.58535         4.09741        -3.86028
| 77>    C       -9.76453         1.85296        -2.84200
| 78>    N       -9.52306         0.85866        -2.31998
| 79>    C      -11.23131         5.25562        -3.73266
| 80>    C      -12.59073         5.62866        -3.57401
| 81>    C      -13.38163         4.44256        -3.20355
| 82>    O      -14.55682         4.38634        -2.92436
| 83>    C      -13.02306         6.92533        -3.70835
| 84>    C      -12.06475         7.90982        -3.96243
| 85>    C      -10.70245         7.53625        -4.05981
| 86>    C      -10.26930         6.22207        -3.97066
| 87>    S       -9.67175         8.92194        -4.24450
| 88>    C      -11.06438         9.96906        -4.18621
| 89>    C      -12.24350         9.31596        -4.05963
| 90>   Br      -10.83325        11.82978        -4.25439
| 91>    H      -13.83266         9.29322        -1.28849
| 92>    H      -11.28886        13.54592        -0.55409
| 93>    H      -16.07147        10.97137        -1.50811
| 94>    H       -7.60781         9.55344        -0.88715
| 95>    H       -6.07885         4.83984        -1.69885
| 96>    H      -10.78628         6.60181        -0.15973
| 97>    H       -9.93400         7.02296         1.30914
| 98>    H      -11.39600         4.85784         1.09645
| 99>    H      -10.34680         4.03078        -0.92187
|100>    H      -10.12693         2.82841         0.35518
|101>    H       -8.01592         3.13053        -0.89948
|102>    H       -7.84150         3.64064         0.77817
|103>    H       -8.22781         4.92154         3.83355
|104>    H       -8.02728         5.79820         2.24432
|105>    H      -11.69881         2.87107         1.70305
|106>    H      -11.37788         2.78754         6.78089
|107>    H      -15.61416        -0.81999         3.96652
|108>    H      -15.76473        -1.03052         6.55021
|109>    H      -12.90451         1.16859         1.02633
|110>    H      -15.63855         0.24352         2.01179
|111>    H      -17.41424        -0.93008        -2.60784
|112>    H      -12.54234        -0.74828        -0.57109
|113>    H      -12.63584         0.94090        -1.04713
|114>    H      -11.41380        -0.81963        -2.56503
|115>    H      -13.32445        -2.36774        -2.74555
|116>    H      -12.83459        -1.77190        -4.33649
|117>    H      -15.32152        -1.71447        -4.08150
|118>    H      -14.66408        -0.09167        -4.28267
|119>    H      -11.50033         1.56282        -5.41228
|120>    H      -11.13681        -0.19890        -5.07433
|121>    H      -13.96073         1.95447        -2.91978
|122>    H      -14.06499         7.17595        -3.58492
|123>    H       -9.22173         5.98950        -4.06593
|124>    H      -13.19744         9.80874        -4.01128
|125> *
|126>
|127>                          ****END OF INPUT****

CARTESIAN COORDINATES (ANGSTROEM)
---------------------------------
  C     -9.792680   11.027090   -0.501030
  C     -8.794940   11.889140   -0.132230
  C     -8.977910   13.277620    0.043930
  N     -9.061940   14.410920    0.204560
  C     -7.465060   11.525340    0.171270
  N     -6.375480   11.314260    0.466000
  C    -11.190920   11.390220   -0.694090
  C    -11.935080   10.207470   -0.920480
  C    -13.292820   10.213640   -1.129210
  C    -13.946090   11.450000   -1.129890
  C    -13.190770   12.629140   -0.923410
  C    -11.820210   12.620880   -0.698730
  S    -14.189360   14.048060   -0.993020
  C    -15.589390   13.052780   -1.289560
  C    -15.325160   11.725320   -1.336420
  Br   -17.268110   13.858020   -1.513940
  C    -11.014890    9.059320   -0.973510
  O    -11.312010    7.931090   -1.339110
  C     -9.677090    9.587770   -0.688230
  C     -8.483340    8.921270   -0.782460
  C     -8.163630    7.549280   -0.836590
  S     -6.634820    7.196450   -1.638370
  C     -6.810040    5.532330   -1.330900
  C     -7.937610    5.242290   -0.615510
  C     -8.719230    6.379970   -0.316890
  C     -9.961210    6.293600    0.494820
  C    -10.303220    4.895600    1.032460
  C     -9.845230    3.829110    0.026990
  C     -8.336060    3.876020   -0.169070
  C     -9.766210    4.613690    2.421050
  C     -8.618520    5.138930    2.854240
  C    -10.576490    3.733010    3.256650
  C    -11.538550    2.897750    2.769360
  C    -12.361160    2.059350    3.532590
  C    -12.304040    2.062400    4.996720
  C    -11.419680    2.797970    5.703140
  S    -10.253660    3.836660    4.988210
  C    -13.333050    1.171740    5.406080
  C    -13.983530    0.647770    4.285550
  C    -14.992920   -0.271890    4.650910
  C    -15.088090   -0.406680    5.999410
  S    -13.960190    0.561650    6.885740
  C    -13.372580    1.194940    3.099330
  C    -13.676450    0.911480    1.735640
  C    -14.844000    0.394260    1.293850
  C    -15.200950    0.054350   -0.045990
  S    -16.902080   -0.236880   -0.335810
  C    -16.600360   -0.645730   -1.970820
  C    -15.278250   -0.568920   -2.288100
  C    -14.468780   -0.154220   -1.200770
  C    -12.975380   -0.065710   -1.309380
  C    -12.422610   -0.415240   -2.702100
  C    -13.282840   -1.483720   -3.385170
  C    -14.695750   -0.954320   -3.609890
  C    -12.261910    0.797080   -3.596540
  C    -11.590740    0.720090   -4.747040
  C    -12.919580    2.033610   -3.221140
  C    -12.433420    3.292740   -3.278020
  C    -11.097380    3.823260   -3.507330
  C     -9.909010    3.152630   -3.369970
  C     -8.645100    3.714740   -3.637250
  N     -7.585350    4.097410   -3.860280
  C     -9.764530    1.852960   -2.842000
  N     -9.523060    0.858660   -2.319980
  C    -11.231310    5.255620   -3.732660
  C    -12.590730    5.628660   -3.574010
  C    -13.381630    4.442560   -3.203550
  O    -14.556820    4.386340   -2.924360
  C    -13.023060    6.925330   -3.708350
  C    -12.064750    7.909820   -3.962430
  C    -10.702450    7.536250   -4.059810
  C    -10.269300    6.222070   -3.970660
  S     -9.671750    8.921940   -4.244500
  C    -11.064380    9.969060   -4.186210
  C    -12.243500    9.315960   -4.059630
  Br   -10.833250   11.829780   -4.254390
  H    -13.832660    9.293220   -1.288490
  H    -11.288860   13.545920   -0.554090
  H    -16.071470   10.971370   -1.508110
  H     -7.607810    9.553440   -0.887150
  H     -6.078850    4.839840   -1.698850
  H    -10.786280    6.601810   -0.159730
  H     -9.934000    7.022960    1.309140
  H    -11.396000    4.857840    1.096450
  H    -10.346800    4.030780   -0.921870
  H    -10.126930    2.828410    0.355180
  H     -8.015920    3.130530   -0.899480
  H     -7.841500    3.640640    0.778170
  H     -8.227810    4.921540    3.833550
  H     -8.027280    5.798200    2.244320
  H    -11.698810    2.871070    1.703050
  H    -11.377880    2.787540    6.780890
  H    -15.614160   -0.819990    3.966520
  H    -15.764730   -1.030520    6.550210
  H    -12.904510    1.168590    1.026330
  H    -15.638550    0.243520    2.011790
  H    -17.414240   -0.930080   -2.607840
  H    -12.542340   -0.748280   -0.571090
  H    -12.635840    0.940900   -1.047130
  H    -11.413800   -0.819630   -2.565030
  H    -13.324450   -2.367740   -2.745550
  H    -12.834590   -1.771900   -4.336490
  H    -15.321520   -1.714470   -4.081500
  H    -14.664080   -0.091670   -4.282670
  H    -11.500330    1.562820   -5.412280
  H    -11.136810   -0.198900   -5.074330
  H    -13.960730    1.954470   -2.919780
  H    -14.064990    7.175950   -3.584920
  H     -9.221730    5.989500   -4.065930
  H    -13.197440    9.808740   -4.011280

 Total Charge           Charge          ....    0
 Multiplicity           Mult            ....    1
 Number of Electrons    NEL             ....  616
 Basis Dimension        Dim             .... 1294

ORBITAL ENERGIES
----------------

  NO   OCC          E(Eh)            E(eV)
   0   2.0000    -482.891105    -13140.1350
   1   2.0000    -482.888345    -13140.0599
   2   2.0000     -88.980014     -2421.2693
   3   2.0000     -88.978473     -2421.2273
   4   2.0000     -88.963044     -2420.8075
   5   2.0000     -88.960455     -2420.7370
   6   2.0000     -88.947754     -2420.3914
   7   2.0000     -88.939107     -2420.1561
   8   2.0000     -62.568463     -1702.5744
   9   2.0000     -62.566079     -1702.5096
  10   2.0000     -56.402435     -1534.7883
  11   2.0000     -56.400033     -1534.7229
  12   2.0000     -56.399703     -1534.7139
  13   2.0000     -56.399671     -1534.7131
  14   2.0000     -56.397314     -1534.6489
  15   2.0000     -56.397274     -1534.6478
  16   2.0000     -19.223321      -523.0932
  17   2.0000     -19.218837      -522.9712
  18   2.0000     -14.425530      -392.5386
  19   2.0000     -14.422358      -392.4523
  20   2.0000     -14.415516      -392.2661
  21   2.0000     -14.415323      -392.2609
  22   2.0000     -10.370803      -282.2039
  23   2.0000     -10.368928      -282.1529
  24   2.0000     -10.362827      -281.9869
  25   2.0000     -10.362105      -281.9672
  26   2.0000     -10.350221      -281.6438
  27   2.0000     -10.348549      -281.5983
  28   2.0000     -10.342607      -281.4366
  29   2.0000     -10.341446      -281.4051
  30   2.0000     -10.328848      -281.0623
  31   2.0000     -10.327917      -281.0369
  32   2.0000     -10.327820      -281.0343
  33   2.0000     -10.326502      -280.9984
  34   2.0000     -10.324893      -280.9546
  35   2.0000     -10.318758      -280.7877
  36   2.0000     -10.318506      -280.7808
  37   2.0000     -10.318119      -280.7703
  38   2.0000     -10.316990      -280.7396
  39   2.0000     -10.312180      -280.6087
  40   2.0000     -10.310960      -280.5755
  41   2.0000     -10.310690      -280.5681
  42   2.0000     -10.309790      -280.5436
  43   2.0000     -10.309304      -280.5304
  44   2.0000     -10.308508      -280.5087
  45   2.0000     -10.308054      -280.4964
  46   2.0000     -10.307137      -280.4715
  47   2.0000     -10.304984      -280.4129
  48   2.0000     -10.304441      -280.3981
  49   2.0000     -10.302819      -280.3540
  50   2.0000     -10.302756      -280.3522
  51   2.0000     -10.300161      -280.2816
  52   2.0000     -10.300099      -280.2799
  53   2.0000     -10.298343      -280.2322
  54   2.0000     -10.298283      -280.2305
  55   2.0000     -10.295319      -280.1499
  56   2.0000     -10.295316      -280.1498
  57   2.0000     -10.294263      -280.1211
  58   2.0000     -10.287120      -279.9268
  59   2.0000     -10.286601      -279.9126
  60   2.0000     -10.285844      -279.8921
  61   2.0000     -10.285459      -279.8816
  62   2.0000     -10.283079      -279.8168
  63   2.0000     -10.280432      -279.7448
  64   2.0000     -10.280308      -279.7414
  65   2.0000     -10.279363      -279.7157
  66   2.0000     -10.277046      -279.6526
  67   2.0000     -10.276942      -279.6498
  68   2.0000     -10.276048      -279.6255
  69   2.0000     -10.270674      -279.4793
  70   2.0000     -10.270490      -279.4742
  71   2.0000     -10.270084      -279.4632
  72   2.0000     -10.269455      -279.4461
  73   2.0000     -10.268547      -279.4214
  74   2.0000     -10.266500      -279.3657
  75   2.0000     -10.266349      -279.3616
  76   2.0000     -10.266259      -279.3591
  77   2.0000     -10.266154      -279.3563
  78   2.0000     -10.265847      -279.3479
  79   2.0000     -10.265672      -279.3431
  80   2.0000     -10.264166      -279.3022
  81   2.0000     -10.264016      -279.2981
  82   2.0000     -10.263963      -279.2966
  83   2.0000     -10.263784      -279.2918
  84   2.0000      -8.797780      -239.3998
  85   2.0000      -8.795515      -239.3381
  86   2.0000      -8.075299      -219.7401
  87   2.0000      -8.074434      -219.7165
  88   2.0000      -8.058999      -219.2965
  89   2.0000      -8.055801      -219.2095
  90   2.0000      -8.043074      -218.8632
  91   2.0000      -8.035135      -218.6472
  92   2.0000      -6.634025      -180.5210
  93   2.0000      -6.631841      -180.4616
  94   2.0000      -6.619580      -180.1279
  95   2.0000      -6.619303      -180.1204
  96   2.0000      -6.617244      -180.0644
  97   2.0000      -6.617031      -180.0586
  98   2.0000      -6.045022      -164.4934
  99   2.0000      -6.044130      -164.4691
 100   2.0000      -6.040734      -164.3767
 101   2.0000      -6.039834      -164.3522
 102   2.0000      -6.036602      -164.2643
 103   2.0000      -6.035668      -164.2389
 104   2.0000      -6.028166      -164.0347
 105   2.0000      -6.025435      -163.9604
 106   2.0000      -6.023988      -163.9210
 107   2.0000      -6.021310      -163.8482
 108   2.0000      -6.020815      -163.8347
 109   2.0000      -6.017620      -163.7478
 110   2.0000      -6.012458      -163.6073
 111   2.0000      -6.008311      -163.4945
 112   2.0000      -6.005181      -163.4093
 113   2.0000      -6.004304      -163.3854
 114   2.0000      -6.000224      -163.2744
 115   2.0000      -5.997446      -163.1988
 116   2.0000      -2.749898       -74.8285
 117   2.0000      -2.747694       -74.7686
 118   2.0000      -2.745888       -74.7194
 119   2.0000      -2.745664       -74.7133
 120   2.0000      -2.743597       -74.6571
 121   2.0000      -2.743476       -74.6538
 122   2.0000      -2.734182       -74.4009
 123   2.0000      -2.734170       -74.4006
 124   2.0000      -2.731864       -74.3378
 125   2.0000      -2.731847       -74.3373
 126   2.0000      -1.136033       -30.9130
 127   2.0000      -1.133928       -30.8558
 128   2.0000      -1.028608       -27.9898
 129   2.0000      -1.025377       -27.9019
 130   2.0000      -1.019512       -27.7423
 131   2.0000      -1.014871       -27.6160
 132   2.0000      -1.003350       -27.3025
 133   2.0000      -0.998583       -27.1728
 134   2.0000      -0.995005       -27.0755
 135   2.0000      -0.994723       -27.0678
 136   2.0000      -0.994133       -27.0517
 137   2.0000      -0.990810       -26.9613
 138   2.0000      -0.976235       -26.5647
 139   2.0000      -0.964340       -26.2410
 140   2.0000      -0.951172       -25.8827
 141   2.0000      -0.945408       -25.7259
 142   2.0000      -0.937880       -25.5210
 143   2.0000      -0.935604       -25.4591
 144   2.0000      -0.915987       -24.9253
 145   2.0000      -0.913918       -24.8690
 146   2.0000      -0.910794       -24.7840
 147   2.0000      -0.904220       -24.6051
 148   2.0000      -0.901152       -24.5216
 149   2.0000      -0.890268       -24.2254
 150   2.0000      -0.889887       -24.2151
 151   2.0000      -0.888097       -24.1664
 152   2.0000      -0.879450       -23.9310
 153   2.0000      -0.874110       -23.7857
 154   2.0000      -0.870575       -23.6896
 155   2.0000      -0.851287       -23.1647
 156   2.0000      -0.845528       -23.0080
 157   2.0000      -0.843157       -22.9435
 158   2.0000      -0.839016       -22.8308
 159   2.0000      -0.833598       -22.6834
 160   2.0000      -0.831172       -22.6173
 161   2.0000      -0.828344       -22.5404
 162   2.0000      -0.821544       -22.3553
 163   2.0000      -0.807274       -21.9670
 164   2.0000      -0.801765       -21.8171
 165   2.0000      -0.792018       -21.5519
 166   2.0000      -0.785759       -21.3816
 167   2.0000      -0.777255       -21.1502
 168   2.0000      -0.763944       -20.7880
 169   2.0000      -0.761535       -20.7224
 170   2.0000      -0.758542       -20.6410
 171   2.0000      -0.757706       -20.6182
 172   2.0000      -0.731160       -19.8959
 173   2.0000      -0.718347       -19.5472
 174   2.0000      -0.715604       -19.4726
 175   2.0000      -0.714155       -19.4332
 176   2.0000      -0.709753       -19.3134
 177   2.0000      -0.703487       -19.1429
 178   2.0000      -0.696724       -18.9588
 179   2.0000      -0.694218       -18.8906
 180   2.0000      -0.692853       -18.8535
 181   2.0000      -0.687969       -18.7206
 182   2.0000      -0.676978       -18.4215
 183   2.0000      -0.671558       -18.2740
 184   2.0000      -0.663333       -18.0502
 185   2.0000      -0.660461       -17.9721
 186   2.0000      -0.656785       -17.8720
 187   2.0000      -0.649898       -17.6846
 188   2.0000      -0.643229       -17.5031
 189   2.0000      -0.635950       -17.3051
 190   2.0000      -0.631042       -17.1715
 191   2.0000      -0.628210       -17.0945
 192   2.0000      -0.627805       -17.0834
 193   2.0000      -0.624089       -16.9823
 194   2.0000      -0.618157       -16.8209
 195   2.0000      -0.607044       -16.5185
 196   2.0000      -0.604798       -16.4574
 197   2.0000      -0.601498       -16.3676
 198   2.0000      -0.598616       -16.2892
 199   2.0000      -0.595127       -16.1942
 200   2.0000      -0.589306       -16.0358
 201   2.0000      -0.585034       -15.9196
 202   2.0000      -0.573842       -15.6150
 203   2.0000      -0.569343       -15.4926
 204   2.0000      -0.567989       -15.4558
 205   2.0000      -0.561241       -15.2721
 206   2.0000      -0.560402       -15.2493
 207   2.0000      -0.557528       -15.1711
 208   2.0000      -0.555750       -15.1227
 209   2.0000      -0.554307       -15.0835
 210   2.0000      -0.550136       -14.9700
 211   2.0000      -0.548362       -14.9217
 212   2.0000      -0.545358       -14.8400
 213   2.0000      -0.544094       -14.8055
 214   2.0000      -0.542228       -14.7548
 215   2.0000      -0.539808       -14.6889
 216   2.0000      -0.535193       -14.5633
 217   2.0000      -0.534406       -14.5419
 218   2.0000      -0.528355       -14.3773
 219   2.0000      -0.527462       -14.3530
 220   2.0000      -0.525810       -14.3080
 221   2.0000      -0.519357       -14.1324
 222   2.0000      -0.516520       -14.0552
 223   2.0000      -0.513464       -13.9721
 224   2.0000      -0.511651       -13.9227
 225   2.0000      -0.507973       -13.8227
 226   2.0000      -0.506984       -13.7957
 227   2.0000      -0.504951       -13.7404
 228   2.0000      -0.502622       -13.6770
 229   2.0000      -0.501396       -13.6437
 230   2.0000      -0.499506       -13.5923
 231   2.0000      -0.497632       -13.5413
 232   2.0000      -0.497414       -13.5353
 233   2.0000      -0.495705       -13.4888
 234   2.0000      -0.493170       -13.4198
 235   2.0000      -0.491517       -13.3749
 236   2.0000      -0.489511       -13.3203
 237   2.0000      -0.486504       -13.2384
 238   2.0000      -0.484024       -13.1710
 239   2.0000      -0.482340       -13.1251
 240   2.0000      -0.476958       -12.9787
 241   2.0000      -0.476005       -12.9528
 242   2.0000      -0.473582       -12.8868
 243   2.0000      -0.471985       -12.8434
 244   2.0000      -0.467473       -12.7206
 245   2.0000      -0.464774       -12.6472
 246   2.0000      -0.462243       -12.5783
 247   2.0000      -0.460690       -12.5360
 248   2.0000      -0.460220       -12.5232
 249   2.0000      -0.459768       -12.5109
 250   2.0000      -0.457618       -12.4524
 251   2.0000      -0.456419       -12.4198
 252   2.0000      -0.452037       -12.3006
 253   2.0000      -0.451072       -12.2743
 254   2.0000      -0.448750       -12.2111
 255   2.0000      -0.446599       -12.1526
 256   2.0000      -0.444628       -12.0989
 257   2.0000      -0.443997       -12.0818
 258   2.0000      -0.441327       -12.0091
 259   2.0000      -0.441255       -12.0072
 260   2.0000      -0.439902       -11.9703
 261   2.0000      -0.434527       -11.8241
 262   2.0000      -0.433310       -11.7910
 263   2.0000      -0.432588       -11.7713
 264   2.0000      -0.428865       -11.6700
 265   2.0000      -0.428478       -11.6595
 266   2.0000      -0.426903       -11.6166
 267   2.0000      -0.423958       -11.5365
 268   2.0000      -0.421803       -11.4778
 269   2.0000      -0.420224       -11.4349
 270   2.0000      -0.418362       -11.3842
 271   2.0000      -0.416755       -11.3405
 272   2.0000      -0.412867       -11.2347
 273   2.0000      -0.410596       -11.1729
 274   2.0000      -0.409981       -11.1561
 275   2.0000      -0.408734       -11.1222
 276   2.0000      -0.407844       -11.0980
 277   2.0000      -0.402901       -10.9635
 278   2.0000      -0.400774       -10.9056
 279   2.0000      -0.397601       -10.8193
 280   2.0000      -0.395575       -10.7641
 281   2.0000      -0.392195       -10.6722
 282   2.0000      -0.390311       -10.6209
 283   2.0000      -0.386852       -10.5268
 284   2.0000      -0.384466       -10.4618
 285   2.0000      -0.381790       -10.3890
 286   2.0000      -0.380471       -10.3531
 287   2.0000      -0.378899       -10.3104
 288   2.0000      -0.377732       -10.2786
 289   2.0000      -0.376410       -10.2426
 290   2.0000      -0.359203        -9.7744
 291   2.0000      -0.354534        -9.6474
 292   2.0000      -0.348304        -9.4778
 293   2.0000      -0.343125        -9.3369
 294   2.0000      -0.337630        -9.1874
 295   2.0000      -0.327980        -8.9248
 296   2.0000      -0.323408        -8.8004
 297   2.0000      -0.322261        -8.7692
 298   2.0000      -0.318000        -8.6532
 299   2.0000      -0.311874        -8.4865
 300   2.0000      -0.311405        -8.4738
 301   2.0000      -0.298732        -8.1289
 302   2.0000      -0.297313        -8.0903
 303   2.0000      -0.291864        -7.9420
 304   2.0000      -0.283478        -7.7138
 305   2.0000      -0.281837        -7.6692
 306   2.0000      -0.265666        -7.2291
 307   2.0000      -0.218575        -5.9477
 308   0.0000      -0.095579        -2.6008
 309   0.0000      -0.087900        -2.3919
 310   0.0000      -0.062835        -1.7098
 311   0.0000      -0.056237        -1.5303
 312   0.0000      -0.045922        -1.2496

MULLIKEN ATOMIC CHARGES
-----------------------
   0 C :    0.298245
   1 C :   -0.351085
   2 C :   -0.186691
   3 N :    0.147935
   4 C :   -0.205856
   5 N :    0.165789
   6 C :    0.019883
   7 C :    0.011112
   8 C :   -0.094396
   9 C :    0.121312
  10 C :   -0.088126
  11 C :   -0.023457
  12 S :    0.187609
  13 C :   -0.122972
  14 C :    0.032949
  15 Br:    0.025456
  16 C :    0.141316
  17 O :   -0.193769
  18 C :   -0.047241
  19 C :    0.001050
  20 C :   -0.195452
  21 S :    0.134076
  22 C :   -0.059851
  23 C :   -0.123103
  24 C :    0.009479
  25 C :    0.165938
  26 C :   -0.069744
  27 C :    0.033328
  28 C :    0.149099
  29 C :   -0.024693
  30 C :   -0.058511
  31 C :   -0.074498
  32 C :   -0.032267
  33 C :    0.037414
  34 C :    0.074640
  35 C :   -0.135271
  36 S :    0.109286
  37 C :   -0.118626
  38 C :    0.052404
  39 C :   -0.003918
  40 C :   -0.071961
  41 S :    0.120817
  42 C :    0.078807
  43 C :   -0.045135
  44 C :    0.038177
  45 C :   -0.148949
  46 S :    0.103965
  47 C :   -0.134554
  48 C :   -0.059126
  49 C :   -0.079911
  50 C :    0.139340
  51 C :   -0.021058
  52 C :    0.067071
  53 C :    0.139488
  54 C :   -0.143539
  55 C :    0.021106
  56 C :    0.019237
  57 C :   -0.099469
  58 C :    0.321005
  59 C :   -0.375750
  60 C :   -0.172129
  61 N :    0.143320
  62 C :   -0.188815
  63 N :    0.160406
  64 C :    0.001664
  65 C :    0.002929
  66 C :    0.131467
  67 O :   -0.134971
  68 C :   -0.070766
  69 C :    0.151486
  70 C :   -0.078866
  71 C :   -0.014798
  72 S :    0.183457
  73 C :   -0.155557
  74 C :    0.057437
  75 Br:    0.030406
  76 H :   -0.019414
  77 H :   -0.008218
  78 H :   -0.003841
  79 H :    0.029945
  80 H :    0.035244
  81 H :    0.056732
  82 H :    0.016810
  83 H :    0.005460
  84 H :    0.018302
  85 H :    0.012686
  86 H :    0.009576
  87 H :    0.028289
  88 H :    0.026761
  89 H :    0.029519
  90 H :   -0.019738
  91 H :    0.031835
  92 H :   -0.016173
  93 H :    0.022648
  94 H :   -0.042301
  95 H :   -0.029207
  96 H :    0.004951
  97 H :    0.026657
  98 H :    0.043733
  99 H :    0.023118
 100 H :    0.013182
 101 H :   -0.005615
 102 H :    0.000496
 103 H :    0.013713
 104 H :    0.028822
 105 H :    0.029184
 106 H :    0.046089
 107 H :   -0.015508
 108 H :   -0.012476
 109 H :   -0.006286
Sum of atomic charges:   -0.0000000

LOEWDIN ATOMIC CHARGES
----------------------
   0 C :    0.076526
   1 C :   -0.140815
   2 C :   -0.017604
   3 N :   -0.054700
   4 C :   -0.027406
   5 N :   -0.048563
   6 C :   -0.021838
   7 C :   -0.047906
   8 C :    0.013587
   9 C :   -0.035482
  10 C :   -0.145147
  11 C :   -0.009453
  12 S :    0.434172
  13 C :   -0.271304
  14 C :   -0.073831
  15 Br:    0.138092
  16 C :    0.085856
  17 O :   -0.145827
  18 C :   -0.109932
  19 C :    0.053161
  20 C :   -0.192470
  21 S :    0.457072
  22 C :   -0.140207
  23 C :   -0.075295
  24 C :   -0.004610
  25 C :   -0.029440
  26 C :   -0.022082
  27 C :   -0.018157
  28 C :   -0.024330
  29 C :   -0.031311
  30 C :   -0.060324
  31 C :   -0.163135
  32 C :   -0.026995
  33 C :   -0.029817
  34 C :   -0.052725
  35 C :   -0.140779
  36 S :    0.444844
  37 C :   -0.202664
  38 C :   -0.040041
  39 C :   -0.066526
  40 C :   -0.170460
  41 S :    0.417120
  42 C :   -0.048154
  43 C :   -0.026555
  44 C :   -0.052762
  45 C :   -0.170133
  46 S :    0.427333
  47 C :   -0.200436
  48 C :   -0.071300
  49 C :   -0.071164
  50 C :   -0.021632
  51 C :   -0.020815
  52 C :   -0.012699
  53 C :   -0.026200
  54 C :   -0.026700
  55 C :   -0.007316
  56 C :    0.087425
  57 C :   -0.090837
  58 C :    0.074262
  59 C :   -0.143937
  60 C :   -0.011195
  61 N :   -0.056101
  62 C :   -0.010081
  63 N :   -0.053068
  64 C :   -0.022386
  65 C :   -0.049846
  66 C :    0.083063
  67 O :   -0.137518
  68 C :    0.027116
  69 C :   -0.025033
  70 C :   -0.135346
  71 C :   -0.005269
  72 S :    0.438671
  73 C :   -0.276621
  74 C :   -0.065235
  75 Br:    0.145469
  76 H :    0.036904
  77 H :    0.040334
  78 H :    0.038304
  79 H :    0.044003
  80 H :    0.030695
  81 H :    0.043172
  82 H :    0.037514
  83 H :    0.031645
  84 H :    0.022146
  85 H :    0.024519
  86 H :    0.032148
  87 H :    0.036997
  88 H :    0.015725
  89 H :    0.025832
  90 H :    0.032815
  91 H :    0.034444
  92 H :    0.028686
  93 H :    0.021719
  94 H :    0.023875
  95 H :    0.023803
  96 H :    0.018801
  97 H :    0.040858
  98 H :    0.026776
  99 H :    0.040080
 100 H :    0.026237
 101 H :    0.020588
 102 H :    0.030804
 103 H :    0.028013
 104 H :    0.025386
 105 H :    0.028433
 106 H :    0.050692
 107 H :    0.038310
 108 H :    0.039171
 109 H :    0.036315

  Mayer bond orders larger than 0.100000
B(  0-C ,  1-C ) :   1.6395 B(  0-C ,  6-C ) :   0.9991 B(  0-C , 18-C ) :   1.0648
B(  1-C ,  2-C ) :   1.1431 B(  1-C ,  4-C ) :   1.1383 B(  2-C ,  3-N ) :   2.9714
B(  4-C ,  5-N ) :   2.9926 B(  6-C ,  7-C ) :   1.2798 B(  6-C , 11-C ) :   1.4043
B(  7-C ,  8-C ) :   1.4064 B(  7-C , 16-C ) :   0.9429 B(  8-C ,  9-C ) :   1.2456
B(  8-C , 76-H ) :   1.0190 B(  9-C , 10-C ) :   1.3078 B(  9-C , 14-C ) :   1.1605
B( 10-C , 11-C ) :   1.3273 B( 10-C , 12-S ) :   1.0848 B( 11-C , 77-H ) :   0.9809
B( 12-S , 13-C ) :   1.0874 B( 13-C , 14-C ) :   1.6167 B( 13-C , 15-Br) :   1.0194
B( 14-C , 78-H ) :   1.0011 B( 16-C , 17-O ) :   2.0386 B( 16-C , 18-C ) :   1.0007
B( 18-C , 19-C ) :   1.5516 B( 19-C , 20-C ) :   1.2168 B( 19-C , 79-H ) :   0.9203
B( 20-C , 21-S ) :   1.1148 B( 20-C , 24-C ) :   1.3954 B( 21-S , 22-C ) :   1.1942
B( 22-C , 23-C ) :   1.5330 B( 22-C , 80-H ) :   0.9613 B( 23-C , 24-C ) :   1.3195
B( 23-C , 28-C ) :   1.0194 B( 24-C , 25-C ) :   1.0812 B( 25-C , 26-C ) :   1.0519
B( 25-C , 81-H ) :   0.8454 B( 25-C , 82-H ) :   0.9011 B( 26-C , 27-C ) :   1.0411
B( 26-C , 29-C ) :   0.9890 B( 26-C , 83-H ) :   0.8990 B( 27-C , 28-C ) :   1.0867
B( 27-C , 84-H ) :   0.9430 B( 27-C , 85-H ) :   0.9284 B( 28-C , 86-H ) :   0.9166
B( 28-C , 87-H ) :   0.9021 B( 29-C , 30-C ) :   1.9454 B( 29-C , 31-C ) :   1.0621
B( 30-C , 88-H ) :   0.9356 B( 30-C , 89-H ) :   0.9376 B( 31-C , 32-C ) :   1.5941
B( 31-C , 36-S ) :   1.0399 B( 32-C , 33-C ) :   1.2043 B( 32-C , 90-H ) :   0.9493
B( 33-C , 34-C ) :   1.0516 B( 33-C , 42-C ) :   1.4274 B( 34-C , 35-C ) :   1.6102
B( 34-C , 37-C ) :   1.1725 B( 35-C , 36-S ) :   1.1368 B( 35-C , 91-H ) :   0.9406
B( 37-C , 38-C ) :   1.4515 B( 37-C , 41-S ) :   1.0747 B( 38-C , 39-C ) :   1.2146
B( 38-C , 42-C ) :   1.0871 B( 39-C , 40-C ) :   1.5829 B( 39-C , 92-H ) :   0.9986
B( 40-C , 41-S ) :   1.1530 B( 40-C , 93-H ) :   0.9657 B( 42-C , 43-C ) :   1.1359
B( 43-C , 44-C ) :   1.6807 B( 43-C , 94-H ) :   0.9522 B( 44-C , 45-C ) :   1.1122
B( 44-C , 95-H ) :   0.9523 B( 45-C , 46-S ) :   1.1415 B( 45-C , 49-C ) :   1.5115
B( 46-S , 47-C ) :   1.1507 B( 47-C , 48-C ) :   1.5691 B( 47-C , 96-H ) :   0.9693
B( 48-C , 49-C ) :   1.2857 B( 48-C , 53-C ) :   1.0315 B( 49-C , 50-C ) :   1.0520
B( 50-C , 51-C ) :   1.0593 B( 50-C , 97-H ) :   0.8985 B( 50-C , 98-H ) :   0.8872
B( 51-C , 52-C ) :   1.0642 B( 51-C , 54-C ) :   0.9502 B( 51-C , 99-H ) :   0.8853
B( 52-C , 53-C ) :   1.0753 B( 52-C ,100-H ) :   0.9455 B( 52-C ,101-H ) :   0.9337
B( 53-C ,102-H ) :   0.9200 B( 53-C ,103-H ) :   0.9101 B( 54-C , 55-C ) :   1.9522
B( 54-C , 56-C ) :   0.9995 B( 55-C ,104-H ) :   0.9467 B( 55-C ,105-H ) :   0.9451
B( 56-C , 57-C ) :   1.7813 B( 56-C ,106-H ) :   0.9087 B( 57-C , 58-C ) :   1.0108
B( 57-C , 66-C ) :   0.9244 B( 58-C , 59-C ) :   1.6285 B( 58-C , 64-C ) :   1.0334
B( 59-C , 60-C ) :   1.1544 B( 59-C , 62-C ) :   1.1770 B( 60-C , 61-N ) :   2.9078
B( 62-C , 63-N ) :   2.9265 B( 64-C , 65-C ) :   1.2628 B( 64-C , 71-C ) :   1.3965
B( 65-C , 66-C ) :   0.9275 B( 65-C , 68-C ) :   1.4268 B( 66-C , 67-O ) :   2.2688
B( 68-C , 69-C ) :   1.2437 B( 68-C ,107-H ) :   1.0113 B( 69-C , 70-C ) :   1.2982
B( 69-C , 74-C ) :   1.1729 B( 70-C , 71-C ) :   1.3434 B( 70-C , 72-S ) :   1.0836
B( 71-C ,108-H ) :   0.9795 B( 72-S , 73-C ) :   1.0888 B( 73-C , 74-C ) :   1.6069
B( 73-C , 75-Br) :   1.0248 B( 74-C ,109-H ) :   0.9920

-----------------------------------------------------------------------------
         ABSORPTION SPECTRUM VIA TRANSITION ELECTRIC DIPOLE MOMENTS
-----------------------------------------------------------------------------
State   Energy  Wavelength   fosc         T2         TX        TY        TZ
        (cm-1)    (nm)                  (au**2)     (au)      (au)      (au)
-----------------------------------------------------------------------------
   0   13265.8    753.8   0.000413599   0.01026   0.02271  -0.01470  -0.09763
   1   17523.8    570.7   0.003106366   0.05836   0.07038   0.21640  -0.08110
   2   20861.6    479.3   0.321268420   5.06986   1.55569   1.44627   0.74699
   3   21404.7    467.2   0.001445371   0.02223   0.09859   0.10914  -0.02449
   4   22785.0    438.9   0.001284453   0.01856  -0.04187  -0.12715   0.02524
   5   23413.0    427.1   0.121992950   1.71535  -0.47451   1.17311   0.33765
   6   24844.1    402.5   0.251094568   3.32728   0.27083  -1.74762  -0.44695
   7   24977.6    400.4   0.093736389   1.23547  -0.12908   1.09282   0.15667
   8   25390.5    393.8   0.384923105   4.99090  -1.63837  -0.70010  -1.34778
   9   26077.1    383.5   0.232829428   2.93937  -0.09952   1.70567  -0.14201
  10   27189.1    367.8   0.126339384   1.52975   0.89754   0.80236   0.28352
  11   27453.9    364.2   0.269335621   3.22972   0.28323  -1.77418   0.04253
  12   27665.9    361.5   0.028843593   0.34323   0.10505   0.57510   0.03811
  13   27869.7    358.8   0.017728065   0.20941   0.30819   0.16837   0.29340
  14   28499.7    350.9   0.009941616   0.11484   0.02294  -0.23706   0.24107
  15   28953.2    345.4   0.032571811   0.37036   0.11058   0.55177   0.23169
  16   29126.7    343.3   0.003953114   0.04468   0.12328  -0.11025   0.13164
  17   29492.0    339.1   0.382426266   4.26893   1.93191  -0.61171   0.40307
  18   29866.6    334.8   0.269668702   2.97249  -0.74387  -0.20484  -1.54181
  19   29875.7    334.7   0.124379646   1.37059   0.78862  -0.86418   0.04321
  20   30058.8    332.7   0.251815564   2.75795   1.54110  -0.61345   0.08155
  21   30310.7    329.9   0.043813903   0.47587   0.10356  -0.68115  -0.03437
  22   30803.7    324.6   0.050663084   0.54146   0.13062  -0.71836   0.09140
  23   31278.6    319.7   0.045525114   0.47916  -0.02846   0.37057   0.58397
  24   31712.3    315.3   0.080274412   0.83335   0.87790  -0.09314   0.23231
  25   31961.3    312.9   0.048313752   0.49765  -0.58235   0.38932   0.08337
  26   32061.7    311.9   0.285727892   2.93387   0.71972   0.12489   1.54929
  27   32164.5    310.9   0.154143619   1.57770   1.21880  -0.30368   0.00024
  28   32664.8    306.1   0.006937013   0.06991   0.03731  -0.01258   0.26147
  29   32876.5    304.2   0.056013115   0.56089  -0.18754   0.72362  -0.04580
  30   33007.5    303.0   0.003635120   0.03626  -0.09736   0.16292   0.01535
  31   33149.7    301.7   0.002589526   0.02572   0.09184  -0.11030   0.07153
  32   33387.7    299.5   0.055364664   0.54591  -0.15065   0.69063  -0.21504
  33   33449.7    299.0   0.184057394   1.81149   0.72085  -1.13141  -0.10861
  34   33775.2    296.1   0.010743660   0.10472   0.22281   0.16258   0.16924
  35   34019.0    294.0   0.319263981   3.08961  -0.08638   1.75520  -0.03781
  36   34123.2    293.1   0.225690020   2.17740  -1.37870  -0.43408  -0.29694
  37   34419.3    290.5   0.006581477   0.06295  -0.22747   0.08087   0.06833
  38   35031.4    285.5   0.255869080   2.40456   0.46837   0.13660   1.47191
  39   35471.7    281.9   0.094707825   0.87898   0.57076   0.55748   0.49238
  40   35642.0    280.6   0.020304621   0.18755   0.24105   0.35227   0.07315
  41   35806.0    279.3   0.198514557   1.82521   0.21457  -1.30674  -0.26760
  42   36096.9    277.0   0.039521930   0.36045  -0.58184   0.01188   0.14755
  43   36205.7    276.2   0.043812784   0.39838   0.39170  -0.47816   0.12771
  44   36444.1    274.4   0.073993143   0.66840  -0.25479   0.77554  -0.04495
  45   36493.8    274.0   0.003641470   0.03285  -0.06843  -0.13887  -0.09424
  46   36824.5    271.6   0.077483474   0.69270   0.30563  -0.77179   0.06036
  47   36841.7    271.4   0.064327919   0.57483   0.27931  -0.68268   0.17536
  48   37225.0    268.6   0.091872027   0.81250   0.15995  -0.88565  -0.05035
  49   37989.8    263.2   0.008085048   0.07006  -0.22897   0.10203   0.08501
  50   38086.6    262.6   0.002257097   0.01951   0.12838   0.01893  -0.05168
  51   38844.4    257.4   0.000544500   0.00461   0.04181  -0.01023   0.05256
  52   38956.6    256.7   0.023468562   0.19833   0.01526  -0.39354   0.20789
  53   39052.1    256.1   0.001339217   0.01129  -0.02976  -0.07157  -0.07267
  54   39277.3    254.6   0.293988182   2.46413   1.10356   1.01675  -0.46097
  55   39337.0    254.2   0.104492094   0.87450   0.45047   0.72854  -0.37524
  56   39371.3    254.0   0.308493099   2.57953   1.02228   0.96470  -0.77706
  57   39516.4    253.1   0.067862156   0.56536   0.12211  -0.74166  -0.01972
  58   39699.3    251.9   0.075209876   0.62369  -0.77728  -0.12915  -0.05329

FINAL SINGLE POINT ENERGY    -10285.198062255244

DIPOLE MOMENT
-------------
                                X             Y             Z
Electronic contribution:    -41.20472     213.62490     -42.78147
Nuclear contribution   :     39.28029    -214.72548      41.61154
                        -----------------------------------------
Total Dipole Moment    :     -1.92443      -1.10058      -1.16993
                        -----------------------------------------
Magnitude (a.u.)       :      2.50668
Magnitude (Debye)      :      6.37146

Rotational constants in cm-1:     0.000884     0.000419     0.000408
Rotational constants in MHz :    26.493542    12.553203    12.216655

                             ****ORCA TERMINATED NORMALLY****
TOTAL RUN TIME: 0 days 0 hours 15 minutes 8 seconds 93 msec
