                         Program Version 4.2.0 -  RELEASE  -
|  1> # ORCA input file
|  2> # SCF done       -194.321888281182          0.000972081352
|  3> ! CAM-B3LYP def2-SVP def2/J RIJCOSX Grid4 TightSCF
|  4> %maxcore 5000
|  5> %tddft
|  6>     Mode sTDDFT
|  7>     Ethresh 5.0
|  8>     maxcore 5000
|  9> end
| 10>
| 11> %pal
| 12>   nprocs 6
| 13>   end
| 14> * xyz 0 1
| 15>    C        3.34615        -3.13234         0.23046
| 16>    C        2.48276        -3.24706         1.29033
| 17>    C        2.87853        -3.56673         2.60034
| 18>    N        3.13949        -3.88453         3.67309
| 19>    C        1.09733        -2.99909         1.18592
| 20>    N       -0.02119        -2.74490         1.15605
| 21>    C        4.80133        -3.07032         0.32582
| 22>    C        5.30826        -2.47485        -0.84483
| 23>    C        6.65845        -2.24561        -1.01217
| 24>    C        7.52503        -2.62670         0.00609
| 25>    C        7.02813        -3.22870         1.16906
| 26>    C        5.66587        -3.44985         1.33874
| 27>   Cl        8.11090        -3.70514         2.41256
| 28>   Cl        9.21023        -2.35697        -0.16490
| 29>    C        4.19456        -2.18154        -1.77647
| 30>    O        4.24900        -1.63358        -2.84965
| 31>    C        2.99035        -2.77037        -1.12725
| 32>    C        1.83986        -2.95223        -1.83082
| 33>    C        0.77164        -3.83549        -1.49557
| 34>    C        0.97184        -5.02503        -0.86629
| 35>    C       -0.08545        -5.86547        -0.44684
| 36>    C       -1.38682        -5.60725        -0.76007
| 37>    C       -1.65776        -4.58181        -1.84381
| 38>    C       -0.64261        -3.42116        -1.86017
| 39>    N       -0.61037        -2.71854        -3.11930
| 40>    C       -0.96771        -3.32009        -4.16472
| 41>    C       -1.42153        -4.72439        -4.15206
| 42>    N       -1.70811        -5.32707        -3.08687
| 43>    F       -1.45705        -5.37923        -5.30603
| 44>    F       -0.91866        -2.68836        -5.32919
| 45>    C       -2.49131        -6.35452        -0.24627
| 46>    S       -3.92141        -6.36879        -1.31466
| 47>    C       -4.45454        -8.03054        -1.11880
| 48>    C       -4.99558        -8.78299        -2.11364
| 49>    S       -5.43544       -10.34991        -1.56022
| 50>    C       -4.86360        -9.99733         0.02203
| 51>    C       -4.37809        -8.73031         0.11115
| 52>    S       -3.76876        -8.00282         1.59098
| 53>    C       -2.47138        -6.95835         0.99053
| 54>    C       -1.46254        -6.68073         1.96370
| 55>    C       -1.21107        -7.46283         3.04590
| 56>    C       -0.23068        -7.24545         4.05162
| 57>    C        0.00252        -8.21677         4.98713
| 58>    C        1.00311        -8.13249         5.97866
| 59>    C        1.69369        -6.97833         6.21717
| 60>    C        1.27404        -5.73489         5.45337
| 61>    C        0.67129        -6.02426         4.06352
| 62>    N       -0.01307        -4.86327         3.53520
| 63>    C       -0.57879        -4.08601         4.34880
| 64>    C       -0.48562        -4.26507         5.81177
| 65>    N        0.37151        -5.02183         6.33156
| 66>    F       -1.34420        -3.60668         6.57854
| 67>    F       -1.24647        -3.03847         3.89089
| 68>    C        2.64005        -6.74081         7.24336
| 69>    C        3.38080        -7.57953         8.03426
| 70>    C        4.27696        -7.10387         9.08064
| 71>    C        4.41518        -5.82139         9.54170
| 72>    C        5.29929        -5.44838        10.57856
| 73>    N        5.99634        -5.07079        11.40821
| 74>    C        3.72456        -4.67451         9.08892
| 75>    N        3.23054        -3.67728         8.80521
| 76>    C        5.00698        -8.25710         9.60248
| 77>    C        4.56997        -9.40923         8.92957
| 78>    C        3.53303        -9.05162         7.94019
| 79>    O        2.96732        -9.83315         7.20509
| 80>    C        5.08373       -10.65952         9.20836
| 81>    C        6.06330       -10.76543        10.18688
| 82>    C        6.50868        -9.62286        10.86195
| 83>    C        5.98650        -8.36596        10.57702
| 84>   Cl        7.72432        -9.76456        12.06606
| 85>   Cl        6.72883       -12.30157        10.56650
| 86>    H        7.03008        -1.77898        -1.91068
| 87>    H        5.31576        -3.91682         2.24500
| 88>    H        1.74816        -2.39189        -2.75517
| 89>    H        1.98307        -5.34533        -0.65769
| 90>    H        0.17008        -6.73889         0.13302
| 91>    H       -2.66056        -4.15795        -1.69820
| 92>    H       -0.94017        -2.68009        -1.10345
| 93>    H       -5.17220        -8.49472        -3.12949
| 94>    H       -4.93214       -10.72949         0.80035
| 95>    H       -0.90184        -5.76661         1.82911
| 96>    H       -1.76520        -8.38812         3.15126
| 97>    H       -0.59199        -9.11838         4.95495
| 98>    H        1.20095        -9.01183         6.56864
| 99>    H        2.14472        -5.07914         5.31191
|100>    H        1.49337        -6.22874         3.36201
|101>    H        2.80864        -5.68334         7.40890
|102>    H        4.73024       -11.52935         8.67755
|103>    H        6.35844        -7.51194        11.11815
|104> *
|105>
|106>                          ****END OF INPUT****

CARTESIAN COORDINATES (ANGSTROEM)
---------------------------------
  C      3.346150   -3.132340    0.230460
  C      2.482760   -3.247060    1.290330
  C      2.878530   -3.566730    2.600340
  N      3.139490   -3.884530    3.673090
  C      1.097330   -2.999090    1.185920
  N     -0.021190   -2.744900    1.156050
  C      4.801330   -3.070320    0.325820
  C      5.308260   -2.474850   -0.844830
  C      6.658450   -2.245610   -1.012170
  C      7.525030   -2.626700    0.006090
  C      7.028130   -3.228700    1.169060
  C      5.665870   -3.449850    1.338740
  Cl     8.110900   -3.705140    2.412560
  Cl     9.210230   -2.356970   -0.164900
  C      4.194560   -2.181540   -1.776470
  O      4.249000   -1.633580   -2.849650
  C      2.990350   -2.770370   -1.127250
  C      1.839860   -2.952230   -1.830820
  C      0.771640   -3.835490   -1.495570
  C      0.971840   -5.025030   -0.866290
  C     -0.085450   -5.865470   -0.446840
  C     -1.386820   -5.607250   -0.760070
  C     -1.657760   -4.581810   -1.843810
  C     -0.642610   -3.421160   -1.860170
  N     -0.610370   -2.718540   -3.119300
  C     -0.967710   -3.320090   -4.164720
  C     -1.421530   -4.724390   -4.152060
  N     -1.708110   -5.327070   -3.086870
  F     -1.457050   -5.379230   -5.306030
  F     -0.918660   -2.688360   -5.329190
  C     -2.491310   -6.354520   -0.246270
  S     -3.921410   -6.368790   -1.314660
  C     -4.454540   -8.030540   -1.118800
  C     -4.995580   -8.782990   -2.113640
  S     -5.435440  -10.349910   -1.560220
  C     -4.863600   -9.997330    0.022030
  C     -4.378090   -8.730310    0.111150
  S     -3.768760   -8.002820    1.590980
  C     -2.471380   -6.958350    0.990530
  C     -1.462540   -6.680730    1.963700
  C     -1.211070   -7.462830    3.045900
  C     -0.230680   -7.245450    4.051620
  C      0.002520   -8.216770    4.987130
  C      1.003110   -8.132490    5.978660
  C      1.693690   -6.978330    6.217170
  C      1.274040   -5.734890    5.453370
  C      0.671290   -6.024260    4.063520
  N     -0.013070   -4.863270    3.535200
  C     -0.578790   -4.086010    4.348800
  C     -0.485620   -4.265070    5.811770
  N      0.371510   -5.021830    6.331560
  F     -1.344200   -3.606680    6.578540
  F     -1.246470   -3.038470    3.890890
  C      2.640050   -6.740810    7.243360
  C      3.380800   -7.579530    8.034260
  C      4.276960   -7.103870    9.080640
  C      4.415180   -5.821390    9.541700
  C      5.299290   -5.448380   10.578560
  N      5.996340   -5.070790   11.408210
  C      3.724560   -4.674510    9.088920
  N      3.230540   -3.677280    8.805210
  C      5.006980   -8.257100    9.602480
  C      4.569970   -9.409230    8.929570
  C      3.533030   -9.051620    7.940190
  O      2.967320   -9.833150    7.205090
  C      5.083730  -10.659520    9.208360
  C      6.063300  -10.765430   10.186880
  C      6.508680   -9.622860   10.861950
  C      5.986500   -8.365960   10.577020
  Cl     7.724320   -9.764560   12.066060
  Cl     6.728830  -12.301570   10.566500
  H      7.030080   -1.778980   -1.910680
  H      5.315760   -3.916820    2.245000
  H      1.748160   -2.391890   -2.755170
  H      1.983070   -5.345330   -0.657690
  H      0.170080   -6.738890    0.133020
  H     -2.660560   -4.157950   -1.698200
  H     -0.940170   -2.680090   -1.103450
  H     -5.172200   -8.494720   -3.129490
  H     -4.932140  -10.729490    0.800350
  H     -0.901840   -5.766610    1.829110
  H     -1.765200   -8.388120    3.151260
  H     -0.591990   -9.118380    4.954950
  H      1.200950   -9.011830    6.568640
  H      2.144720   -5.079140    5.311910
  H      1.493370   -6.228740    3.362010
  H      2.808640   -5.683340    7.408900
  H      4.730240  -11.529350    8.677550
  H      6.358440   -7.511940   11.118150

 Total Charge           Charge          ....    0
 Multiplicity           Mult            ....    1
 Number of Electrons    NEL             ....  542
 Basis Dimension        Dim             .... 1112

ORBITAL ENERGIES
----------------

  NO   OCC          E(Eh)            E(eV)
   0   2.0000    -101.609215     -2764.9273
   1   2.0000    -101.608885     -2764.9183
   2   2.0000    -101.600592     -2764.6927
   3   2.0000    -101.598444     -2764.6342
   4   2.0000     -88.970997     -2421.0239
   5   2.0000     -88.957410     -2420.6542
   6   2.0000     -88.949275     -2420.4328
   7   2.0000     -24.814179      -675.2281
   8   2.0000     -24.811677      -675.1601
   9   2.0000     -24.807792      -675.0543
  10   2.0000     -24.802143      -674.9006
  11   2.0000     -19.229302      -523.2559
  12   2.0000     -19.223433      -523.0962
  13   2.0000     -14.442825      -393.0093
  14   2.0000     -14.439210      -392.9109
  15   2.0000     -14.438817      -392.9002
  16   2.0000     -14.435532      -392.8108
  17   2.0000     -14.431002      -392.6875
  18   2.0000     -14.427826      -392.6011
  19   2.0000     -14.415787      -392.2735
  20   2.0000     -14.415258      -392.2591
  21   2.0000     -10.429385      -283.7980
  22   2.0000     -10.425001      -283.6787
  23   2.0000     -10.422824      -283.6195
  24   2.0000     -10.415531      -283.4210
  25   2.0000     -10.380935      -282.4796
  26   2.0000     -10.374726      -282.3106
  27   2.0000     -10.367128      -282.1039
  28   2.0000     -10.366666      -282.0913
  29   2.0000     -10.360594      -281.9261
  30   2.0000     -10.358292      -281.8635
  31   2.0000     -10.356001      -281.8011
  32   2.0000     -10.355590      -281.7899
  33   2.0000     -10.345200      -281.5072
  34   2.0000     -10.343460      -281.4599
  35   2.0000     -10.343376      -281.4576
  36   2.0000     -10.341031      -281.3937
  37   2.0000     -10.338781      -281.3325
  38   2.0000     -10.335912      -281.2545
  39   2.0000     -10.332042      -281.1492
  40   2.0000     -10.330992      -281.1206
  41   2.0000     -10.328421      -281.0506
  42   2.0000     -10.326825      -281.0072
  43   2.0000     -10.326575      -281.0004
  44   2.0000     -10.322798      -280.8976
  45   2.0000     -10.321600      -280.8650
  46   2.0000     -10.319840      -280.8171
  47   2.0000     -10.318718      -280.7866
  48   2.0000     -10.317989      -280.7668
  49   2.0000     -10.317805      -280.7617
  50   2.0000     -10.316303      -280.7209
  51   2.0000     -10.315063      -280.6871
  52   2.0000     -10.315025      -280.6861
  53   2.0000     -10.314481      -280.6713
  54   2.0000     -10.313503      -280.6447
  55   2.0000     -10.312576      -280.6195
  56   2.0000     -10.312123      -280.6071
  57   2.0000     -10.311649      -280.5942
  58   2.0000     -10.310476      -280.5623
  59   2.0000     -10.310125      -280.5528
  60   2.0000     -10.309133      -280.5258
  61   2.0000     -10.308027      -280.4957
  62   2.0000     -10.307988      -280.4946
  63   2.0000     -10.301090      -280.3069
  64   2.0000     -10.300683      -280.2958
  65   2.0000     -10.298937      -280.2483
  66   2.0000     -10.297128      -280.1991
  67   2.0000     -10.296179      -280.1733
  68   2.0000     -10.295960      -280.1673
  69   2.0000     -10.293234      -280.0931
  70   2.0000     -10.291243      -280.0390
  71   2.0000      -9.564217      -260.2556
  72   2.0000      -9.563842      -260.2454
  73   2.0000      -9.555588      -260.0208
  74   2.0000      -9.553502      -259.9640
  75   2.0000      -8.066951      -219.5129
  76   2.0000      -8.052622      -219.1230
  77   2.0000      -8.044726      -218.9081
  78   2.0000      -7.334628      -199.5854
  79   2.0000      -7.334283      -199.5760
  80   2.0000      -7.325952      -199.3493
  81   2.0000      -7.324484      -199.3093
  82   2.0000      -7.324083      -199.2984
  83   2.0000      -7.323867      -199.2926
  84   2.0000      -7.323705      -199.2881
  85   2.0000      -7.323351      -199.2785
  86   2.0000      -7.315868      -199.0749
  87   2.0000      -7.315141      -199.0551
  88   2.0000      -7.313771      -199.0178
  89   2.0000      -7.313038      -198.9979
  90   2.0000      -6.036280      -164.2555
  91   2.0000      -6.031940      -164.1374
  92   2.0000      -6.029167      -164.0620
  93   2.0000      -6.022877      -163.8908
  94   2.0000      -6.018727      -163.7779
  95   2.0000      -6.015154      -163.6806
  96   2.0000      -6.012662      -163.6128
  97   2.0000      -6.011195      -163.5729
  98   2.0000      -6.004177      -163.3820
  99   2.0000      -1.343488       -36.5582
 100   2.0000      -1.336136       -36.3581
 101   2.0000      -1.328676       -36.1551
 102   2.0000      -1.320454       -35.9314
 103   2.0000      -1.145355       -31.1667
 104   2.0000      -1.138629       -30.9837
 105   2.0000      -1.094399       -29.7801
 106   2.0000      -1.086684       -29.5702
 107   2.0000      -1.043342       -28.3908
 108   2.0000      -1.032220       -28.0881
 109   2.0000      -1.030894       -28.0520
 110   2.0000      -1.026715       -27.9383
 111   2.0000      -1.017934       -27.6994
 112   2.0000      -1.015422       -27.6310
 113   2.0000      -1.013609       -27.5817
 114   2.0000      -1.010524       -27.4978
 115   2.0000      -1.003418       -27.3044
 116   2.0000      -0.993785       -27.0423
 117   2.0000      -0.990675       -26.9576
 118   2.0000      -0.982917       -26.7465
 119   2.0000      -0.971690       -26.4410
 120   2.0000      -0.966262       -26.2933
 121   2.0000      -0.961702       -26.1692
 122   2.0000      -0.959249       -26.1025
 123   2.0000      -0.944487       -25.7008
 124   2.0000      -0.934529       -25.4298
 125   2.0000      -0.923935       -25.1416
 126   2.0000      -0.915432       -24.9102
 127   2.0000      -0.905290       -24.6342
 128   2.0000      -0.896513       -24.3954
 129   2.0000      -0.888924       -24.1888
 130   2.0000      -0.877990       -23.8913
 131   2.0000      -0.872617       -23.7451
 132   2.0000      -0.872182       -23.7333
 133   2.0000      -0.864140       -23.5144
 134   2.0000      -0.860667       -23.4200
 135   2.0000      -0.858585       -23.3633
 136   2.0000      -0.843022       -22.9398
 137   2.0000      -0.824911       -22.4470
 138   2.0000      -0.808361       -21.9966
 139   2.0000      -0.791422       -21.5357
 140   2.0000      -0.788001       -21.4426
 141   2.0000      -0.785095       -21.3635
 142   2.0000      -0.780514       -21.2389
 143   2.0000      -0.776991       -21.1430
 144   2.0000      -0.773699       -21.0534
 145   2.0000      -0.769547       -20.9404
 146   2.0000      -0.765860       -20.8401
 147   2.0000      -0.754456       -20.5298
 148   2.0000      -0.740686       -20.1551
 149   2.0000      -0.728928       -19.8351
 150   2.0000      -0.717979       -19.5372
 151   2.0000      -0.704601       -19.1732
 152   2.0000      -0.699888       -19.0449
 153   2.0000      -0.693402       -18.8684
 154   2.0000      -0.692530       -18.8447
 155   2.0000      -0.685282       -18.6475
 156   2.0000      -0.679727       -18.4963
 157   2.0000      -0.679294       -18.4845
 158   2.0000      -0.673702       -18.3324
 159   2.0000      -0.670376       -18.2419
 160   2.0000      -0.666360       -18.1326
 161   2.0000      -0.664078       -18.0705
 162   2.0000      -0.655404       -17.8345
 163   2.0000      -0.650650       -17.7051
 164   2.0000      -0.643783       -17.5182
 165   2.0000      -0.635755       -17.2998
 166   2.0000      -0.632875       -17.2214
 167   2.0000      -0.630677       -17.1616
 168   2.0000      -0.624109       -16.9829
 169   2.0000      -0.618306       -16.8250
 170   2.0000      -0.614959       -16.7339
 171   2.0000      -0.608872       -16.5683
 172   2.0000      -0.607457       -16.5297
 173   2.0000      -0.603416       -16.4198
 174   2.0000      -0.597942       -16.2708
 175   2.0000      -0.595502       -16.2044
 176   2.0000      -0.589807       -16.0495
 177   2.0000      -0.586496       -15.9594
 178   2.0000      -0.582897       -15.8614
 179   2.0000      -0.576020       -15.6743
 180   2.0000      -0.572131       -15.5685
 181   2.0000      -0.567871       -15.4525
 182   2.0000      -0.566975       -15.4282
 183   2.0000      -0.565940       -15.4000
 184   2.0000      -0.563167       -15.3246
 185   2.0000      -0.560219       -15.2443
 186   2.0000      -0.557882       -15.1807
 187   2.0000      -0.555937       -15.1278
 188   2.0000      -0.553488       -15.0612
 189   2.0000      -0.549535       -14.9536
 190   2.0000      -0.548384       -14.9223
 191   2.0000      -0.545611       -14.8468
 192   2.0000      -0.543323       -14.7846
 193   2.0000      -0.540289       -14.7020
 194   2.0000      -0.538241       -14.6463
 195   2.0000      -0.536309       -14.5937
 196   2.0000      -0.534602       -14.5473
 197   2.0000      -0.533325       -14.5125
 198   2.0000      -0.524890       -14.2830
 199   2.0000      -0.522927       -14.2296
 200   2.0000      -0.519390       -14.1333
 201   2.0000      -0.515143       -14.0177
 202   2.0000      -0.513291       -13.9674
 203   2.0000      -0.509406       -13.8616
 204   2.0000      -0.508222       -13.8294
 205   2.0000      -0.508141       -13.8272
 206   2.0000      -0.507221       -13.8022
 207   2.0000      -0.505243       -13.7484
 208   2.0000      -0.503306       -13.6957
 209   2.0000      -0.499233       -13.5848
 210   2.0000      -0.497608       -13.5406
 211   2.0000      -0.494549       -13.4574
 212   2.0000      -0.491527       -13.3751
 213   2.0000      -0.489506       -13.3201
 214   2.0000      -0.486380       -13.2351
 215   2.0000      -0.481743       -13.1089
 216   2.0000      -0.479320       -13.0430
 217   2.0000      -0.475491       -12.9388
 218   2.0000      -0.472946       -12.8695
 219   2.0000      -0.468526       -12.7492
 220   2.0000      -0.464576       -12.6418
 221   2.0000      -0.463915       -12.6238
 222   2.0000      -0.460382       -12.5276
 223   2.0000      -0.455565       -12.3966
 224   2.0000      -0.454182       -12.3589
 225   2.0000      -0.448435       -12.2025
 226   2.0000      -0.447838       -12.1863
 227   2.0000      -0.447640       -12.1809
 228   2.0000      -0.446062       -12.1380
 229   2.0000      -0.442764       -12.0482
 230   2.0000      -0.442369       -12.0375
 231   2.0000      -0.439251       -11.9526
 232   2.0000      -0.437576       -11.9070
 233   2.0000      -0.437282       -11.8991
 234   2.0000      -0.435928       -11.8622
 235   2.0000      -0.432053       -11.7568
 236   2.0000      -0.428241       -11.6530
 237   2.0000      -0.427149       -11.6233
 238   2.0000      -0.426349       -11.6016
 239   2.0000      -0.425208       -11.5705
 240   2.0000      -0.420795       -11.4504
 241   2.0000      -0.418506       -11.3881
 242   2.0000      -0.416005       -11.3201
 243   2.0000      -0.412656       -11.2289
 244   2.0000      -0.410395       -11.1674
 245   2.0000      -0.409790       -11.1510
 246   2.0000      -0.405340       -11.0299
 247   2.0000      -0.403886       -10.9903
 248   2.0000      -0.401200       -10.9172
 249   2.0000      -0.394117       -10.7245
 250   2.0000      -0.390774       -10.6335
 251   2.0000      -0.382121       -10.3980
 252   2.0000      -0.381349       -10.3770
 253   2.0000      -0.377242       -10.2653
 254   2.0000      -0.373330       -10.1588
 255   2.0000      -0.363935        -9.9032
 256   2.0000      -0.357981        -9.7412
 257   2.0000      -0.356876        -9.7111
 258   2.0000      -0.353014        -9.6060
 259   2.0000      -0.351560        -9.5664
 260   2.0000      -0.348838        -9.4924
 261   2.0000      -0.345493        -9.4013
 262   2.0000      -0.343428        -9.3452
 263   2.0000      -0.339919        -9.2497
 264   2.0000      -0.330762        -9.0005
 265   2.0000      -0.322248        -8.7688
 266   2.0000      -0.312301        -8.4982
 267   2.0000      -0.308167        -8.3857
 268   2.0000      -0.290335        -7.9004
 269   2.0000      -0.284528        -7.7424
 270   2.0000      -0.250389        -6.8134
 271   0.0000      -0.116293        -3.1645
 272   0.0000      -0.098675        -2.6851
 273   0.0000      -0.078122        -2.1258
 274   0.0000      -0.069709        -1.8969
 275   0.0000      -0.048803        -1.3280

MULLIKEN ATOMIC CHARGES
-----------------------
   0 C :    0.254559
   1 C :   -0.350670
   2 C :   -0.140215
   3 N :    0.140742
   4 C :   -0.148175
   5 N :    0.157981
   6 C :    0.016746
   7 C :    0.001721
   8 C :   -0.030396
   9 C :    0.057136
  10 C :    0.052760
  11 C :   -0.016135
  12 Cl:   -0.032172
  13 Cl:   -0.035005
  14 C :    0.141770
  15 O :   -0.123666
  16 C :   -0.114991
  17 C :    0.073625
  18 C :   -0.126699
  19 C :    0.050243
  20 C :   -0.069130
  21 C :    0.078839
  22 C :    0.026834
  23 C :    0.164171
  24 N :   -0.095338
  25 C :    0.117765
  26 C :    0.115130
  27 N :   -0.060463
  28 F :   -0.141684
  29 F :   -0.137252
  30 C :   -0.061687
  31 S :    0.090420
  32 C :    0.004220
  33 C :   -0.113909
  34 S :    0.131645
  35 C :   -0.123138
  36 C :   -0.006576
  37 S :    0.112387
  38 C :   -0.021716
  39 C :   -0.058430
  40 C :   -0.029370
  41 C :    0.036058
  42 C :   -0.013561
  43 C :    0.025033
  44 C :    0.013146
  45 C :    0.031982
  46 C :    0.125600
  47 N :   -0.136118
  48 C :    0.150035
  49 C :    0.126399
  50 N :   -0.074587
  51 F :   -0.139196
  52 F :   -0.131928
  53 C :   -0.003005
  54 C :   -0.059965
  55 C :    0.312748
  56 C :   -0.346084
  57 C :   -0.195092
  58 N :    0.153816
  59 C :   -0.191168
  60 N :    0.168468
  61 C :    0.029228
  62 C :   -0.016448
  63 C :    0.152269
  64 O :   -0.153851
  65 C :   -0.030720
  66 C :    0.061005
  67 C :    0.045293
  68 C :   -0.009228
  69 Cl:   -0.035208
  70 Cl:   -0.044330
  71 H :    0.005301
  72 H :   -0.000274
  73 H :    0.043303
  74 H :   -0.001306
  75 H :    0.012394
  76 H :    0.050573
  77 H :    0.053124
  78 H :    0.032110
  79 H :    0.029389
  80 H :    0.083428
  81 H :   -0.002427
  82 H :   -0.012017
  83 H :    0.013320
  84 H :    0.051321
  85 H :    0.027142
  86 H :    0.015749
  87 H :   -0.003076
  88 H :   -0.000522
Sum of atomic charges:   -0.0000000

LOEWDIN ATOMIC CHARGES
----------------------
   0 C :    0.072982
   1 C :   -0.142909
   2 C :   -0.000249
   3 N :   -0.059453
   4 C :   -0.007570
   5 N :   -0.044449
   6 C :   -0.014984
   7 C :   -0.043072
   8 C :    0.003234
   9 C :   -0.132691
  10 C :   -0.129440
  11 C :   -0.015781
  12 Cl:    0.165872
  13 Cl:    0.165593
  14 C :    0.082819
  15 O :   -0.126814
  16 C :   -0.092188
  17 C :    0.083753
  18 C :   -0.042423
  19 C :    0.016787
  20 C :   -0.026328
  21 C :    0.002559
  22 C :    0.008486
  23 C :    0.023988
  24 N :   -0.068379
  25 C :    0.052712
  26 C :    0.043926
  27 N :   -0.068395
  28 F :   -0.030462
  29 F :   -0.025946
  30 C :   -0.167681
  31 S :    0.365180
  32 C :   -0.214412
  33 C :   -0.196923
  34 S :    0.455588
  35 C :   -0.200010
  36 C :   -0.219226
  37 S :    0.382642
  38 C :   -0.148035
  39 C :   -0.029468
  40 C :   -0.037463
  41 C :    0.003830
  42 C :   -0.031547
  43 C :    0.042864
  44 C :   -0.044279
  45 C :    0.014722
  46 C :    0.019870
  47 N :   -0.073740
  48 C :    0.064076
  49 C :    0.045950
  50 N :   -0.059288
  51 F :   -0.028080
  52 F :   -0.017579
  53 C :    0.081039
  54 C :   -0.095994
  55 C :    0.073029
  56 C :   -0.132478
  57 C :   -0.018705
  58 N :   -0.048593
  59 C :   -0.026871
  60 N :   -0.037723
  61 C :   -0.013516
  62 C :   -0.044201
  63 C :    0.085093
  64 O :   -0.140930
  65 C :   -0.000540
  66 C :   -0.135441
  67 C :   -0.130905
  68 C :   -0.012659
  69 Cl:    0.161774
  70 Cl:    0.157745
  71 H :    0.048054
  72 H :    0.042876
  73 H :    0.048553
  74 H :    0.034889
  75 H :    0.037788
  76 H :    0.034715
  77 H :    0.050110
  78 H :    0.029004
  79 H :    0.027140
  80 H :    0.038540
  81 H :    0.022614
  82 H :    0.034083
  83 H :    0.035873
  84 H :    0.038072
  85 H :    0.042494
  86 H :    0.047919
  87 H :    0.044695
  88 H :    0.044291

  Mayer bond orders larger than 0.100000
B(  0-C ,  1-C ) :   1.6415 B(  0-C ,  6-C ) :   1.0087 B(  0-C , 16-C ) :   1.0438
B(  1-C ,  2-C ) :   1.1495 B(  1-C ,  4-C ) :   1.1793 B(  2-C ,  3-N ) :   2.8930
B(  4-C ,  5-N ) :   2.8940 B(  6-C ,  7-C ) :   1.3300 B(  6-C , 11-C ) :   1.3423
B(  7-C ,  8-C ) :   1.3465 B(  7-C , 14-C ) :   0.9139 B(  8-C ,  9-C ) :   1.3452
B(  8-C , 71-H ) :   1.0159 B(  9-C , 10-C ) :   1.4039 B(  9-C , 13-Cl) :   1.0549
B( 10-C , 11-C ) :   1.3605 B( 10-C , 12-Cl) :   1.0735 B( 11-C , 72-H ) :   0.9897
B( 14-C , 15-O ) :   2.2903 B( 14-C , 16-C ) :   0.9388 B( 16-C , 17-C ) :   1.6500
B( 17-C , 18-C ) :   1.1034 B( 17-C , 73-H ) :   0.9372 B( 18-C , 19-C ) :   1.6745
B( 18-C , 23-C ) :   0.9376 B( 19-C , 20-C ) :   1.1390 B( 19-C , 74-H ) :   0.9768
B( 20-C , 21-C ) :   1.6355 B( 20-C , 75-H ) :   0.9783 B( 21-C , 22-C ) :   0.9849
B( 21-C , 30-C ) :   1.1791 B( 22-C , 23-C ) :   0.9864 B( 22-C , 27-N ) :   1.0078
B( 22-C , 76-H ) :   0.8966 B( 23-C , 24-N ) :   1.0356 B( 23-C , 77-H ) :   0.8583
B( 24-N , 25-C ) :   1.9246 B( 25-C , 26-C ) :   0.9274 B( 25-C , 29-F ) :   1.1700
B( 26-C , 27-N ) :   1.9541 B( 26-C , 28-F ) :   1.1681 B( 30-C , 31-S ) :   1.0195
B( 30-C , 38-C ) :   1.5760 B( 31-S , 32-C ) :   0.9955 B( 32-C , 33-C ) :   1.5935
B( 32-C , 36-C ) :   1.2616 B( 33-C , 34-S ) :   1.1771 B( 33-C , 78-H ) :   0.9700
B( 34-S , 35-C ) :   1.1810 B( 35-C , 36-C ) :   1.5898 B( 35-C , 79-H ) :   0.9709
B( 36-C , 37-S ) :   0.9771 B( 37-S , 38-C ) :   1.0509 B( 38-C , 39-C ) :   1.1742
B( 39-C , 40-C ) :   1.6088 B( 39-C , 80-H ) :   0.9329 B( 40-C , 41-C ) :   1.1748
B( 40-C , 81-H ) :   0.9694 B( 41-C , 42-C ) :   1.6074 B( 41-C , 46-C ) :   0.9300
B( 42-C , 43-C ) :   1.1507 B( 42-C , 82-H ) :   0.9845 B( 43-C , 44-C ) :   1.5972
B( 43-C , 83-H ) :   0.9600 B( 44-C , 45-C ) :   0.9720 B( 44-C , 53-C ) :   1.2189
B( 45-C , 46-C ) :   0.9873 B( 45-C , 50-N ) :   1.0167 B( 45-C , 84-H ) :   0.8825
B( 46-C , 47-N ) :   1.0001 B( 46-C , 85-H ) :   0.8757 B( 47-N , 48-C ) :   1.8814
B( 48-C , 49-C ) :   0.9339 B( 48-C , 52-F ) :   1.1680 B( 49-C , 50-N ) :   1.9539
B( 49-C , 51-F ) :   1.1722 B( 53-C , 54-C ) :   1.5338 B( 53-C , 86-H ) :   0.9326
B( 54-C , 55-C ) :   1.0857 B( 54-C , 63-C ) :   0.9438 B( 55-C , 56-C ) :   1.6297
B( 55-C , 61-C ) :   0.9828 B( 56-C , 57-C ) :   1.1457 B( 56-C , 59-C ) :   1.1381
B( 57-C , 58-N ) :   2.9688 B( 59-C , 60-N ) :   2.9726 B( 61-C , 62-C ) :   1.3318
B( 61-C , 68-C ) :   1.3408 B( 62-C , 63-C ) :   0.9491 B( 62-C , 65-C ) :   1.3423
B( 63-C , 64-O ) :   2.1848 B( 65-C , 66-C ) :   1.3418 B( 65-C , 87-H ) :   1.0169
B( 66-C , 67-C ) :   1.4064 B( 66-C , 70-Cl) :   1.0455 B( 67-C , 68-C ) :   1.3614
B( 67-C , 69-Cl) :   1.0769 B( 68-C , 88-H ) :   0.9852

-----------------------------------------------------------------------------
         ABSORPTION SPECTRUM VIA TRANSITION ELECTRIC DIPOLE MOMENTS
-----------------------------------------------------------------------------
State   Energy  Wavelength   fosc         T2         TX        TY        TZ
        (cm-1)    (nm)                  (au**2)     (au)      (au)      (au)
-----------------------------------------------------------------------------
   0   13173.8    759.1   0.341201625   8.52660   0.48850   1.62200  -2.37846
   1   18192.9    549.7   0.876930077  15.86864  -2.46370  -0.02357  -3.13022
   2   21267.4    470.2   0.028810480   0.44598  -0.44054  -0.35790  -0.35186
   3   21883.4    457.0   0.472098174   7.10221  -2.02029  -0.63189  -1.61906
   4   23336.5    428.5   0.262989543   3.71003   1.58139   1.09927  -0.02895
   5   24845.6    402.5   0.040447588   0.53594  -0.55068   0.37965  -0.29760
   6   25925.3    385.7   0.027884768   0.35409  -0.55858  -0.05175  -0.19850
   7   26814.6    372.9   0.019781050   0.24286   0.46570   0.05876  -0.15009
   8   26956.8    371.0   0.034742109   0.42429  -0.53463  -0.01958   0.37159
   9   27096.8    369.0   0.014156958   0.17200   0.07976   0.24173   0.32742
  10   27506.3    363.6   0.010453026   0.12511  -0.14268  -0.06597   0.31686
  11   27927.5    358.1   0.122205918   1.44057   0.75655   0.63948  -0.67770
  12   28585.3    349.8   0.047895598   0.55160  -0.05647   0.72254   0.16232
  13   29029.8    344.5   0.314250633   3.56375   1.59200  -0.50829   0.87802
  14   29294.0    341.4   0.066273769   0.74480  -0.67291  -0.37718   0.38695
  15   29643.5    337.3   0.060388346   0.67065  -0.71986   0.12162  -0.37102
  16   30566.3    327.2   0.029447161   0.31716   0.07161   0.16218   0.53454
  17   31400.9    318.5   0.017509315   0.18357   0.38583   0.18623  -0.00514
  18   31676.3    315.7   0.181418236   1.88548  -1.22257  -0.34867   0.51887
  19   31864.1    313.8   0.008096578   0.08365  -0.28508  -0.01402   0.04673
  20   32210.8    310.5   0.039736662   0.40613   0.26082   0.52911  -0.24114
  21   32431.1    308.3   0.034639302   0.35163  -0.48542  -0.09571   0.32686
  22   32464.0    308.0   0.011661270   0.11825   0.00651   0.18758  -0.28814
  23   32692.5    305.9   0.009151149   0.09215   0.29962   0.04805  -0.00854
  24   32778.6    305.1   0.028784239   0.28909  -0.21356  -0.28554   0.40244
  25   33325.5    300.1   0.004110554   0.04061   0.04735   0.11398  -0.15929
  26   33386.2    299.5   0.024933635   0.24586  -0.17355  -0.43826  -0.15385
  27   33809.8    295.8   0.053547406   0.52140  -0.49304  -0.51776  -0.10116
  28   34123.9    293.0   0.034928812   0.33698   0.41545  -0.20433  -0.35019
  29   34432.7    290.4   0.206090387   1.97044   1.27186   0.51893  -0.28901
  30   34567.2    289.3   0.200993863   1.91423   1.37978  -0.07724  -0.06685
  31   34700.1    288.2   0.274234111   2.60175  -0.82886   1.32887  -0.38581
  32   35169.3    284.3   0.158367733   1.48245  -0.30404  -1.10179   0.41961
  33   35314.3    283.2   0.095806827   0.89314   0.53668   0.63064  -0.45542
  34   35570.3    281.1   0.379497930   3.51235  -0.04296  -1.62926  -0.92521
  35   36062.9    277.3   0.079381381   0.72466  -0.08170   0.06811   0.84460
  36   36344.9    275.1   0.040293741   0.36498   0.45427   0.25986  -0.30182
  37   36641.8    272.9   0.019854764   0.17839   0.25025  -0.20728  -0.26982
  38   36780.3    271.9   0.027063670   0.24224   0.02357   0.47016  -0.14365
  39   37089.1    269.6   0.016116592   0.14305  -0.09722  -0.34361  -0.12465
  40   37153.6    269.2   0.006330030   0.05609   0.01561  -0.21701   0.09356
  41   37289.3    268.2   0.012515024   0.11049  -0.01306  -0.28211  -0.17530
  42   37717.4    265.1   0.095907947   0.83712   0.49048   0.73728   0.23016
  43   38107.8    262.4   0.026728295   0.23090   0.46022  -0.00954   0.13788
  44   38288.7    261.2   0.016226803   0.13952  -0.10180   0.02833  -0.35827
  45   38495.6    259.8   0.010184699   0.08710  -0.18416  -0.20979   0.09577
  46   38944.8    256.8   0.034741089   0.29368  -0.16763  -0.13831  -0.49643
  47   39074.0    255.9   0.035410399   0.29834  -0.37779  -0.15743   0.36171
  48   39157.4    255.4   0.003563763   0.02996   0.02548   0.11764  -0.12439
  49   39387.7    253.9   0.025153556   0.21024   0.35927   0.17924   0.22144
  50   39516.7    253.1   0.005080383   0.04232  -0.12863  -0.13566   0.08588
  51   39994.2    250.0   0.048558266   0.39971   0.02344   0.36593  -0.51503
  52   40080.0    249.5   0.118160532   0.97055   0.72222  -0.06563   0.66681
  53   40262.6    248.4   0.006169171   0.05044   0.22151   0.03537  -0.01119

FINAL SINGLE POINT ENERGY     -5934.659628417405

DIPOLE MOMENT
-------------
                                X             Y             Z
Electronic contribution:     34.14498       7.29905      11.84353
Nuclear contribution   :    -34.78126      -9.82762     -14.30766
                        -----------------------------------------
Total Dipole Moment    :     -0.63628      -2.52856      -2.46413
                        -----------------------------------------
Magnitude (a.u.)       :      3.58754
Magnitude (Debye)      :      9.11879

Rotational constants in cm-1:     0.000953     0.000456     0.000351
Rotational constants in MHz :    28.565295    13.671950    10.526704

                             ****ORCA TERMINATED NORMALLY****
TOTAL RUN TIME: 0 days 0 hours 10 minutes 10 seconds 10 msec
