                         Program Version 4.2.0 -  RELEASE  -
|  1> # ORCA input file
|  2> # SCF done       -182.456165704172          0.023694320921
|  3> ! CAM-B3LYP def2-SVP def2/J RIJCOSX Grid4 TightSCF
|  4> %maxcore 5000
|  5> %tddft
|  6>     Mode sTDDFT
|  7>     Ethresh 5.0
|  8>     maxcore 5000
|  9> end
| 10>
| 11> %pal
| 12>   nprocs 6
| 13>   end
| 14> * xyz 0 1
| 15>    C        1.47887        -2.08828         1.84557
| 16>    C        1.79112        -3.37090         2.21930
| 17>    C        3.08503        -3.80086         2.56447
| 18>    N        4.09436        -4.26452         2.84865
| 19>    C        0.83241        -4.39539         2.34689
| 20>    N        0.14057        -5.30766         2.45419
| 21>    C        2.32086        -0.91769         2.08060
| 22>    C        1.52422         0.23815         1.98824
| 23>    C        2.04323         1.49430         2.22366
| 24>    C        3.39108         1.60143         2.54688
| 25>    C        4.19122         0.45730         2.62868
| 26>    C        3.66235        -0.80903         2.40297
| 27>   Cl        5.85663         0.60632         3.02129
| 28>   Cl        4.07328         3.14864         2.84937
| 29>    C        0.14277        -0.14447         1.61276
| 30>    O       -0.81638         0.57853         1.48104
| 31>    C        0.20029        -1.61197         1.38420
| 32>    C       -0.82819        -2.23059         0.72447
| 33>    C       -0.82724        -3.47804         0.08137
| 34>    C        0.23358        -4.27499        -0.35146
| 35>    C       -0.17472        -5.51463        -0.91110
| 36>    S        1.21336        -6.42920        -1.37501
| 37>    C        2.21353        -5.07516        -0.81755
| 38>    N        1.57317        -4.06966        -0.33816
| 39>    C        3.68625        -5.15691        -0.88036
| 40>    C       -1.54902        -5.69004        -0.94863
| 41>    S       -2.33734        -4.26962        -0.31436
| 42>    C       -2.26564        -6.83592        -1.34034
| 43>    C       -1.74138        -8.07887        -1.67187
| 44>    C       -2.73693        -9.06603        -1.90865
| 45>    S       -1.97754       -10.57386        -2.28956
| 46>    C       -0.39890        -9.75317        -2.10490
| 47>    N       -0.46458        -8.51703        -1.79450
| 48>    C        0.85024       -10.50914        -2.31114
| 49>    C       -4.03498        -8.60722        -1.80517
| 50>    S       -4.00735        -6.90217        -1.38157
| 51>    C       -5.25466        -9.31837        -1.96339
| 52>    C       -6.47385        -8.68839        -2.09769
| 53>    C       -7.68974        -9.34729        -2.23713
| 54>    C       -7.77109       -10.80868        -2.17989
| 55>    C       -6.69985       -11.62549        -2.07123
| 56>    S       -5.08340       -11.06714        -1.96828
| 57>    C       -9.15189       -11.11676        -2.31065
| 58>    C       -9.89423        -9.94559        -2.48251
| 59>    C      -11.27557       -10.22162        -2.60903
| 60>    C      -11.52858       -11.55523        -2.54423
| 61>    S      -10.12131       -12.53284        -2.30954
| 62>    C       -8.98698        -8.81982        -2.45167
| 63>    C       -9.28135        -7.46542        -2.67782
| 64>    C      -10.49988        -6.99395        -3.08673
| 65>    C      -10.72832        -5.64889        -3.40311
| 66>    C      -11.91962        -5.16741        -3.89716
| 67>    C      -12.20235        -3.81258        -4.31251
| 68>    C      -11.36512        -2.72537        -4.23374
| 69>    C      -11.69779        -1.43664        -4.69791
| 70>    N      -11.93600        -0.34695        -4.97670
| 71>    C      -10.06550        -2.72660        -3.68829
| 72>    N       -8.95196        -2.67818        -3.39030
| 73>    C      -13.56177        -3.78542        -4.84807
| 74>    C      -14.11612        -5.08377        -4.74439
| 75>    C      -13.12346        -5.99088        -4.13414
| 76>    O      -13.29615        -7.16955        -3.88534
| 77>    C      -15.38331        -5.38759        -5.17640
| 78>    C      -16.14348        -4.35920        -5.74317
| 79>    C      -15.58292        -3.06466        -5.84253
| 80>    C      -14.30084        -2.75738        -5.40187
| 81>    S      -16.68867        -1.94497        -6.58088
| 82>    C      -17.87471        -3.21374        -6.73592
| 83>    C      -17.46503        -4.41497        -6.26500
| 84>   Br      -19.53509        -2.83867        -7.52471
| 85>    H        1.41698         2.36996         2.16154
| 86>    H        4.30477        -1.67153         2.47424
| 87>    H       -1.74275        -1.65083         0.64761
| 88>    H        3.99890        -5.90467        -1.60401
| 89>    H        4.07901        -5.43097         0.10051
| 90>    H        4.09996        -4.18497        -1.14042
| 91>    H        0.88266       -10.91458        -3.32162
| 92>    H        0.90414       -11.34438        -1.61399
| 93>    H        1.69903        -9.84891        -2.15535
| 94>    H       -6.45774        -7.60638        -2.09408
| 95>    H       -6.78587       -12.70036        -2.06603
| 96>    H      -12.05945        -9.49790        -2.73426
| 97>    H      -12.48199       -12.04240        -2.60633
| 98>    H       -8.46578        -6.75903        -2.57727
| 99>    H      -11.31534        -7.68063        -3.22781
|100>    H       -9.90158        -4.96249        -3.27449
|101>    H      -15.77657        -6.38774        -5.08117
|102>    H      -13.92030        -1.75503        -5.50448
|103>    H      -18.06671        -5.30527        -6.28709
|104> *
|105>
|106>                          ****END OF INPUT****

CARTESIAN COORDINATES (ANGSTROEM)
---------------------------------
  C      1.478870   -2.088280    1.845570
  C      1.791120   -3.370900    2.219300
  C      3.085030   -3.800860    2.564470
  N      4.094360   -4.264520    2.848650
  C      0.832410   -4.395390    2.346890
  N      0.140570   -5.307660    2.454190
  C      2.320860   -0.917690    2.080600
  C      1.524220    0.238150    1.988240
  C      2.043230    1.494300    2.223660
  C      3.391080    1.601430    2.546880
  C      4.191220    0.457300    2.628680
  C      3.662350   -0.809030    2.402970
  Cl     5.856630    0.606320    3.021290
  Cl     4.073280    3.148640    2.849370
  C      0.142770   -0.144470    1.612760
  O     -0.816380    0.578530    1.481040
  C      0.200290   -1.611970    1.384200
  C     -0.828190   -2.230590    0.724470
  C     -0.827240   -3.478040    0.081370
  C      0.233580   -4.274990   -0.351460
  C     -0.174720   -5.514630   -0.911100
  S      1.213360   -6.429200   -1.375010
  C      2.213530   -5.075160   -0.817550
  N      1.573170   -4.069660   -0.338160
  C      3.686250   -5.156910   -0.880360
  C     -1.549020   -5.690040   -0.948630
  S     -2.337340   -4.269620   -0.314360
  C     -2.265640   -6.835920   -1.340340
  C     -1.741380   -8.078870   -1.671870
  C     -2.736930   -9.066030   -1.908650
  S     -1.977540  -10.573860   -2.289560
  C     -0.398900   -9.753170   -2.104900
  N     -0.464580   -8.517030   -1.794500
  C      0.850240  -10.509140   -2.311140
  C     -4.034980   -8.607220   -1.805170
  S     -4.007350   -6.902170   -1.381570
  C     -5.254660   -9.318370   -1.963390
  C     -6.473850   -8.688390   -2.097690
  C     -7.689740   -9.347290   -2.237130
  C     -7.771090  -10.808680   -2.179890
  C     -6.699850  -11.625490   -2.071230
  S     -5.083400  -11.067140   -1.968280
  C     -9.151890  -11.116760   -2.310650
  C     -9.894230   -9.945590   -2.482510
  C    -11.275570  -10.221620   -2.609030
  C    -11.528580  -11.555230   -2.544230
  S    -10.121310  -12.532840   -2.309540
  C     -8.986980   -8.819820   -2.451670
  C     -9.281350   -7.465420   -2.677820
  C    -10.499880   -6.993950   -3.086730
  C    -10.728320   -5.648890   -3.403110
  C    -11.919620   -5.167410   -3.897160
  C    -12.202350   -3.812580   -4.312510
  C    -11.365120   -2.725370   -4.233740
  C    -11.697790   -1.436640   -4.697910
  N    -11.936000   -0.346950   -4.976700
  C    -10.065500   -2.726600   -3.688290
  N     -8.951960   -2.678180   -3.390300
  C    -13.561770   -3.785420   -4.848070
  C    -14.116120   -5.083770   -4.744390
  C    -13.123460   -5.990880   -4.134140
  O    -13.296150   -7.169550   -3.885340
  C    -15.383310   -5.387590   -5.176400
  C    -16.143480   -4.359200   -5.743170
  C    -15.582920   -3.064660   -5.842530
  C    -14.300840   -2.757380   -5.401870
  S    -16.688670   -1.944970   -6.580880
  C    -17.874710   -3.213740   -6.735920
  C    -17.465030   -4.414970   -6.265000
  Br   -19.535090   -2.838670   -7.524710
  H      1.416980    2.369960    2.161540
  H      4.304770   -1.671530    2.474240
  H     -1.742750   -1.650830    0.647610
  H      3.998900   -5.904670   -1.604010
  H      4.079010   -5.430970    0.100510
  H      4.099960   -4.184970   -1.140420
  H      0.882660  -10.914580   -3.321620
  H      0.904140  -11.344380   -1.613990
  H      1.699030   -9.848910   -2.155350
  H     -6.457740   -7.606380   -2.094080
  H     -6.785870  -12.700360   -2.066030
  H    -12.059450   -9.497900   -2.734260
  H    -12.481990  -12.042400   -2.606330
  H     -8.465780   -6.759030   -2.577270
  H    -11.315340   -7.680630   -3.227810
  H     -9.901580   -4.962490   -3.274490
  H    -15.776570   -6.387740   -5.081170
  H    -13.920300   -1.755030   -5.504480
  H    -18.066710   -5.305270   -6.287090

 Total Charge           Charge          ....    0
 Multiplicity           Mult            ....    1
 Number of Electrons    NEL             ....  570
 Basis Dimension        Dim             .... 1129

ORBITAL ENERGIES
----------------

  NO   OCC          E(Eh)            E(eV)
   0   2.0000    -482.880063    -13139.8345
   1   2.0000    -101.594088     -2764.5157
   2   2.0000    -101.593715     -2764.5055
   3   2.0000     -88.997137     -2421.7352
   4   2.0000     -88.990456     -2421.5534
   5   2.0000     -88.981265     -2421.3033
   6   2.0000     -88.979510     -2421.2555
   7   2.0000     -88.968471     -2420.9552
   8   2.0000     -88.968294     -2420.9504
   9   2.0000     -88.964365     -2420.8435
  10   2.0000     -62.557782     -1702.2838
  11   2.0000     -56.391722     -1534.4968
  12   2.0000     -56.389025     -1534.4234
  13   2.0000     -56.388985     -1534.4223
  14   2.0000     -19.212698      -522.8041
  15   2.0000     -19.206638      -522.6392
  16   2.0000     -14.436861      -392.8470
  17   2.0000     -14.416189      -392.2844
  18   2.0000     -14.413479      -392.2107
  19   2.0000     -14.409888      -392.1130
  20   2.0000     -14.407087      -392.0368
  21   2.0000     -14.403491      -391.9389
  22   2.0000     -10.369655      -282.1727
  23   2.0000     -10.363437      -282.0035
  24   2.0000     -10.356494      -281.8145
  25   2.0000     -10.353647      -281.7371
  26   2.0000     -10.352053      -281.6937
  27   2.0000     -10.350869      -281.6615
  28   2.0000     -10.349956      -281.6366
  29   2.0000     -10.348134      -281.5870
  30   2.0000     -10.343453      -281.4597
  31   2.0000     -10.342389      -281.4307
  32   2.0000     -10.342156      -281.4244
  33   2.0000     -10.339834      -281.3612
  34   2.0000     -10.335084      -281.2319
  35   2.0000     -10.334949      -281.2283
  36   2.0000     -10.331142      -281.1247
  37   2.0000     -10.330728      -281.1134
  38   2.0000     -10.329244      -281.0730
  39   2.0000     -10.327751      -281.0324
  40   2.0000     -10.326439      -280.9967
  41   2.0000     -10.321417      -280.8600
  42   2.0000     -10.318456      -280.7795
  43   2.0000     -10.318092      -280.7696
  44   2.0000     -10.317171      -280.7445
  45   2.0000     -10.316315      -280.7212
  46   2.0000     -10.314641      -280.6757
  47   2.0000     -10.314597      -280.6745
  48   2.0000     -10.311565      -280.5919
  49   2.0000     -10.310593      -280.5655
  50   2.0000     -10.308967      -280.5213
  51   2.0000     -10.308081      -280.4971
  52   2.0000     -10.307217      -280.4736
  53   2.0000     -10.302733      -280.3516
  54   2.0000     -10.301799      -280.3262
  55   2.0000     -10.301657      -280.3223
  56   2.0000     -10.301522      -280.3187
  57   2.0000     -10.300382      -280.2877
  58   2.0000     -10.299724      -280.2697
  59   2.0000     -10.299296      -280.2581
  60   2.0000     -10.298252      -280.2297
  61   2.0000     -10.296936      -280.1939
  62   2.0000     -10.296089      -280.1708
  63   2.0000     -10.293779      -280.1080
  64   2.0000     -10.292199      -280.0650
  65   2.0000     -10.292090      -280.0620
  66   2.0000     -10.290179      -280.0100
  67   2.0000     -10.288184      -279.9557
  68   2.0000     -10.285147      -279.8731
  69   2.0000     -10.285102      -279.8718
  70   2.0000     -10.282162      -279.7918
  71   2.0000     -10.280864      -279.7565
  72   2.0000     -10.278034      -279.6795
  73   2.0000     -10.268949      -279.4323
  74   2.0000      -9.549167      -259.8461
  75   2.0000      -9.548721      -259.8339
  76   2.0000      -8.787212      -239.1122
  77   2.0000      -8.092360      -220.2043
  78   2.0000      -8.084979      -220.0035
  79   2.0000      -8.077095      -219.7889
  80   2.0000      -8.074586      -219.7207
  81   2.0000      -8.064398      -219.4434
  82   2.0000      -8.062867      -219.4018
  83   2.0000      -8.059840      -219.3194
  84   2.0000      -7.319541      -199.1748
  85   2.0000      -7.319097      -199.1627
  86   2.0000      -7.309411      -198.8992
  87   2.0000      -7.308973      -198.8873
  88   2.0000      -7.308714      -198.8802
  89   2.0000      -7.308299      -198.8689
  90   2.0000      -6.623471      -180.2338
  91   2.0000      -6.608956      -179.8388
  92   2.0000      -6.608792      -179.8344
  93   2.0000      -6.061917      -164.9531
  94   2.0000      -6.057303      -164.8276
  95   2.0000      -6.054575      -164.7534
  96   2.0000      -6.054318      -164.7464
  97   2.0000      -6.050411      -164.6401
  98   2.0000      -6.046753      -164.5405
  99   2.0000      -6.046605      -164.5365
 100   2.0000      -6.044070      -164.4675
 101   2.0000      -6.042561      -164.4264
 102   2.0000      -6.039895      -164.3539
 103   2.0000      -6.038307      -164.3107
 104   2.0000      -6.036350      -164.2574
 105   2.0000      -6.034096      -164.1961
 106   2.0000      -6.032409      -164.1502
 107   2.0000      -6.029826      -164.0799
 108   2.0000      -6.029260      -164.0645
 109   2.0000      -6.028160      -164.0346
 110   2.0000      -6.025631      -163.9658
 111   2.0000      -6.024986      -163.9482
 112   2.0000      -6.024397      -163.9322
 113   2.0000      -6.021927      -163.8650
 114   2.0000      -2.739356       -74.5417
 115   2.0000      -2.735277       -74.4307
 116   2.0000      -2.735131       -74.4267
 117   2.0000      -2.723604       -74.1130
 118   2.0000      -2.723595       -74.1128
 119   2.0000      -1.128065       -30.6962
 120   2.0000      -1.119660       -30.4675
 121   2.0000      -1.096218       -29.8296
 122   2.0000      -1.080810       -29.4103
 123   2.0000      -1.024259       -27.8715
 124   2.0000      -1.023671       -27.8555
 125   2.0000      -1.013592       -27.5813
 126   2.0000      -1.012083       -27.5402
 127   2.0000      -1.010266       -27.4907
 128   2.0000      -1.003250       -27.2998
 129   2.0000      -0.996208       -27.1082
 130   2.0000      -0.990105       -26.9421
 131   2.0000      -0.984068       -26.7778
 132   2.0000      -0.982725       -26.7413
 133   2.0000      -0.978823       -26.6351
 134   2.0000      -0.978147       -26.6167
 135   2.0000      -0.955781       -26.0081
 136   2.0000      -0.944045       -25.6888
 137   2.0000      -0.935987       -25.4695
 138   2.0000      -0.933054       -25.3897
 139   2.0000      -0.924405       -25.1543
 140   2.0000      -0.912233       -24.8231
 141   2.0000      -0.908785       -24.7293
 142   2.0000      -0.904954       -24.6250
 143   2.0000      -0.899055       -24.4645
 144   2.0000      -0.894440       -24.3390
 145   2.0000      -0.885509       -24.0959
 146   2.0000      -0.877533       -23.8789
 147   2.0000      -0.875498       -23.8235
 148   2.0000      -0.871327       -23.7100
 149   2.0000      -0.869567       -23.6621
 150   2.0000      -0.854690       -23.2573
 151   2.0000      -0.853638       -23.2287
 152   2.0000      -0.850822       -23.1520
 153   2.0000      -0.830270       -22.5928
 154   2.0000      -0.822992       -22.3947
 155   2.0000      -0.820530       -22.3277
 156   2.0000      -0.814049       -22.1514
 157   2.0000      -0.800678       -21.7876
 158   2.0000      -0.797552       -21.7025
 159   2.0000      -0.789167       -21.4743
 160   2.0000      -0.771021       -20.9806
 161   2.0000      -0.761759       -20.7285
 162   2.0000      -0.756290       -20.5797
 163   2.0000      -0.748535       -20.3687
 164   2.0000      -0.736629       -20.0447
 165   2.0000      -0.725601       -19.7446
 166   2.0000      -0.713822       -19.4241
 167   2.0000      -0.707292       -19.2464
 168   2.0000      -0.696050       -18.9405
 169   2.0000      -0.687861       -18.7176
 170   2.0000      -0.682393       -18.5689
 171   2.0000      -0.682025       -18.5588
 172   2.0000      -0.675729       -18.3875
 173   2.0000      -0.670885       -18.2557
 174   2.0000      -0.665132       -18.0991
 175   2.0000      -0.663415       -18.0524
 176   2.0000      -0.657231       -17.8842
 177   2.0000      -0.652527       -17.7562
 178   2.0000      -0.647388       -17.6163
 179   2.0000      -0.642289       -17.4776
 180   2.0000      -0.632549       -17.2125
 181   2.0000      -0.625254       -17.0140
 182   2.0000      -0.618231       -16.8229
 183   2.0000      -0.614530       -16.7222
 184   2.0000      -0.611485       -16.6394
 185   2.0000      -0.598613       -16.2891
 186   2.0000      -0.595387       -16.2013
 187   2.0000      -0.589742       -16.0477
 188   2.0000      -0.586079       -15.9480
 189   2.0000      -0.582934       -15.8624
 190   2.0000      -0.581016       -15.8102
 191   2.0000      -0.575572       -15.6621
 192   2.0000      -0.569264       -15.4905
 193   2.0000      -0.565693       -15.3933
 194   2.0000      -0.563570       -15.3355
 195   2.0000      -0.561227       -15.2718
 196   2.0000      -0.558173       -15.1887
 197   2.0000      -0.552485       -15.0339
 198   2.0000      -0.544457       -14.8154
 199   2.0000      -0.543067       -14.7776
 200   2.0000      -0.538351       -14.6493
 201   2.0000      -0.535655       -14.5759
 202   2.0000      -0.532255       -14.4834
 203   2.0000      -0.531534       -14.4638
 204   2.0000      -0.529862       -14.4183
 205   2.0000      -0.529698       -14.4138
 206   2.0000      -0.527902       -14.3649
 207   2.0000      -0.525332       -14.2950
 208   2.0000      -0.524158       -14.2631
 209   2.0000      -0.520752       -14.1704
 210   2.0000      -0.518527       -14.1098
 211   2.0000      -0.517489       -14.0816
 212   2.0000      -0.514508       -14.0005
 213   2.0000      -0.507848       -13.8192
 214   2.0000      -0.505838       -13.7646
 215   2.0000      -0.501782       -13.6542
 216   2.0000      -0.500469       -13.6185
 217   2.0000      -0.500334       -13.6148
 218   2.0000      -0.498590       -13.5673
 219   2.0000      -0.494057       -13.4440
 220   2.0000      -0.489723       -13.3261
 221   2.0000      -0.487061       -13.2536
 222   2.0000      -0.486703       -13.2439
 223   2.0000      -0.483427       -13.1547
 224   2.0000      -0.482009       -13.1161
 225   2.0000      -0.480936       -13.0869
 226   2.0000      -0.479054       -13.0357
 227   2.0000      -0.476019       -12.9531
 228   2.0000      -0.467844       -12.7307
 229   2.0000      -0.464718       -12.6456
 230   2.0000      -0.462251       -12.5785
 231   2.0000      -0.458184       -12.4678
 232   2.0000      -0.456436       -12.4202
 233   2.0000      -0.455328       -12.3901
 234   2.0000      -0.450529       -12.2595
 235   2.0000      -0.447683       -12.1821
 236   2.0000      -0.445905       -12.1337
 237   2.0000      -0.444767       -12.1027
 238   2.0000      -0.442034       -12.0284
 239   2.0000      -0.441453       -12.0126
 240   2.0000      -0.440561       -11.9883
 241   2.0000      -0.439834       -11.9685
 242   2.0000      -0.439189       -11.9509
 243   2.0000      -0.436120       -11.8674
 244   2.0000      -0.435167       -11.8415
 245   2.0000      -0.433973       -11.8090
 246   2.0000      -0.433763       -11.8033
 247   2.0000      -0.430200       -11.7063
 248   2.0000      -0.428881       -11.6705
 249   2.0000      -0.426778       -11.6132
 250   2.0000      -0.423350       -11.5199
 251   2.0000      -0.422422       -11.4947
 252   2.0000      -0.420488       -11.4421
 253   2.0000      -0.419188       -11.4067
 254   2.0000      -0.416452       -11.3322
 255   2.0000      -0.412851       -11.2343
 256   2.0000      -0.410584       -11.1726
 257   2.0000      -0.405915       -11.0455
 258   2.0000      -0.403377       -10.9765
 259   2.0000      -0.396815       -10.7979
 260   2.0000      -0.396512       -10.7896
 261   2.0000      -0.391818       -10.6619
 262   2.0000      -0.390398       -10.6233
 263   2.0000      -0.386269       -10.5109
 264   2.0000      -0.378659       -10.3038
 265   2.0000      -0.376297       -10.2396
 266   2.0000      -0.373263       -10.1570
 267   2.0000      -0.369585       -10.0569
 268   2.0000      -0.360315        -9.8047
 269   2.0000      -0.352701        -9.5975
 270   2.0000      -0.342127        -9.3097
 271   2.0000      -0.340945        -9.2776
 272   2.0000      -0.336150        -9.1471
 273   2.0000      -0.333196        -9.0667
 274   2.0000      -0.330636        -8.9971
 275   2.0000      -0.325867        -8.8673
 276   2.0000      -0.321524        -8.7491
 277   2.0000      -0.315373        -8.5817
 278   2.0000      -0.309213        -8.4141
 279   2.0000      -0.307420        -8.3653
 280   2.0000      -0.295827        -8.0499
 281   2.0000      -0.290556        -7.9064
 282   2.0000      -0.285462        -7.7678
 283   2.0000      -0.262859        -7.1528
 284   2.0000      -0.234437        -6.3794
 285   0.0000      -0.108050        -2.9402
 286   0.0000      -0.087047        -2.3687
 287   0.0000      -0.063871        -1.7380
 288   0.0000      -0.057612        -1.5677
 289   0.0000      -0.044508        -1.2111

MULLIKEN ATOMIC CHARGES
-----------------------
   0 C :    0.293659
   1 C :   -0.309176
   2 C :   -0.184014
   3 N :    0.141638
   4 C :   -0.220107
   5 N :    0.170198
   6 C :    0.033096
   7 C :   -0.007298
   8 C :   -0.030578
   9 C :    0.055724
  10 C :    0.053305
  11 C :   -0.028287
  12 Cl:   -0.042325
  13 Cl:   -0.049539
  14 C :    0.135313
  15 O :   -0.135876
  16 C :   -0.133132
  17 C :    0.067713
  18 C :   -0.162431
  19 C :    0.072319
  20 C :    0.000557
  21 S :    0.149683
  22 C :   -0.161603
  23 N :   -0.052000
  24 C :    0.122186
  25 C :   -0.172511
  26 S :    0.181650
  27 C :   -0.121267
  28 C :    0.096502
  29 C :   -0.021854
  30 S :    0.107163
  31 C :   -0.177209
  32 N :   -0.044957
  33 C :    0.118590
  34 C :   -0.168060
  35 S :    0.169184
  36 C :   -0.026041
  37 C :   -0.089390
  38 C :    0.081825
  39 C :    0.055775
  40 C :   -0.114103
  41 S :    0.140020
  42 C :   -0.114922
  43 C :    0.056787
  44 C :   -0.007314
  45 C :   -0.063601
  46 S :    0.131053
  47 C :    0.089868
  48 C :    0.005276
  49 C :   -0.021086
  50 C :   -0.018557
  51 C :   -0.088571
  52 C :    0.324274
  53 C :   -0.340213
  54 C :   -0.175520
  55 N :    0.124081
  56 C :   -0.173752
  57 N :    0.108260
  58 C :    0.018060
  59 C :   -0.003790
  60 C :    0.145288
  61 O :   -0.170239
  62 C :   -0.081317
  63 C :    0.122138
  64 C :   -0.090364
  65 C :   -0.028275
  66 S :    0.182331
  67 C :   -0.122753
  68 C :    0.035172
  69 Br:    0.017516
  70 H :   -0.000733
  71 H :   -0.003139
  72 H :    0.019342
  73 H :    0.018386
  74 H :    0.069479
  75 H :    0.048921
  76 H :    0.047045
  77 H :    0.049810
  78 H :    0.046635
  79 H :    0.000571
  80 H :    0.043969
  81 H :    0.018494
  82 H :    0.030050
  83 H :   -0.016439
  84 H :    0.005092
  85 H :   -0.000469
  86 H :   -0.016301
  87 H :   -0.009069
  88 H :   -0.005818
Sum of atomic charges:   -0.0000000

LOEWDIN ATOMIC CHARGES
----------------------
   0 C :    0.067623
   1 C :   -0.131649
   2 C :   -0.016772
   3 N :   -0.063179
   4 C :   -0.017749
   5 N :   -0.055756
   6 C :   -0.004990
   7 C :   -0.047851
   8 C :    0.001047
   9 C :   -0.139580
  10 C :   -0.130461
  11 C :   -0.020613
  12 Cl:    0.156803
  13 Cl:    0.153098
  14 C :    0.082986
  15 O :   -0.138116
  16 C :   -0.091404
  17 C :    0.043926
  18 C :   -0.188004
  19 C :   -0.036306
  20 C :   -0.193464
  21 S :    0.431046
  22 C :   -0.084318
  23 N :   -0.104353
  24 C :   -0.065483
  25 C :   -0.180558
  26 S :    0.464779
  27 C :   -0.188225
  28 C :   -0.055260
  29 C :   -0.205838
  30 S :    0.366975
  31 C :   -0.083094
  32 N :   -0.101365
  33 C :   -0.064287
  34 C :   -0.206767
  35 S :    0.461414
  36 C :   -0.169967
  37 C :   -0.030091
  38 C :    0.006870
  39 C :   -0.044098
  40 C :   -0.141389
  41 S :    0.468811
  42 C :   -0.203901
  43 C :   -0.030496
  44 C :   -0.058141
  45 C :   -0.158497
  46 S :    0.426152
  47 C :   -0.058421
  48 C :    0.038874
  49 C :   -0.050773
  50 C :    0.067515
  51 C :   -0.111811
  52 C :    0.075663
  53 C :   -0.151864
  54 C :   -0.018450
  55 N :   -0.064334
  56 C :   -0.017025
  57 N :   -0.066759
  58 C :   -0.018841
  59 C :   -0.049100
  60 C :    0.086025
  61 O :   -0.162596
  62 C :    0.018145
  63 C :   -0.034923
  64 C :   -0.145056
  65 C :   -0.012071
  66 S :    0.429231
  67 C :   -0.273655
  68 C :   -0.071223
  69 Br:    0.131910
  70 H :    0.045468
  71 H :    0.042258
  72 H :    0.047037
  73 H :    0.034286
  74 H :    0.057462
  75 H :    0.051210
  76 H :    0.047593
  77 H :    0.048833
  78 H :    0.049576
  79 H :    0.032956
  80 H :    0.039647
  81 H :    0.039891
  82 H :    0.026076
  83 H :    0.031664
  84 H :    0.030098
  85 H :    0.039176
  86 H :    0.038698
  87 H :    0.040384
  88 H :    0.037717

  Mayer bond orders larger than 0.100000
B(  0-C ,  1-C ) :   1.6114 B(  0-C ,  6-C ) :   1.0156 B(  0-C , 16-C ) :   1.0805
B(  1-C ,  2-C ) :   1.1587 B(  1-C ,  4-C ) :   1.1795 B(  2-C ,  3-N ) :   2.9306
B(  4-C ,  5-N ) :   3.0014 B(  6-C ,  7-C ) :   1.3300 B(  6-C , 11-C ) :   1.3445
B(  7-C ,  8-C ) :   1.3530 B(  7-C , 14-C ) :   0.9162 B(  8-C ,  9-C ) :   1.3412
B(  8-C , 70-H ) :   1.0167 B(  9-C , 10-C ) :   1.4158 B(  9-C , 13-Cl) :   1.0410
B( 10-C , 11-C ) :   1.3532 B( 10-C , 12-Cl) :   1.0667 B( 11-C , 71-H ) :   0.9920
B( 14-C , 15-O ) :   2.2761 B( 14-C , 16-C ) :   0.9492 B( 16-C , 17-C ) :   1.6037
B( 17-C , 18-C ) :   1.1908 B( 17-C , 72-H ) :   0.9318 B( 18-C , 19-C ) :   1.3831
B( 18-C , 25-C ) :   0.1110 B( 18-C , 26-S ) :   1.0858 B( 19-C , 20-C ) :   1.2417
B( 19-C , 23-N ) :   1.3340 B( 20-C , 21-S ) :   1.0564 B( 20-C , 25-C ) :   1.5426
B( 21-S , 22-C ) :   1.0783 B( 22-C , 23-N ) :   1.6828 B( 22-C , 24-C ) :   1.0866
B( 24-C , 73-H ) :   0.9402 B( 24-C , 74-H ) :   0.9343 B( 24-C , 75-H ) :   0.9466
B( 25-C , 26-S ) :   1.1443 B( 25-C , 27-C ) :   1.1812 B( 27-C , 28-C ) :   1.4552
B( 27-C , 34-C ) :   0.1169 B( 27-C , 35-S ) :   1.1232 B( 28-C , 29-C ) :   1.2534
B( 28-C , 32-N ) :   1.2887 B( 29-C , 30-S ) :   1.0456 B( 29-C , 34-C ) :   1.5062
B( 30-S , 31-C ) :   1.0461 B( 31-C , 32-N ) :   1.7810 B( 31-C , 33-C ) :   1.0726
B( 33-C , 76-H ) :   0.9438 B( 33-C , 77-H ) :   0.9430 B( 33-C , 78-H ) :   0.9494
B( 34-C , 35-S ) :   1.1102 B( 34-C , 36-C ) :   1.1793 B( 36-C , 37-C ) :   1.4841
B( 36-C , 41-S ) :   1.0674 B( 37-C , 38-C ) :   1.2757 B( 37-C , 79-H ) :   0.9674
B( 38-C , 39-C ) :   1.0616 B( 38-C , 47-C ) :   1.3196 B( 39-C , 40-C ) :   1.5993
B( 39-C , 42-C ) :   1.1801 B( 40-C , 41-S ) :   1.1432 B( 40-C , 80-H ) :   0.9400
B( 42-C , 43-C ) :   1.4497 B( 42-C , 46-S ) :   1.0820 B( 43-C , 44-C ) :   1.2219
B( 43-C , 47-C ) :   1.0719 B( 44-C , 45-C ) :   1.5852 B( 44-C , 81-H ) :   0.9948
B( 45-C , 46-S ) :   1.1533 B( 45-C , 82-H ) :   0.9634 B( 47-C , 48-C ) :   1.1973
B( 48-C , 49-C ) :   1.4654 B( 48-C , 83-H ) :   0.9772 B( 49-C , 50-C ) :   1.2206
B( 49-C , 84-H ) :   0.9900 B( 50-C , 51-C ) :   1.4611 B( 50-C , 85-H ) :   0.9651
B( 51-C , 52-C ) :   1.0922 B( 51-C , 60-C ) :   0.9684 B( 52-C , 53-C ) :   1.5971
B( 52-C , 58-C ) :   0.9956 B( 53-C , 54-C ) :   1.1374 B( 53-C , 56-C ) :   1.1422
B( 54-C , 55-N ) :   2.9564 B( 56-C , 57-N ) :   2.9417 B( 58-C , 59-C ) :   1.2804
B( 58-C , 65-C ) :   1.4128 B( 59-C , 60-C ) :   0.9431 B( 59-C , 62-C ) :   1.4247
B( 60-C , 61-O ) :   2.1655 B( 62-C , 63-C ) :   1.2388 B( 62-C , 86-H ) :   1.0174
B( 63-C , 64-C ) :   1.3139 B( 63-C , 68-C ) :   1.1593 B( 64-C , 65-C ) :   1.3238
B( 64-C , 66-S ) :   1.0842 B( 65-C , 87-H ) :   0.9798 B( 66-S , 67-C ) :   1.0859
B( 67-C , 68-C ) :   1.6200 B( 67-C , 69-Br) :   1.0154 B( 68-C , 88-H ) :   1.0008

-----------------------------------------------------------------------------
         ABSORPTION SPECTRUM VIA TRANSITION ELECTRIC DIPOLE MOMENTS
-----------------------------------------------------------------------------
State   Energy  Wavelength   fosc         T2         TX        TY        TZ
        (cm-1)    (nm)                  (au**2)     (au)      (au)      (au)
-----------------------------------------------------------------------------
   0   13251.7    754.6   1.332823639  33.11123   5.30015   0.40002   2.20445
   1   18119.0    551.9   0.802150876  14.57459   0.40940  -3.75461  -0.55667
   2   19980.6    500.5   0.345072879   5.68563   0.17715   2.30167   0.59713
   3   22575.5    443.0   0.081889078   1.19416   0.14783  -1.03340   0.32310
   4   23072.4    433.4   0.255083270   3.63970   0.28589   1.73699  -0.73540
   5   24173.8    413.7   0.053276215   0.72554   0.04103  -0.70439   0.47718
   6   24768.6    403.7   0.178124072   2.36754   0.99847  -1.02942   0.55757
   7   25417.3    393.4   0.177475984   2.29872  -0.22964  -1.48032  -0.23375
   8   26102.7    383.1   0.024492779   0.30891   0.30711   0.31788   0.33696
   9   26790.1    373.3   0.226866745   2.78787   1.58605  -0.09583   0.51297
  10   27619.7    362.1   0.005563516   0.06631   0.08047   0.23804   0.05638
  11   28514.5    350.7   0.004400249   0.05080  -0.22433   0.01911  -0.01058
  12   28618.7    349.4   0.094376767   1.08565  -0.96309   0.01086   0.39747
  13   29602.0    337.8   0.063671599   0.70811   0.15889  -0.63948   0.52338
  14   29757.1    336.1   0.094365969   1.04400   0.99686  -0.19707   0.10692
  15   29849.6    335.0   0.022321622   0.24619   0.14120   0.44577   0.16594
  16   30367.2    329.3   0.143483189   1.55551   0.95361  -0.60762   0.52624
  17   31000.0    322.6   0.034040967   0.36151  -0.26003   0.50927   0.18585
  18   31372.0    318.8   0.008447503   0.08865  -0.20685  -0.18172   0.11331
  19   31547.5    317.0   0.031385489   0.32752   0.56354   0.04564  -0.08865
  20   32247.3    310.1   0.089739545   0.91615  -0.91990  -0.05684  -0.25826
  21   32381.7    308.8   0.191801695   1.94997  -0.58141   1.26839  -0.05576
  22   32451.8    308.1   0.338092962   3.42983  -1.33421  -1.24978  -0.29625
  23   32526.3    307.4   0.350888210   3.55149   1.77715  -0.03332   0.62620
  24   32943.2    303.6   0.018685644   0.18673  -0.42982   0.03568  -0.02672
  25   33137.0    301.8   0.012061951   0.11983  -0.09216  -0.30996  -0.12356
  26   33590.3    297.7   0.118567121   1.16205   0.33916   0.97907   0.29741
  27   33671.1    297.0   0.057831836   0.56544   0.18985  -0.65982   0.30665
  28   34025.2    293.9   0.135018813   1.30638  -0.97423   0.57660   0.15746
  29   34343.6    291.2   0.107147719   1.02710  -0.19649   0.99422   0.00305
  30   34720.1    288.0   0.135750405   1.28717  -0.12849  -1.12469  -0.07577
  31   34955.5    286.1   0.014603315   0.13753   0.04725  -0.36385  -0.05398
  32   35338.6    283.0   0.029719365   0.27686  -0.46236   0.23535   0.08772
  33   35488.2    281.8   0.003777508   0.03504  -0.02824   0.18500  -0.00469
  34   36018.5    277.6   0.008161743   0.07460   0.21808  -0.16350   0.01749
  35   36451.3    274.3   0.073082489   0.66005   0.38166  -0.71415   0.06617
  36   36571.3    273.4   0.160930493   1.44869   1.18758   0.07354   0.18146
  37   36862.2    271.3   0.160773501   1.43585   1.02875   0.58801   0.17825
  38   37183.6    268.9   0.125478987   1.11095  -1.00627   0.26062  -0.17452
  39   37261.3    268.4   0.082258557   0.72677  -0.59227  -0.60771  -0.08170
  40   37628.1    265.8   0.078000344   0.68243  -0.60152   0.56570  -0.02436
  41   37702.6    265.2   0.170817504   1.49155  -0.68363  -1.01154   0.03130
  42   38116.6    262.4   0.049478574   0.42735  -0.11155   0.64325  -0.03371
  43   38207.6    261.7   0.031116392   0.26811   0.35925  -0.34734   0.13566
  44   38465.3    260.0   0.013338408   0.11416   0.33617  -0.02619  -0.02151
  45   38665.4    258.6   0.052608514   0.44793  -0.50402   0.44024  -0.00878
  46   38909.8    257.0   0.047235606   0.39966   0.61400   0.01794   0.14944
  47   39031.7    256.2   0.034399014   0.29014   0.45023   0.29241  -0.04386
  48   39555.3    252.8   0.050660430   0.42164   0.03488  -0.59474   0.25826
  49   39780.2    251.4   0.001308696   0.01083   0.03793   0.04314  -0.08678
  50   39814.5    251.2   0.006111493   0.05053  -0.12778   0.13614  -0.12518
  51   39935.8    250.4   0.265802665   2.19115   1.41206  -0.30319   0.32451

FINAL SINGLE POINT ENERGY     -8749.293473744478

DIPOLE MOMENT
-------------
                                X             Y             Z
Electronic contribution:   -111.38035      59.66932     -37.31171
Nuclear contribution   :    112.03481     -64.42253      35.77475
                        -----------------------------------------
Total Dipole Moment    :      0.65446      -4.75321      -1.53696
                        -----------------------------------------
Magnitude (a.u.)       :      5.03821
Magnitude (Debye)      :     12.80610

Rotational constants in cm-1:     0.000933     0.000223     0.000184
Rotational constants in MHz :    27.973131     6.690169     5.524194

                             ****ORCA TERMINATED NORMALLY****
TOTAL RUN TIME: 0 days 0 hours 9 minutes 53 seconds 413 msec
