                         Program Version 4.2.0 -  RELEASE  -
|  1> # ORCA input file
|  2> # SCF done       -194.561561243249          0.000382468924
|  3> ! CAM-B3LYP def2-SVP def2/J RIJCOSX Grid4 TightSCF
|  4> %maxcore 5000
|  5> %tddft
|  6>     Mode sTDDFT
|  7>     Ethresh 5.0
|  8>     maxcore 5000
|  9> end
| 10>
| 11> %pal
| 12>   nprocs 6
| 13>   end
| 14> * xyz 0 1
| 15>    C        0.95746        -0.74796         0.97481
| 16>    C        1.87849        -1.76177         1.02546
| 17>    C        3.12176        -1.73184         0.35787
| 18>    N        4.14634        -1.76374        -0.15703
| 19>    C        1.74470        -2.91208         1.82716
| 20>    N        1.69505        -3.85248         2.48404
| 21>    C        1.19030         0.55622         0.35447
| 22>    C        0.28297         1.48650         0.89345
| 23>    C        0.29778         2.81412         0.51736
| 24>    C        1.23223         3.22089        -0.42730
| 25>    C        2.12774         2.29730        -0.97975
| 26>    C        2.11586         0.96159        -0.59144
| 27>   Cl        3.26379         2.81185        -2.15828
| 28>   Cl        1.28295         4.86421        -0.92051
| 29>    C       -0.61950         0.80050         1.84167
| 30>    O       -1.48732         1.28440         2.52937
| 31>    C       -0.26976        -0.64304         1.73382
| 32>    C       -1.12874        -1.56016         2.26586
| 33>    C       -1.24245        -2.93743         1.99427
| 34>    C       -0.77684        -3.66117         0.90344
| 35>    C       -1.11661        -5.00368         0.97894
| 36>    C       -1.85380        -5.31985         2.14190
| 37>    S       -2.14700        -3.95643         3.11330
| 38>    C       -2.11763        -6.70844         2.13906
| 39>    C       -1.55316        -7.27428         0.97973
| 40>    C       -0.89924        -6.22079         0.21780
| 41>    C       -0.20034        -6.34627        -0.94678
| 42>    C       -0.04726        -7.58497        -1.60396
| 43>    N        0.06966        -8.59042        -2.14250
| 44>    C        0.40958        -5.23061        -1.55892
| 45>    N        0.89541        -4.31217        -2.04393
| 46>    C       -1.75234        -8.64830         0.88783
| 47>    C       -2.46458        -9.13829         1.97318
| 48>    S       -2.89175        -7.87616         3.11698
| 49>    C       -2.84948       -10.47635         2.22472
| 50>    C       -2.63008       -11.60280         1.42176
| 51>    O       -1.98059       -11.47838         0.24963
| 52>    C       -1.77276       -12.64550        -0.51933
| 53>    C       -3.15038       -12.77601         1.98276
| 54>    C       -3.76154       -12.57656         3.20486
| 55>    S       -3.70103       -10.90548         3.67557
| 56>    C       -4.38131       -13.53436         4.04213
| 57>    C       -4.93958       -13.30853         5.29034
| 58>    C       -5.46428       -14.47156         5.84473
| 59>    C       -5.30948       -15.59507         5.01166
| 60>    S       -4.50991       -15.21369         3.54723
| 61>    C       -5.87402       -16.71819         5.65500
| 62>    C       -6.38906       -16.30711         6.90887
| 63>    C       -6.13874       -14.88474         7.06836
| 64>    C       -6.44794       -14.09272         8.13345
| 65>    C       -7.07783       -14.57279         9.30321
| 66>    N       -7.57763       -14.92518        10.27211
| 67>    C       -6.14286       -12.71401         8.14541
| 68>    N       -5.89779       -11.59406         8.15235
| 69>    C       -6.98110       -17.33907         7.62107
| 70>    C       -6.93194       -18.54813         6.93541
| 71>    S       -6.11720       -18.37355         5.36817
| 72>    C       -7.37483       -19.84879         7.23784
| 73>    C       -8.07046       -20.35432         8.30428
| 74>    C       -8.41410       -21.76185         8.44688
| 75>    C       -8.03297       -22.80242         7.64042
| 76>    C       -8.40901       -24.14713         7.85392
| 77>    N       -8.67423       -25.25880         7.95778
| 78>    C       -7.20998       -22.72456         6.49617
| 79>    N       -6.54493       -22.76669         5.56026
| 80>    C       -9.23206       -21.89890         9.64956
| 81>    C       -9.36567       -20.63772        10.25219
| 82>    C       -8.64800       -19.62193         9.45559
| 83>    O       -8.58265       -18.44033         9.71566
| 84>    C      -10.08312       -20.45348        11.41636
| 85>    C      -10.68863       -21.56044        11.99725
| 86>    C      -10.56534       -22.82218        11.40272
| 87>    C       -9.83921       -23.00114        10.23045
| 88>   Cl      -11.32199       -24.18234        12.12688
| 89>   Cl      -11.59022       -21.37876        13.44574
| 90>    H       -0.39886         3.51628         0.94729
| 91>    H        2.81379         0.27434        -1.04138
| 92>    H       -1.86773        -1.14431         2.94451
| 93>    H       -0.25748        -3.20669         0.07956
| 94>    H       -1.40731        -9.27883         0.09098
| 95>    H       -1.23034       -12.31704        -1.40374
| 96>    H       -2.72239       -13.09768        -0.81897
| 97>    H       -1.17227       -13.37840         0.02667
| 98>    H       -3.09018       -13.74881         1.52919
| 99>    H       -4.94842       -12.33664         5.74987
|100>    H       -7.43956       -17.24707         8.58974
|101>    H       -7.11135       -20.56477         6.46837
|102>    H      -10.16764       -19.47362        11.85924
|103>    H       -9.76990       -23.98840         9.80489
|104> *
|105>
|106>                          ****END OF INPUT****

CARTESIAN COORDINATES (ANGSTROEM)
---------------------------------
  C      0.957460   -0.747960    0.974810
  C      1.878490   -1.761770    1.025460
  C      3.121760   -1.731840    0.357870
  N      4.146340   -1.763740   -0.157030
  C      1.744700   -2.912080    1.827160
  N      1.695050   -3.852480    2.484040
  C      1.190300    0.556220    0.354470
  C      0.282970    1.486500    0.893450
  C      0.297780    2.814120    0.517360
  C      1.232230    3.220890   -0.427300
  C      2.127740    2.297300   -0.979750
  C      2.115860    0.961590   -0.591440
  Cl     3.263790    2.811850   -2.158280
  Cl     1.282950    4.864210   -0.920510
  C     -0.619500    0.800500    1.841670
  O     -1.487320    1.284400    2.529370
  C     -0.269760   -0.643040    1.733820
  C     -1.128740   -1.560160    2.265860
  C     -1.242450   -2.937430    1.994270
  C     -0.776840   -3.661170    0.903440
  C     -1.116610   -5.003680    0.978940
  C     -1.853800   -5.319850    2.141900
  S     -2.147000   -3.956430    3.113300
  C     -2.117630   -6.708440    2.139060
  C     -1.553160   -7.274280    0.979730
  C     -0.899240   -6.220790    0.217800
  C     -0.200340   -6.346270   -0.946780
  C     -0.047260   -7.584970   -1.603960
  N      0.069660   -8.590420   -2.142500
  C      0.409580   -5.230610   -1.558920
  N      0.895410   -4.312170   -2.043930
  C     -1.752340   -8.648300    0.887830
  C     -2.464580   -9.138290    1.973180
  S     -2.891750   -7.876160    3.116980
  C     -2.849480  -10.476350    2.224720
  C     -2.630080  -11.602800    1.421760
  O     -1.980590  -11.478380    0.249630
  C     -1.772760  -12.645500   -0.519330
  C     -3.150380  -12.776010    1.982760
  C     -3.761540  -12.576560    3.204860
  S     -3.701030  -10.905480    3.675570
  C     -4.381310  -13.534360    4.042130
  C     -4.939580  -13.308530    5.290340
  C     -5.464280  -14.471560    5.844730
  C     -5.309480  -15.595070    5.011660
  S     -4.509910  -15.213690    3.547230
  C     -5.874020  -16.718190    5.655000
  C     -6.389060  -16.307110    6.908870
  C     -6.138740  -14.884740    7.068360
  C     -6.447940  -14.092720    8.133450
  C     -7.077830  -14.572790    9.303210
  N     -7.577630  -14.925180   10.272110
  C     -6.142860  -12.714010    8.145410
  N     -5.897790  -11.594060    8.152350
  C     -6.981100  -17.339070    7.621070
  C     -6.931940  -18.548130    6.935410
  S     -6.117200  -18.373550    5.368170
  C     -7.374830  -19.848790    7.237840
  C     -8.070460  -20.354320    8.304280
  C     -8.414100  -21.761850    8.446880
  C     -8.032970  -22.802420    7.640420
  C     -8.409010  -24.147130    7.853920
  N     -8.674230  -25.258800    7.957780
  C     -7.209980  -22.724560    6.496170
  N     -6.544930  -22.766690    5.560260
  C     -9.232060  -21.898900    9.649560
  C     -9.365670  -20.637720   10.252190
  C     -8.648000  -19.621930    9.455590
  O     -8.582650  -18.440330    9.715660
  C    -10.083120  -20.453480   11.416360
  C    -10.688630  -21.560440   11.997250
  C    -10.565340  -22.822180   11.402720
  C     -9.839210  -23.001140   10.230450
  Cl   -11.321990  -24.182340   12.126880
  Cl   -11.590220  -21.378760   13.445740
  H     -0.398860    3.516280    0.947290
  H      2.813790    0.274340   -1.041380
  H     -1.867730   -1.144310    2.944510
  H     -0.257480   -3.206690    0.079560
  H     -1.407310   -9.278830    0.090980
  H     -1.230340  -12.317040   -1.403740
  H     -2.722390  -13.097680   -0.818970
  H     -1.172270  -13.378400    0.026670
  H     -3.090180  -13.748810    1.529190
  H     -4.948420  -12.336640    5.749870
  H     -7.439560  -17.247070    8.589740
  H     -7.111350  -20.564770    6.468370
  H    -10.167640  -19.473620   11.859240
  H     -9.769900  -23.988400    9.804890

 Total Charge           Charge          ....    0
 Multiplicity           Mult            ....    1
 Number of Electrons    NEL             ....  572
 Basis Dimension        Dim             .... 1156

ORBITAL ENERGIES
----------------

  NO   OCC          E(Eh)            E(eV)
   0   2.0000    -101.604104     -2764.7882
   1   2.0000    -101.602694     -2764.7499
   2   2.0000    -101.600464     -2764.6892
   3   2.0000    -101.599229     -2764.6556
   4   2.0000     -89.008705     -2422.0500
   5   2.0000     -89.005372     -2421.9593
   6   2.0000     -88.998529     -2421.7731
   7   2.0000     -88.996977     -2421.7309
   8   2.0000     -88.988021     -2421.4871
   9   2.0000     -19.279339      -524.6175
  10   2.0000     -19.231205      -523.3077
  11   2.0000     -19.221651      -523.0477
  12   2.0000     -14.442718      -393.0063
  13   2.0000     -14.438186      -392.8830
  14   2.0000     -14.436147      -392.8275
  15   2.0000     -14.436008      -392.8238
  16   2.0000     -14.428578      -392.6216
  17   2.0000     -14.422774      -392.4636
  18   2.0000     -14.421994      -392.4424
  19   2.0000     -14.417304      -392.3148
  20   2.0000     -10.382164      -282.5130
  21   2.0000     -10.379122      -282.4303
  22   2.0000     -10.373092      -282.2662
  23   2.0000     -10.370771      -282.2030
  24   2.0000     -10.367796      -282.1221
  25   2.0000     -10.364971      -282.0452
  26   2.0000     -10.360883      -281.9340
  27   2.0000     -10.360483      -281.9231
  28   2.0000     -10.357974      -281.8548
  29   2.0000     -10.357416      -281.8396
  30   2.0000     -10.357020      -281.8288
  31   2.0000     -10.356413      -281.8123
  32   2.0000     -10.353842      -281.7424
  33   2.0000     -10.353240      -281.7260
  34   2.0000     -10.350767      -281.6587
  35   2.0000     -10.349313      -281.6191
  36   2.0000     -10.348424      -281.5949
  37   2.0000     -10.347906      -281.5808
  38   2.0000     -10.347592      -281.5723
  39   2.0000     -10.346756      -281.5495
  40   2.0000     -10.343075      -281.4494
  41   2.0000     -10.342524      -281.4344
  42   2.0000     -10.339949      -281.3643
  43   2.0000     -10.338138      -281.3150
  44   2.0000     -10.337339      -281.2933
  45   2.0000     -10.336807      -281.2788
  46   2.0000     -10.336343      -281.2662
  47   2.0000     -10.336307      -281.2652
  48   2.0000     -10.336161      -281.2612
  49   2.0000     -10.331184      -281.1258
  50   2.0000     -10.329633      -281.0836
  51   2.0000     -10.329398      -281.0772
  52   2.0000     -10.328911      -281.0640
  53   2.0000     -10.325647      -280.9751
  54   2.0000     -10.325440      -280.9695
  55   2.0000     -10.323102      -280.9059
  56   2.0000     -10.321246      -280.8554
  57   2.0000     -10.319402      -280.8052
  58   2.0000     -10.318723      -280.7867
  59   2.0000     -10.318344      -280.7764
  60   2.0000     -10.317515      -280.7539
  61   2.0000     -10.316858      -280.7360
  62   2.0000     -10.315739      -280.7055
  63   2.0000     -10.313833      -280.6537
  64   2.0000     -10.313714      -280.6504
  65   2.0000     -10.312965      -280.6300
  66   2.0000     -10.311930      -280.6019
  67   2.0000     -10.310692      -280.5682
  68   2.0000     -10.309766      -280.5430
  69   2.0000     -10.309746      -280.5425
  70   2.0000     -10.309569      -280.5376
  71   2.0000     -10.306663      -280.4586
  72   2.0000     -10.303216      -280.3648
  73   2.0000     -10.303160      -280.3632
  74   2.0000     -10.302622      -280.3486
  75   2.0000      -9.559119      -260.1169
  76   2.0000      -9.557730      -260.0791
  77   2.0000      -9.555527      -260.0191
  78   2.0000      -9.554265      -259.9848
  79   2.0000      -8.103205      -220.4994
  80   2.0000      -8.100126      -220.4156
  81   2.0000      -8.093288      -220.2296
  82   2.0000      -8.091789      -220.1888
  83   2.0000      -8.083388      -219.9602
  84   2.0000      -7.329523      -199.4464
  85   2.0000      -7.328144      -199.4089
  86   2.0000      -7.325927      -199.3486
  87   2.0000      -7.324677      -199.3146
  88   2.0000      -7.319390      -199.1707
  89   2.0000      -7.318621      -199.1498
  90   2.0000      -7.317975      -199.1322
  91   2.0000      -7.317236      -199.1121
  92   2.0000      -7.315771      -199.0723
  93   2.0000      -7.315051      -199.0527
  94   2.0000      -7.314517      -199.0381
  95   2.0000      -7.313770      -199.0178
  96   2.0000      -6.072537      -165.2421
  97   2.0000      -6.069223      -165.1520
  98   2.0000      -6.068375      -165.1289
  99   2.0000      -6.065389      -165.0476
 100   2.0000      -6.065101      -165.0398
 101   2.0000      -6.062649      -164.9731
 102   2.0000      -6.062460      -164.9679
 103   2.0000      -6.061096      -164.9308
 104   2.0000      -6.058292      -164.8545
 105   2.0000      -6.056929      -164.8174
 106   2.0000      -6.055748      -164.7853
 107   2.0000      -6.053979      -164.7371
 108   2.0000      -6.052865      -164.7068
 109   2.0000      -6.048795      -164.5961
 110   2.0000      -6.045034      -164.4937
 111   2.0000      -1.184516       -32.2323
 112   2.0000      -1.147008       -31.2117
 113   2.0000      -1.137474       -30.9522
 114   2.0000      -1.061670       -28.8895
 115   2.0000      -1.052876       -28.6502
 116   2.0000      -1.036949       -28.2168
 117   2.0000      -1.033683       -28.1280
 118   2.0000      -1.032662       -28.1001
 119   2.0000      -1.028358       -27.9830
 120   2.0000      -1.025531       -27.9061
 121   2.0000      -1.024298       -27.8726
 122   2.0000      -1.019216       -27.7343
 123   2.0000      -1.016912       -27.6716
 124   2.0000      -1.013660       -27.5831
 125   2.0000      -1.010960       -27.5096
 126   2.0000      -1.004216       -27.3261
 127   2.0000      -1.000728       -27.2312
 128   2.0000      -0.997951       -27.1556
 129   2.0000      -0.997142       -27.1336
 130   2.0000      -0.992497       -27.0072
 131   2.0000      -0.973693       -26.4955
 132   2.0000      -0.965848       -26.2821
 133   2.0000      -0.965485       -26.2722
 134   2.0000      -0.962273       -26.1848
 135   2.0000      -0.943225       -25.6665
 136   2.0000      -0.937726       -25.5168
 137   2.0000      -0.931986       -25.3606
 138   2.0000      -0.924075       -25.1454
 139   2.0000      -0.909907       -24.7598
 140   2.0000      -0.904100       -24.6018
 141   2.0000      -0.891247       -24.2521
 142   2.0000      -0.887192       -24.1417
 143   2.0000      -0.880551       -23.9610
 144   2.0000      -0.875994       -23.8370
 145   2.0000      -0.872566       -23.7437
 146   2.0000      -0.867712       -23.6116
 147   2.0000      -0.865849       -23.5610
 148   2.0000      -0.862047       -23.4575
 149   2.0000      -0.858983       -23.3741
 150   2.0000      -0.857539       -23.3348
 151   2.0000      -0.825765       -22.4702
 152   2.0000      -0.813334       -22.1319
 153   2.0000      -0.804817       -21.9002
 154   2.0000      -0.795384       -21.6435
 155   2.0000      -0.786642       -21.4056
 156   2.0000      -0.781062       -21.2538
 157   2.0000      -0.775754       -21.1093
 158   2.0000      -0.770923       -20.9779
 159   2.0000      -0.761104       -20.7107
 160   2.0000      -0.743752       -20.2385
 161   2.0000      -0.730905       -19.8889
 162   2.0000      -0.721627       -19.6365
 163   2.0000      -0.711802       -19.3691
 164   2.0000      -0.707875       -19.2623
 165   2.0000      -0.705040       -19.1851
 166   2.0000      -0.704099       -19.1595
 167   2.0000      -0.697105       -18.9692
 168   2.0000      -0.693288       -18.8653
 169   2.0000      -0.691464       -18.8157
 170   2.0000      -0.682236       -18.5646
 171   2.0000      -0.682044       -18.5594
 172   2.0000      -0.669902       -18.2290
 173   2.0000      -0.661100       -17.9894
 174   2.0000      -0.659900       -17.9568
 175   2.0000      -0.647782       -17.6271
 176   2.0000      -0.643696       -17.5159
 177   2.0000      -0.637549       -17.3486
 178   2.0000      -0.632191       -17.2028
 179   2.0000      -0.629832       -17.1386
 180   2.0000      -0.624371       -16.9900
 181   2.0000      -0.622702       -16.9446
 182   2.0000      -0.622138       -16.9292
 183   2.0000      -0.613446       -16.6927
 184   2.0000      -0.608434       -16.5563
 185   2.0000      -0.601361       -16.3639
 186   2.0000      -0.594303       -16.1718
 187   2.0000      -0.591206       -16.0875
 188   2.0000      -0.583611       -15.8809
 189   2.0000      -0.582770       -15.8580
 190   2.0000      -0.572680       -15.5834
 191   2.0000      -0.568589       -15.4721
 192   2.0000      -0.564300       -15.3554
 193   2.0000      -0.563676       -15.3384
 194   2.0000      -0.559773       -15.2322
 195   2.0000      -0.554973       -15.1016
 196   2.0000      -0.554146       -15.0791
 197   2.0000      -0.552963       -15.0469
 198   2.0000      -0.550787       -14.9877
 199   2.0000      -0.547159       -14.8890
 200   2.0000      -0.545963       -14.8564
 201   2.0000      -0.544153       -14.8071
 202   2.0000      -0.541320       -14.7301
 203   2.0000      -0.537426       -14.6241
 204   2.0000      -0.532848       -14.4995
 205   2.0000      -0.527669       -14.3586
 206   2.0000      -0.525179       -14.2909
 207   2.0000      -0.520459       -14.1624
 208   2.0000      -0.519013       -14.1231
 209   2.0000      -0.517200       -14.0737
 210   2.0000      -0.515582       -14.0297
 211   2.0000      -0.513745       -13.9797
 212   2.0000      -0.511879       -13.9289
 213   2.0000      -0.509851       -13.8738
 214   2.0000      -0.508195       -13.8287
 215   2.0000      -0.506556       -13.7841
 216   2.0000      -0.506004       -13.7691
 217   2.0000      -0.502945       -13.6858
 218   2.0000      -0.501943       -13.6586
 219   2.0000      -0.501501       -13.6465
 220   2.0000      -0.495500       -13.4833
 221   2.0000      -0.494714       -13.4618
 222   2.0000      -0.490069       -13.3355
 223   2.0000      -0.484807       -13.1923
 224   2.0000      -0.484424       -13.1819
 225   2.0000      -0.480441       -13.0735
 226   2.0000      -0.476514       -12.9666
 227   2.0000      -0.472855       -12.8670
 228   2.0000      -0.471893       -12.8409
 229   2.0000      -0.469814       -12.7843
 230   2.0000      -0.468347       -12.7444
 231   2.0000      -0.467153       -12.7119
 232   2.0000      -0.464912       -12.6509
 233   2.0000      -0.463202       -12.6044
 234   2.0000      -0.460689       -12.5360
 235   2.0000      -0.459395       -12.5008
 236   2.0000      -0.456033       -12.4093
 237   2.0000      -0.454529       -12.3684
 238   2.0000      -0.453208       -12.3324
 239   2.0000      -0.451845       -12.2953
 240   2.0000      -0.451310       -12.2808
 241   2.0000      -0.449595       -12.2341
 242   2.0000      -0.449314       -12.2265
 243   2.0000      -0.446268       -12.1436
 244   2.0000      -0.445624       -12.1260
 245   2.0000      -0.445206       -12.1147
 246   2.0000      -0.444700       -12.1009
 247   2.0000      -0.439713       -11.9652
 248   2.0000      -0.439329       -11.9547
 249   2.0000      -0.437233       -11.8977
 250   2.0000      -0.436640       -11.8816
 251   2.0000      -0.436089       -11.8666
 252   2.0000      -0.435687       -11.8556
 253   2.0000      -0.434013       -11.8101
 254   2.0000      -0.433053       -11.7840
 255   2.0000      -0.430738       -11.7210
 256   2.0000      -0.429985       -11.7005
 257   2.0000      -0.429134       -11.6773
 258   2.0000      -0.428127       -11.6499
 259   2.0000      -0.425092       -11.5673
 260   2.0000      -0.418329       -11.3833
 261   2.0000      -0.415290       -11.3006
 262   2.0000      -0.415013       -11.2931
 263   2.0000      -0.411977       -11.2105
 264   2.0000      -0.409509       -11.1433
 265   2.0000      -0.404702       -11.0125
 266   2.0000      -0.396149       -10.7798
 267   2.0000      -0.385341       -10.4857
 268   2.0000      -0.383472       -10.4348
 269   2.0000      -0.381710       -10.3869
 270   2.0000      -0.368943       -10.0395
 271   2.0000      -0.366715        -9.9788
 272   2.0000      -0.355342        -9.6693
 273   2.0000      -0.352759        -9.5991
 274   2.0000      -0.351202        -9.5567
 275   2.0000      -0.345336        -9.3971
 276   2.0000      -0.343778        -9.3547
 277   2.0000      -0.339594        -9.2408
 278   2.0000      -0.336663        -9.1611
 279   2.0000      -0.333623        -9.0784
 280   2.0000      -0.327903        -8.9227
 281   2.0000      -0.318147        -8.6572
 282   2.0000      -0.313677        -8.5356
 283   2.0000      -0.307468        -8.3666
 284   2.0000      -0.282807        -7.6956
 285   2.0000      -0.248217        -6.7543
 286   0.0000      -0.126567        -3.4441
 287   0.0000      -0.113658        -3.0928
 288   0.0000      -0.098459        -2.6792
 289   0.0000      -0.091464        -2.4889
 290   0.0000      -0.075011        -2.0411

MULLIKEN ATOMIC CHARGES
-----------------------
   0 C :    0.272931
   1 C :   -0.327782
   2 C :   -0.174656
   3 N :    0.165371
   4 C :   -0.202905
   5 N :    0.169866
   6 C :    0.009977
   7 C :    0.006177
   8 C :   -0.029703
   9 C :    0.058710
  10 C :    0.049649
  11 C :   -0.012327
  12 Cl:   -0.034667
  13 Cl:   -0.043168
  14 C :    0.134422
  15 O :   -0.139680
  16 C :   -0.142801
  17 C :    0.082756
  18 C :   -0.116214
  19 C :    0.002355
  20 C :   -0.010313
  21 C :   -0.067410
  22 S :    0.213919
  23 C :   -0.106244
  24 C :    0.033703
  25 C :    0.306108
  26 C :   -0.289387
  27 C :   -0.184095
  28 N :    0.170390
  29 C :   -0.186468
  30 N :    0.174625
  31 C :   -0.065525
  32 C :   -0.052600
  33 S :    0.188307
  34 C :   -0.110620
  35 C :    0.239986
  36 O :   -0.304876
  37 C :    0.171573
  38 C :   -0.129658
  39 C :   -0.025132
  40 S :    0.148216
  41 C :   -0.020005
  42 C :   -0.074980
  43 C :    0.031522
  44 C :   -0.106791
  45 S :    0.195515
  46 C :   -0.077593
  47 C :   -0.004652
  48 C :    0.309839
  49 C :   -0.296571
  50 C :   -0.191232
  51 N :    0.202593
  52 C :   -0.190472
  53 N :    0.175246
  54 C :   -0.011834
  55 C :   -0.115793
  56 S :    0.206087
  57 C :    0.043779
  58 C :   -0.089591
  59 C :    0.316915
  60 C :   -0.355952
  61 C :   -0.190797
  62 N :    0.160043
  63 C :   -0.181535
  64 N :    0.151443
  65 C :    0.029692
  66 C :   -0.014352
  67 C :    0.157616
  68 O :   -0.141277
  69 C :   -0.030432
  70 C :    0.062719
  71 C :    0.047063
  72 C :   -0.011795
  73 Cl:   -0.032272
  74 Cl:   -0.038828
  75 H :    0.000266
  76 H :    0.007947
  77 H :    0.023085
  78 H :    0.023846
  79 H :    0.016088
  80 H :    0.061517
  81 H :    0.029635
  82 H :    0.031100
  83 H :   -0.012359
  84 H :    0.018706
  85 H :    0.038861
  86 H :   -0.000246
  87 H :    0.004307
  88 H :    0.001117
Sum of atomic charges:   -0.0000000

LOEWDIN ATOMIC CHARGES
----------------------
   0 C :    0.064245
   1 C :   -0.134052
   2 C :   -0.021317
   3 N :   -0.040931
   4 C :   -0.015163
   5 N :   -0.043696
   6 C :   -0.010218
   7 C :   -0.046397
   8 C :    0.001302
   9 C :   -0.135543
  10 C :   -0.129532
  11 C :   -0.012497
  12 Cl:    0.164155
  13 Cl:    0.158743
  14 C :    0.083112
  15 O :   -0.139639
  16 C :   -0.099429
  17 C :    0.045025
  18 C :   -0.186112
  19 C :    0.013375
  20 C :   -0.070872
  21 C :   -0.151426
  22 S :    0.498453
  23 C :   -0.194130
  24 C :   -0.052241
  25 C :    0.083546
  26 C :   -0.097545
  27 C :   -0.014212
  28 N :   -0.033181
  29 C :   -0.013626
  30 N :   -0.031179
  31 C :   -0.030308
  32 C :   -0.162893
  33 S :    0.470048
  34 C :   -0.221786
  35 C :    0.032046
  36 O :   -0.083270
  37 C :    0.084287
  38 C :   -0.093208
  39 C :   -0.176329
  40 S :    0.451469
  41 C :   -0.164335
  42 C :   -0.037036
  43 C :   -0.047510
  44 C :   -0.193365
  45 S :    0.480106
  46 C :   -0.156205
  47 C :   -0.076206
  48 C :    0.073988
  49 C :   -0.089318
  50 C :   -0.024027
  51 N :   -0.009293
  52 C :   -0.014995
  53 N :   -0.027939
  54 C :    0.018664
  55 C :   -0.177386
  56 S :    0.496827
  57 C :    0.042197
  58 C :   -0.100122
  59 C :    0.076319
  60 C :   -0.137646
  61 C :   -0.020189
  62 N :   -0.045195
  63 C :   -0.022718
  64 N :   -0.049384
  65 C :   -0.015102
  66 C :   -0.043264
  67 C :    0.087576
  68 O :   -0.130283
  69 C :    0.002609
  70 C :   -0.133337
  71 C :   -0.129875
  72 C :   -0.012174
  73 Cl:    0.163990
  74 Cl:    0.162450
  75 H :    0.046157
  76 H :    0.046028
  77 H :    0.046347
  78 H :    0.042738
  79 H :    0.039817
  80 H :    0.039060
  81 H :    0.018916
  82 H :    0.019622
  83 H :    0.028479
  84 H :    0.038113
  85 H :    0.043260
  86 H :    0.042114
  87 H :    0.047862
  88 H :    0.044591

  Mayer bond orders larger than 0.100000
B(  0-C ,  1-C ) :   1.6494 B(  0-C ,  6-C ) :   0.9982 B(  0-C , 16-C ) :   1.0468
B(  1-C ,  2-C ) :   1.1242 B(  1-C ,  4-C ) :   1.1733 B(  2-C ,  3-N ) :   2.9941
B(  4-C ,  5-N ) :   2.9960 B(  6-C ,  7-C ) :   1.3320 B(  6-C , 11-C ) :   1.3492
B(  7-C ,  8-C ) :   1.3490 B(  7-C , 14-C ) :   0.9203 B(  8-C ,  9-C ) :   1.3434
B(  8-C , 75-H ) :   1.0163 B(  9-C , 10-C ) :   1.4083 B(  9-C , 13-Cl) :   1.0471
B( 10-C , 11-C ) :   1.3578 B( 10-C , 12-Cl) :   1.0715 B( 11-C , 76-H ) :   0.9898
B( 14-C , 15-O ) :   2.2663 B( 14-C , 16-C ) :   0.9524 B( 16-C , 17-C ) :   1.6460
B( 17-C , 18-C ) :   1.1562 B( 17-C , 77-H ) :   0.9277 B( 18-C , 19-C ) :   1.3819
B( 18-C , 22-S ) :   1.0791 B( 19-C , 20-C ) :   1.3686 B( 19-C , 78-H ) :   0.9791
B( 20-C , 21-C ) :   1.3956 B( 20-C , 25-C ) :   1.0009 B( 21-C , 22-S ) :   1.1600
B( 21-C , 23-C ) :   1.2094 B( 23-C , 24-C ) :   1.4286 B( 23-C , 33-S ) :   1.1063
B( 24-C , 25-C ) :   0.9910 B( 24-C , 31-C ) :   1.2748 B( 25-C , 26-C ) :   1.7177
B( 26-C , 27-C ) :   1.1360 B( 26-C , 29-C ) :   1.1321 B( 27-C , 28-N ) :   2.9902
B( 29-C , 30-N ) :   2.9862 B( 31-C , 32-C ) :   1.4616 B( 31-C , 79-H ) :   0.9953
B( 32-C , 33-S ) :   1.1049 B( 32-C , 34-C ) :   1.1513 B( 34-C , 35-C ) :   1.4647
B( 34-C , 39-C ) :   0.1182 B( 34-C , 40-S ) :   1.1031 B( 35-C , 36-O ) :   1.1792
B( 35-C , 38-C ) :   1.2244 B( 36-O , 37-C ) :   0.9383 B( 37-C , 80-H ) :   0.9785
B( 37-C , 81-H ) :   0.9711 B( 37-C , 82-H ) :   0.9711 B( 38-C , 39-C ) :   1.4421
B( 38-C , 83-H ) :   0.9984 B( 39-C , 40-S ) :   1.1362 B( 39-C , 41-C ) :   1.1827
B( 41-C , 42-C ) :   1.4321 B( 41-C , 45-S ) :   1.1168 B( 42-C , 43-C ) :   1.3107
B( 42-C , 84-H ) :   0.9890 B( 43-C , 44-C ) :   1.4328 B( 43-C , 48-C ) :   0.9910
B( 44-C , 45-S ) :   1.1023 B( 44-C , 46-C ) :   1.2129 B( 46-C , 47-C ) :   1.3693
B( 46-C , 56-S ) :   1.1684 B( 47-C , 48-C ) :   0.9982 B( 47-C , 54-C ) :   1.3141
B( 48-C , 49-C ) :   1.7182 B( 49-C , 50-C ) :   1.1375 B( 49-C , 52-C ) :   1.1354
B( 50-C , 51-N ) :   2.9990 B( 52-C , 53-N ) :   2.9873 B( 54-C , 55-C ) :   1.3922
B( 54-C , 85-H ) :   0.9687 B( 55-C , 56-S ) :   1.0715 B( 55-C , 57-C ) :   1.2330
B( 57-C , 58-C ) :   1.5883 B( 57-C , 86-H ) :   0.9014 B( 58-C , 59-C ) :   1.0884
B( 58-C , 67-C ) :   0.9395 B( 59-C , 60-C ) :   1.6243 B( 59-C , 65-C ) :   0.9860
B( 60-C , 61-C ) :   1.1450 B( 60-C , 63-C ) :   1.1420 B( 61-C , 62-N ) :   2.9711
B( 63-C , 64-N ) :   2.9567 B( 65-C , 66-C ) :   1.3325 B( 65-C , 72-C ) :   1.3391
B( 66-C , 67-C ) :   0.9531 B( 66-C , 69-C ) :   1.3456 B( 67-C , 68-O ) :   2.1695
B( 69-C , 70-C ) :   1.3363 B( 69-C , 87-H ) :   1.0181 B( 70-C , 71-C ) :   1.4050
B( 70-C , 74-Cl) :   1.0514 B( 71-C , 72-C ) :   1.3606 B( 71-C , 73-Cl) :   1.0803
B( 72-C , 88-H ) :   0.9855

-----------------------------------------------------------------------------
         ABSORPTION SPECTRUM VIA TRANSITION ELECTRIC DIPOLE MOMENTS
-----------------------------------------------------------------------------
State   Energy  Wavelength   fosc         T2         TX        TY        TZ
        (cm-1)    (nm)                  (au**2)     (au)      (au)      (au)
-----------------------------------------------------------------------------
   0   11154.1    896.5   0.813201827  24.00158  -1.81146  -4.30377   1.48250
   1   12575.3    795.2   0.060349111   1.57989   0.54552   0.72114  -0.87307
   2   18154.6    550.8   1.459433269  26.46504   2.13385   4.50855  -1.25885
   3   19715.5    507.2   0.029295331   0.48918   0.00342  -0.28203   0.64002
   4   20521.0    487.3   0.457481930   7.33924  -0.84138  -2.18155   1.36828
   5   22616.7    442.2   0.019094311   0.27794   0.40207   0.34012   0.02447
   6   24851.6    402.4   0.219682657   2.91016  -0.50479  -1.47141   0.70021
   7   25949.7    385.4   0.067128037   0.85162   0.33552  -0.43011  -0.74435
   8   26872.9    372.1   0.103176810   1.26399  -0.36768  -1.06191   0.03379
   9   27162.6    368.2   0.005567139   0.06747   0.06092   0.25151  -0.02253
  10   27713.0    360.8   0.194842336   2.31460   0.47235   0.57608  -1.32651
  11   27957.3    357.7   0.165232616   1.94570  -0.44117   1.29457   0.27414
  12   28528.4    350.5   0.027852408   0.32141  -0.29654  -0.38327   0.29424
  13   28897.4    346.1   0.193849632   2.20842  -0.95698  -1.03282   0.47527
  14   29178.2    342.7   0.009529554   0.10752   0.13858   0.29252   0.05244
  15   29637.2    337.4   0.039347925   0.43708  -0.23444   0.14716   0.60038
  16   30200.0    331.1   0.031087351   0.33888  -0.10977  -0.56379  -0.09472
  17   30411.3    328.8   0.006118582   0.06624   0.20753  -0.08507  -0.12622
  18   30602.8    326.8   0.293513662   3.15749   0.71277   0.93380  -1.33322
  19   30746.0    325.2   0.439017195   4.70076  -0.39446   1.43177   1.57962
  20   31213.4    320.4   0.154996322   1.63477  -0.52876   0.92149   0.71136
  21   31860.2    313.9   0.024477848   0.25293  -0.29451  -0.22010  -0.34315
  22   32349.9    309.1   0.152175534   1.54863   0.63233  -0.50326  -0.94632
  23   32678.1    306.0   0.095521191   0.96232  -0.58770   0.35972   0.69823
  24   32723.6    305.6   0.077605525   0.78074   0.00714   0.78241  -0.41051
  25   32893.8    304.0   0.176278696   1.76425   0.63573   0.63173  -0.98031
  26   33015.8    302.9   0.039661014   0.39547   0.07468  -0.52572  -0.33692
  27   33439.6    299.0   0.112237316   1.10497   0.21118   0.96713  -0.35360
  28   33846.1    295.5   0.063452695   0.61719  -0.05901   0.74499   0.24227
  29   33931.0    294.7   0.241703016   2.34510  -0.88407  -0.23149   1.22879
  30   34144.6    292.9   0.060209560   0.58052   0.30183  -0.23611  -0.65854
  31   34234.6    292.1   0.081468788   0.78343   0.19346   0.49466  -0.70804
  32   34507.9    289.8   0.210876270   2.01180   0.70761  -0.96283  -0.76423
  33   34734.4    287.9   0.026182738   0.24816  -0.16258  -0.46728   0.05807
  34   34932.5    286.3   0.059660951   0.56226  -0.07727   0.74395   0.05316
  35   35174.6    284.3   0.386883925   3.62099   0.48755  -1.69044  -0.72505
  36   35265.1    283.6   0.297898692   2.78099  -0.36014   0.68174   1.47869
  37   35411.2    282.4   0.000271578   0.00252  -0.02825   0.02533   0.03294
  38   35568.9    281.1   0.176283960   1.63162  -0.61621   1.11122   0.13071
  39   35808.1    279.3   0.215372702   1.98009  -0.57437   1.26746   0.20914
  40   36164.6    276.5   0.077049936   0.70140  -0.21561  -0.00145   0.80926
  41   36354.2    275.1   0.090333186   0.81803   0.32283   0.19870  -0.82117
  42   36836.6    271.5   0.065225036   0.58292   0.15140  -0.72000  -0.20397
  43   37164.3    269.1   0.055931698   0.49546  -0.49942  -0.36783   0.33278
  44   37484.7    266.8   0.034782520   0.30548   0.16865   0.41433  -0.32460
  45   37928.3    263.7   0.075736100   0.65738  -0.12775  -0.79687   0.07782
  46   38150.8    262.1   0.039466655   0.34057  -0.02161  -0.46793  -0.34805
  47   38442.7    260.1   0.058594517   0.50179  -0.45092   0.08650   0.53942
  48   38536.2    259.5   0.011723260   0.10015   0.11594   0.22622  -0.18851
  49   39183.1    255.2   0.018705139   0.15716  -0.08728   0.32731   0.20593
  50   39415.8    253.7   0.020132764   0.16815  -0.03436  -0.00091  -0.40862
  51   39548.1    252.9   0.048828373   0.40646   0.25930   0.57841   0.06834
  52   39846.6    251.0   0.020316595   0.16786   0.24639   0.03904  -0.32500
  53   40092.7    249.4   0.027152273   0.22295   0.18077   0.41023  -0.14828
  54   40289.4    248.2   0.017683649   0.14450   0.29776   0.07883  -0.22276

FINAL SINGLE POINT ENERGY     -6594.863831742836

DIPOLE MOMENT
-------------
                                X             Y             Z
Electronic contribution:     -9.67313      11.65377      20.10913
Nuclear contribution   :      8.02548     -11.96903     -20.80243
                        -----------------------------------------
Total Dipole Moment    :     -1.64765      -0.31526      -0.69330
                        -----------------------------------------
Magnitude (a.u.)       :      1.81516
Magnitude (Debye)      :      4.61377

Rotational constants in cm-1:     0.002500     0.000138     0.000132
Rotational constants in MHz :    74.962700     4.133642     3.948483

                             ****ORCA TERMINATED NORMALLY****
TOTAL RUN TIME: 0 days 0 hours 10 minutes 3 seconds 867 msec
