                         Program Version 4.2.0 -  RELEASE  -
|  1> # ORCA input file
|  2> # SCF done       -180.361426836276          0.001066478392
|  3> ! CAM-B3LYP def2-SVP def2/J RIJCOSX Grid4 TightSCF
|  4> %maxcore 5000
|  5> %tddft
|  6>     Mode sTDDFT
|  7>     Ethresh 5.0
|  8>     maxcore 5000
|  9> end
| 10>
| 11> %pal
| 12>   nprocs 6
| 13>   end
| 14> * xyz 0 1
| 15>    C       -6.36930        -3.50761        -3.98288
| 16>    C       -7.09548        -3.93399        -5.06676
| 17>    C       -7.24402        -3.18705        -6.25384
| 18>    N       -7.40635        -2.62402        -7.24103
| 19>    C       -7.78893        -5.15833        -5.15579
| 20>    N       -8.39660        -6.12241        -5.29727
| 21>    C       -5.69621        -2.21010        -3.87987
| 22>    C       -4.97858        -2.16849        -2.67325
| 23>    C       -4.24999        -1.06105        -2.29373
| 24>    C       -4.28678         0.06044        -3.11221
| 25>    C       -5.05015         0.05174        -4.28128
| 26>    C       -5.73502        -1.08802        -4.69006
| 27>   Cl       -5.20107         1.47943        -5.22481
| 28>   Cl       -3.41504         1.46102        -2.65251
| 29>    C       -5.23152        -3.40697        -1.90566
| 30>    O       -4.73472        -3.70894        -0.84111
| 31>    C       -6.18925        -4.18863        -2.71965
| 32>    C       -6.75569        -5.38938        -2.35022
| 33>    C       -6.89480        -5.91611        -1.04083
| 34>    S       -6.81768        -7.69012        -1.07896
| 35>    C       -7.72105        -8.16110         0.35120
| 36>    C       -8.37934        -9.34610         0.46490
| 37>    S       -9.08867        -9.54211         2.01817
| 38>    C       -8.51451        -8.00200         2.51521
| 39>    C       -7.79937        -7.38448         1.53536
| 40>    S       -7.07719        -5.79444         1.74604
| 41>    C       -7.07091        -5.15569         0.09896
| 42>    C       -7.26929        -3.75396        -0.00036
| 43>    C       -6.99899        -2.82521         0.95459
| 44>    C       -6.92808        -1.43847         0.68548
| 45>    N       -7.13862        -0.90016        -0.57035
| 46>    C       -6.77310         0.40534        -0.54939
| 47>    C       -6.59963         1.52763        -1.34557
| 48>    C       -6.08979         2.52466        -0.50042
| 49>    N       -5.98449         2.02698         0.78335
| 50>    C       -6.36737         0.72308         0.77605
| 51>    C       -6.46847        -0.42867         1.54651
| 52>    C       -5.66469         3.83558        -0.82555
| 53>    C       -5.43970         4.24990        -2.09882
| 54>    C       -5.03039         5.56170        -2.48211
| 55>    S       -5.48440         6.80629        -1.31814
| 56>    C       -4.36579         8.11521        -1.67397
| 57>    C       -3.93667         9.00807        -0.74185
| 58>    S       -2.91491        10.20737        -1.42799
| 59>    C       -3.05038         9.48617        -2.98387
| 60>    C       -3.85524         8.39049        -2.96851
| 61>    S       -4.24321         7.44208        -4.39480
| 62>    C       -4.39681         5.81068        -3.68452
| 63>    C       -3.82595         4.76134        -4.43962
| 64>    C       -3.19957         4.88480        -5.64907
| 65>    C       -2.62773         3.76547        -6.27522
| 66>    C       -1.99225         3.77424        -7.49266
| 67>    C       -1.40194         2.63927        -8.16473
| 68>    C       -1.36743         1.33579        -7.73324
| 69>    C       -0.76056         0.28136        -8.44776
| 70>    N       -0.28529        -0.62509        -8.96803
| 71>    C       -1.91637         0.83328        -6.53743
| 72>    N       -2.32993         0.31468        -5.59835
| 73>    C       -0.83176         3.11974        -9.42363
| 74>    C       -1.06343         4.50147        -9.52965
| 75>    C       -1.79668         4.97542        -8.33340
| 76>    O       -2.14628         6.11527        -8.11293
| 77>    C       -0.63728         5.23160       -10.61915
| 78>    C        0.04016         4.56633       -11.63365
| 79>    C        0.27563         3.19128       -11.53780
| 80>    C       -0.15662         2.45934       -10.43692
| 81>   Cl        1.11475         2.37944       -12.79840
| 82>   Cl        0.58912         5.43908       -13.00732
| 83>    H       -3.68759        -1.06381        -1.37352
| 84>    H       -6.29307        -1.06381        -5.61162
| 85>    H       -7.10970        -6.04444        -3.13726
| 86>    H       -8.46725       -10.11577        -0.27403
| 87>    H       -8.71929        -7.63693         3.50074
| 88>    H       -7.57438        -3.41490        -0.98154
| 89>    H       -6.68967        -3.13962         1.94040
| 90>    H       -7.44610        -1.41201        -1.37737
| 91>    H       -6.81544         1.63735        -2.38833
| 92>    H       -5.61589         2.54133         1.56499
| 93>    H       -6.22967        -0.56347         2.58208
| 94>    H       -5.45669         4.50361         0.00047
| 95>    H       -5.58359         3.53899        -2.89722
| 96>    H       -4.17846         9.03363         0.30103
| 97>    H       -2.54885         9.91588        -3.82652
| 98>    H       -3.85125         3.77835        -3.99090
| 99>    H       -3.13186         5.84257        -6.14291
|100>    H       -2.70007         2.82448        -5.74441
|101>    H       -0.82712         6.29163       -10.67871
|102>    H        0.04383         1.40129       -10.40094
|103> *
|104>
|105>                          ****END OF INPUT****

CARTESIAN COORDINATES (ANGSTROEM)
---------------------------------
  C     -6.369300   -3.507610   -3.982880
  C     -7.095480   -3.933990   -5.066760
  C     -7.244020   -3.187050   -6.253840
  N     -7.406350   -2.624020   -7.241030
  C     -7.788930   -5.158330   -5.155790
  N     -8.396600   -6.122410   -5.297270
  C     -5.696210   -2.210100   -3.879870
  C     -4.978580   -2.168490   -2.673250
  C     -4.249990   -1.061050   -2.293730
  C     -4.286780    0.060440   -3.112210
  C     -5.050150    0.051740   -4.281280
  C     -5.735020   -1.088020   -4.690060
  Cl    -5.201070    1.479430   -5.224810
  Cl    -3.415040    1.461020   -2.652510
  C     -5.231520   -3.406970   -1.905660
  O     -4.734720   -3.708940   -0.841110
  C     -6.189250   -4.188630   -2.719650
  C     -6.755690   -5.389380   -2.350220
  C     -6.894800   -5.916110   -1.040830
  S     -6.817680   -7.690120   -1.078960
  C     -7.721050   -8.161100    0.351200
  C     -8.379340   -9.346100    0.464900
  S     -9.088670   -9.542110    2.018170
  C     -8.514510   -8.002000    2.515210
  C     -7.799370   -7.384480    1.535360
  S     -7.077190   -5.794440    1.746040
  C     -7.070910   -5.155690    0.098960
  C     -7.269290   -3.753960   -0.000360
  C     -6.998990   -2.825210    0.954590
  C     -6.928080   -1.438470    0.685480
  N     -7.138620   -0.900160   -0.570350
  C     -6.773100    0.405340   -0.549390
  C     -6.599630    1.527630   -1.345570
  C     -6.089790    2.524660   -0.500420
  N     -5.984490    2.026980    0.783350
  C     -6.367370    0.723080    0.776050
  C     -6.468470   -0.428670    1.546510
  C     -5.664690    3.835580   -0.825550
  C     -5.439700    4.249900   -2.098820
  C     -5.030390    5.561700   -2.482110
  S     -5.484400    6.806290   -1.318140
  C     -4.365790    8.115210   -1.673970
  C     -3.936670    9.008070   -0.741850
  S     -2.914910   10.207370   -1.427990
  C     -3.050380    9.486170   -2.983870
  C     -3.855240    8.390490   -2.968510
  S     -4.243210    7.442080   -4.394800
  C     -4.396810    5.810680   -3.684520
  C     -3.825950    4.761340   -4.439620
  C     -3.199570    4.884800   -5.649070
  C     -2.627730    3.765470   -6.275220
  C     -1.992250    3.774240   -7.492660
  C     -1.401940    2.639270   -8.164730
  C     -1.367430    1.335790   -7.733240
  C     -0.760560    0.281360   -8.447760
  N     -0.285290   -0.625090   -8.968030
  C     -1.916370    0.833280   -6.537430
  N     -2.329930    0.314680   -5.598350
  C     -0.831760    3.119740   -9.423630
  C     -1.063430    4.501470   -9.529650
  C     -1.796680    4.975420   -8.333400
  O     -2.146280    6.115270   -8.112930
  C     -0.637280    5.231600  -10.619150
  C      0.040160    4.566330  -11.633650
  C      0.275630    3.191280  -11.537800
  C     -0.156620    2.459340  -10.436920
  Cl     1.114750    2.379440  -12.798400
  Cl     0.589120    5.439080  -13.007320
  H     -3.687590   -1.063810   -1.373520
  H     -6.293070   -1.063810   -5.611620
  H     -7.109700   -6.044440   -3.137260
  H     -8.467250  -10.115770   -0.274030
  H     -8.719290   -7.636930    3.500740
  H     -7.574380   -3.414900   -0.981540
  H     -6.689670   -3.139620    1.940400
  H     -7.446100   -1.412010   -1.377370
  H     -6.815440    1.637350   -2.388330
  H     -5.615890    2.541330    1.564990
  H     -6.229670   -0.563470    2.582080
  H     -5.456690    4.503610    0.000470
  H     -5.583590    3.538990   -2.897220
  H     -4.178460    9.033630    0.301030
  H     -2.548850    9.915880   -3.826520
  H     -3.851250    3.778350   -3.990900
  H     -3.131860    5.842570   -6.142910
  H     -2.700070    2.824480   -5.744410
  H     -0.827120    6.291630  -10.678710
  H      0.043830    1.401290  -10.400940

 Total Charge           Charge          ....    0
 Multiplicity           Mult            ....    1
 Number of Electrons    NEL             ....  542
 Basis Dimension        Dim             .... 1092

ORBITAL ENERGIES
----------------

  NO   OCC          E(Eh)            E(eV)
   0   2.0000    -101.610106     -2764.9515
   1   2.0000    -101.609344     -2764.9308
   2   2.0000    -101.594516     -2764.5273
   3   2.0000    -101.592377     -2764.4691
   4   2.0000     -88.968831     -2420.9650
   5   2.0000     -88.968521     -2420.9565
   6   2.0000     -88.962135     -2420.7828
   7   2.0000     -88.958285     -2420.6780
   8   2.0000     -88.948490     -2420.4115
   9   2.0000     -88.941932     -2420.2330
  10   2.0000     -19.218895      -522.9727
  11   2.0000     -19.212216      -522.7910
  12   2.0000     -14.476534      -393.9265
  13   2.0000     -14.472347      -393.8126
  14   2.0000     -14.417782      -392.3278
  15   2.0000     -14.416416      -392.2906
  16   2.0000     -14.415288      -392.2599
  17   2.0000     -14.408844      -392.0846
  18   2.0000     -10.368631      -282.1448
  19   2.0000     -10.362865      -281.9879
  20   2.0000     -10.357521      -281.8425
  21   2.0000     -10.357052      -281.8297
  22   2.0000     -10.349535      -281.6252
  23   2.0000     -10.348846      -281.6064
  24   2.0000     -10.346243      -281.5356
  25   2.0000     -10.345641      -281.5192
  26   2.0000     -10.340622      -281.3826
  27   2.0000     -10.337693      -281.3029
  28   2.0000     -10.336725      -281.2766
  29   2.0000     -10.336703      -281.2760
  30   2.0000     -10.324818      -280.9526
  31   2.0000     -10.324056      -280.9318
  32   2.0000     -10.323628      -280.9202
  33   2.0000     -10.320258      -280.8285
  34   2.0000     -10.319889      -280.8184
  35   2.0000     -10.319239      -280.8008
  36   2.0000     -10.318914      -280.7919
  37   2.0000     -10.316612      -280.7293
  38   2.0000     -10.316304      -280.7209
  39   2.0000     -10.315768      -280.7063
  40   2.0000     -10.315063      -280.6871
  41   2.0000     -10.312900      -280.6283
  42   2.0000     -10.312654      -280.6216
  43   2.0000     -10.312479      -280.6168
  44   2.0000     -10.312203      -280.6093
  45   2.0000     -10.311866      -280.6002
  46   2.0000     -10.309992      -280.5491
  47   2.0000     -10.309553      -280.5372
  48   2.0000     -10.308883      -280.5190
  49   2.0000     -10.308081      -280.4971
  50   2.0000     -10.307577      -280.4834
  51   2.0000     -10.307170      -280.4724
  52   2.0000     -10.305882      -280.4373
  53   2.0000     -10.305456      -280.4257
  54   2.0000     -10.304486      -280.3993
  55   2.0000     -10.303300      -280.3671
  56   2.0000     -10.302171      -280.3363
  57   2.0000     -10.302132      -280.3353
  58   2.0000     -10.301765      -280.3253
  59   2.0000     -10.301762      -280.3252
  60   2.0000     -10.301730      -280.3243
  61   2.0000     -10.294819      -280.1363
  62   2.0000     -10.294210      -280.1197
  63   2.0000     -10.293484      -280.0999
  64   2.0000     -10.287565      -279.9389
  65   2.0000     -10.285722      -279.8887
  66   2.0000     -10.281441      -279.7722
  67   2.0000     -10.275371      -279.6071
  68   2.0000      -9.564259      -260.2567
  69   2.0000      -9.563312      -260.2310
  70   2.0000      -9.549594      -259.8577
  71   2.0000      -9.547447      -259.7992
  72   2.0000      -8.064921      -219.4577
  73   2.0000      -8.064546      -219.4475
  74   2.0000      -8.057348      -219.2516
  75   2.0000      -8.053827      -219.1558
  76   2.0000      -8.043943      -218.8868
  77   2.0000      -8.037282      -218.7055
  78   2.0000      -7.334477      -199.5813
  79   2.0000      -7.333557      -199.5562
  80   2.0000      -7.324566      -199.3116
  81   2.0000      -7.324016      -199.2966
  82   2.0000      -7.323588      -199.2850
  83   2.0000      -7.323112      -199.2720
  84   2.0000      -7.319964      -199.1863
  85   2.0000      -7.317840      -199.1286
  86   2.0000      -7.309859      -198.9114
  87   2.0000      -7.309134      -198.8916
  88   2.0000      -7.307682      -198.8521
  89   2.0000      -7.306983      -198.8331
  90   2.0000      -6.034280      -164.2011
  91   2.0000      -6.033903      -164.1908
  92   2.0000      -6.029900      -164.0819
  93   2.0000      -6.029535      -164.0720
  94   2.0000      -6.027530      -164.0174
  95   2.0000      -6.027053      -164.0044
  96   2.0000      -6.026704      -163.9950
  97   2.0000      -6.024079      -163.9235
  98   2.0000      -6.023247      -163.9009
  99   2.0000      -6.020098      -163.8152
 100   2.0000      -6.017687      -163.7496
 101   2.0000      -6.014478      -163.6623
 102   2.0000      -6.013659      -163.6400
 103   2.0000      -6.010108      -163.5434
 104   2.0000      -6.007775      -163.4799
 105   2.0000      -6.003818      -163.3722
 106   2.0000      -6.003589      -163.3660
 107   2.0000      -5.996621      -163.1763
 108   2.0000      -1.133835       -30.8532
 109   2.0000      -1.126782       -30.6613
 110   2.0000      -1.107597       -30.1392
 111   2.0000      -1.070995       -29.1432
 112   2.0000      -1.034230       -28.1428
 113   2.0000      -1.024285       -27.8722
 114   2.0000      -1.017583       -27.6898
 115   2.0000      -1.011330       -27.5197
 116   2.0000      -1.008913       -27.4539
 117   2.0000      -1.008465       -27.4417
 118   2.0000      -0.995479       -27.0884
 119   2.0000      -0.993638       -27.0383
 120   2.0000      -0.990490       -26.9526
 121   2.0000      -0.983953       -26.7747
 122   2.0000      -0.971700       -26.4413
 123   2.0000      -0.970145       -26.3990
 124   2.0000      -0.968706       -26.3598
 125   2.0000      -0.955305       -25.9952
 126   2.0000      -0.935442       -25.4547
 127   2.0000      -0.931766       -25.3546
 128   2.0000      -0.921973       -25.0882
 129   2.0000      -0.919817       -25.0295
 130   2.0000      -0.908588       -24.7239
 131   2.0000      -0.904389       -24.6097
 132   2.0000      -0.896093       -24.3839
 133   2.0000      -0.893048       -24.3011
 134   2.0000      -0.885453       -24.0944
 135   2.0000      -0.881076       -23.9753
 136   2.0000      -0.878042       -23.8927
 137   2.0000      -0.869980       -23.6733
 138   2.0000      -0.862031       -23.4571
 139   2.0000      -0.859938       -23.4001
 140   2.0000      -0.853821       -23.2336
 141   2.0000      -0.842146       -22.9159
 142   2.0000      -0.831371       -22.6228
 143   2.0000      -0.816877       -22.2284
 144   2.0000      -0.807277       -21.9671
 145   2.0000      -0.792853       -21.5746
 146   2.0000      -0.782570       -21.2948
 147   2.0000      -0.779299       -21.2058
 148   2.0000      -0.771399       -20.9908
 149   2.0000      -0.766814       -20.8661
 150   2.0000      -0.761643       -20.7254
 151   2.0000      -0.755402       -20.5555
 152   2.0000      -0.737846       -20.0778
 153   2.0000      -0.720963       -19.6184
 154   2.0000      -0.712873       -19.3983
 155   2.0000      -0.710290       -19.3280
 156   2.0000      -0.703463       -19.1422
 157   2.0000      -0.694905       -18.9093
 158   2.0000      -0.690650       -18.7935
 159   2.0000      -0.688123       -18.7248
 160   2.0000      -0.682167       -18.5627
 161   2.0000      -0.676553       -18.4099
 162   2.0000      -0.672216       -18.2919
 163   2.0000      -0.670369       -18.2417
 164   2.0000      -0.664833       -18.0910
 165   2.0000      -0.659456       -17.9447
 166   2.0000      -0.653437       -17.7809
 167   2.0000      -0.645951       -17.5772
 168   2.0000      -0.639621       -17.4050
 169   2.0000      -0.636121       -17.3097
 170   2.0000      -0.624708       -16.9992
 171   2.0000      -0.619809       -16.8658
 172   2.0000      -0.611291       -16.6341
 173   2.0000      -0.608438       -16.5564
 174   2.0000      -0.600325       -16.3357
 175   2.0000      -0.597197       -16.2506
 176   2.0000      -0.593730       -16.1562
 177   2.0000      -0.586483       -15.9590
 178   2.0000      -0.582513       -15.8510
 179   2.0000      -0.575754       -15.6671
 180   2.0000      -0.570171       -15.5151
 181   2.0000      -0.566394       -15.4124
 182   2.0000      -0.564237       -15.3537
 183   2.0000      -0.558977       -15.2105
 184   2.0000      -0.557579       -15.1725
 185   2.0000      -0.556360       -15.1393
 186   2.0000      -0.553721       -15.0675
 187   2.0000      -0.546923       -14.8825
 188   2.0000      -0.544023       -14.8036
 189   2.0000      -0.541591       -14.7375
 190   2.0000      -0.539796       -14.6886
 191   2.0000      -0.537711       -14.6319
 192   2.0000      -0.533971       -14.5301
 193   2.0000      -0.532565       -14.4918
 194   2.0000      -0.531045       -14.4505
 195   2.0000      -0.527444       -14.3525
 196   2.0000      -0.518450       -14.1077
 197   2.0000      -0.516591       -14.0572
 198   2.0000      -0.513773       -13.9805
 199   2.0000      -0.511338       -13.9142
 200   2.0000      -0.508201       -13.8289
 201   2.0000      -0.506860       -13.7924
 202   2.0000      -0.504837       -13.7373
 203   2.0000      -0.501773       -13.6539
 204   2.0000      -0.500829       -13.6283
 205   2.0000      -0.500587       -13.6217
 206   2.0000      -0.499261       -13.5856
 207   2.0000      -0.494011       -13.4427
 208   2.0000      -0.491992       -13.3878
 209   2.0000      -0.491392       -13.3714
 210   2.0000      -0.489334       -13.3154
 211   2.0000      -0.488203       -13.2847
 212   2.0000      -0.486258       -13.2317
 213   2.0000      -0.478798       -13.0287
 214   2.0000      -0.476855       -12.9759
 215   2.0000      -0.474511       -12.9121
 216   2.0000      -0.468038       -12.7360
 217   2.0000      -0.465658       -12.6712
 218   2.0000      -0.461600       -12.5608
 219   2.0000      -0.460130       -12.5208
 220   2.0000      -0.458189       -12.4680
 221   2.0000      -0.455865       -12.4047
 222   2.0000      -0.454088       -12.3564
 223   2.0000      -0.449843       -12.2409
 224   2.0000      -0.449122       -12.2212
 225   2.0000      -0.444370       -12.0919
 226   2.0000      -0.443167       -12.0592
 227   2.0000      -0.440515       -11.9870
 228   2.0000      -0.438656       -11.9364
 229   2.0000      -0.438094       -11.9211
 230   2.0000      -0.434556       -11.8249
 231   2.0000      -0.430318       -11.7095
 232   2.0000      -0.429761       -11.6944
 233   2.0000      -0.428873       -11.6702
 234   2.0000      -0.428318       -11.6551
 235   2.0000      -0.426572       -11.6076
 236   2.0000      -0.422961       -11.5093
 237   2.0000      -0.421374       -11.4662
 238   2.0000      -0.419506       -11.4153
 239   2.0000      -0.417162       -11.3516
 240   2.0000      -0.413107       -11.2412
 241   2.0000      -0.411672       -11.2022
 242   2.0000      -0.407608       -11.0916
 243   2.0000      -0.407001       -11.0751
 244   2.0000      -0.405604       -11.0371
 245   2.0000      -0.403437       -10.9781
 246   2.0000      -0.401016       -10.9122
 247   2.0000      -0.392062       -10.6685
 248   2.0000      -0.390872       -10.6362
 249   2.0000      -0.385611       -10.4930
 250   2.0000      -0.381647       -10.3851
 251   2.0000      -0.378244       -10.2925
 252   2.0000      -0.375595       -10.2205
 253   2.0000      -0.366502        -9.9730
 254   2.0000      -0.362760        -9.8712
 255   2.0000      -0.351684        -9.5698
 256   2.0000      -0.348256        -9.4765
 257   2.0000      -0.340389        -9.2625
 258   2.0000      -0.338035        -9.1984
 259   2.0000      -0.332451        -9.0465
 260   2.0000      -0.331024        -9.0076
 261   2.0000      -0.317889        -8.6502
 262   2.0000      -0.311761        -8.4835
 263   2.0000      -0.307012        -8.3542
 264   2.0000      -0.305193        -8.3047
 265   2.0000      -0.304420        -8.2837
 266   2.0000      -0.299518        -8.1503
 267   2.0000      -0.287796        -7.8313
 268   2.0000      -0.273046        -7.4300
 269   2.0000      -0.259008        -7.0480
 270   2.0000      -0.231635        -6.3031
 271   0.0000      -0.108157        -2.9431
 272   0.0000      -0.093211        -2.5364
 273   0.0000      -0.068747        -1.8707
 274   0.0000      -0.062984        -1.7139
 275   0.0000      -0.040467        -1.1012

MULLIKEN ATOMIC CHARGES
-----------------------
   0 C :    0.319277
   1 C :   -0.341914
   2 C :   -0.185775
   3 N :    0.152879
   4 C :   -0.198255
   5 N :    0.161960
   6 C :    0.021902
   7 C :   -0.035550
   8 C :   -0.005821
   9 C :    0.084901
  10 C :    0.061817
  11 C :   -0.016969
  12 Cl:   -0.035944
  13 Cl:   -0.032281
  14 C :    0.123069
  15 O :   -0.130834
  16 C :   -0.161854
  17 C :    0.015604
  18 C :   -0.074472
  19 S :    0.109216
  20 C :   -0.005193
  21 C :   -0.118789
  22 S :    0.134215
  23 C :   -0.116359
  24 C :   -0.006649
  25 S :    0.106011
  26 C :   -0.007324
  27 C :   -0.028182
  28 C :    0.055562
  29 C :    0.081508
  30 N :   -0.045818
  31 C :    0.100323
  32 C :   -0.143883
  33 C :    0.091248
  34 N :   -0.029546
  35 C :    0.125412
  36 C :   -0.157541
  37 C :    0.029318
  38 C :   -0.059147
  39 C :    0.002447
  40 S :    0.111842
  41 C :   -0.013356
  42 C :   -0.121109
  43 S :    0.129658
  44 C :   -0.119692
  45 C :   -0.002978
  46 S :    0.103523
  47 C :   -0.057363
  48 C :    0.008395
  49 C :   -0.002615
  50 C :   -0.035428
  51 C :   -0.078234
  52 C :    0.335844
  53 C :   -0.360505
  54 C :   -0.197136
  55 N :    0.153903
  56 C :   -0.182453
  57 N :    0.135072
  58 C :    0.025452
  59 C :   -0.009564
  60 C :    0.142498
  61 O :   -0.145356
  62 C :   -0.034650
  63 C :    0.060869
  64 C :    0.048320
  65 C :   -0.015294
  66 Cl:   -0.039281
  67 Cl:   -0.047309
  68 H :   -0.002739
  69 H :   -0.002953
  70 H :    0.039263
  71 H :    0.033324
  72 H :    0.028067
  73 H :   -0.003264
  74 H :    0.003696
  75 H :    0.131800
  76 H :   -0.024354
  77 H :    0.124619
  78 H :   -0.026979
  79 H :   -0.009357
  80 H :    0.003897
  81 H :    0.026031
  82 H :    0.033487
  83 H :   -0.006368
  84 H :    0.034064
  85 H :   -0.008947
  86 H :   -0.003545
  87 H :   -0.001363
Sum of atomic charges:   -0.0000000

LOEWDIN ATOMIC CHARGES
----------------------
   0 C :    0.067301
   1 C :   -0.136935
   2 C :   -0.020505
   3 N :   -0.048034
   4 C :   -0.023442
   5 N :   -0.043285
   6 C :   -0.021209
   7 C :   -0.046343
   8 C :    0.004264
   9 C :   -0.123396
  10 C :   -0.129594
  11 C :   -0.013965
  12 Cl:    0.182481
  13 Cl:    0.193046
  14 C :    0.065735
  15 O :   -0.130554
  16 C :   -0.111286
  17 C :    0.038224
  18 C :   -0.191199
  19 S :    0.366567
  20 C :   -0.216959
  21 C :   -0.199789
  22 S :    0.456622
  23 C :   -0.202691
  24 C :   -0.214634
  25 S :    0.381803
  26 C :   -0.111476
  27 C :   -0.056567
  28 C :    0.000775
  29 C :    0.003919
  30 N :    0.073001
  31 C :   -0.008972
  32 C :   -0.081090
  33 C :    0.000265
  34 N :    0.074021
  35 C :   -0.017695
  36 C :   -0.072914
  37 C :   -0.013307
  38 C :   -0.057903
  39 C :   -0.132514
  40 S :    0.390085
  41 C :   -0.220457
  42 C :   -0.201641
  43 S :    0.453087
  44 C :   -0.199853
  45 C :   -0.213311
  46 S :    0.357693
  47 C :   -0.197962
  48 C :    0.013439
  49 C :   -0.051078
  50 C :    0.067691
  51 C :   -0.109801
  52 C :    0.076713
  53 C :   -0.146099
  54 C :   -0.020847
  55 N :   -0.054471
  56 C :   -0.012017
  57 N :   -0.070589
  58 C :   -0.013832
  59 C :   -0.041667
  60 C :    0.082918
  61 O :   -0.142074
  62 C :   -0.001787
  63 C :   -0.135086
  64 C :   -0.132055
  65 C :   -0.013168
  66 Cl:    0.158114
  67 Cl:    0.155336
  68 H :    0.045526
  69 H :    0.043819
  70 H :    0.040958
  71 H :    0.028862
  72 H :    0.026552
  73 H :    0.025863
  74 H :    0.034434
  75 H :    0.084739
  76 H :    0.024984
  77 H :    0.092044
  78 H :    0.028981
  79 H :    0.023325
  80 H :    0.024752
  81 H :    0.025647
  82 H :    0.029003
  83 H :    0.017475
  84 H :    0.024870
  85 H :    0.030488
  86 H :    0.044667
  87 H :    0.043963

  Mayer bond orders larger than 0.100000
B(  0-C ,  1-C ) :   1.6306 B(  0-C ,  6-C ) :   0.9752 B(  0-C , 16-C ) :   1.0864
B(  1-C ,  2-C ) :   1.1362 B(  1-C ,  4-C ) :   1.1487 B(  2-C ,  3-N ) :   2.9718
B(  4-C ,  5-N ) :   2.9700 B(  6-C ,  7-C ) :   1.3252 B(  6-C , 11-C ) :   1.3441
B(  7-C ,  8-C ) :   1.3558 B(  7-C , 14-C ) :   0.9214 B(  8-C ,  9-C ) :   1.3384
B(  8-C , 68-H ) :   1.0146 B(  9-C , 10-C ) :   1.4149 B(  9-C , 13-Cl) :   1.0226
B( 10-C , 11-C ) :   1.3525 B( 10-C , 12-Cl) :   1.0444 B( 11-C , 69-H ) :   0.9868
B( 14-C , 15-O ) :   2.2288 B( 14-C , 16-C ) :   0.9673 B( 16-C , 17-C ) :   1.5223
B( 17-C , 18-C ) :   1.2327 B( 17-C , 70-H ) :   0.9208 B( 18-C , 19-S ) :   1.0228
B( 18-C , 26-C ) :   1.5145 B( 19-S , 20-C ) :   0.9801 B( 20-C , 21-C ) :   1.5950
B( 20-C , 24-C ) :   1.2656 B( 21-C , 22-S ) :   1.1771 B( 21-C , 71-H ) :   0.9695
B( 22-S , 23-C ) :   1.1824 B( 23-C , 24-C ) :   1.5881 B( 23-C , 72-H ) :   0.9704
B( 24-C , 25-S ) :   0.9793 B( 25-S , 26-C ) :   1.0411 B( 26-C , 27-C ) :   1.2503
B( 27-C , 28-C ) :   1.5843 B( 27-C , 73-H ) :   0.9437 B( 28-C , 29-C ) :   1.1955
B( 28-C , 74-H ) :   0.9576 B( 29-C , 30-N ) :   1.1804 B( 29-C , 36-C ) :   1.3433
B( 30-N , 31-C ) :   1.1719 B( 30-N , 75-H ) :   0.9257 B( 31-C , 32-C ) :   1.2887
B( 31-C , 35-C ) :   1.2981 B( 32-C , 33-C ) :   1.3807 B( 32-C , 76-H ) :   1.0239
B( 33-C , 34-N ) :   1.1741 B( 33-C , 37-C ) :   1.1395 B( 34-N , 35-C ) :   1.1687
B( 34-N , 77-H ) :   0.9345 B( 35-C , 36-C ) :   1.2591 B( 36-C , 78-H ) :   1.0408
B( 37-C , 38-C ) :   1.6301 B( 37-C , 79-H ) :   0.9539 B( 38-C , 39-C ) :   1.1897
B( 38-C , 80-H ) :   0.9623 B( 39-C , 40-S ) :   1.0678 B( 39-C , 47-C ) :   1.4987
B( 40-S , 41-C ) :   0.9695 B( 41-C , 42-C ) :   1.5902 B( 41-C , 45-C ) :   1.2619
B( 42-C , 43-S ) :   1.1834 B( 42-C , 81-H ) :   0.9717 B( 43-S , 44-C ) :   1.1730
B( 44-C , 45-C ) :   1.6007 B( 44-C , 82-H ) :   0.9695 B( 45-C , 46-S ) :   0.9918
B( 46-S , 47-C ) :   0.9996 B( 47-C , 48-C ) :   1.2207 B( 48-C , 49-C ) :   1.5057
B( 48-C , 83-H ) :   0.9752 B( 49-C , 50-C ) :   1.2123 B( 49-C , 84-H ) :   0.9679
B( 50-C , 51-C ) :   1.4809 B( 50-C , 85-H ) :   0.9618 B( 51-C , 52-C ) :   1.0924
B( 51-C , 60-C ) :   0.9558 B( 52-C , 53-C ) :   1.6061 B( 52-C , 58-C ) :   0.9834
B( 53-C , 54-C ) :   1.1423 B( 53-C , 56-C ) :   1.1596 B( 54-C , 55-N ) :   2.9711
B( 56-C , 57-N ) :   2.9482 B( 58-C , 59-C ) :   1.3332 B( 58-C , 65-C ) :   1.3446
B( 59-C , 60-C ) :   0.9378 B( 59-C , 62-C ) :   1.3487 B( 60-C , 61-O ) :   2.2078
B( 62-C , 63-C ) :   1.3358 B( 62-C , 86-H ) :   1.0172 B( 63-C , 64-C ) :   1.4126
B( 63-C , 67-Cl) :   1.0431 B( 64-C , 65-C ) :   1.3560 B( 64-C , 66-Cl) :   1.0729
B( 65-C , 87-H ) :   0.9858

-----------------------------------------------------------------------------
         ABSORPTION SPECTRUM VIA TRANSITION ELECTRIC DIPOLE MOMENTS
-----------------------------------------------------------------------------
State   Energy  Wavelength   fosc         T2         TX        TY        TZ
        (cm-1)    (nm)                  (au**2)     (au)      (au)      (au)
-----------------------------------------------------------------------------
   0   11110.6    900.0   0.314174059   9.30910  -1.30975  -2.68389   0.62481
   1   15647.5    639.1   0.884773373  18.61497  -1.97112  -0.05960   3.83746
   2   18008.5    555.3   0.063076916   1.15311   0.59919  -0.40646  -0.79302
   3   18430.7    542.6   0.165763887   2.96090   0.28034   0.85114  -1.46897
   4   20566.3    486.2   0.285407396   4.56862  -0.22990   2.10161   0.31467
   5   22990.5    435.0   0.276555649   3.96013   0.04256   1.98148  -0.17909
   6   23200.0    431.0   0.088122715   1.25048   0.44456   0.85121  -0.57296
   7   24277.8    411.9   0.386478813   5.24073  -0.97951   1.16209   1.71197
   8   25264.6    395.8   0.016712478   0.21777  -0.05333  -0.45792  -0.07237
   9   25339.1    394.6   0.143110161   1.85932  -0.09751  -0.74889   1.13533
  10   25778.4    387.9   0.046416157   0.59277   0.42193   0.02909   0.64335
  11   26859.0    372.3   0.239095979   2.93061  -0.28467  -1.68700  -0.06001
  12   27004.1    370.3   0.484397980   5.90538   0.29224   2.40656   0.16871
  13   27190.5    367.8   0.014266448   0.17273   0.30211  -0.11251  -0.26231
  14   28131.6    355.5   0.064539941   0.75528   0.47127   0.69096   0.23614
  15   28577.1    349.9   0.006490397   0.07477  -0.00275   0.10479   0.25255
  16   28675.5    348.7   0.127831029   1.46758  -0.37670  -0.54397   1.01478
  17   29084.5    343.8   0.038517063   0.43598   0.29973   0.34796  -0.47441
  18   29330.4    340.9   0.143917846   1.61537  -0.26113  -0.43591   1.16497
  19   29950.4    333.9   0.111938150   1.23041   0.32609   0.49247  -0.93891
  20   30373.7    329.2   0.011319359   0.12269   0.22229   0.18450  -0.19808
  21   30428.0    328.6   0.010946975   0.11844  -0.15005  -0.26882   0.15382
  22   30844.7    324.2   0.227391254   2.42699  -0.27657  -1.19146   0.96485
  23   31093.2    321.6   0.007741069   0.08196  -0.13852  -0.04932   0.24565
  24   31350.3    319.0   0.059463384   0.62443  -0.47517   0.46059   0.43185
  25   31553.8    316.9   0.002721745   0.02840  -0.02215   0.16661   0.01214
  26   32027.7    312.2   0.005785430   0.05947  -0.23612  -0.02507  -0.05556
  27   32533.5    307.4   0.124377831   1.25860   0.38743   0.84494  -0.62815
  28   32683.0    306.0   0.054389692   0.54786   0.16108   0.52728   0.49385
  29   33166.2    301.5   0.034622897   0.34367   0.13301   0.55804  -0.12073
  30   33534.5    298.2   0.044530664   0.43716   0.33345   0.16182  -0.54753
  31   34047.8    293.7   0.019047526   0.18417  -0.37367   0.06519  -0.20073
  32   34308.5    291.5   0.173678523   1.66656   0.78320   1.02241   0.08842
  33   34477.3    290.0   0.172129630   1.64361  -0.10296  -0.54519   1.15576
  34   34635.3    288.7   0.037052267   0.35219  -0.05027  -0.32775  -0.49217
  35   34825.7    287.1   0.123588196   1.16829   0.11887   0.26898   1.04010
  36   34988.9    285.8   0.043176571   0.40625   0.13667   0.44095  -0.43947
  37   35425.9    282.3   0.299061371   2.77917   0.37913   1.45218  -0.72566
  38   35793.5    279.4   0.403982815   3.71565  -0.71948  -1.56951  -0.85710
  39   35997.8    277.8   0.006492009   0.05937   0.11127  -0.20837  -0.05977
  40   36125.8    276.8   0.106658661   0.97197  -0.87316   0.00948  -0.45768
  41   36350.7    275.1   0.130952424   1.18598   0.28030   1.03024  -0.21450
  42   36521.7    273.8   0.151821106   1.36854  -0.10748  -1.03471   0.53513
  43   36901.6    271.0   0.090237439   0.80504   0.42715   0.78881  -0.01907
  44   37022.1    270.1   0.036353009   0.32326   0.17750   0.35629   0.40597
  45   37227.3    268.6   0.124160553   1.09799  -0.12703   0.91265  -0.49892
  46   37750.9    264.9   0.024634143   0.21483  -0.08744  -0.21145  -0.40307
  47   38331.8    260.9   0.074611469   0.64080   0.27701   0.65989  -0.35861
  48   38382.3    260.5   0.022919815   0.19659  -0.29561  -0.33010   0.01549
  49   38603.1    259.0   0.020742150   0.17689  -0.34372  -0.16837   0.17435
  50   38788.7    257.8   0.021651602   0.18376   0.11932   0.04832   0.40889
  51   39071.4    255.9   0.049757348   0.41925   0.13592  -0.44300  -0.45225
  52   39241.0    254.8   0.031740814   0.26629   0.21967  -0.28982  -0.36612
  53   39527.0    253.0   0.026648623   0.22195  -0.22578   0.26586   0.31669
  54   39755.8    251.5   0.075225736   0.62293  -0.26228   0.70288   0.24514
  55   39913.5    250.5   0.002906778   0.02398   0.02708   0.03014   0.14945
  56   40064.3    249.6   0.031990966   0.26287  -0.26748   0.39554   0.18675
  57   40277.4    248.3   0.062559007   0.51133  -0.06353   0.23143  -0.67360

FINAL SINGLE POINT ENERGY     -6621.789689482163

DIPOLE MOMENT
-------------
                                X             Y             Z
Electronic contribution:     25.56089       8.57792     -45.75524
Nuclear contribution   :    -26.35437      -6.61925      50.59140
                        -----------------------------------------
Total Dipole Moment    :     -0.79348       1.95867       4.83617
                        -----------------------------------------
Magnitude (a.u.)       :      5.27774
Magnitude (Debye)      :     13.41494

Rotational constants in cm-1:     0.001111     0.000403     0.000309
Rotational constants in MHz :    33.313732    12.095675     9.255487

                             ****ORCA TERMINATED NORMALLY****
TOTAL RUN TIME: 0 days 0 hours 10 minutes 3 seconds 85 msec
