                         Program Version 4.2.0 -  RELEASE  -
|  1> # ORCA input file
|  2> # SCF done       -183.204849106372          0.000387906024
|  3> ! CAM-B3LYP def2-SVP def2/J RIJCOSX Grid4 TightSCF
|  4> %maxcore 5000
|  5> %tddft
|  6>     Mode sTDDFT
|  7>     Ethresh 5.0
|  8>     maxcore 5000
|  9> end
| 10>
| 11> %pal
| 12>   nprocs 6
| 13>   end
| 14> * xyz 0 1
| 15>    C       -5.86478        -2.56993         2.68154
| 16>    C       -6.23962        -3.12006         3.87800
| 17>    C       -7.31022        -2.64089         4.66363
| 18>    N       -8.16741        -2.30058         5.34639
| 19>    C       -5.61464        -4.21531         4.51358
| 20>    N       -5.15523        -5.08036         5.11259
| 21>    C       -6.47005        -1.38812         2.06845
| 22>    C       -5.77864        -1.09428         0.88129
| 23>    C       -6.13282        -0.03855         0.06669
| 24>    C       -7.21607         0.74422         0.44432
| 25>    C       -7.90562         0.46883         1.63015
| 26>    C       -7.53882        -0.59460         2.44963
| 27>   Cl       -9.23411         1.45301         2.08923
| 28>   Cl       -7.70920         2.04996        -0.55412
| 29>    C       -4.72756        -2.09863         0.66482
| 30>    O       -4.03079        -2.20270        -0.33275
| 31>    C       -4.77909        -3.00551         1.81995
| 32>    C       -4.06926        -4.17198         1.97462
| 33>    C       -2.95031        -4.66507         1.25490
| 34>    S       -3.01571        -6.44149         1.28061
| 35>    C       -1.59451        -6.98689         0.40805
| 36>    C       -1.28320        -8.30946         0.31732
| 37>    S        0.11454        -8.58361        -0.64005
| 38>    C        0.29723        -6.90204        -0.91399
| 39>    C       -0.68091        -6.17345        -0.30677
| 40>    S       -0.70787        -4.41775        -0.42664
| 41>    C       -1.97841        -3.88278         0.66647
| 42>    C       -1.93008        -2.48660         0.93710
| 43>    C       -1.45283        -1.54789         0.07976
| 44>    C       -1.59403        -0.14696         0.27567
| 45>    S       -2.10171         0.31721         1.92312
| 46>    C       -3.29550         1.56196         1.59526
| 47>    C       -4.39465         1.79316         2.36161
| 48>    S       -5.30041         3.13560         1.78709
| 49>    C       -4.20814         3.36614         0.48081
| 50>    C       -3.18719         2.46754         0.51098
| 51>    S       -1.83911         2.47650        -0.61582
| 52>    C       -1.39926         0.76511        -0.73626
| 53>    C       -0.77524         0.41398        -1.97293
| 54>    C       -0.77978         1.16729        -3.09654
| 55>    C       -0.05872         0.86472        -4.29762
| 56>    S        0.37738         2.37363        -5.14821
| 57>    C        2.02292         2.02933        -5.65922
| 58>    C        2.99589         2.97429        -5.75980
| 59>    S        4.48719         2.30440        -6.28998
| 60>    C        3.80094         0.72952        -6.35410
| 61>    C        2.48726         0.73403        -6.00277
| 62>    S        1.46213        -0.69296        -6.03726
| 63>    C        0.29440        -0.38037        -4.73576
| 64>    C       -0.28468        -1.61871        -4.30241
| 65>    C       -1.57590        -1.80839        -3.92417
| 66>    C       -2.04362        -3.07517        -3.51421
| 67>    C       -3.31979        -3.34021        -3.10259
| 68>    C       -3.78600        -4.57990        -2.51888
| 69>    C       -3.18356        -5.80844        -2.58483
| 70>    C       -3.73614        -6.98437        -2.03541
| 71>    N       -4.12686        -7.97661        -1.61102
| 72>    C       -1.96902        -6.08395        -3.24590
| 73>    N       -0.98412        -6.39264        -3.74973
| 74>    C       -5.06857        -4.30096        -1.88239
| 75>    C       -5.50619        -3.02661        -2.28640
| 76>    C       -4.43123        -2.35807        -3.05587
| 77>    O       -4.45687        -1.23463        -3.50477
| 78>    C       -6.70059        -2.49896        -1.84131
| 79>    C       -7.41495        -3.20924        -0.88504
| 80>    C       -6.94263        -4.43969        -0.41790
| 81>    C       -5.79001        -5.01511        -0.94196
| 82>   Cl       -7.77264        -5.24384         0.85498
| 83>   Cl       -8.85119        -2.53265        -0.22352
| 84>    H       -5.58547         0.16388        -0.84102
| 85>    H       -8.10316        -0.78169         3.34837
| 86>    H       -4.46510        -4.88669         2.68791
| 87>    H       -1.81646        -9.12874         0.75372
| 88>    H        1.09781        -6.53191        -1.52081
| 89>    H       -2.40866        -2.16709         1.85364
| 90>    H       -1.07010        -1.88297        -0.87237
| 91>    H       -4.70235         1.26819         3.24259
| 92>    H       -4.36231         4.15912        -0.22203
| 93>    H       -0.22535        -0.51474        -1.98653
| 94>    H       -1.26631         2.13400        -3.09263
| 95>    H        2.90950         4.02397        -5.56704
| 96>    H        4.39186        -0.10835        -6.66302
| 97>    H        0.35164        -2.48947        -4.41835
| 98>    H       -2.26904        -0.98105        -3.90299
| 99>    H       -1.30894        -3.87023        -3.46987
|100>    H       -7.04676        -1.53907        -2.18949
|101>    H       -5.46351        -5.97413        -0.57214
|102> *
|103>
|104>                          ****END OF INPUT****

CARTESIAN COORDINATES (ANGSTROEM)
---------------------------------
  C     -5.864780   -2.569930    2.681540
  C     -6.239620   -3.120060    3.878000
  C     -7.310220   -2.640890    4.663630
  N     -8.167410   -2.300580    5.346390
  C     -5.614640   -4.215310    4.513580
  N     -5.155230   -5.080360    5.112590
  C     -6.470050   -1.388120    2.068450
  C     -5.778640   -1.094280    0.881290
  C     -6.132820   -0.038550    0.066690
  C     -7.216070    0.744220    0.444320
  C     -7.905620    0.468830    1.630150
  C     -7.538820   -0.594600    2.449630
  Cl    -9.234110    1.453010    2.089230
  Cl    -7.709200    2.049960   -0.554120
  C     -4.727560   -2.098630    0.664820
  O     -4.030790   -2.202700   -0.332750
  C     -4.779090   -3.005510    1.819950
  C     -4.069260   -4.171980    1.974620
  C     -2.950310   -4.665070    1.254900
  S     -3.015710   -6.441490    1.280610
  C     -1.594510   -6.986890    0.408050
  C     -1.283200   -8.309460    0.317320
  S      0.114540   -8.583610   -0.640050
  C      0.297230   -6.902040   -0.913990
  C     -0.680910   -6.173450   -0.306770
  S     -0.707870   -4.417750   -0.426640
  C     -1.978410   -3.882780    0.666470
  C     -1.930080   -2.486600    0.937100
  C     -1.452830   -1.547890    0.079760
  C     -1.594030   -0.146960    0.275670
  S     -2.101710    0.317210    1.923120
  C     -3.295500    1.561960    1.595260
  C     -4.394650    1.793160    2.361610
  S     -5.300410    3.135600    1.787090
  C     -4.208140    3.366140    0.480810
  C     -3.187190    2.467540    0.510980
  S     -1.839110    2.476500   -0.615820
  C     -1.399260    0.765110   -0.736260
  C     -0.775240    0.413980   -1.972930
  C     -0.779780    1.167290   -3.096540
  C     -0.058720    0.864720   -4.297620
  S      0.377380    2.373630   -5.148210
  C      2.022920    2.029330   -5.659220
  C      2.995890    2.974290   -5.759800
  S      4.487190    2.304400   -6.289980
  C      3.800940    0.729520   -6.354100
  C      2.487260    0.734030   -6.002770
  S      1.462130   -0.692960   -6.037260
  C      0.294400   -0.380370   -4.735760
  C     -0.284680   -1.618710   -4.302410
  C     -1.575900   -1.808390   -3.924170
  C     -2.043620   -3.075170   -3.514210
  C     -3.319790   -3.340210   -3.102590
  C     -3.786000   -4.579900   -2.518880
  C     -3.183560   -5.808440   -2.584830
  C     -3.736140   -6.984370   -2.035410
  N     -4.126860   -7.976610   -1.611020
  C     -1.969020   -6.083950   -3.245900
  N     -0.984120   -6.392640   -3.749730
  C     -5.068570   -4.300960   -1.882390
  C     -5.506190   -3.026610   -2.286400
  C     -4.431230   -2.358070   -3.055870
  O     -4.456870   -1.234630   -3.504770
  C     -6.700590   -2.498960   -1.841310
  C     -7.414950   -3.209240   -0.885040
  C     -6.942630   -4.439690   -0.417900
  C     -5.790010   -5.015110   -0.941960
  Cl    -7.772640   -5.243840    0.854980
  Cl    -8.851190   -2.532650   -0.223520
  H     -5.585470    0.163880   -0.841020
  H     -8.103160   -0.781690    3.348370
  H     -4.465100   -4.886690    2.687910
  H     -1.816460   -9.128740    0.753720
  H      1.097810   -6.531910   -1.520810
  H     -2.408660   -2.167090    1.853640
  H     -1.070100   -1.882970   -0.872370
  H     -4.702350    1.268190    3.242590
  H     -4.362310    4.159120   -0.222030
  H     -0.225350   -0.514740   -1.986530
  H     -1.266310    2.134000   -3.092630
  H      2.909500    4.023970   -5.567040
  H      4.391860   -0.108350   -6.663020
  H      0.351640   -2.489470   -4.418350
  H     -2.269040   -0.981050   -3.902990
  H     -1.308940   -3.870230   -3.469870
  H     -7.046760   -1.539070   -2.189490
  H     -5.463510   -5.974130   -0.572140

 Total Charge           Charge          ....    0
 Multiplicity           Mult            ....    1
 Number of Electrons    NEL             ....  574
 Basis Dimension        Dim             .... 1108

ORBITAL ENERGIES
----------------

  NO   OCC          E(Eh)            E(eV)
   0   2.0000    -101.606925     -2764.8650
   1   2.0000    -101.605033     -2764.8135
   2   2.0000    -101.605027     -2764.8133
   3   2.0000    -101.602621     -2764.7479
   4   2.0000     -88.973417     -2421.0898
   5   2.0000     -88.971723     -2421.0437
   6   2.0000     -88.968662     -2420.9604
   7   2.0000     -88.966694     -2420.9068
   8   2.0000     -88.958046     -2420.6715
   9   2.0000     -88.956272     -2420.6232
  10   2.0000     -88.954933     -2420.5868
  11   2.0000     -88.954615     -2420.5781
  12   2.0000     -88.954535     -2420.5760
  13   2.0000     -19.232455      -523.3417
  14   2.0000     -19.223103      -523.0872
  15   2.0000     -14.422650      -392.4603
  16   2.0000     -14.422415      -392.4539
  17   2.0000     -14.421146      -392.4193
  18   2.0000     -14.416068      -392.2812
  19   2.0000     -10.375977      -282.3447
  20   2.0000     -10.374468      -282.3036
  21   2.0000     -10.359487      -281.8960
  22   2.0000     -10.358810      -281.8775
  23   2.0000     -10.358368      -281.8655
  24   2.0000     -10.358175      -281.8603
  25   2.0000     -10.352917      -281.7172
  26   2.0000     -10.349745      -281.6309
  27   2.0000     -10.346614      -281.5457
  28   2.0000     -10.344978      -281.5012
  29   2.0000     -10.344708      -281.4938
  30   2.0000     -10.332874      -281.1718
  31   2.0000     -10.332397      -281.1588
  32   2.0000     -10.331943      -281.1465
  33   2.0000     -10.329269      -281.0737
  34   2.0000     -10.328275      -281.0466
  35   2.0000     -10.327829      -281.0345
  36   2.0000     -10.324470      -280.9431
  37   2.0000     -10.324372      -280.9404
  38   2.0000     -10.324326      -280.9392
  39   2.0000     -10.319005      -280.7944
  40   2.0000     -10.318766      -280.7879
  41   2.0000     -10.318178      -280.7719
  42   2.0000     -10.317871      -280.7635
  43   2.0000     -10.317439      -280.7518
  44   2.0000     -10.317346      -280.7493
  45   2.0000     -10.317124      -280.7432
  46   2.0000     -10.316352      -280.7222
  47   2.0000     -10.315828      -280.7080
  48   2.0000     -10.315052      -280.6868
  49   2.0000     -10.314648      -280.6758
  50   2.0000     -10.312388      -280.6143
  51   2.0000     -10.311653      -280.5944
  52   2.0000     -10.311462      -280.5891
  53   2.0000     -10.310767      -280.5702
  54   2.0000     -10.310417      -280.5607
  55   2.0000     -10.310295      -280.5574
  56   2.0000     -10.309753      -280.5426
  57   2.0000     -10.309614      -280.5389
  58   2.0000     -10.309140      -280.5260
  59   2.0000     -10.306437      -280.4524
  60   2.0000     -10.305713      -280.4327
  61   2.0000     -10.304947      -280.4119
  62   2.0000     -10.303379      -280.3692
  63   2.0000     -10.303052      -280.3603
  64   2.0000     -10.302596      -280.3479
  65   2.0000     -10.301779      -280.3257
  66   2.0000     -10.301770      -280.3254
  67   2.0000     -10.297908      -280.2203
  68   2.0000     -10.293593      -280.1029
  69   2.0000      -9.561450      -260.1803
  70   2.0000      -9.559859      -260.1370
  71   2.0000      -9.559740      -260.1338
  72   2.0000      -9.557655      -260.0770
  73   2.0000      -8.068726      -219.5612
  74   2.0000      -8.067769      -219.5351
  75   2.0000      -8.063105      -219.4082
  76   2.0000      -8.062704      -219.3973
  77   2.0000      -8.053201      -219.1387
  78   2.0000      -8.051614      -219.0956
  79   2.0000      -8.050153      -219.0558
  80   2.0000      -8.049839      -219.0473
  81   2.0000      -8.049560      -219.0397
  82   2.0000      -7.331785      -199.5080
  83   2.0000      -7.330225      -199.4656
  84   2.0000      -7.330094      -199.4620
  85   2.0000      -7.328034      -199.4059
  86   2.0000      -7.321786      -199.2359
  87   2.0000      -7.321051      -199.2159
  88   2.0000      -7.320157      -199.1916
  89   2.0000      -7.320031      -199.1882
  90   2.0000      -7.319412      -199.1713
  91   2.0000      -7.319320      -199.1688
  92   2.0000      -7.317925      -199.1309
  93   2.0000      -7.317181      -199.1106
  94   2.0000      -6.038112      -164.3054
  95   2.0000      -6.037122      -164.2784
  96   2.0000      -6.033765      -164.1871
  97   2.0000      -6.033358      -164.1760
  98   2.0000      -6.032753      -164.1596
  99   2.0000      -6.032043      -164.1402
 100   2.0000      -6.030868      -164.1083
 101   2.0000      -6.029917      -164.0824
 102   2.0000      -6.029087      -164.0598
 103   2.0000      -6.027694      -164.0219
 104   2.0000      -6.024827      -163.9439
 105   2.0000      -6.023519      -163.9083
 106   2.0000      -6.023423      -163.9057
 107   2.0000      -6.022035      -163.8679
 108   2.0000      -6.020459      -163.8250
 109   2.0000      -6.020341      -163.8218
 110   2.0000      -6.019946      -163.8110
 111   2.0000      -6.019311      -163.7938
 112   2.0000      -6.017701      -163.7500
 113   2.0000      -6.016621      -163.7206
 114   2.0000      -6.016001      -163.7037
 115   2.0000      -6.015949      -163.7023
 116   2.0000      -6.013188      -163.6272
 117   2.0000      -6.011505      -163.5814
 118   2.0000      -6.009739      -163.5333
 119   2.0000      -6.009553      -163.5283
 120   2.0000      -6.009275      -163.5207
 121   2.0000      -1.146689       -31.2030
 122   2.0000      -1.137544       -30.9541
 123   2.0000      -1.036286       -28.1988
 124   2.0000      -1.033184       -28.1144
 125   2.0000      -1.021768       -27.8037
 126   2.0000      -1.019449       -27.7406
 127   2.0000      -1.013034       -27.5660
 128   2.0000      -1.011516       -27.5248
 129   2.0000      -1.009565       -27.4717
 130   2.0000      -1.000708       -27.2307
 131   2.0000      -0.997876       -27.1536
 132   2.0000      -0.997149       -27.1338
 133   2.0000      -0.992490       -27.0070
 134   2.0000      -0.981071       -26.6963
 135   2.0000      -0.975677       -26.5495
 136   2.0000      -0.966431       -26.2979
 137   2.0000      -0.966141       -26.2900
 138   2.0000      -0.964925       -26.2569
 139   2.0000      -0.940289       -25.5866
 140   2.0000      -0.938386       -25.5348
 141   2.0000      -0.927610       -25.2415
 142   2.0000      -0.922926       -25.1141
 143   2.0000      -0.915321       -24.9072
 144   2.0000      -0.906130       -24.6571
 145   2.0000      -0.901810       -24.5395
 146   2.0000      -0.896157       -24.3857
 147   2.0000      -0.890976       -24.2447
 148   2.0000      -0.883362       -24.0375
 149   2.0000      -0.876761       -23.8579
 150   2.0000      -0.867051       -23.5937
 151   2.0000      -0.864758       -23.5313
 152   2.0000      -0.861266       -23.4362
 153   2.0000      -0.853824       -23.2337
 154   2.0000      -0.840003       -22.8576
 155   2.0000      -0.827175       -22.5086
 156   2.0000      -0.819630       -22.3033
 157   2.0000      -0.809070       -22.0159
 158   2.0000      -0.802009       -21.8238
 159   2.0000      -0.786202       -21.3936
 160   2.0000      -0.782566       -21.2947
 161   2.0000      -0.781630       -21.2692
 162   2.0000      -0.772292       -21.0151
 163   2.0000      -0.769633       -20.9428
 164   2.0000      -0.767814       -20.8933
 165   2.0000      -0.756368       -20.5818
 166   2.0000      -0.736775       -20.0487
 167   2.0000      -0.726746       -19.7758
 168   2.0000      -0.714775       -19.4500
 169   2.0000      -0.700616       -19.0647
 170   2.0000      -0.698274       -19.0010
 171   2.0000      -0.697355       -18.9760
 172   2.0000      -0.691254       -18.8100
 173   2.0000      -0.683628       -18.6025
 174   2.0000      -0.675706       -18.3869
 175   2.0000      -0.674453       -18.3528
 176   2.0000      -0.671939       -18.2844
 177   2.0000      -0.670524       -18.2459
 178   2.0000      -0.663196       -18.0465
 179   2.0000      -0.658648       -17.9227
 180   2.0000      -0.643062       -17.4986
 181   2.0000      -0.642479       -17.4827
 182   2.0000      -0.635403       -17.2902
 183   2.0000      -0.627415       -17.0728
 184   2.0000      -0.621380       -16.9086
 185   2.0000      -0.619638       -16.8612
 186   2.0000      -0.609234       -16.5781
 187   2.0000      -0.608584       -16.5604
 188   2.0000      -0.600218       -16.3328
 189   2.0000      -0.598881       -16.2964
 190   2.0000      -0.587893       -15.9974
 191   2.0000      -0.583252       -15.8711
 192   2.0000      -0.582576       -15.8527
 193   2.0000      -0.576657       -15.6916
 194   2.0000      -0.575325       -15.6554
 195   2.0000      -0.569844       -15.5062
 196   2.0000      -0.568772       -15.4771
 197   2.0000      -0.563604       -15.3364
 198   2.0000      -0.562466       -15.3055
 199   2.0000      -0.556684       -15.1482
 200   2.0000      -0.554029       -15.0759
 201   2.0000      -0.550112       -14.9693
 202   2.0000      -0.544606       -14.8195
 203   2.0000      -0.543446       -14.7879
 204   2.0000      -0.541225       -14.7275
 205   2.0000      -0.534211       -14.5366
 206   2.0000      -0.531077       -14.4513
 207   2.0000      -0.526957       -14.3392
 208   2.0000      -0.524040       -14.2599
 209   2.0000      -0.521425       -14.1887
 210   2.0000      -0.520209       -14.1556
 211   2.0000      -0.519413       -14.1340
 212   2.0000      -0.517685       -14.0869
 213   2.0000      -0.509898       -13.8750
 214   2.0000      -0.508729       -13.8432
 215   2.0000      -0.506359       -13.7787
 216   2.0000      -0.505327       -13.7506
 217   2.0000      -0.503159       -13.6917
 218   2.0000      -0.499788       -13.5999
 219   2.0000      -0.498863       -13.5748
 220   2.0000      -0.498071       -13.5532
 221   2.0000      -0.494062       -13.4441
 222   2.0000      -0.491992       -13.3878
 223   2.0000      -0.490431       -13.3453
 224   2.0000      -0.486833       -13.2474
 225   2.0000      -0.484370       -13.1804
 226   2.0000      -0.478302       -13.0152
 227   2.0000      -0.473751       -12.8914
 228   2.0000      -0.470667       -12.8075
 229   2.0000      -0.469737       -12.7822
 230   2.0000      -0.465339       -12.6625
 231   2.0000      -0.464231       -12.6324
 232   2.0000      -0.461400       -12.5553
 233   2.0000      -0.458013       -12.4632
 234   2.0000      -0.454601       -12.3703
 235   2.0000      -0.453945       -12.3525
 236   2.0000      -0.452889       -12.3237
 237   2.0000      -0.451073       -12.2743
 238   2.0000      -0.448815       -12.2129
 239   2.0000      -0.447501       -12.1771
 240   2.0000      -0.446841       -12.1592
 241   2.0000      -0.444224       -12.0879
 242   2.0000      -0.440940       -11.9986
 243   2.0000      -0.438887       -11.9427
 244   2.0000      -0.436989       -11.8911
 245   2.0000      -0.435829       -11.8595
 246   2.0000      -0.434699       -11.8288
 247   2.0000      -0.433689       -11.8013
 248   2.0000      -0.432126       -11.7587
 249   2.0000      -0.430539       -11.7156
 250   2.0000      -0.430384       -11.7114
 251   2.0000      -0.428006       -11.6466
 252   2.0000      -0.423288       -11.5183
 253   2.0000      -0.420125       -11.4322
 254   2.0000      -0.417640       -11.3646
 255   2.0000      -0.416144       -11.3239
 256   2.0000      -0.415515       -11.3067
 257   2.0000      -0.412413       -11.2223
 258   2.0000      -0.411730       -11.2037
 259   2.0000      -0.410571       -11.1722
 260   2.0000      -0.408643       -11.1197
 261   2.0000      -0.403982       -10.9929
 262   2.0000      -0.393998       -10.7212
 263   2.0000      -0.387480       -10.5439
 264   2.0000      -0.386473       -10.5165
 265   2.0000      -0.385998       -10.5035
 266   2.0000      -0.385061       -10.4781
 267   2.0000      -0.377282       -10.2664
 268   2.0000      -0.373311       -10.1583
 269   2.0000      -0.370718       -10.0877
 270   2.0000      -0.360519        -9.8102
 271   2.0000      -0.359585        -9.7848
 272   2.0000      -0.354872        -9.6566
 273   2.0000      -0.345385        -9.3984
 274   2.0000      -0.341914        -9.3039
 275   2.0000      -0.339539        -9.2393
 276   2.0000      -0.328507        -8.9391
 277   2.0000      -0.322042        -8.7632
 278   2.0000      -0.313393        -8.5278
 279   2.0000      -0.310026        -8.4362
 280   2.0000      -0.303486        -8.2583
 281   2.0000      -0.301842        -8.2135
 282   2.0000      -0.300016        -8.1639
 283   2.0000      -0.295035        -8.0283
 284   2.0000      -0.272664        -7.4196
 285   2.0000      -0.261193        -7.1074
 286   2.0000      -0.245607        -6.6833
 287   0.0000      -0.108116        -2.9420
 288   0.0000      -0.104068        -2.8318
 289   0.0000      -0.079381        -2.1601
 290   0.0000      -0.064382        -1.7519
 291   0.0000      -0.052661        -1.4330

MULLIKEN ATOMIC CHARGES
-----------------------
   0 C :    0.300071
   1 C :   -0.338011
   2 C :   -0.192646
   3 N :    0.162494
   4 C :   -0.209949
   5 N :    0.178973
   6 C :    0.031071
   7 C :    0.021967
   8 C :   -0.047469
   9 C :    0.059891
  10 C :    0.049898
  11 C :   -0.032916
  12 Cl:   -0.035589
  13 Cl:   -0.043342
  14 C :    0.136457
  15 O :   -0.174748
  16 C :   -0.054504
  17 C :   -0.016836
  18 C :   -0.079307
  19 S :    0.094279
  20 C :   -0.002023
  21 C :   -0.102173
  22 S :    0.147634
  23 C :   -0.089102
  24 C :   -0.026492
  25 S :    0.079414
  26 C :   -0.008984
  27 C :   -0.020063
  28 C :    0.018429
  29 C :   -0.061579
  30 S :    0.088211
  31 C :   -0.003018
  32 C :   -0.127426
  33 S :    0.133837
  34 C :   -0.121839
  35 C :   -0.008737
  36 S :    0.106415
  37 C :   -0.028632
  38 C :   -0.008916
  39 C :    0.034056
  40 C :   -0.085078
  41 S :    0.100674
  42 C :   -0.012311
  43 C :   -0.117819
  44 S :    0.132320
  45 C :   -0.118573
  46 C :   -0.003513
  47 S :    0.102492
  48 C :   -0.064342
  49 C :   -0.003886
  50 C :    0.032090
  51 C :   -0.059383
  52 C :   -0.056840
  53 C :    0.327911
  54 C :   -0.375200
  55 C :   -0.195094
  56 N :    0.176896
  57 C :   -0.173625
  58 N :    0.148150
  59 C :    0.037683
  60 C :    0.019090
  61 C :    0.174253
  62 O :   -0.148866
  63 C :   -0.050257
  64 C :    0.033778
  65 C :    0.050796
  66 C :   -0.015785
  67 Cl:   -0.036250
  68 Cl:   -0.038469
  69 H :    0.001858
  70 H :   -0.003006
  71 H :    0.040496
  72 H :    0.034545
  73 H :    0.032119
  74 H :    0.044598
  75 H :    0.011381
  76 H :    0.030114
  77 H :    0.031845
  78 H :    0.025039
  79 H :    0.020039
  80 H :    0.031526
  81 H :    0.030691
  82 H :    0.022173
  83 H :    0.047019
  84 H :    0.014528
  85 H :   -0.002898
  86 H :   -0.001705
Sum of atomic charges:   -0.0000000

LOEWDIN ATOMIC CHARGES
----------------------
   0 C :    0.071380
   1 C :   -0.127280
   2 C :   -0.018791
   3 N :   -0.043557
   4 C :   -0.026135
   5 N :   -0.036934
   6 C :   -0.018018
   7 C :   -0.040179
   8 C :   -0.002479
   9 C :   -0.140696
  10 C :   -0.137629
  11 C :   -0.015821
  12 Cl:    0.161588
  13 Cl:    0.159021
  14 C :    0.076008
  15 O :   -0.125901
  16 C :   -0.093362
  17 C :    0.038549
  18 C :   -0.195183
  19 S :    0.381492
  20 C :   -0.218427
  21 C :   -0.192678
  22 S :    0.471981
  23 C :   -0.189055
  24 C :   -0.226984
  25 S :    0.401197
  26 C :   -0.129667
  27 C :   -0.039631
  28 C :   -0.019145
  29 C :   -0.169192
  30 S :    0.364650
  31 C :   -0.219105
  32 C :   -0.202813
  33 S :    0.467711
  34 C :   -0.199653
  35 C :   -0.219271
  36 S :    0.380570
  37 C :   -0.153862
  38 C :   -0.025917
  39 C :   -0.038639
  40 C :   -0.155794
  41 S :    0.361507
  42 C :   -0.215748
  43 C :   -0.200051
  44 S :    0.455954
  45 C :   -0.199276
  46 C :   -0.218387
  47 S :    0.366256
  48 C :   -0.178317
  49 C :   -0.007211
  50 C :   -0.012968
  51 C :    0.056887
  52 C :   -0.081484
  53 C :    0.081038
  54 C :   -0.140123
  55 C :   -0.022233
  56 N :   -0.050698
  57 C :   -0.015953
  58 N :   -0.058019
  59 C :   -0.008268
  60 C :   -0.035293
  61 C :    0.089730
  62 O :   -0.140912
  63 C :   -0.005204
  64 C :   -0.140034
  65 C :   -0.138764
  66 C :   -0.012382
  67 Cl:    0.161234
  68 Cl:    0.166439
  69 H :    0.044499
  70 H :    0.043499
  71 H :    0.040573
  72 H :    0.030593
  73 H :    0.028102
  74 H :    0.023556
  75 H :    0.023693
  76 H :    0.026192
  77 H :    0.028161
  78 H :    0.035187
  79 H :    0.021545
  80 H :    0.028047
  81 H :    0.027936
  82 H :    0.033219
  83 H :    0.038089
  84 H :    0.036029
  85 H :    0.042031
  86 H :    0.038976

  Mayer bond orders larger than 0.100000
B(  0-C ,  1-C ) :   1.6536 B(  0-C ,  6-C ) :   0.9850 B(  0-C , 16-C ) :   1.0600
B(  1-C ,  2-C ) :   1.1433 B(  1-C ,  4-C ) :   1.1416 B(  2-C ,  3-N ) :   2.9725
B(  4-C ,  5-N ) :   2.9868 B(  6-C ,  7-C ) :   1.3273 B(  6-C , 11-C ) :   1.3244
B(  7-C ,  8-C ) :   1.3338 B(  7-C , 14-C ) :   0.9489 B(  8-C ,  9-C ) :   1.3332
B(  8-C , 69-H ) :   1.0168 B(  9-C , 10-C ) :   1.4156 B(  9-C , 13-Cl) :   1.0458
B( 10-C , 11-C ) :   1.3500 B( 10-C , 12-Cl) :   1.0795 B( 11-C , 70-H ) :   0.9881
B( 14-C , 15-O ) :   2.0521 B( 14-C , 16-C ) :   0.9983 B( 16-C , 17-C ) :   1.5507
B( 17-C , 18-C ) :   1.2253 B( 17-C , 71-H ) :   0.9157 B( 18-C , 19-S ) :   1.0105
B( 18-C , 26-C ) :   1.5345 B( 19-S , 20-C ) :   0.9757 B( 20-C , 21-C ) :   1.5861
B( 20-C , 24-C ) :   1.2752 B( 21-C , 22-S ) :   1.1807 B( 21-C , 72-H ) :   0.9679
B( 22-S , 23-C ) :   1.1897 B( 23-C , 24-C ) :   1.5849 B( 23-C , 73-H ) :   0.9664
B( 24-C , 25-S ) :   0.9628 B( 25-S , 26-C ) :   1.0491 B( 26-C , 27-C ) :   1.1960
B( 27-C , 28-C ) :   1.6321 B( 27-C , 74-H ) :   0.9396 B( 28-C , 29-C ) :   1.2108
B( 28-C , 75-H ) :   0.9511 B( 29-C , 30-S ) :   1.0122 B( 29-C , 37-C ) :   1.5649
B( 30-S , 31-C ) :   0.9863 B( 31-C , 32-C ) :   1.5829 B( 31-C , 35-C ) :   1.2624
B( 32-C , 33-S ) :   1.1809 B( 32-C , 76-H ) :   0.9715 B( 33-S , 34-C ) :   1.1823
B( 34-C , 35-C ) :   1.5858 B( 34-C , 77-H ) :   0.9721 B( 35-C , 36-S ) :   0.9825
B( 36-S , 37-C ) :   1.0360 B( 37-C , 38-C ) :   1.2032 B( 38-C , 39-C ) :   1.7133
B( 38-C , 78-H ) :   0.9496 B( 39-C , 40-C ) :   1.1090 B( 39-C , 79-H ) :   0.9326
B( 40-C , 41-S ) :   1.0087 B( 40-C , 48-C ) :   1.6503 B( 41-S , 42-C ) :   0.9833
B( 42-C , 43-C ) :   1.5918 B( 42-C , 46-C ) :   1.2666 B( 43-C , 44-S ) :   1.1790
B( 43-C , 80-H ) :   0.9712 B( 44-S , 45-C ) :   1.1788 B( 45-C , 46-C ) :   1.5917
B( 45-C , 81-H ) :   0.9711 B( 46-C , 47-S ) :   0.9741 B( 47-S , 48-C ) :   1.0369
B( 48-C , 49-C ) :   1.0852 B( 49-C , 50-C ) :   1.6256 B( 49-C , 82-H ) :   0.9561
B( 50-C , 51-C ) :   1.1741 B( 50-C , 83-H ) :   0.9642 B( 51-C , 52-C ) :   1.5551
B( 51-C , 84-H ) :   0.9623 B( 52-C , 53-C ) :   1.0639 B( 52-C , 61-C ) :   0.9469
B( 53-C , 54-C ) :   1.6380 B( 53-C , 59-C ) :   0.9934 B( 54-C , 55-C ) :   1.1549
B( 54-C , 57-C ) :   1.1536 B( 55-C , 56-N ) :   2.9697 B( 57-C , 58-N ) :   2.9329
B( 59-C , 60-C ) :   1.3203 B( 59-C , 66-C ) :   1.3498 B( 60-C , 61-C ) :   0.9364
B( 60-C , 63-C ) :   1.3519 B( 61-C , 62-O ) :   2.1887 B( 63-C , 64-C ) :   1.3380
B( 63-C , 85-H ) :   1.0100 B( 64-C , 65-C ) :   1.4149 B( 64-C , 68-Cl) :   1.0501
B( 65-C , 66-C ) :   1.3480 B( 65-C , 67-Cl) :   1.0707 B( 66-C , 86-H ) :   0.9901

-----------------------------------------------------------------------------
         ABSORPTION SPECTRUM VIA TRANSITION ELECTRIC DIPOLE MOMENTS
-----------------------------------------------------------------------------
State   Energy  Wavelength   fosc         T2         TX        TY        TZ
        (cm-1)    (nm)                  (au**2)     (au)      (au)      (au)
-----------------------------------------------------------------------------
   0   12565.4    795.8   0.124975619   3.27434   0.74504   0.06265  -1.64782
   1   13703.8    729.7   0.122907576   2.95267  -1.37055  -0.83645   0.61205
   2   16428.9    608.7   0.155078169   3.10755   1.35788   1.12282   0.05459
   3   17304.3    577.9   0.074632996   1.41988  -0.09951  -1.18466   0.08095
   4   18800.0    531.9   0.037445441   0.65572   0.61168   0.52271  -0.09134
   5   19312.4    517.8   0.148132775   2.52517  -0.41476  -1.49352   0.35005
   6   21185.0    472.0   0.084155768   1.30777  -0.66990  -0.28032   0.88342
   7   22044.4    453.6   0.011102872   0.16581  -0.12699   0.07795  -0.37896
   8   23196.3    431.1   0.013600444   0.19302   0.11001  -0.39135   0.16664
   9   23666.0    422.5   0.069872184   0.97198  -0.30736   0.37832   0.85696
  10   24675.2    405.3   0.008325899   0.11108   0.10503  -0.18686   0.25522
  11   24982.6    400.3   0.030768232   0.40545   0.55636  -0.08971  -0.29642
  12   25437.8    393.1   0.209163412   2.70696  -0.47490  -1.48760   0.51814
  13   25481.7    392.4   0.047917712   0.61908  -0.49485   0.57318  -0.21368
  14   25977.9    384.9   0.047462882   0.60149   0.74641  -0.02585   0.20901
  15   26523.4    377.0   0.436019036   5.41193   1.47936   1.13500  -1.39112
  16   26621.0    375.6   0.217063159   2.68434  -0.05321   1.60691  -0.31520
  17   27259.8    366.8   0.044048568   0.53197   0.52079   0.50622  -0.06700
  18   27383.3    365.2   0.075675675   0.90980  -0.47714  -0.41131   0.71621
  19   27603.5    362.3   0.005927954   0.07070  -0.14931  -0.19802   0.09588
  20   27901.7    358.4   0.019433655   0.22930  -0.45214  -0.00210   0.15767
  21   28203.0    354.6   0.023744862   0.27717   0.28488  -0.44225   0.02073
  22   28440.0    351.6   0.014101874   0.16324   0.11162  -0.27220  -0.27693
  23   28497.9    350.9   0.026679106   0.30820   0.40352  -0.02551  -0.38042
  24   28807.6    347.1   0.245660773   2.80740  -1.34567   0.34284   0.93758
  25   29345.2    340.8   0.011665212   0.13087   0.23929  -0.01436  -0.27092
  26   29401.9    340.1   0.031391050   0.35148   0.28926  -0.25717   0.44909
  27   29785.5    335.7   0.076113441   0.84126   0.30593   0.54437  -0.67182
  28   30031.1    333.0   0.042945377   0.47078  -0.57810   0.17128   0.32749
  29   30531.8    327.5   0.020030065   0.21598   0.01447  -0.19619   0.42104
  30   30801.7    324.7   0.088852139   0.94966  -0.39139   0.52658   0.72055
  31   30936.3    323.2   0.172118484   1.83162   0.77621  -0.67881  -0.87655
  32   31407.6    318.4   0.087611944   0.91834   0.14997  -0.92605  -0.19565
  33   31849.3    314.0   0.262861819   2.71708   1.21031   0.99001  -0.52166
  34   32073.0    311.8   0.043430475   0.44579   0.61270  -0.24662   0.09780
  35   32333.4    309.3   0.007123992   0.07253   0.25925  -0.07243  -0.00873
  36   32445.3    308.2   0.017097246   0.17348   0.25887   0.06112  -0.32052
  37   32667.1    306.1   0.034396803   0.34664  -0.29174  -0.10436   0.50064
  38   33094.6    302.2   0.031778882   0.31612  -0.29293   0.45357  -0.15681
  39   33143.0    301.7   0.090919956   0.90312   0.14290  -0.49569   0.79811
  40   33419.2    299.2   0.011440413   0.11270   0.15879  -0.26530  -0.13078
  41   33726.0    296.5   0.029401976   0.28700  -0.17057   0.50751  -0.01847
  42   33876.1    295.2   0.030319918   0.29465  -0.34064   0.20159   0.37145
  43   34207.8    292.3   0.021459178   0.20652  -0.06238  -0.23778   0.38222
  44   34283.9    291.7   0.101797361   0.97751   0.42168  -0.80335   0.39283
  45   34560.7    289.3   0.062953146   0.59967   0.66496   0.03760  -0.39507
  46   34755.1    287.7   0.266656412   2.52586   0.25427   1.07505  -1.14258
  47   34953.4    286.1   0.029073069   0.27383  -0.42702   0.29909   0.04508
  48   35434.6    282.2   0.103145053   0.95829  -0.53637   0.78872   0.22026
  49   35645.2    280.5   0.144407113   1.33372   0.54661   0.70394  -0.73444
  50   35805.3    279.3   0.059434981   0.54648  -0.55930   0.47892  -0.06548
  51   36155.0    276.6   0.221159379   2.01378  -0.93847   1.01440   0.32258
  52   36376.0    274.9   0.184036768   1.66558   0.51130  -1.18430   0.03977
  53   36508.1    273.9   0.144123654   1.29964   0.64553  -0.93958  -0.01084
  54   36637.7    272.9   0.088151519   0.79209   0.74753  -0.14764  -0.45989
  55   36704.4    272.4   0.105985539   0.95061  -0.30155  -0.64815   0.66301
  56   37029.5    270.1   0.010766103   0.09572  -0.13689   0.10612   0.25635
  57   37230.6    268.6   0.095815144   0.84725   0.67868  -0.25681  -0.56629
  58   37363.7    267.6   0.051332145   0.45229  -0.53176   0.40910  -0.04645
  59   37609.0    265.9   0.031441577   0.27523   0.41356   0.15081  -0.28540
  60   37692.0    265.3   0.024381802   0.21296  -0.00292   0.30861  -0.34309
  61   37897.2    263.9   0.081846648   0.71100   0.14595  -0.83033   0.01566
  62   38091.2    262.5   0.035351908   0.30554   0.31822  -0.02776  -0.45111
  63   38280.3    261.2   0.040398346   0.34743   0.04774   0.36304  -0.46190
  64   38384.5    260.5   0.245523398   2.10578  -1.03757   0.88011   0.50461
  65   38640.0    258.8   0.170670501   1.45411  -0.71926  -0.84024   0.48038
  66   38725.7    258.2   0.029411897   0.25003   0.00348   0.28845   0.40843
  67   38869.9    257.3   0.114112668   0.96649  -0.72077   0.52012   0.42007
  68   39013.3    256.3   0.008847957   0.07466  -0.13095   0.23944   0.01358
  69   39183.4    255.2   0.078665513   0.66093  -0.59097   0.54285   0.13043
  70   39233.7    254.9   0.009572225   0.08032   0.22688  -0.06642  -0.15632
  71   39405.7    253.8   0.040711494   0.34012   0.12406   0.23637  -0.51852
  72   39536.8    252.9   0.001237411   0.01030   0.06936  -0.01370  -0.07284
  73   39986.8    250.1   0.029394828   0.24201  -0.19970  -0.08445   0.44158
  74   40156.4    249.0   0.130849289   1.07273   0.64434  -0.78168   0.21575

FINAL SINGLE POINT ENERGY     -7705.376797639500

DIPOLE MOMENT
-------------
                                X             Y             Z
Electronic contribution:    -41.79237       2.87233      14.17924
Nuclear contribution   :     43.71998      -0.56983     -15.87243
                        -----------------------------------------
Total Dipole Moment    :      1.92761       2.30249      -1.69318
                        -----------------------------------------
Magnitude (a.u.)       :      3.44733
Magnitude (Debye)      :      8.76240

Rotational constants in cm-1:     0.001092     0.000726     0.000526
Rotational constants in MHz :    32.743609    21.776713    15.774655

                             ****ORCA TERMINATED NORMALLY****
TOTAL RUN TIME: 0 days 0 hours 19 minutes 5 seconds 748 msec
