                         Program Version 4.2.0 -  RELEASE  -
|  1> # ORCA input file
|  2> # SCF done       -195.348282908507          0.000532206651
|  3> ! CAM-B3LYP def2-SVP def2/J RIJCOSX Grid4 TightSCF
|  4> %maxcore 5000
|  5> %tddft
|  6>     Mode sTDDFT
|  7>     Ethresh 5.0
|  8>     maxcore 5000
|  9> end
| 10>
| 11> %pal
| 12>   nprocs 6
| 13>   end
| 14> * xyz 0 1
| 15>    C        1.33484        -1.15411         0.06158
| 16>    C       -0.02867        -1.29126         0.10196
| 17>    C       -0.92543        -0.47034        -0.61461
| 18>    N       -1.70010         0.16563        -1.17267
| 19>    C       -0.70210        -2.20273         0.93804
| 20>    N       -1.29137        -2.91223         1.62187
| 21>    C        2.04072        -0.05202        -0.59262
| 22>    C        3.33001         0.05489        -0.04019
| 23>    C        4.21079         1.03847        -0.44125
| 24>    C        3.80016         1.92881        -1.42602
| 25>    C        2.52487         1.81783        -1.99244
| 26>    C        1.63584         0.83121        -1.57832
| 27>   Cl        2.03992         2.91325        -3.22127
| 28>   Cl        4.86698         3.16685        -1.95164
| 29>    C        3.53134        -1.02382         0.95002
| 30>    O        4.49276        -1.21818         1.65616
| 31>    C        2.30861        -1.86814         0.85739
| 32>    C        2.33724        -3.10858         1.42735
| 33>    C        1.51831        -4.22720         1.18553
| 34>    C        0.66657        -4.48760         0.11906
| 35>    C        0.06028        -5.73054         0.22060
| 36>    C        0.45432        -6.44476         1.37390
| 37>    S        1.57895        -5.58356         2.31293
| 38>    C       -0.22561        -7.68612         1.38294
| 39>    C       -1.05690        -7.75193         0.25124
| 40>    C       -0.90361        -6.52697        -0.51633
| 41>    C       -1.52812        -6.19273        -1.68328
| 42>    C       -2.42500        -7.07321        -2.32138
| 43>    N       -3.13685        -7.81236        -2.83366
| 44>    C       -1.28714        -4.95703        -2.31912
| 45>    N       -1.07408        -3.95109        -2.82658
| 46>    C       -1.77828        -8.94312         0.17489
| 47>    C       -1.49523        -9.79735         1.22384
| 48>    S       -0.33527        -9.09475         2.34234
| 49>    C       -2.05040       -11.09642         1.49472
| 50>    C       -2.17761       -11.52872         2.80596
| 51>    C       -2.83038       -12.71074         3.13134
| 52>    C       -3.39404       -13.53081         2.16256
| 53>    C       -3.16016       -13.21768         0.79081
| 54>    C       -3.39333       -14.06534        -0.29834
| 55>   Si       -3.28050       -12.96177        -1.72859
| 56>    C       -2.10208       -11.86654        -0.90109
| 57>    C       -2.45314       -11.98013         0.44879
| 58>    C       -4.15554       -14.67637         2.59401
| 59>    C       -3.96735       -15.38368         3.76670
| 60>    C       -4.91412       -16.39368         3.93897
| 61>    C       -5.84711       -16.45337         2.88977
| 62>    S       -5.54390       -15.27035         1.69561
| 63>    C       -6.75825       -17.50745         3.13647
| 64>    C       -6.39349       -18.11803         4.36251
| 65>    C       -5.22563       -17.43725         4.90116
| 66>    C       -4.56099       -17.71505         6.05916
| 67>    C       -4.94796       -18.76529         6.91857
| 68>    N       -5.25402       -19.61835         7.62038
| 69>    C       -3.43927       -16.96640         6.47327
| 70>    N       -2.52903       -16.35465         6.80802
| 71>    C       -7.23022       -19.16394         4.69375
| 72>    C       -8.23393       -19.37524         3.73788
| 73>    S       -8.11293       -18.22810         2.40040
| 74>    C       -9.19128       -20.38673         3.88621
| 75>    C      -10.22797       -20.76070         3.06595
| 76>    C      -11.17382       -21.83163         3.32042
| 77>    C      -11.25141       -22.63427         4.42791
| 78>    C      -12.21322       -23.65350         4.59949
| 79>    N      -12.96541       -24.49561         4.80448
| 80>    C      -10.40697       -22.56987         5.55707
| 81>    N       -9.76885       -22.58419         6.51166
| 82>    C      -12.06933       -21.90370         2.16576
| 83>    C      -11.70240       -20.90815         1.24335
| 84>    C      -10.54959       -20.15615         1.77115
| 85>    O       -9.98580       -19.22326         1.22503
| 86>    C      -12.37244       -20.73335         0.05008
| 87>    C      -13.43970       -21.57625        -0.23408
| 88>    C      -13.81277       -22.57136         0.67632
| 89>    C      -13.13362       -22.74199         1.87861
| 90>   Cl      -15.13210       -23.60786         0.31294
| 91>   Cl      -14.30059       -21.39391        -1.70797
| 92>    H        5.19220         1.11239        -0.00020
| 93>    H        0.66363         0.76878        -2.03961
| 94>    H        3.16428        -3.26538         2.11388
| 95>    H        0.54408        -3.81534        -0.71025
| 96>    H       -2.51289        -9.15936        -0.57875
| 97>    H       -1.81194       -10.90116         3.60586
| 98>    H       -2.95459       -12.95770         4.17403
| 99>    H       -3.94180       -14.98423        -0.18093
|100>    H       -1.58984       -10.99403        -1.26868
|101>    H       -3.15438       -15.19282         4.44264
|102>    H       -7.14810       -19.76999         5.57881
|103>    H       -9.06669       -20.95094         4.80255
|104>    H      -12.07337       -19.96221        -0.64203
|105>    H      -13.45143       -23.52019         2.55260
|106> *
|107>
|108>                          ****END OF INPUT****

CARTESIAN COORDINATES (ANGSTROEM)
---------------------------------
  C      1.334840   -1.154110    0.061580
  C     -0.028670   -1.291260    0.101960
  C     -0.925430   -0.470340   -0.614610
  N     -1.700100    0.165630   -1.172670
  C     -0.702100   -2.202730    0.938040
  N     -1.291370   -2.912230    1.621870
  C      2.040720   -0.052020   -0.592620
  C      3.330010    0.054890   -0.040190
  C      4.210790    1.038470   -0.441250
  C      3.800160    1.928810   -1.426020
  C      2.524870    1.817830   -1.992440
  C      1.635840    0.831210   -1.578320
  Cl     2.039920    2.913250   -3.221270
  Cl     4.866980    3.166850   -1.951640
  C      3.531340   -1.023820    0.950020
  O      4.492760   -1.218180    1.656160
  C      2.308610   -1.868140    0.857390
  C      2.337240   -3.108580    1.427350
  C      1.518310   -4.227200    1.185530
  C      0.666570   -4.487600    0.119060
  C      0.060280   -5.730540    0.220600
  C      0.454320   -6.444760    1.373900
  S      1.578950   -5.583560    2.312930
  C     -0.225610   -7.686120    1.382940
  C     -1.056900   -7.751930    0.251240
  C     -0.903610   -6.526970   -0.516330
  C     -1.528120   -6.192730   -1.683280
  C     -2.425000   -7.073210   -2.321380
  N     -3.136850   -7.812360   -2.833660
  C     -1.287140   -4.957030   -2.319120
  N     -1.074080   -3.951090   -2.826580
  C     -1.778280   -8.943120    0.174890
  C     -1.495230   -9.797350    1.223840
  S     -0.335270   -9.094750    2.342340
  C     -2.050400  -11.096420    1.494720
  C     -2.177610  -11.528720    2.805960
  C     -2.830380  -12.710740    3.131340
  C     -3.394040  -13.530810    2.162560
  C     -3.160160  -13.217680    0.790810
  C     -3.393330  -14.065340   -0.298340
  Si    -3.280500  -12.961770   -1.728590
  C     -2.102080  -11.866540   -0.901090
  C     -2.453140  -11.980130    0.448790
  C     -4.155540  -14.676370    2.594010
  C     -3.967350  -15.383680    3.766700
  C     -4.914120  -16.393680    3.938970
  C     -5.847110  -16.453370    2.889770
  S     -5.543900  -15.270350    1.695610
  C     -6.758250  -17.507450    3.136470
  C     -6.393490  -18.118030    4.362510
  C     -5.225630  -17.437250    4.901160
  C     -4.560990  -17.715050    6.059160
  C     -4.947960  -18.765290    6.918570
  N     -5.254020  -19.618350    7.620380
  C     -3.439270  -16.966400    6.473270
  N     -2.529030  -16.354650    6.808020
  C     -7.230220  -19.163940    4.693750
  C     -8.233930  -19.375240    3.737880
  S     -8.112930  -18.228100    2.400400
  C     -9.191280  -20.386730    3.886210
  C    -10.227970  -20.760700    3.065950
  C    -11.173820  -21.831630    3.320420
  C    -11.251410  -22.634270    4.427910
  C    -12.213220  -23.653500    4.599490
  N    -12.965410  -24.495610    4.804480
  C    -10.406970  -22.569870    5.557070
  N     -9.768850  -22.584190    6.511660
  C    -12.069330  -21.903700    2.165760
  C    -11.702400  -20.908150    1.243350
  C    -10.549590  -20.156150    1.771150
  O     -9.985800  -19.223260    1.225030
  C    -12.372440  -20.733350    0.050080
  C    -13.439700  -21.576250   -0.234080
  C    -13.812770  -22.571360    0.676320
  C    -13.133620  -22.741990    1.878610
  Cl   -15.132100  -23.607860    0.312940
  Cl   -14.300590  -21.393910   -1.707970
  H      5.192200    1.112390   -0.000200
  H      0.663630    0.768780   -2.039610
  H      3.164280   -3.265380    2.113880
  H      0.544080   -3.815340   -0.710250
  H     -2.512890   -9.159360   -0.578750
  H     -1.811940  -10.901160    3.605860
  H     -2.954590  -12.957700    4.174030
  H     -3.941800  -14.984230   -0.180930
  H     -1.589840  -10.994030   -1.268680
  H     -3.154380  -15.192820    4.442640
  H     -7.148100  -19.769990    5.578810
  H     -9.066690  -20.950940    4.802550
  H    -12.073370  -19.962210   -0.642030
  H    -13.451430  -23.520190    2.552600

 Total Charge           Charge          ....    0
 Multiplicity           Mult            ....    1
 Number of Electrons    NEL             ....  580
 Basis Dimension        Dim             .... 1184

ORBITAL ENERGIES
----------------

  NO   OCC          E(Eh)            E(eV)
   0   2.0000    -101.605837     -2764.8354
   1   2.0000    -101.603979     -2764.7848
   2   2.0000    -101.603653     -2764.7760
   3   2.0000    -101.602379     -2764.7413
   4   2.0000     -89.005251     -2421.9560
   5   2.0000     -89.002907     -2421.8922
   6   2.0000     -89.001525     -2421.8546
   7   2.0000     -88.998326     -2421.7676
   8   2.0000     -66.209988     -1801.6654
   9   2.0000     -19.236308      -523.4466
  10   2.0000     -19.226398      -523.1769
  11   2.0000     -14.440954      -392.9583
  12   2.0000     -14.440668      -392.9506
  13   2.0000     -14.439658      -392.9231
  14   2.0000     -14.437354      -392.8604
  15   2.0000     -14.426898      -392.5758
  16   2.0000     -14.426187      -392.5565
  17   2.0000     -14.422476      -392.4555
  18   2.0000     -14.421496      -392.4289
  19   2.0000     -10.384302      -282.5712
  20   2.0000     -10.377741      -282.3927
  21   2.0000     -10.376329      -282.3543
  22   2.0000     -10.374082      -282.2931
  23   2.0000     -10.363342      -282.0009
  24   2.0000     -10.362302      -281.9726
  25   2.0000     -10.362187      -281.9694
  26   2.0000     -10.361918      -281.9621
  27   2.0000     -10.360580      -281.9257
  28   2.0000     -10.359890      -281.9069
  29   2.0000     -10.354348      -281.7561
  30   2.0000     -10.353622      -281.7364
  31   2.0000     -10.353450      -281.7317
  32   2.0000     -10.353297      -281.7275
  33   2.0000     -10.352572      -281.7078
  34   2.0000     -10.344580      -281.4903
  35   2.0000     -10.344006      -281.4747
  36   2.0000     -10.340887      -281.3898
  37   2.0000     -10.340669      -281.3839
  38   2.0000     -10.340666      -281.3838
  39   2.0000     -10.339961      -281.3646
  40   2.0000     -10.339820      -281.3608
  41   2.0000     -10.339718      -281.3580
  42   2.0000     -10.336915      -281.2818
  43   2.0000     -10.336601      -281.2732
  44   2.0000     -10.336479      -281.2699
  45   2.0000     -10.334983      -281.2292
  46   2.0000     -10.334457      -281.2149
  47   2.0000     -10.328134      -281.0428
  48   2.0000     -10.327709      -281.0312
  49   2.0000     -10.324902      -280.9549
  50   2.0000     -10.323328      -280.9120
  51   2.0000     -10.322752      -280.8964
  52   2.0000     -10.322642      -280.8934
  53   2.0000     -10.322120      -280.8792
  54   2.0000     -10.321573      -280.8643
  55   2.0000     -10.320006      -280.8216
  56   2.0000     -10.319621      -280.8112
  57   2.0000     -10.319401      -280.8052
  58   2.0000     -10.318882      -280.7911
  59   2.0000     -10.318684      -280.7857
  60   2.0000     -10.318636      -280.7844
  61   2.0000     -10.316661      -280.7306
  62   2.0000     -10.316501      -280.7263
  63   2.0000     -10.314899      -280.6827
  64   2.0000     -10.314313      -280.6667
  65   2.0000     -10.313843      -280.6539
  66   2.0000     -10.313448      -280.6432
  67   2.0000     -10.312407      -280.6149
  68   2.0000     -10.311598      -280.5928
  69   2.0000     -10.309074      -280.5242
  70   2.0000     -10.308896      -280.5193
  71   2.0000     -10.308595      -280.5111
  72   2.0000     -10.307298      -280.4758
  73   2.0000     -10.307186      -280.4728
  74   2.0000     -10.306779      -280.4617
  75   2.0000     -10.272733      -279.5353
  76   2.0000     -10.272619      -279.5322
  77   2.0000      -9.560878      -260.1647
  78   2.0000      -9.559002      -260.1137
  79   2.0000      -9.558636      -260.1037
  80   2.0000      -9.557385      -260.0697
  81   2.0000      -8.099873      -220.4087
  82   2.0000      -8.097370      -220.3406
  83   2.0000      -8.095722      -220.2958
  84   2.0000      -8.090680      -220.1586
  85   2.0000      -7.331277      -199.4942
  86   2.0000      -7.329422      -199.4437
  87   2.0000      -7.329046      -199.4335
  88   2.0000      -7.327807      -199.3998
  89   2.0000      -7.321136      -199.2182
  90   2.0000      -7.320392      -199.1980
  91   2.0000      -7.319249      -199.1669
  92   2.0000      -7.318890      -199.1571
  93   2.0000      -7.318500      -199.1465
  94   2.0000      -7.318160      -199.1373
  95   2.0000      -7.317640      -199.1231
  96   2.0000      -7.316883      -199.1025
  97   2.0000      -6.069016      -165.1463
  98   2.0000      -6.066615      -165.0810
  99   2.0000      -6.064925      -165.0350
 100   2.0000      -6.064867      -165.0334
 101   2.0000      -6.062412      -164.9666
 102   2.0000      -6.062394      -164.9661
 103   2.0000      -6.060642      -164.9185
 104   2.0000      -6.060099      -164.9037
 105   2.0000      -6.059800      -164.8955
 106   2.0000      -6.058278      -164.8541
 107   2.0000      -6.055327      -164.7738
 108   2.0000      -6.053234      -164.7169
 109   2.0000      -5.381370      -146.4345
 110   2.0000      -3.748637      -102.0056
 111   2.0000      -3.740195      -101.7759
 112   2.0000      -3.738864      -101.7397
 113   2.0000      -1.151653       -31.3381
 114   2.0000      -1.142011       -31.0757
 115   2.0000      -1.059119       -28.8201
 116   2.0000      -1.055595       -28.7242
 117   2.0000      -1.037927       -28.2434
 118   2.0000      -1.036511       -28.2049
 119   2.0000      -1.032740       -28.1023
 120   2.0000      -1.030675       -28.0461
 121   2.0000      -1.023885       -27.8613
 122   2.0000      -1.023766       -27.8581
 123   2.0000      -1.018492       -27.7146
 124   2.0000      -1.016523       -27.6610
 125   2.0000      -1.015365       -27.6295
 126   2.0000      -1.010706       -27.5027
 127   2.0000      -1.002880       -27.2898
 128   2.0000      -1.002369       -27.2759
 129   2.0000      -0.999382       -27.1946
 130   2.0000      -0.997527       -27.1441
 131   2.0000      -0.992961       -27.0198
 132   2.0000      -0.972928       -26.4747
 133   2.0000      -0.967297       -26.3215
 134   2.0000      -0.967049       -26.3147
 135   2.0000      -0.965391       -26.2696
 136   2.0000      -0.942874       -25.6569
 137   2.0000      -0.942157       -25.6374
 138   2.0000      -0.933413       -25.3994
 139   2.0000      -0.927762       -25.2457
 140   2.0000      -0.915407       -24.9095
 141   2.0000      -0.913667       -24.8622
 142   2.0000      -0.906230       -24.6598
 143   2.0000      -0.897112       -24.4117
 144   2.0000      -0.885766       -24.1029
 145   2.0000      -0.884849       -24.0780
 146   2.0000      -0.872501       -23.7419
 147   2.0000      -0.870087       -23.6763
 148   2.0000      -0.867998       -23.6194
 149   2.0000      -0.866196       -23.5704
 150   2.0000      -0.865734       -23.5578
 151   2.0000      -0.863300       -23.4916
 152   2.0000      -0.825347       -22.4588
 153   2.0000      -0.814590       -22.1661
 154   2.0000      -0.805304       -21.9134
 155   2.0000      -0.797494       -21.7009
 156   2.0000      -0.788430       -21.4543
 157   2.0000      -0.785159       -21.3653
 158   2.0000      -0.778060       -21.1721
 159   2.0000      -0.777374       -21.1534
 160   2.0000      -0.769456       -20.9380
 161   2.0000      -0.765477       -20.8297
 162   2.0000      -0.743830       -20.2407
 163   2.0000      -0.732369       -19.9288
 164   2.0000      -0.721729       -19.6393
 165   2.0000      -0.713252       -19.4086
 166   2.0000      -0.711326       -19.3562
 167   2.0000      -0.706056       -19.2128
 168   2.0000      -0.702717       -19.1219
 169   2.0000      -0.698132       -18.9971
 170   2.0000      -0.694893       -18.9090
 171   2.0000      -0.692373       -18.8404
 172   2.0000      -0.687271       -18.7016
 173   2.0000      -0.679668       -18.4947
 174   2.0000      -0.671330       -18.2678
 175   2.0000      -0.664630       -18.0855
 176   2.0000      -0.656257       -17.8576
 177   2.0000      -0.651235       -17.7210
 178   2.0000      -0.644762       -17.5449
 179   2.0000      -0.639836       -17.4108
 180   2.0000      -0.632691       -17.2164
 181   2.0000      -0.630412       -17.1544
 182   2.0000      -0.628324       -17.0976
 183   2.0000      -0.627740       -17.0817
 184   2.0000      -0.624942       -17.0055
 185   2.0000      -0.621201       -16.9038
 186   2.0000      -0.610833       -16.6216
 187   2.0000      -0.607327       -16.5262
 188   2.0000      -0.600727       -16.3466
 189   2.0000      -0.594313       -16.1721
 190   2.0000      -0.587740       -15.9932
 191   2.0000      -0.582474       -15.8499
 192   2.0000      -0.574290       -15.6272
 193   2.0000      -0.567931       -15.4542
 194   2.0000      -0.565612       -15.3911
 195   2.0000      -0.560484       -15.2516
 196   2.0000      -0.559655       -15.2290
 197   2.0000      -0.556232       -15.1358
 198   2.0000      -0.554061       -15.0768
 199   2.0000      -0.553953       -15.0738
 200   2.0000      -0.550384       -14.9767
 201   2.0000      -0.550060       -14.9679
 202   2.0000      -0.546572       -14.8730
 203   2.0000      -0.543389       -14.7864
 204   2.0000      -0.540466       -14.7068
 205   2.0000      -0.535950       -14.5840
 206   2.0000      -0.532212       -14.4822
 207   2.0000      -0.529571       -14.4103
 208   2.0000      -0.526206       -14.3188
 209   2.0000      -0.524844       -14.2817
 210   2.0000      -0.521538       -14.1918
 211   2.0000      -0.517795       -14.0899
 212   2.0000      -0.517097       -14.0709
 213   2.0000      -0.516831       -14.0637
 214   2.0000      -0.516150       -14.0452
 215   2.0000      -0.513095       -13.9620
 216   2.0000      -0.509796       -13.8723
 217   2.0000      -0.508353       -13.8330
 218   2.0000      -0.507959       -13.8223
 219   2.0000      -0.504895       -13.7389
 220   2.0000      -0.503916       -13.7122
 221   2.0000      -0.501335       -13.6420
 222   2.0000      -0.497431       -13.5358
 223   2.0000      -0.496496       -13.5103
 224   2.0000      -0.492215       -13.3939
 225   2.0000      -0.490309       -13.3420
 226   2.0000      -0.486129       -13.2282
 227   2.0000      -0.485227       -13.2037
 228   2.0000      -0.480527       -13.0758
 229   2.0000      -0.477654       -12.9976
 230   2.0000      -0.475243       -12.9320
 231   2.0000      -0.472440       -12.8557
 232   2.0000      -0.470960       -12.8155
 233   2.0000      -0.469549       -12.7771
 234   2.0000      -0.468189       -12.7401
 235   2.0000      -0.465331       -12.6623
 236   2.0000      -0.463596       -12.6151
 237   2.0000      -0.458870       -12.4865
 238   2.0000      -0.457904       -12.4602
 239   2.0000      -0.456593       -12.4245
 240   2.0000      -0.456049       -12.4097
 241   2.0000      -0.450875       -12.2689
 242   2.0000      -0.450780       -12.2663
 243   2.0000      -0.450264       -12.2523
 244   2.0000      -0.448850       -12.2138
 245   2.0000      -0.448471       -12.2035
 246   2.0000      -0.448357       -12.2004
 247   2.0000      -0.447054       -12.1650
 248   2.0000      -0.446467       -12.1490
 249   2.0000      -0.444790       -12.1034
 250   2.0000      -0.443685       -12.0733
 251   2.0000      -0.441399       -12.0111
 252   2.0000      -0.437520       -11.9055
 253   2.0000      -0.436533       -11.8787
 254   2.0000      -0.435674       -11.8553
 255   2.0000      -0.434940       -11.8353
 256   2.0000      -0.434704       -11.8289
 257   2.0000      -0.433582       -11.7984
 258   2.0000      -0.432080       -11.7575
 259   2.0000      -0.430502       -11.7145
 260   2.0000      -0.427783       -11.6406
 261   2.0000      -0.419910       -11.4263
 262   2.0000      -0.416790       -11.3414
 263   2.0000      -0.413498       -11.2518
 264   2.0000      -0.413091       -11.2408
 265   2.0000      -0.412924       -11.2362
 266   2.0000      -0.410242       -11.1633
 267   2.0000      -0.408537       -11.1169
 268   2.0000      -0.404882       -11.0174
 269   2.0000      -0.398263       -10.8373
 270   2.0000      -0.386817       -10.5258
 271   2.0000      -0.385092       -10.4789
 272   2.0000      -0.383757       -10.4426
 273   2.0000      -0.376321       -10.2402
 274   2.0000      -0.360570        -9.8116
 275   2.0000      -0.358550        -9.7566
 276   2.0000      -0.353260        -9.6127
 277   2.0000      -0.352268        -9.5857
 278   2.0000      -0.349916        -9.5217
 279   2.0000      -0.347721        -9.4620
 280   2.0000      -0.340087        -9.2542
 281   2.0000      -0.336888        -9.1672
 282   2.0000      -0.331619        -9.0238
 283   2.0000      -0.329508        -8.9664
 284   2.0000      -0.318377        -8.6635
 285   2.0000      -0.316509        -8.6126
 286   2.0000      -0.298733        -8.1289
 287   2.0000      -0.291707        -7.9378
 288   2.0000      -0.282424        -7.6851
 289   2.0000      -0.251898        -6.8545
 290   0.0000      -0.129648        -3.5279
 291   0.0000      -0.117260        -3.1908
 292   0.0000      -0.113593        -3.0910
 293   0.0000      -0.095916        -2.6100
 294   0.0000      -0.095258        -2.5921

MULLIKEN ATOMIC CHARGES
-----------------------
   0 C :    0.268210
   1 C :   -0.327316
   2 C :   -0.172059
   3 N :    0.168498
   4 C :   -0.205206
   5 N :    0.172842
   6 C :    0.014679
   7 C :    0.002900
   8 C :   -0.027860
   9 C :    0.059851
  10 C :    0.046985
  11 C :   -0.010926
  12 Cl:   -0.032926
  13 Cl:   -0.041447
  14 C :    0.135023
  15 O :   -0.139072
  16 C :   -0.137877
  17 C :    0.081894
  18 C :   -0.109607
  19 C :    0.001614
  20 C :   -0.008448
  21 C :   -0.072342
  22 S :    0.216472
  23 C :   -0.101819
  24 C :    0.008546
  25 C :    0.302560
  26 C :   -0.279660
  27 C :   -0.187392
  28 N :    0.173029
  29 C :   -0.183079
  30 N :    0.174192
  31 C :   -0.026677
  32 C :   -0.108206
  33 S :    0.194951
  34 C :    0.128991
  35 C :   -0.038107
  36 C :   -0.035620
  37 C :    0.124094
  38 C :   -0.011426
  39 C :   -0.194995
  40 Si:    0.371508
  41 C :   -0.182768
  42 C :   -0.013942
  43 C :   -0.109133
  44 C :   -0.028198
  45 C :    0.018294
  46 C :   -0.116247
  47 S :    0.213135
  48 C :   -0.066786
  49 C :    0.043186
  50 C :    0.305548
  51 C :   -0.293501
  52 C :   -0.194446
  53 N :    0.185680
  54 C :   -0.185888
  55 N :    0.171458
  56 C :   -0.057669
  57 C :   -0.055722
  58 S :    0.244313
  59 C :   -0.024269
  60 C :   -0.097348
  61 C :    0.323592
  62 C :   -0.345936
  63 C :   -0.189259
  64 N :    0.160509
  65 C :   -0.192310
  66 N :    0.161219
  67 C :    0.028328
  68 C :   -0.010661
  69 C :    0.166555
  70 O :   -0.186036
  71 C :   -0.031701
  72 C :    0.060588
  73 C :    0.045659
  74 C :   -0.011220
  75 Cl:   -0.030973
  76 Cl:   -0.039925
  77 H :    0.000519
  78 H :    0.007740
  79 H :    0.023306
  80 H :    0.026296
  81 H :    0.018710
  82 H :   -0.006417
  83 H :   -0.004346
  84 H :    0.008035
  85 H :    0.009708
  86 H :    0.011093
  87 H :    0.029841
  88 H :    0.016303
  89 H :   -0.000292
  90 H :    0.000608
Sum of atomic charges:    0.0000000

LOEWDIN ATOMIC CHARGES
----------------------
   0 C :    0.064168
   1 C :   -0.132935
   2 C :   -0.021323
   3 N :   -0.038057
   4 C :   -0.015417
   5 N :   -0.042225
   6 C :   -0.010470
   7 C :   -0.046708
   8 C :    0.002211
   9 C :   -0.134856
  10 C :   -0.128923
  11 C :   -0.012155
  12 Cl:    0.165391
  13 Cl:    0.160054
  14 C :    0.083762
  15 O :   -0.138342
  16 C :   -0.096158
  17 C :    0.044463
  18 C :   -0.181777
  19 C :    0.013997
  20 C :   -0.067356
  21 C :   -0.156256
  22 S :    0.501352
  23 C :   -0.187525
  24 C :   -0.056864
  25 C :    0.081489
  26 C :   -0.095464
  27 C :   -0.016056
  28 N :   -0.027800
  29 C :   -0.014051
  30 N :   -0.028252
  31 C :   -0.029071
  32 C :   -0.142112
  33 S :    0.489380
  34 C :   -0.033904
  35 C :   -0.021024
  36 C :   -0.001792
  37 C :   -0.037923
  38 C :   -0.010444
  39 C :   -0.229817
  40 Si:    0.441319
  41 C :   -0.212263
  42 C :   -0.005220
  43 C :   -0.140952
  44 C :   -0.030572
  45 C :   -0.054345
  46 C :   -0.193485
  47 S :    0.504779
  48 C :   -0.161964
  49 C :   -0.078726
  50 C :    0.077957
  51 C :   -0.099392
  52 C :   -0.020705
  53 N :   -0.021639
  54 C :   -0.015433
  55 N :   -0.032712
  56 C :    0.015549
  57 C :   -0.185320
  58 S :    0.547621
  59 C :    0.058341
  60 C :   -0.115416
  61 C :    0.074722
  62 C :   -0.134192
  63 C :   -0.020026
  64 N :   -0.044187
  65 C :   -0.023144
  66 N :   -0.041622
  67 C :   -0.012225
  68 C :   -0.044480
  69 C :    0.085955
  70 O :   -0.170928
  71 C :    0.000884
  72 C :   -0.134465
  73 C :   -0.129610
  74 C :   -0.011267
  75 Cl:    0.165108
  76 Cl:    0.160803
  77 H :    0.046445
  78 H :    0.046158
  79 H :    0.046690
  80 H :    0.043227
  81 H :    0.041820
  82 H :    0.026203
  83 H :    0.036669
  84 H :    0.005583
  85 H :    0.022952
  86 H :    0.040601
  87 H :    0.048788
  88 H :    0.054077
  89 H :    0.045925
  90 H :    0.044899

  Mayer bond orders larger than 0.100000
B(  0-C ,  1-C ) :   1.6524 B(  0-C ,  6-C ) :   1.0007 B(  0-C , 16-C ) :   1.0436
B(  1-C ,  2-C ) :   1.1230 B(  1-C ,  4-C ) :   1.1751 B(  2-C ,  3-N ) :   2.9947
B(  4-C ,  5-N ) :   2.9950 B(  6-C ,  7-C ) :   1.3282 B(  6-C , 11-C ) :   1.3486
B(  7-C ,  8-C ) :   1.3502 B(  7-C , 14-C ) :   0.9214 B(  8-C ,  9-C ) :   1.3438
B(  8-C , 77-H ) :   1.0162 B(  9-C , 10-C ) :   1.4079 B(  9-C , 13-Cl) :   1.0482
B( 10-C , 11-C ) :   1.3589 B( 10-C , 12-Cl) :   1.0728 B( 11-C , 78-H ) :   0.9895
B( 14-C , 15-O ) :   2.2656 B( 14-C , 16-C ) :   0.9496 B( 16-C , 17-C ) :   1.6529
B( 17-C , 18-C ) :   1.1547 B( 17-C , 79-H ) :   0.9261 B( 18-C , 19-C ) :   1.3830
B( 18-C , 22-S ) :   1.0850 B( 19-C , 20-C ) :   1.3693 B( 19-C , 80-H ) :   0.9771
B( 20-C , 21-C ) :   1.4014 B( 20-C , 25-C ) :   0.9979 B( 21-C , 22-S ) :   1.1607
B( 21-C , 23-C ) :   1.2010 B( 23-C , 24-C ) :   1.4366 B( 23-C , 33-S ) :   1.1136
B( 24-C , 25-C ) :   0.9941 B( 24-C , 31-C ) :   1.2932 B( 25-C , 26-C ) :   1.7199
B( 26-C , 27-C ) :   1.1331 B( 26-C , 29-C ) :   1.1319 B( 27-C , 28-N ) :   2.9856
B( 29-C , 30-N ) :   2.9836 B( 31-C , 32-C ) :   1.4615 B( 31-C , 81-H ) :   0.9906
B( 32-C , 33-S ) :   1.1248 B( 32-C , 34-C ) :   1.0706 B( 34-C , 35-C ) :   1.5136
B( 34-C , 42-C ) :   1.1115 B( 35-C , 36-C ) :   1.1879 B( 35-C , 82-H ) :   0.9834
B( 36-C , 37-C ) :   1.5377 B( 36-C , 83-H ) :   0.9906 B( 37-C , 38-C ) :   1.1041
B( 37-C , 43-C ) :   1.0420 B( 38-C , 39-C ) :   1.6438 B( 38-C , 40-Si) :   0.1290
B( 38-C , 42-C ) :   1.0195 B( 39-C , 40-Si) :   0.9966 B( 39-C , 41-C ) :   0.1131
B( 39-C , 84-H ) :   0.9346 B( 40-Si, 41-C ) :   1.0051 B( 40-Si, 42-C ) :   0.1332
B( 41-C , 42-C ) :   1.6343 B( 41-C , 85-H ) :   0.9447 B( 43-C , 44-C ) :   1.4745
B( 43-C , 47-S ) :   1.1231 B( 44-C , 45-C ) :   1.2875 B( 44-C , 86-H ) :   0.9917
B( 45-C , 46-C ) :   1.4240 B( 45-C , 50-C ) :   0.9988 B( 46-C , 47-S ) :   1.1117
B( 46-C , 48-C ) :   1.2100 B( 48-C , 49-C ) :   1.3494 B( 48-C , 58-S ) :   1.1329
B( 49-C , 50-C ) :   0.9879 B( 49-C , 56-C ) :   1.3378 B( 50-C , 51-C ) :   1.7146
B( 51-C , 52-C ) :   1.1349 B( 51-C , 54-C ) :   1.1332 B( 52-C , 53-N ) :   2.9944
B( 54-C , 55-N ) :   2.9883 B( 56-C , 57-C ) :   1.3216 B( 56-C , 87-H ) :   1.0083
B( 57-C , 58-S ) :   1.0644 B( 57-C , 59-C ) :   1.2793 B( 59-C , 60-C ) :   1.4841
B( 59-C , 88-H ) :   0.9390 B( 60-C , 61-C ) :   1.0818 B( 60-C , 69-C ) :   0.9874
B( 61-C , 62-C ) :   1.6373 B( 61-C , 67-C ) :   0.9861 B( 62-C , 63-C ) :   1.1414
B( 62-C , 65-C ) :   1.1447 B( 63-C , 64-N ) :   2.9720 B( 65-C , 66-N ) :   2.9620
B( 67-C , 68-C ) :   1.3306 B( 67-C , 74-C ) :   1.3478 B( 68-C , 69-C ) :   0.9634
B( 68-C , 71-C ) :   1.3412 B( 69-C , 70-O ) :   2.1167 B( 71-C , 72-C ) :   1.3383
B( 71-C , 89-H ) :   1.0179 B( 72-C , 73-C ) :   1.4098 B( 72-C , 76-Cl) :   1.0492
B( 73-C , 74-C ) :   1.3542 B( 73-C , 75-Cl) :   1.0814 B( 74-C , 90-H ) :   0.9864

-----------------------------------------------------------------------------
         ABSORPTION SPECTRUM VIA TRANSITION ELECTRIC DIPOLE MOMENTS
-----------------------------------------------------------------------------
State   Energy  Wavelength   fosc         T2         TX        TY        TZ
        (cm-1)    (nm)                  (au**2)     (au)      (au)      (au)
-----------------------------------------------------------------------------
   0    9133.4   1094.9   0.296368508  10.68261  -1.61601  -2.79020   0.53472
   1   12521.9    798.6   0.259560019   6.82406   1.26102   2.27964  -0.19266
   2   13420.1    745.1   0.105050503   2.57701  -1.18731  -1.02311   0.34724
   3   16115.5    620.5   0.115573309   2.36096   0.05577  -0.48864  -1.45571
   4   18401.0    543.4   0.036010574   0.64426  -0.32613  -0.71879   0.14576
   5   18930.8    528.2   0.462497414   8.04294   1.52976   2.37834  -0.21505
   6   19177.0    521.5   0.745865180  12.80429   1.53090   3.19567  -0.49831
   7   20527.6    487.1   0.090288911   1.44801  -1.11333   0.45267  -0.05991
   8   21350.7    468.4   0.356225745   5.49273   1.60109   1.71020   0.06667
   9   21946.2    455.7   0.139010273   2.08527  -1.13647  -0.88761  -0.07662
  10   24304.9    411.4   0.004056254   0.05494  -0.12629  -0.12612   0.15194
  11   24939.3    401.0   0.055120197   0.72762  -0.62260  -0.58223  -0.03145
  12   25669.0    389.6   0.011577316   0.14848  -0.23426  -0.27439   0.13533
  13   25838.5    387.0   0.031343733   0.39935  -0.19430   0.24302  -0.55004
  14   26615.8    375.7   0.055360692   0.68476   0.67692   0.44674   0.16419
  15   26934.2    371.3   0.091946560   1.12385  -0.28680  -0.95401  -0.36256
  16   27148.0    368.4   0.095641578   1.15980  -0.95936  -0.15504  -0.46410
  17   27464.3    364.1   0.025292166   0.30317   0.50249   0.20617  -0.09043
  18   27711.6    360.9   0.193795416   2.30227  -0.92121  -1.20480  -0.04580
  19   28166.4    355.0   0.268746848   3.14114   0.70786   1.47674  -0.67773
  20   28724.3    348.1   0.018913016   0.21676  -0.17806  -0.42896   0.03244
  21   29179.0    342.7   0.039946376   0.45069   0.33831  -0.09620   0.57183
  22   29382.0    340.3   0.086172242   0.96552   0.58452   0.16216   0.77302
  23   29519.8    338.8   0.146326205   1.63187  -0.73852   0.09063  -1.03838
  24   30070.3    332.6   0.034355762   0.37613   0.46872   0.34733   0.18920
  25   30271.0    330.3   0.008381648   0.09115  -0.21316  -0.12840  -0.17097
  26   30520.8    327.6   0.430694621   4.64567   0.38029  -1.10308   1.81226
  27   31001.6    322.6   0.093662913   0.99462   0.68299   0.63119  -0.36021
  28   31488.9    317.6   0.041578455   0.43470   0.26676   0.57272   0.18848
  29   31754.9    314.9   0.179343781   1.85931  -0.60879   0.31714  -1.17818
  30   32019.5    312.3   0.128802743   1.32430   0.74447   0.75403   0.44888
  31   32278.1    309.8   0.319182624   3.25542   1.22552  -0.37210   1.27085
  32   32453.3    308.1   0.004310824   0.04373   0.10230  -0.13948   0.11751
  33   32564.8    307.1   0.059851888   0.60507  -0.43255   0.30710  -0.56891
  34   32990.6    303.1   0.104962674   1.04742   0.73183   0.63528  -0.32904
  35   33171.8    301.5   0.011380819   0.11295   0.29753   0.15207  -0.03603
  36   33474.1    298.7   0.108269591   1.06481   0.71148   0.74051   0.10127
  37   33598.4    297.6   0.322275398   3.15779  -1.10561  -1.35485   0.31591
  38   33708.7    296.7   0.023922913   0.23364  -0.24547  -0.36855   0.19379
  39   33813.1    295.7   0.038616950   0.37598  -0.32661  -0.51789  -0.03310
  40   33925.5    294.8   0.007824582   0.07593   0.08473  -0.16127   0.20675
  41   34158.4    292.8   0.077991907   0.75167  -0.61558  -0.59833   0.12136
  42   34222.3    292.2   0.224766527   2.16221   0.36470   1.02254  -0.99177
  43   34384.0    290.8   0.384364120   3.68012  -0.33702   0.75814  -1.72967
  44   34559.3    289.4   0.235051230   2.23910   1.12750   0.13952   0.97385
  45   34676.5    288.4   0.023705628   0.22506   0.37132  -0.00451   0.29523
  46   34730.5    287.9   0.060838526   0.57669  -0.39849  -0.00653  -0.64642
  47   35042.0    285.4   0.487482314   4.57978  -1.27884   0.26299  -1.69564
  48   35194.3    284.1   0.357769216   3.34662   1.28071   1.03832  -0.79265
  49   35319.3    283.1   0.090615601   0.84463  -0.83937  -0.07719  -0.36624
  50   35481.5    281.8   0.088656598   0.82259   0.74701   0.49625   0.13530
  51   36260.2    275.8   0.036609004   0.33238   0.21765   0.46924  -0.25460
  52   36367.8    275.0   0.003343906   0.03027   0.16451   0.00110   0.05662
  53   36538.0    273.7   0.047257723   0.42580  -0.41235  -0.47285  -0.17939
  54   36557.3    273.5   0.051055787   0.45978   0.45161   0.39246   0.31906
  55   36678.0    272.6   0.053679754   0.48182   0.20051   0.63073  -0.20926
  56   36973.1    270.5   0.018927739   0.16853   0.14580  -0.17219   0.34297
  57   37064.3    269.8   0.006224774   0.05529   0.17359   0.15700   0.02248
  58   37422.4    267.2   0.003332155   0.02931   0.00419  -0.16401   0.04894
  59   37533.4    266.4   0.008365136   0.07337  -0.06933  -0.23266   0.12014
  60   37766.4    264.8   0.048737583   0.42485   0.61718   0.19377   0.07990
  61   37885.1    264.0   0.046181378   0.40130   0.33040   0.52573  -0.12547
  62   38127.3    262.3   0.024140270   0.20844   0.13647   0.10127  -0.42375
  63   38197.9    261.8   0.014756681   0.12718  -0.29119   0.20278  -0.03569
  64   38357.7    260.7   0.001995668   0.01713  -0.03748  -0.10887  -0.06221
  65   38406.5    260.4   0.058264601   0.49943  -0.46512  -0.41719  -0.33022
  66   38796.4    257.8   0.004069879   0.03454  -0.02546   0.03324  -0.18106
  67   38953.8    256.7   0.000926048   0.00783  -0.04840   0.07405   0.00034
  68   39185.9    255.2   0.032915708   0.27653  -0.33158  -0.39118   0.11648
  69   39349.3    254.1   0.051034893   0.42698  -0.57085   0.16164  -0.27382
  70   39428.7    253.6   0.009245831   0.07720   0.23542   0.06534   0.13231
  71   39519.2    253.0   0.028177353   0.23473  -0.26025  -0.37702  -0.15765
  72   39753.0    251.6   0.016975274   0.14058   0.20725  -0.25214   0.18454
  73   39968.1    250.2   0.017936219   0.14774   0.11510   0.36553   0.02960
  74   40154.9    249.0   0.039688705   0.32539  -0.49430  -0.26874   0.09403
  75   40216.3    248.7   0.113829790   0.93181   0.68814   0.63147   0.24398

FINAL SINGLE POINT ENERGY     -6525.118941306750

DIPOLE MOMENT
-------------
                                X             Y             Z
Electronic contribution:    -14.02441      12.17679     -20.89160
Nuclear contribution   :     15.99770     -11.75267      19.58709
                        -----------------------------------------
Total Dipole Moment    :      1.97328       0.42412      -1.30450
                        -----------------------------------------
Magnitude (a.u.)       :      2.40322
Magnitude (Debye)      :      6.10850

Rotational constants in cm-1:     0.001819     0.000140     0.000132
Rotational constants in MHz :    54.539129     4.188338     3.962751

                             ****ORCA TERMINATED NORMALLY****
TOTAL RUN TIME: 0 days 0 hours 11 minutes 42 seconds 840 msec
