                         Program Version 4.2.0 -  RELEASE  -
|  1> # ORCA input file
|  2> # SCF done       -142.205628709208          0.000767532513
|  3> ! CAM-B3LYP def2-SVP def2/J RIJCOSX Grid4 TightSCF
|  4> %maxcore 5000
|  5> %tddft
|  6>     Mode sTDDFT
|  7>     Ethresh 5.0
|  8>     maxcore 5000
|  9> end
| 10>
| 11> %pal
| 12>   nprocs 6
| 13>   end
| 14> * xyz 0 1
| 15>    C        4.16951       -13.93421         5.76758
| 16>    C        4.83550       -12.77229         5.79629
| 17>    C        5.79267       -12.33321         6.77274
| 18>    C        6.30440       -11.10659         6.53575
| 19>    C        5.79756       -10.47940         5.35977
| 20>    S        4.63742       -11.51323         4.56565
| 21>    C        6.14265        -9.24251         4.86405
| 22>    C        7.06898        -8.31432         5.39902
| 23>    C        7.19800        -7.18333         4.65691
| 24>    C        6.38505        -7.15143         3.49303
| 25>    S        5.43699        -8.61346         3.38400
| 26>    C        6.36082        -6.11879         2.58379
| 27>    C        5.58662        -6.04696         1.42331
| 28>    C        5.58468        -5.03560         0.43683
| 29>    N        6.38216        -3.87457         0.54941
| 30>    O        6.75073        -3.52724         1.66132
| 31>    O        6.67667        -3.26974        -0.46738
| 32>    C        4.73152        -5.29856        -0.65635
| 33>    C        4.51524        -4.38094        -1.80491
| 34>    C        4.05298        -6.50618        -0.50945
| 35>    S        4.48344        -7.30405         0.98313
| 36>    C        3.18452        -7.13939        -1.43932
| 37>    C        2.37824        -8.27261        -1.27212
| 38>    N        2.11976        -8.84378        -0.00093
| 39>    O        2.04745        -8.08069         0.94937
| 40>    O        1.96852       -10.04784         0.08556
| 41>    C        1.75531        -8.73305        -2.45722
| 42>    C        0.81449        -9.88568        -2.52465
| 43>    C        2.09408        -7.95442        -3.55028
| 44>    S        3.18923        -6.67535        -3.10550
| 45>    C        1.59931        -8.04526        -4.88556
| 46>    C        2.13684        -7.54429        -6.07093
| 47>    N        3.45284        -7.02594        -6.16428
| 48>    O        4.27768        -7.41654        -5.35325
| 49>    O        3.70047        -6.23874        -7.05484
| 50>    C        1.30928        -7.69374        -7.21567
| 51>    C        1.76037        -7.41021        -8.60462
| 52>    C        0.10447        -8.29008        -6.90333
| 53>    S        0.03162        -8.71081        -5.20557
| 54>    C       -1.02135        -8.63552        -7.70175
| 55>    C       -1.56103        -7.94442        -8.74582
| 56>    C       -2.68299        -8.37681        -9.51512
| 57>    C       -3.08478        -7.50121       -10.46701
| 58>    C       -2.32001        -6.30545       -10.51290
| 59>    S       -1.06734        -6.34546        -9.28365
| 60>    C       -2.46478        -5.24041       -11.36444
| 61>    C       -3.43159        -5.08483       -12.40088
| 62>    C       -3.32696        -3.92887       -13.08913
| 63>    C       -2.26242        -3.06986       -12.65057
| 64>    S       -1.41333        -3.84026       -11.30063
| 65>    C       -1.92073        -1.87238       -13.14246
| 66>    H        4.31920       -14.67355         6.53469
| 67>    H        3.46945       -14.16412         4.98533
| 68>    H        6.05275       -12.95956         7.60740
| 69>    H        7.03220       -10.62021         7.16022
| 70>    H        7.61015        -8.50647         6.30776
| 71>    H        7.85048        -6.36346         4.89900
| 72>    H        7.00538        -5.27550         2.79181
| 73>    H        4.86780        -3.37970        -1.57628
| 74>    H        3.46139        -4.34274        -2.07422
| 75>    H        5.07667        -4.73151        -2.67141
| 76>    H        0.93009       -10.52704        -1.65621
| 77>    H        0.99804       -10.47440        -3.42096
| 78>    H       -0.21482        -9.52652        -2.56202
| 79>    H        1.64488        -6.35322        -8.84093
| 80>    H        1.18237        -7.99659        -9.31382
| 81>    H        2.81515        -7.65034        -8.71984
| 82>    H       -1.56501        -9.51507        -7.37887
| 83>    H       -3.14097        -9.33298        -9.33273
| 84>    H       -3.90560        -7.67326       -11.13989
| 85>    H       -4.16966        -5.84277       -12.59507
| 86>    H       -3.96455        -3.63709       -13.90473
| 87>    H       -2.46507        -1.44009       -13.96341
| 88>    H       -1.10015        -1.30820       -12.73860
| 89> *
| 90>
| 91>                          ****END OF INPUT****

CARTESIAN COORDINATES (ANGSTROEM)
---------------------------------
  C      4.169510  -13.934210    5.767580
  C      4.835500  -12.772290    5.796290
  C      5.792670  -12.333210    6.772740
  C      6.304400  -11.106590    6.535750
  C      5.797560  -10.479400    5.359770
  S      4.637420  -11.513230    4.565650
  C      6.142650   -9.242510    4.864050
  C      7.068980   -8.314320    5.399020
  C      7.198000   -7.183330    4.656910
  C      6.385050   -7.151430    3.493030
  S      5.436990   -8.613460    3.384000
  C      6.360820   -6.118790    2.583790
  C      5.586620   -6.046960    1.423310
  C      5.584680   -5.035600    0.436830
  N      6.382160   -3.874570    0.549410
  O      6.750730   -3.527240    1.661320
  O      6.676670   -3.269740   -0.467380
  C      4.731520   -5.298560   -0.656350
  C      4.515240   -4.380940   -1.804910
  C      4.052980   -6.506180   -0.509450
  S      4.483440   -7.304050    0.983130
  C      3.184520   -7.139390   -1.439320
  C      2.378240   -8.272610   -1.272120
  N      2.119760   -8.843780   -0.000930
  O      2.047450   -8.080690    0.949370
  O      1.968520  -10.047840    0.085560
  C      1.755310   -8.733050   -2.457220
  C      0.814490   -9.885680   -2.524650
  C      2.094080   -7.954420   -3.550280
  S      3.189230   -6.675350   -3.105500
  C      1.599310   -8.045260   -4.885560
  C      2.136840   -7.544290   -6.070930
  N      3.452840   -7.025940   -6.164280
  O      4.277680   -7.416540   -5.353250
  O      3.700470   -6.238740   -7.054840
  C      1.309280   -7.693740   -7.215670
  C      1.760370   -7.410210   -8.604620
  C      0.104470   -8.290080   -6.903330
  S      0.031620   -8.710810   -5.205570
  C     -1.021350   -8.635520   -7.701750
  C     -1.561030   -7.944420   -8.745820
  C     -2.682990   -8.376810   -9.515120
  C     -3.084780   -7.501210  -10.467010
  C     -2.320010   -6.305450  -10.512900
  S     -1.067340   -6.345460   -9.283650
  C     -2.464780   -5.240410  -11.364440
  C     -3.431590   -5.084830  -12.400880
  C     -3.326960   -3.928870  -13.089130
  C     -2.262420   -3.069860  -12.650570
  S     -1.413330   -3.840260  -11.300630
  C     -1.920730   -1.872380  -13.142460
  H      4.319200  -14.673550    6.534690
  H      3.469450  -14.164120    4.985330
  H      6.052750  -12.959560    7.607400
  H      7.032200  -10.620210    7.160220
  H      7.610150   -8.506470    6.307760
  H      7.850480   -6.363460    4.899000
  H      7.005380   -5.275500    2.791810
  H      4.867800   -3.379700   -1.576280
  H      3.461390   -4.342740   -2.074220
  H      5.076670   -4.731510   -2.671410
  H      0.930090  -10.527040   -1.656210
  H      0.998040  -10.474400   -3.420960
  H     -0.214820   -9.526520   -2.562020
  H      1.644880   -6.353220   -8.840930
  H      1.182370   -7.996590   -9.313820
  H      2.815150   -7.650340   -8.719840
  H     -1.565010   -9.515070   -7.378870
  H     -3.140970   -9.332980   -9.332730
  H     -3.905600   -7.673260  -11.139890
  H     -4.169660   -5.842770  -12.595070
  H     -3.964550   -3.637090  -13.904730
  H     -2.465070   -1.440090  -13.963410
  H     -1.100150   -1.308200  -12.738600

 Total Charge           Charge          ....    0
 Multiplicity           Mult            ....    1
 Number of Electrons    NEL             ....  414
 Basis Dimension        Dim             ....  857

ORBITAL ENERGIES
----------------

  NO   OCC          E(Eh)            E(eV)
   0   2.0000     -88.969696     -2420.9885
   1   2.0000     -88.967963     -2420.9414
   2   2.0000     -88.962831     -2420.8017
   3   2.0000     -88.952776     -2420.5281
   4   2.0000     -88.948840     -2420.4210
   5   2.0000     -88.944145     -2420.2932
   6   2.0000     -88.939667     -2420.1714
   7   2.0000     -19.237550      -523.4804
   8   2.0000     -19.237379      -523.4757
   9   2.0000     -19.236287      -523.4460
  10   2.0000     -19.233877      -523.3804
  11   2.0000     -19.223121      -523.0877
  12   2.0000     -19.222160      -523.0616
  13   2.0000     -14.642836      -398.4518
  14   2.0000     -14.642654      -398.4469
  15   2.0000     -14.632618      -398.1738
  16   2.0000     -10.334023      -281.2031
  17   2.0000     -10.333459      -281.1877
  18   2.0000     -10.324841      -280.9532
  19   2.0000     -10.322376      -280.8861
  20   2.0000     -10.322212      -280.8817
  21   2.0000     -10.319321      -280.8030
  22   2.0000     -10.317218      -280.7458
  23   2.0000     -10.316061      -280.7143
  24   2.0000     -10.313148      -280.6350
  25   2.0000     -10.312898      -280.6282
  26   2.0000     -10.312848      -280.6269
  27   2.0000     -10.312617      -280.6206
  28   2.0000     -10.311019      -280.5771
  29   2.0000     -10.308948      -280.5207
  30   2.0000     -10.307995      -280.4948
  31   2.0000     -10.307816      -280.4899
  32   2.0000     -10.307754      -280.4882
  33   2.0000     -10.304219      -280.3920
  34   2.0000     -10.302709      -280.3510
  35   2.0000     -10.298804      -280.2447
  36   2.0000     -10.297156      -280.1999
  37   2.0000     -10.296095      -280.1710
  38   2.0000     -10.294312      -280.1225
  39   2.0000     -10.291527      -280.0467
  40   2.0000     -10.290407      -280.0162
  41   2.0000     -10.287431      -279.9352
  42   2.0000     -10.286763      -279.9171
  43   2.0000     -10.286709      -279.9156
  44   2.0000     -10.285717      -279.8886
  45   2.0000     -10.282948      -279.8133
  46   2.0000     -10.277635      -279.6687
  47   2.0000     -10.272138      -279.5191
  48   2.0000     -10.266223      -279.3581
  49   2.0000     -10.260045      -279.1900
  50   2.0000     -10.258980      -279.1610
  51   2.0000      -8.064980      -219.4593
  52   2.0000      -8.062481      -219.3913
  53   2.0000      -8.057494      -219.2556
  54   2.0000      -8.048805      -219.0191
  55   2.0000      -8.045565      -218.9310
  56   2.0000      -8.040089      -218.7819
  57   2.0000      -8.036437      -218.6826
  58   2.0000      -6.034405      -164.2045
  59   2.0000      -6.032009      -164.1393
  60   2.0000      -6.030012      -164.0850
  61   2.0000      -6.027416      -164.0143
  62   2.0000      -6.027029      -164.0038
  63   2.0000      -6.026886      -163.9999
  64   2.0000      -6.024392      -163.9321
  65   2.0000      -6.022552      -163.8820
  66   2.0000      -6.019445      -163.7974
  67   2.0000      -6.018538      -163.7727
  68   2.0000      -6.015358      -163.6862
  69   2.0000      -6.014281      -163.6569
  70   2.0000      -6.011359      -163.5774
  71   2.0000      -6.009941      -163.5388
  72   2.0000      -6.009853      -163.5364
  73   2.0000      -6.006259      -163.4386
  74   2.0000      -6.006174      -163.4363
  75   2.0000      -6.005874      -163.4281
  76   2.0000      -6.002377      -163.3330
  77   2.0000      -6.000801      -163.2901
  78   2.0000      -5.996904      -163.1840
  79   2.0000      -1.316641       -35.8276
  80   2.0000      -1.316483       -35.8233
  81   2.0000      -1.302711       -35.4486
  82   2.0000      -1.134079       -30.8599
  83   2.0000      -1.133874       -30.8543
  84   2.0000      -1.118673       -30.4407
  85   2.0000      -1.017582       -27.6898
  86   2.0000      -1.006006       -27.3748
  87   2.0000      -1.000801       -27.2332
  88   2.0000      -0.993799       -27.0426
  89   2.0000      -0.989548       -26.9270
  90   2.0000      -0.976861       -26.5817
  91   2.0000      -0.970342       -26.4044
  92   2.0000      -0.915074       -24.9004
  93   2.0000      -0.909113       -24.7382
  94   2.0000      -0.903795       -24.5935
  95   2.0000      -0.897517       -24.4227
  96   2.0000      -0.889288       -24.1988
  97   2.0000      -0.881820       -23.9955
  98   2.0000      -0.872457       -23.7408
  99   2.0000      -0.858359       -23.3571
 100   2.0000      -0.854051       -23.2399
 101   2.0000      -0.847894       -23.0724
 102   2.0000      -0.844589       -22.9824
 103   2.0000      -0.842533       -22.9265
 104   2.0000      -0.828539       -22.5457
 105   2.0000      -0.822675       -22.3861
 106   2.0000      -0.808636       -22.0041
 107   2.0000      -0.803564       -21.8661
 108   2.0000      -0.794384       -21.6163
 109   2.0000      -0.773782       -21.0557
 110   2.0000      -0.758089       -20.6286
 111   2.0000      -0.753363       -20.5000
 112   2.0000      -0.751890       -20.4600
 113   2.0000      -0.746703       -20.3188
 114   2.0000      -0.733455       -19.9583
 115   2.0000      -0.706795       -19.2329
 116   2.0000      -0.694265       -18.8919
 117   2.0000      -0.686151       -18.6711
 118   2.0000      -0.677733       -18.4421
 119   2.0000      -0.664332       -18.0774
 120   2.0000      -0.657228       -17.8841
 121   2.0000      -0.644139       -17.5279
 122   2.0000      -0.642473       -17.4826
 123   2.0000      -0.638181       -17.3658
 124   2.0000      -0.632034       -17.1985
 125   2.0000      -0.631148       -17.1744
 126   2.0000      -0.627107       -17.0644
 127   2.0000      -0.624680       -16.9984
 128   2.0000      -0.621019       -16.8988
 129   2.0000      -0.618112       -16.8197
 130   2.0000      -0.612314       -16.6619
 131   2.0000      -0.606863       -16.5136
 132   2.0000      -0.604375       -16.4459
 133   2.0000      -0.602370       -16.3913
 134   2.0000      -0.598535       -16.2870
 135   2.0000      -0.592482       -16.1223
 136   2.0000      -0.585088       -15.9211
 137   2.0000      -0.577347       -15.7104
 138   2.0000      -0.573271       -15.5995
 139   2.0000      -0.571332       -15.5467
 140   2.0000      -0.562938       -15.3183
 141   2.0000      -0.554855       -15.0984
 142   2.0000      -0.549830       -14.9616
 143   2.0000      -0.545905       -14.8548
 144   2.0000      -0.533596       -14.5199
 145   2.0000      -0.532435       -14.4883
 146   2.0000      -0.526106       -14.3161
 147   2.0000      -0.521447       -14.1893
 148   2.0000      -0.519529       -14.1371
 149   2.0000      -0.513925       -13.9846
 150   2.0000      -0.510239       -13.8843
 151   2.0000      -0.507884       -13.8202
 152   2.0000      -0.504717       -13.7341
 153   2.0000      -0.503497       -13.7008
 154   2.0000      -0.502593       -13.6763
 155   2.0000      -0.498062       -13.5530
 156   2.0000      -0.496149       -13.5009
 157   2.0000      -0.493879       -13.4391
 158   2.0000      -0.491916       -13.3857
 159   2.0000      -0.486769       -13.2457
 160   2.0000      -0.484210       -13.1760
 161   2.0000      -0.481686       -13.1073
 162   2.0000      -0.476448       -12.9648
 163   2.0000      -0.474984       -12.9250
 164   2.0000      -0.470422       -12.8008
 165   2.0000      -0.468397       -12.7457
 166   2.0000      -0.465736       -12.6733
 167   2.0000      -0.461237       -12.5509
 168   2.0000      -0.460288       -12.5251
 169   2.0000      -0.459328       -12.4989
 170   2.0000      -0.455480       -12.3942
 171   2.0000      -0.448560       -12.2059
 172   2.0000      -0.443440       -12.0666
 173   2.0000      -0.441455       -12.0126
 174   2.0000      -0.433828       -11.8051
 175   2.0000      -0.430162       -11.7053
 176   2.0000      -0.424068       -11.5395
 177   2.0000      -0.421054       -11.4575
 178   2.0000      -0.419807       -11.4235
 179   2.0000      -0.415461       -11.3053
 180   2.0000      -0.403519       -10.9803
 181   2.0000      -0.397776       -10.8240
 182   2.0000      -0.395275       -10.7560
 183   2.0000      -0.393672       -10.7124
 184   2.0000      -0.385177       -10.4812
 185   2.0000      -0.380118       -10.3435
 186   2.0000      -0.375254       -10.2112
 187   2.0000      -0.372090       -10.1251
 188   2.0000      -0.369628       -10.0581
 189   2.0000      -0.366645        -9.9769
 190   2.0000      -0.364559        -9.9201
 191   2.0000      -0.361826        -9.8458
 192   2.0000      -0.359146        -9.7729
 193   2.0000      -0.349762        -9.5175
 194   2.0000      -0.347921        -9.4674
 195   2.0000      -0.345792        -9.4095
 196   2.0000      -0.339045        -9.2259
 197   2.0000      -0.335229        -9.1220
 198   2.0000      -0.329308        -8.9609
 199   2.0000      -0.326344        -8.8803
 200   2.0000      -0.319135        -8.6841
 201   2.0000      -0.316471        -8.6116
 202   2.0000      -0.313915        -8.5421
 203   2.0000      -0.296573        -8.0702
 204   2.0000      -0.268796        -7.3143
 205   2.0000      -0.228434        -6.2160
 206   2.0000      -0.219051        -5.9607
 207   0.0000      -0.089501        -2.4355
 208   0.0000      -0.068695        -1.8693
 209   0.0000      -0.055912        -1.5215
 210   0.0000      -0.039976        -1.0878
 211   0.0000      -0.021681        -0.5900

MULLIKEN ATOMIC CHARGES
-----------------------
   0 C :   -0.016997
   1 C :   -0.074506
   2 C :    0.065219
   3 C :    0.025651
   4 C :   -0.056643
   5 S :    0.112289
   6 C :   -0.042511
   7 C :    0.041881
   8 C :    0.026523
   9 C :   -0.014561
  10 S :    0.089110
  11 C :   -0.051457
  12 C :   -0.088787
  13 C :    0.128596
  14 N :    0.261559
  15 O :   -0.259598
  16 O :   -0.254169
  17 C :   -0.109135
  18 C :    0.131016
  19 C :   -0.096618
  20 S :    0.144428
  21 C :   -0.111943
  22 C :    0.106553
  23 N :    0.236418
  24 O :   -0.244082
  25 O :   -0.236781
  26 C :   -0.098763
  27 C :    0.101731
  28 C :   -0.098152
  29 S :    0.167417
  30 C :   -0.128527
  31 C :    0.109379
  32 N :    0.239969
  33 O :   -0.250032
  34 O :   -0.234939
  35 C :   -0.089517
  36 C :    0.151639
  37 C :   -0.146941
  38 S :    0.133184
  39 C :   -0.026354
  40 C :   -0.021254
  41 C :    0.033938
  42 C :    0.036139
  43 C :   -0.062677
  44 S :    0.082668
  45 C :   -0.063207
  46 C :    0.030083
  47 C :    0.054458
  48 C :   -0.064362
  49 S :    0.084531
  50 C :   -0.027751
  51 H :    0.027601
  52 H :    0.032999
  53 H :   -0.004611
  54 H :   -0.005305
  55 H :   -0.010929
  56 H :   -0.002389
  57 H :    0.018447
  58 H :    0.039878
  59 H :    0.026863
  60 H :    0.049824
  61 H :    0.048185
  62 H :    0.030703
  63 H :    0.040589
  64 H :    0.045372
  65 H :    0.021292
  66 H :    0.022052
  67 H :   -0.006307
  68 H :   -0.012453
  69 H :   -0.013164
  70 H :   -0.010577
  71 H :   -0.009674
  72 H :    0.021760
  73 H :    0.025724
Sum of atomic charges:    0.0000000

LOEWDIN ATOMIC CHARGES
----------------------
   0 C :   -0.055135
   1 C :   -0.141921
   2 C :   -0.016366
   3 C :   -0.027502
   4 C :   -0.156940
   5 S :    0.376972
   6 C :   -0.189879
   7 C :   -0.022272
   8 C :   -0.033655
   9 C :   -0.128618
  10 S :    0.389880
  11 C :   -0.092064
  12 C :   -0.132703
  13 C :   -0.093032
  14 N :    0.289506
  15 O :   -0.220948
  16 O :   -0.212273
  17 C :   -0.010591
  18 C :   -0.064806
  19 C :   -0.217279
  20 S :    0.490158
  21 C :   -0.146511
  22 C :   -0.098341
  23 N :    0.278504
  24 O :   -0.216656
  25 O :   -0.200418
  26 C :   -0.022562
  27 C :   -0.066945
  28 C :   -0.213435
  29 S :    0.529866
  30 C :   -0.158012
  31 C :   -0.084653
  32 N :    0.279062
  33 O :   -0.222642
  34 O :   -0.193343
  35 C :   -0.043432
  36 C :   -0.057073
  37 C :   -0.181132
  38 S :    0.481103
  39 C :   -0.096526
  40 C :   -0.137722
  41 C :   -0.035807
  42 C :   -0.027882
  43 C :   -0.185070
  44 S :    0.390798
  45 C :   -0.172126
  46 C :   -0.027319
  47 C :   -0.026712
  48 C :   -0.140082
  49 S :    0.354518
  50 C :   -0.070562
  51 H :    0.032040
  52 H :    0.031239
  53 H :    0.036491
  54 H :    0.034616
  55 H :    0.033155
  56 H :    0.037836
  57 H :    0.041483
  58 H :    0.037505
  59 H :    0.025350
  60 H :    0.044627
  61 H :    0.036774
  62 H :    0.032358
  63 H :    0.034865
  64 H :    0.037668
  65 H :    0.028476
  66 H :    0.034234
  67 H :    0.032490
  68 H :    0.032914
  69 H :    0.032023
  70 H :    0.032596
  71 H :    0.034264
  72 H :    0.029549
  73 H :    0.028030

  Mayer bond orders larger than 0.100000
B(  0-C ,  1-C ) :   1.8664 B(  0-C , 51-H ) :   0.9512 B(  0-C , 52-H ) :   0.9412
B(  1-C ,  2-C ) :   1.0766 B(  1-C ,  5-S ) :   1.0065 B(  2-C ,  3-C ) :   1.6641
B(  2-C , 53-H ) :   0.9933 B(  3-C ,  4-C ) :   1.1465 B(  3-C , 54-H ) :   0.9934
B(  4-C ,  5-S ) :   1.0688 B(  4-C ,  6-C ) :   1.5453 B(  6-C ,  7-C ) :   1.1739
B(  6-C , 10-S ) :   1.0269 B(  7-C ,  8-C ) :   1.5927 B(  7-C , 55-H ) :   0.9924
B(  8-C ,  9-C ) :   1.1508 B(  8-C , 56-H ) :   1.0016 B(  9-C , 10-S ) :   1.0664
B(  9-C , 11-C ) :   1.4881 B( 11-C , 12-C ) :   1.2493 B( 11-C , 57-H ) :   0.9596
B( 12-C , 13-C ) :   1.3403 B( 12-C , 20-S ) :   1.1660 B( 13-C , 14-N ) :   0.9553
B( 13-C , 17-C ) :   1.3110 B( 14-N , 15-O ) :   1.4885 B( 14-N , 16-O ) :   1.4972
B( 15-O , 16-O ) :   0.2433 B( 17-C , 18-C ) :   1.1337 B( 17-C , 19-C ) :   1.4726
B( 18-C , 58-H ) :   0.9146 B( 18-C , 59-H ) :   0.9254 B( 18-C , 60-H ) :   0.9204
B( 19-C , 20-S ) :   1.0771 B( 19-C , 21-C ) :   1.1768 B( 21-C , 22-C ) :   1.3988
B( 21-C , 29-S ) :   1.2000 B( 22-C , 23-N ) :   0.9266 B( 22-C , 26-C ) :   1.2898
B( 23-N , 24-O ) :   1.4873 B( 23-N , 25-O ) :   1.5085 B( 24-O , 25-O ) :   0.2520
B( 26-C , 27-C ) :   1.1178 B( 26-C , 28-C ) :   1.5225 B( 27-C , 61-H ) :   0.9190
B( 27-C , 62-H ) :   0.9272 B( 27-C , 63-H ) :   0.9320 B( 28-C , 29-S ) :   1.0820
B( 28-C , 30-C ) :   1.1206 B( 30-C , 31-C ) :   1.4513 B( 30-C , 37-C ) :   0.1005
B( 30-C , 38-S ) :   1.1750 B( 31-C , 32-N ) :   0.9298 B( 31-C , 35-C ) :   1.2506
B( 32-N , 33-O ) :   1.4890 B( 32-N , 34-O ) :   1.5145 B( 33-O , 34-O ) :   0.2558
B( 35-C , 36-C ) :   1.1345 B( 35-C , 37-C ) :   1.5393 B( 36-C , 64-H ) :   0.9196
B( 36-C , 65-H ) :   0.9357 B( 36-C , 66-H ) :   0.9279 B( 37-C , 38-S ) :   1.0784
B( 37-C , 39-C ) :   1.0691 B( 39-C , 40-C ) :   1.6737 B( 39-C , 67-H ) :   0.9477
B( 40-C , 41-C ) :   1.1109 B( 40-C , 44-S ) :   1.0418 B( 41-C , 42-C ) :   1.6320
B( 41-C , 68-H ) :   0.9983 B( 42-C , 43-C ) :   1.1557 B( 42-C , 69-H ) :   0.9928
B( 43-C , 44-S ) :   1.0333 B( 43-C , 45-C ) :   1.5743 B( 45-C , 46-C ) :   1.1440
B( 45-C , 49-S ) :   1.0477 B( 46-C , 47-C ) :   1.6696 B( 46-C , 70-H ) :   0.9919
B( 47-C , 48-C ) :   1.0761 B( 47-C , 71-H ) :   0.9934 B( 48-C , 49-S ) :   1.0062
B( 48-C , 50-C ) :   1.8680 B( 50-C , 72-H ) :   0.9514 B( 50-C , 73-H ) :   0.9420

-----------------------------------------------------------------------------
         ABSORPTION SPECTRUM VIA TRANSITION ELECTRIC DIPOLE MOMENTS
-----------------------------------------------------------------------------
State   Energy  Wavelength   fosc         T2         TX        TY        TZ
        (cm-1)    (nm)                  (au**2)     (au)      (au)      (au)
-----------------------------------------------------------------------------
   0   14428.0    693.1   1.315769986  30.02270  -1.47875   2.60302  -4.58915
   1   18260.3    547.6   0.199009845   3.58793   1.09523   0.41078   1.48985
   2   20387.5    490.5   0.209748688   3.38696  -0.90339   0.34463  -1.56591
   3   21558.3    463.9   0.974564027  14.88233  -0.64440   3.10433  -2.19778
   4   22791.0    438.8   0.310749859   4.48872   1.24233   1.69092  -0.29352
   5   23593.0    423.9   0.035907163   0.50104   0.02197   0.46487   0.53335
   6   25260.1    395.9   0.138396104   1.80370   0.73043   1.09472   0.26787
   7   26955.4    371.0   0.103768881   1.26735   0.21545   0.92823  -0.59943
   8   27724.2    360.7   0.014134408   0.16784  -0.11400  -0.37068  -0.13205
   9   28437.4    351.7   0.076304820   0.88336  -0.42071  -0.83119  -0.12446
  10   29312.7    341.1   0.035694048   0.40088   0.21110   0.36727  -0.47057
  11   30595.5    326.8   0.039057381   0.42026   0.26560   0.56607  -0.17114
  12   31119.9    321.3   0.004698843   0.04971  -0.05756  -0.21316   0.03097
  13   31502.3    317.4   0.052414504   0.54775  -0.39523  -0.44085  -0.44406
  14   32365.3    309.0   0.406114962   4.13091  -1.38981  -1.38282  -0.53586
  15   32480.8    307.9   0.191623837   1.94222   0.53699   0.39809   1.22286
  16   32761.5    305.2   0.020651530   0.20752  -0.20580  -0.24740   0.32243
  17   32997.4    303.1   0.088487396   0.88283   0.37902   0.56722  -0.64610
  18   33842.8    295.5   0.006805241   0.06620   0.20960   0.03705  -0.14455
  19   34035.1    293.8   0.027951718   0.27037  -0.26172  -0.05594  -0.44580
  20   34351.5    291.1   0.087076220   0.83451   0.47168   0.21385   0.75253
  21   34682.2    288.3   0.088074403   0.83602   0.75157   0.41849   0.30989
  22   35102.9    284.9   0.006200542   0.05815   0.05675   0.01552   0.23386
  23   35266.2    283.6   0.009182967   0.08572  -0.25505  -0.13862   0.03816
  24   35716.8    280.0   0.011592148   0.10685  -0.12895  -0.14213  -0.26461
  25   36315.2    275.4   0.016850113   0.15275   0.22784   0.17708   0.26360
  26   36911.0    270.9   0.110299284   0.98377  -0.73692   0.21635  -0.62763
  27   36990.6    270.3   0.088585941   0.78840   0.35941   0.80238   0.12413
  28   37407.5    267.3   0.001757489   0.01547   0.07693   0.00102   0.09771
  29   37705.5    265.2   0.024360938   0.21270   0.40067   0.11063   0.19980
  30   38092.2    262.5   0.085601193   0.73981   0.48689   0.63548  -0.31450
  31   38467.2    260.0   0.018582130   0.15903   0.06977   0.37253   0.12405
  32   39313.9    254.4   0.020994606   0.17581  -0.06076   0.33944  -0.23853
  33   39347.7    254.1   0.057405014   0.48029   0.21219  -0.13896   0.64495
  34   39665.9    252.1   0.018444775   0.15308   0.35018  -0.05556   0.16544
  35   39926.5    250.5   0.104989169   0.86568  -0.64540  -0.61411  -0.26836
  36   40201.2    248.7   0.017973462   0.14719  -0.07388  -0.27533  -0.25675

FINAL SINGLE POINT ENERGY     -4746.827803907087

DIPOLE MOMENT
-------------
                                X             Y             Z
Electronic contribution:     11.39250       3.60346      17.04215
Nuclear contribution   :    -13.30331      -5.92279     -17.05873
                        -----------------------------------------
Total Dipole Moment    :     -1.91081      -2.31933      -0.01657
                        -----------------------------------------
Magnitude (a.u.)       :      3.00512
Magnitude (Debye)      :      7.63840

Rotational constants in cm-1:     0.003381     0.000464     0.000420
Rotational constants in MHz :   101.349836    13.913062    12.578692

                             ****ORCA TERMINATED NORMALLY****
TOTAL RUN TIME: 0 days 0 hours 5 minutes 11 seconds 795 msec
