                         Program Version 4.2.0 -  RELEASE  -
|  1> # ORCA input file
|  2> # SCF done       -161.406436009259          0.000327644096
|  3> ! CAM-B3LYP def2-SVP def2/J RIJCOSX Grid4 TightSCF
|  4> %maxcore 5000
|  5> %tddft
|  6>     Mode sTDDFT
|  7>     Ethresh 5.0
|  8>     maxcore 5000
|  9> end
| 10>
| 11> %pal
| 12>   nprocs 6
| 13>   end
| 14> * xyz 0 1
| 15>    C       12.20334        -6.59815         7.71469
| 16>    C       11.68545        -5.79769         6.77016
| 17>    C       11.98924        -4.42070         6.51957
| 18>    C       11.29612        -3.87468         5.49126
| 19>    C       10.39630        -4.76588         4.85342
| 20>    S       10.46440        -6.34301         5.60871
| 21>    C        9.55141        -4.49454         3.79402
| 22>    C        9.38390        -3.27917         3.10074
| 23>    C        8.44871        -3.33901         2.10631
| 24>    C        7.83225        -4.59807         1.96341
| 25>    S        8.48551        -5.72080         3.13310
| 26>    C        6.84162        -4.91725         1.04863
| 27>    C        6.20903        -6.13618         0.88797
| 28>    S        6.57721        -7.56651         1.82711
| 29>    C        5.33573        -8.54838         1.03797
| 30>    C        4.72119        -7.77054         0.04715
| 31>    C        5.18783        -6.44221        -0.04212
| 32>    C        4.56392        -5.71708        -1.07809
| 33>    C        3.69452        -6.49403        -1.78903
| 34>    C        2.89533        -6.18808        -2.97300
| 35>    O        2.49815        -7.04458        -3.73006
| 36>    O        2.65084        -4.88500        -3.12588
| 37>    C        1.82651        -4.54463        -4.23816
| 38>    S        3.59207        -8.13646        -1.20861
| 39>    C        5.16079        -9.84960         1.48348
| 40>    C        4.07426       -10.69885         1.32019
| 41>    C        4.01254       -12.02425         1.78548
| 42>    C        2.78477       -12.61948         1.63993
| 43>    C        1.82174       -11.78124         1.06479
| 44>    S        2.51994       -10.22891         0.67239
| 45>    C        0.46224       -12.02697         0.86659
| 46>    C       -0.27860       -13.15733         1.22922
| 47>    C       -1.62554       -13.02940         0.99678
| 48>    C       -2.00309       -11.80242         0.42587
| 49>    S       -0.58324       -10.81240         0.16921
| 50>    C       -3.32016       -11.38641         0.26051
| 51>    C       -3.83309       -10.23294        -0.30773
| 52>    S       -5.45883        -9.75293         0.15541
| 53>    C       -5.44221        -8.27456        -0.80684
| 54>    C       -4.21708        -8.21269        -1.48203
| 55>    C       -3.33159        -9.29025        -1.23413
| 56>    C       -2.19098        -9.23909        -2.06214
| 57>    C       -2.17435        -8.12906        -2.85507
| 58>    C       -1.18453        -7.77091        -3.87851
| 59>    O       -0.98527        -6.64875        -4.28096
| 60>    O       -0.56955        -8.86279        -4.33708
| 61>    C        0.38661        -8.66452        -5.37398
| 62>    S       -3.55656        -7.09246        -2.62509
| 63>    C       -6.58553        -7.48557        -0.72845
| 64>    C       -6.98217        -6.34725        -1.40360
| 65>    C       -8.20061        -5.67863        -1.14074
| 66>    C       -8.44142        -4.60068        -1.93999
| 67>    C       -7.42500        -4.36253        -2.88866
| 68>    S       -6.14513        -5.54879        -2.71572
| 69>    C       -7.37732        -3.37780        -3.85550
| 70>    C       -8.34602        -2.37184        -4.10813
| 71>    C       -8.03801        -1.54617        -5.13626
| 72>    C       -6.79197        -1.84335        -5.77814
| 73>    S       -6.04371        -3.23616        -4.97992
| 74>    C       -6.23086        -1.20949        -6.81917
| 75>    H       12.94234        -6.22793         8.40294
| 76>    H       11.89993        -7.62399         7.81414
| 77>    H       12.71215        -3.89860         7.12077
| 78>    H       11.39820        -2.85417         5.16692
| 79>    H        9.94555        -2.39653         3.34817
| 80>    H        8.18359        -2.50982         1.47388
| 81>    H        6.51824        -4.11881         0.39344
| 82>    H        4.75416        -4.68588        -1.31206
| 83>    H        2.36143        -4.73096        -5.17171
| 84>    H        1.60170        -3.48693        -4.13234
| 85>    H        0.90835        -5.13720        -4.23063
| 86>    H        5.95427       -10.23466         2.11260
| 87>    H        4.87006       -12.50743         2.21970
| 88>    H        2.56416       -13.62744         1.94166
| 89>    H        0.17722       -14.02646         1.66790
| 90>    H       -2.35210       -13.78770         1.23030
| 91>    H       -4.05322       -12.02873         0.73561
| 92>    H       -1.41899        -9.98297        -2.09901
| 93>    H        1.28265        -8.19551        -4.96847
| 94>    H       -0.03492        -8.02635        -6.15344
| 95>    H        0.61231        -9.65317        -5.76519
| 96>    H       -7.31468        -7.84567        -0.01070
| 97>    H       -8.86463        -6.01542        -0.36384
| 98>    H       -9.31777        -3.98181        -1.87124
| 99>    H       -9.24117        -2.29447        -3.51667
|100>    H       -8.64945        -0.72806        -5.47335
|101>    H       -6.71916        -0.36729        -7.27666
|102>    H       -5.28602        -1.51897        -7.22627
|103> *
|104>
|105>                          ****END OF INPUT****

CARTESIAN COORDINATES (ANGSTROEM)
---------------------------------
  C     12.203340   -6.598150    7.714690
  C     11.685450   -5.797690    6.770160
  C     11.989240   -4.420700    6.519570
  C     11.296120   -3.874680    5.491260
  C     10.396300   -4.765880    4.853420
  S     10.464400   -6.343010    5.608710
  C      9.551410   -4.494540    3.794020
  C      9.383900   -3.279170    3.100740
  C      8.448710   -3.339010    2.106310
  C      7.832250   -4.598070    1.963410
  S      8.485510   -5.720800    3.133100
  C      6.841620   -4.917250    1.048630
  C      6.209030   -6.136180    0.887970
  S      6.577210   -7.566510    1.827110
  C      5.335730   -8.548380    1.037970
  C      4.721190   -7.770540    0.047150
  C      5.187830   -6.442210   -0.042120
  C      4.563920   -5.717080   -1.078090
  C      3.694520   -6.494030   -1.789030
  C      2.895330   -6.188080   -2.973000
  O      2.498150   -7.044580   -3.730060
  O      2.650840   -4.885000   -3.125880
  C      1.826510   -4.544630   -4.238160
  S      3.592070   -8.136460   -1.208610
  C      5.160790   -9.849600    1.483480
  C      4.074260  -10.698850    1.320190
  C      4.012540  -12.024250    1.785480
  C      2.784770  -12.619480    1.639930
  C      1.821740  -11.781240    1.064790
  S      2.519940  -10.228910    0.672390
  C      0.462240  -12.026970    0.866590
  C     -0.278600  -13.157330    1.229220
  C     -1.625540  -13.029400    0.996780
  C     -2.003090  -11.802420    0.425870
  S     -0.583240  -10.812400    0.169210
  C     -3.320160  -11.386410    0.260510
  C     -3.833090  -10.232940   -0.307730
  S     -5.458830   -9.752930    0.155410
  C     -5.442210   -8.274560   -0.806840
  C     -4.217080   -8.212690   -1.482030
  C     -3.331590   -9.290250   -1.234130
  C     -2.190980   -9.239090   -2.062140
  C     -2.174350   -8.129060   -2.855070
  C     -1.184530   -7.770910   -3.878510
  O     -0.985270   -6.648750   -4.280960
  O     -0.569550   -8.862790   -4.337080
  C      0.386610   -8.664520   -5.373980
  S     -3.556560   -7.092460   -2.625090
  C     -6.585530   -7.485570   -0.728450
  C     -6.982170   -6.347250   -1.403600
  C     -8.200610   -5.678630   -1.140740
  C     -8.441420   -4.600680   -1.939990
  C     -7.425000   -4.362530   -2.888660
  S     -6.145130   -5.548790   -2.715720
  C     -7.377320   -3.377800   -3.855500
  C     -8.346020   -2.371840   -4.108130
  C     -8.038010   -1.546170   -5.136260
  C     -6.791970   -1.843350   -5.778140
  S     -6.043710   -3.236160   -4.979920
  C     -6.230860   -1.209490   -6.819170
  H     12.942340   -6.227930    8.402940
  H     11.899930   -7.623990    7.814140
  H     12.712150   -3.898600    7.120770
  H     11.398200   -2.854170    5.166920
  H      9.945550   -2.396530    3.348170
  H      8.183590   -2.509820    1.473880
  H      6.518240   -4.118810    0.393440
  H      4.754160   -4.685880   -1.312060
  H      2.361430   -4.730960   -5.171710
  H      1.601700   -3.486930   -4.132340
  H      0.908350   -5.137200   -4.230630
  H      5.954270  -10.234660    2.112600
  H      4.870060  -12.507430    2.219700
  H      2.564160  -13.627440    1.941660
  H      0.177220  -14.026460    1.667900
  H     -2.352100  -13.787700    1.230300
  H     -4.053220  -12.028730    0.735610
  H     -1.418990   -9.982970   -2.099010
  H      1.282650   -8.195510   -4.968470
  H     -0.034920   -8.026350   -6.153440
  H      0.612310   -9.653170   -5.765190
  H     -7.314680   -7.845670   -0.010700
  H     -8.864630   -6.015420   -0.363840
  H     -9.317770   -3.981810   -1.871240
  H     -9.241170   -2.294470   -3.516670
  H     -8.649450   -0.728060   -5.473350
  H     -6.719160   -0.367290   -7.276660
  H     -5.286020   -1.518970   -7.226270

 Total Charge           Charge          ....    0
 Multiplicity           Mult            ....    1
 Number of Electrons    NEL             ....  496
 Basis Dimension        Dim             .... 1020

ORBITAL ENERGIES
----------------

  NO   OCC          E(Eh)            E(eV)
   0   2.0000     -88.953159     -2420.5385
   1   2.0000     -88.946940     -2420.3693
   2   2.0000     -88.946282     -2420.3514
   3   2.0000     -88.945605     -2420.3330
   4   2.0000     -88.942874     -2420.2587
   5   2.0000     -88.939512     -2420.1672
   6   2.0000     -88.939156     -2420.1575
   7   2.0000     -88.938699     -2420.1450
   8   2.0000     -88.935054     -2420.0458
   9   2.0000     -88.928017     -2419.8544
  10   2.0000     -19.252406      -523.8846
  11   2.0000     -19.241363      -523.5841
  12   2.0000     -19.197384      -522.3874
  13   2.0000     -19.188939      -522.1576
  14   2.0000     -10.397386      -282.9273
  15   2.0000     -10.388632      -282.6891
  16   2.0000     -10.311080      -280.5787
  17   2.0000     -10.306957      -280.4666
  18   2.0000     -10.306750      -280.4609
  19   2.0000     -10.306729      -280.4603
  20   2.0000     -10.306098      -280.4432
  21   2.0000     -10.304466      -280.3988
  22   2.0000     -10.303578      -280.3746
  23   2.0000     -10.303005      -280.3590
  24   2.0000     -10.301940      -280.3300
  25   2.0000     -10.301725      -280.3242
  26   2.0000     -10.300698      -280.2963
  27   2.0000     -10.300449      -280.2895
  28   2.0000     -10.299731      -280.2699
  29   2.0000     -10.299560      -280.2653
  30   2.0000     -10.298711      -280.2422
  31   2.0000     -10.298330      -280.2318
  32   2.0000     -10.297440      -280.2076
  33   2.0000     -10.297168      -280.2002
  34   2.0000     -10.296284      -280.1761
  35   2.0000     -10.296145      -280.1724
  36   2.0000     -10.291934      -280.0578
  37   2.0000     -10.290234      -280.0115
  38   2.0000     -10.289237      -279.9844
  39   2.0000     -10.285013      -279.8694
  40   2.0000     -10.283983      -279.8414
  41   2.0000     -10.283570      -279.8302
  42   2.0000     -10.283472      -279.8275
  43   2.0000     -10.281693      -279.7791
  44   2.0000     -10.281469      -279.7730
  45   2.0000     -10.280118      -279.7362
  46   2.0000     -10.279642      -279.7233
  47   2.0000     -10.279442      -279.7178
  48   2.0000     -10.278493      -279.6920
  49   2.0000     -10.277152      -279.6555
  50   2.0000     -10.276958      -279.6503
  51   2.0000     -10.276411      -279.6354
  52   2.0000     -10.276239      -279.6307
  53   2.0000     -10.275696      -279.6159
  54   2.0000     -10.274370      -279.5798
  55   2.0000     -10.274150      -279.5738
  56   2.0000     -10.273874      -279.5663
  57   2.0000     -10.271264      -279.4953
  58   2.0000     -10.271262      -279.4952
  59   2.0000     -10.259664      -279.1796
  60   2.0000      -8.048076      -218.9993
  61   2.0000      -8.042082      -218.8362
  62   2.0000      -8.041769      -218.8276
  63   2.0000      -8.041617      -218.8235
  64   2.0000      -8.037901      -218.7224
  65   2.0000      -8.035938      -218.6690
  66   2.0000      -8.035549      -218.6584
  67   2.0000      -8.034843      -218.6392
  68   2.0000      -8.031200      -218.5401
  69   2.0000      -8.024775      -218.3652
  70   2.0000      -6.017530      -163.7453
  71   2.0000      -6.013400      -163.6329
  72   2.0000      -6.011765      -163.5884
  73   2.0000      -6.011384      -163.5781
  74   2.0000      -6.011186      -163.5727
  75   2.0000      -6.009866      -163.5368
  76   2.0000      -6.007651      -163.4765
  77   2.0000      -6.007408      -163.4699
  78   2.0000      -6.007240      -163.4653
  79   2.0000      -6.007191      -163.4640
  80   2.0000      -6.005740      -163.4245
  81   2.0000      -6.005237      -163.4108
  82   2.0000      -6.004481      -163.3902
  83   2.0000      -6.003448      -163.3621
  84   2.0000      -6.003427      -163.3616
  85   2.0000      -6.003249      -163.3567
  86   2.0000      -6.002616      -163.3395
  87   2.0000      -6.001789      -163.3170
  88   2.0000      -6.001044      -163.2967
  89   2.0000      -6.000968      -163.2946
  90   2.0000      -6.000354      -163.2779
  91   2.0000      -5.999230      -163.2473
  92   2.0000      -5.996875      -163.1833
  93   2.0000      -5.996686      -163.1781
  94   2.0000      -5.996518      -163.1735
  95   2.0000      -5.995973      -163.1587
  96   2.0000      -5.994588      -163.1210
  97   2.0000      -5.992032      -163.0515
  98   2.0000      -5.990646      -163.0138
  99   2.0000      -5.985328      -162.8691
 100   2.0000      -1.183953       -32.2170
 101   2.0000      -1.173189       -31.9241
 102   2.0000      -1.090245       -29.6671
 103   2.0000      -1.080610       -29.4049
 104   2.0000      -1.002202       -27.2713
 105   2.0000      -0.996470       -27.1153
 106   2.0000      -0.991953       -26.9924
 107   2.0000      -0.986796       -26.8521
 108   2.0000      -0.982086       -26.7239
 109   2.0000      -0.970071       -26.3970
 110   2.0000      -0.965698       -26.2780
 111   2.0000      -0.959515       -26.1097
 112   2.0000      -0.941241       -25.6125
 113   2.0000      -0.936423       -25.4814
 114   2.0000      -0.901949       -24.5433
 115   2.0000      -0.894145       -24.3309
 116   2.0000      -0.878594       -23.9077
 117   2.0000      -0.870031       -23.6747
 118   2.0000      -0.858891       -23.3716
 119   2.0000      -0.846867       -23.0444
 120   2.0000      -0.844280       -22.9740
 121   2.0000      -0.840074       -22.8596
 122   2.0000      -0.837488       -22.7892
 123   2.0000      -0.834564       -22.7097
 124   2.0000      -0.832145       -22.6438
 125   2.0000      -0.830239       -22.5919
 126   2.0000      -0.822349       -22.3772
 127   2.0000      -0.818648       -22.2766
 128   2.0000      -0.815038       -22.1783
 129   2.0000      -0.811641       -22.0859
 130   2.0000      -0.805592       -21.9213
 131   2.0000      -0.795601       -21.6494
 132   2.0000      -0.787481       -21.4284
 133   2.0000      -0.782490       -21.2926
 134   2.0000      -0.779816       -21.2199
 135   2.0000      -0.762056       -20.7366
 136   2.0000      -0.743893       -20.2424
 137   2.0000      -0.730568       -19.8798
 138   2.0000      -0.712373       -19.3847
 139   2.0000      -0.704795       -19.1785
 140   2.0000      -0.699168       -19.0253
 141   2.0000      -0.693752       -18.8780
 142   2.0000      -0.683011       -18.5857
 143   2.0000      -0.676917       -18.4199
 144   2.0000      -0.668620       -18.1941
 145   2.0000      -0.655388       -17.8340
 146   2.0000      -0.646656       -17.5964
 147   2.0000      -0.644788       -17.5456
 148   2.0000      -0.635476       -17.2922
 149   2.0000      -0.628420       -17.1002
 150   2.0000      -0.626816       -17.0565
 151   2.0000      -0.620673       -16.8894
 152   2.0000      -0.618778       -16.8378
 153   2.0000      -0.616299       -16.7703
 154   2.0000      -0.612838       -16.6762
 155   2.0000      -0.610769       -16.6199
 156   2.0000      -0.605732       -16.4828
 157   2.0000      -0.601671       -16.3723
 158   2.0000      -0.599540       -16.3143
 159   2.0000      -0.593302       -16.1446
 160   2.0000      -0.589083       -16.0298
 161   2.0000      -0.588037       -16.0013
 162   2.0000      -0.576115       -15.6769
 163   2.0000      -0.568471       -15.4689
 164   2.0000      -0.565478       -15.3874
 165   2.0000      -0.560906       -15.2630
 166   2.0000      -0.558741       -15.2041
 167   2.0000      -0.555317       -15.1109
 168   2.0000      -0.550167       -14.9708
 169   2.0000      -0.545965       -14.8565
 170   2.0000      -0.540660       -14.7121
 171   2.0000      -0.537231       -14.6188
 172   2.0000      -0.528995       -14.3947
 173   2.0000      -0.526190       -14.3184
 174   2.0000      -0.522523       -14.2186
 175   2.0000      -0.517105       -14.0711
 176   2.0000      -0.511023       -13.9056
 177   2.0000      -0.508992       -13.8504
 178   2.0000      -0.505246       -13.7484
 179   2.0000      -0.504301       -13.7227
 180   2.0000      -0.501725       -13.6526
 181   2.0000      -0.498522       -13.5655
 182   2.0000      -0.497585       -13.5400
 183   2.0000      -0.493482       -13.4283
 184   2.0000      -0.492779       -13.4092
 185   2.0000      -0.489043       -13.3075
 186   2.0000      -0.488222       -13.2852
 187   2.0000      -0.485027       -13.1983
 188   2.0000      -0.483231       -13.1494
 189   2.0000      -0.482337       -13.1251
 190   2.0000      -0.481865       -13.1122
 191   2.0000      -0.480259       -13.0685
 192   2.0000      -0.478236       -13.0135
 193   2.0000      -0.471488       -12.8298
 194   2.0000      -0.470161       -12.7937
 195   2.0000      -0.466834       -12.7032
 196   2.0000      -0.463386       -12.6094
 197   2.0000      -0.461635       -12.5617
 198   2.0000      -0.460266       -12.5245
 199   2.0000      -0.458383       -12.4732
 200   2.0000      -0.456908       -12.4331
 201   2.0000      -0.453261       -12.3339
 202   2.0000      -0.452114       -12.3027
 203   2.0000      -0.449228       -12.2241
 204   2.0000      -0.443771       -12.0756
 205   2.0000      -0.438044       -11.9198
 206   2.0000      -0.432012       -11.7556
 207   2.0000      -0.429701       -11.6927
 208   2.0000      -0.425953       -11.5908
 209   2.0000      -0.425442       -11.5769
 210   2.0000      -0.423187       -11.5155
 211   2.0000      -0.422810       -11.5052
 212   2.0000      -0.419168       -11.4061
 213   2.0000      -0.415978       -11.3193
 214   2.0000      -0.411512       -11.1978
 215   2.0000      -0.409550       -11.1444
 216   2.0000      -0.408948       -11.1280
 217   2.0000      -0.408155       -11.1065
 218   2.0000      -0.406265       -11.0550
 219   2.0000      -0.402963       -10.9652
 220   2.0000      -0.398628       -10.8472
 221   2.0000      -0.393758       -10.7147
 222   2.0000      -0.387197       -10.5362
 223   2.0000      -0.383108       -10.4249
 224   2.0000      -0.375058       -10.2058
 225   2.0000      -0.373574       -10.1655
 226   2.0000      -0.370578       -10.0839
 227   2.0000      -0.363379        -9.8881
 228   2.0000      -0.357472        -9.7273
 229   2.0000      -0.350849        -9.5471
 230   2.0000      -0.348647        -9.4872
 231   2.0000      -0.341901        -9.3036
 232   2.0000      -0.336816        -9.1652
 233   2.0000      -0.327527        -8.9125
 234   2.0000      -0.327241        -8.9047
 235   2.0000      -0.326519        -8.8850
 236   2.0000      -0.320449        -8.7198
 237   2.0000      -0.316108        -8.6017
 238   2.0000      -0.315266        -8.5788
 239   2.0000      -0.309626        -8.4253
 240   2.0000      -0.305754        -8.3200
 241   2.0000      -0.299489        -8.1495
 242   2.0000      -0.295752        -8.0478
 243   2.0000      -0.278040        -7.5658
 244   2.0000      -0.259990        -7.0747
 245   2.0000      -0.231551        -6.3008
 246   2.0000      -0.205240        -5.5849
 247   2.0000      -0.172862        -4.7038
 248   0.0000      -0.097701        -2.6586
 249   0.0000      -0.068478        -1.8634
 250   0.0000      -0.043492        -1.1835
 251   0.0000      -0.017334        -0.4717
 252   0.0000      -0.011781        -0.3206

MULLIKEN ATOMIC CHARGES
-----------------------
   0 C :   -0.025828
   1 C :   -0.066651
   2 C :    0.051908
   3 C :    0.027230
   4 C :   -0.064223
   5 S :    0.084918
   6 C :   -0.035441
   7 C :    0.026350
   8 C :    0.025053
   9 C :   -0.033824
  10 S :    0.072165
  11 C :   -0.027296
  12 C :   -0.065115
  13 S :    0.108206
  14 C :   -0.143393
  15 C :   -0.032154
  16 C :    0.105165
  17 C :    0.006885
  18 C :   -0.130028
  19 C :    0.218320
  20 O :   -0.213488
  21 O :   -0.294818
  22 C :    0.176601
  23 S :    0.178758
  24 C :    0.009350
  25 C :   -0.043886
  26 C :    0.028303
  27 C :    0.020321
  28 C :   -0.043822
  29 S :    0.091884
  30 C :   -0.051481
  31 C :    0.024628
  32 C :    0.024050
  33 C :   -0.039243
  34 S :    0.095845
  35 C :    0.003802
  36 C :   -0.108122
  37 S :    0.112167
  38 C :   -0.152734
  39 C :   -0.040793
  40 C :    0.112539
  41 C :    0.007091
  42 C :   -0.126182
  43 C :    0.212878
  44 O :   -0.215128
  45 O :   -0.295504
  46 C :    0.181525
  47 S :    0.155969
  48 C :    0.007129
  49 C :   -0.022900
  50 C :    0.021004
  51 C :    0.028611
  52 C :   -0.034810
  53 S :    0.074205
  54 C :   -0.071286
  55 C :    0.029655
  56 C :    0.046973
  57 C :   -0.064645
  58 S :    0.084335
  59 C :   -0.030923
  60 H :    0.021632
  61 H :    0.023023
  62 H :   -0.010148
  63 H :   -0.010984
  64 H :   -0.016198
  65 H :   -0.013542
  66 H :   -0.017754
  67 H :   -0.007472
  68 H :    0.022193
  69 H :    0.029267
  70 H :    0.054295
  71 H :   -0.013169
  72 H :   -0.015340
  73 H :   -0.017385
  74 H :   -0.017551
  75 H :   -0.015498
  76 H :   -0.014740
  77 H :    0.001939
  78 H :    0.042682
  79 H :    0.020972
  80 H :    0.022259
  81 H :   -0.020215
  82 H :   -0.015845
  83 H :   -0.017655
  84 H :   -0.015412
  85 H :   -0.015544
  86 H :    0.016124
  87 H :    0.019959
Sum of atomic charges:   -0.0000000

LOEWDIN ATOMIC CHARGES
----------------------
   0 C :   -0.072526
   1 C :   -0.140218
   2 C :   -0.030392
   3 C :   -0.027819
   4 C :   -0.173039
   5 S :    0.357468
   6 C :   -0.182933
   7 C :   -0.038303
   8 C :   -0.037081
   9 C :   -0.153228
  10 S :    0.378097
  11 C :   -0.077689
  12 C :   -0.161649
  13 S :    0.429074
  14 C :   -0.189897
  15 C :   -0.195088
  16 C :   -0.076672
  17 C :   -0.019939
  18 C :   -0.202135
  19 C :    0.072305
  20 O :   -0.181716
  21 O :   -0.086067
  22 C :    0.080681
  23 S :    0.450542
  24 C :   -0.080432
  25 C :   -0.162294
  26 C :   -0.035897
  27 C :   -0.043844
  28 C :   -0.178802
  29 S :    0.392605
  30 C :   -0.184148
  31 C :   -0.040054
  32 C :   -0.041086
  33 C :   -0.154256
  34 S :    0.408565
  35 C :   -0.086047
  36 C :   -0.162441
  37 S :    0.425891
  38 C :   -0.184991
  39 C :   -0.186252
  40 C :   -0.081919
  41 C :   -0.027970
  42 C :   -0.202186
  43 C :    0.069827
  44 O :   -0.187549
  45 O :   -0.081885
  46 C :    0.075393
  47 S :    0.439626
  48 C :   -0.086279
  49 C :   -0.154343
  50 C :   -0.035898
  51 C :   -0.039352
  52 C :   -0.180303
  53 S :    0.378218
  54 C :   -0.182404
  55 C :   -0.027677
  56 C :   -0.037005
  57 C :   -0.139246
  58 S :    0.355681
  59 C :   -0.081973
  60 H :    0.029240
  61 H :    0.026763
  62 H :    0.033717
  63 H :    0.032773
  64 H :    0.030689
  65 H :    0.033078
  66 H :    0.038806
  67 H :    0.034898
  68 H :    0.020330
  69 H :    0.024665
  70 H :    0.028079
  71 H :    0.034671
  72 H :    0.031682
  73 H :    0.030232
  74 H :    0.030432
  75 H :    0.031520
  76 H :    0.033576
  77 H :    0.023189
  78 H :    0.021549
  79 H :    0.018101
  80 H :    0.021582
  81 H :    0.033062
  82 H :    0.031475
  83 H :    0.030060
  84 H :    0.031013
  85 H :    0.031617
  86 H :    0.026856
  87 H :    0.025297

  Mayer bond orders larger than 0.100000
B(  0-C ,  1-C ) :   1.8528 B(  0-C , 60-H ) :   0.9511 B(  0-C , 61-H ) :   0.9418
B(  1-C ,  2-C ) :   1.0863 B(  1-C ,  5-S ) :   1.0087 B(  2-C ,  3-C ) :   1.6417
B(  2-C , 62-H ) :   0.9941 B(  3-C ,  4-C ) :   1.1708 B(  3-C , 63-H ) :   0.9919
B(  4-C ,  5-S ) :   1.0531 B(  4-C ,  6-C ) :   1.5131 B(  6-C ,  7-C ) :   1.2013
B(  6-C , 10-S ) :   1.0390 B(  7-C ,  8-C ) :   1.5580 B(  7-C , 64-H ) :   0.9925
B(  8-C ,  9-C ) :   1.1817 B(  8-C , 65-H ) :   1.0002 B(  9-C , 10-S ) :   1.0512
B(  9-C , 11-C ) :   1.4796 B( 11-C , 12-C ) :   1.2944 B( 11-C , 66-H ) :   0.9640
B( 12-C , 13-S ) :   1.0924 B( 12-C , 16-C ) :   1.2759 B( 13-S , 14-C ) :   1.0893
B( 14-C , 15-C ) :   1.3596 B( 14-C , 24-C ) :   1.2686 B( 15-C , 16-C ) :   1.3069
B( 15-C , 23-S ) :   1.0693 B( 16-C , 17-C ) :   1.1800 B( 17-C , 18-C ) :   1.5918
B( 17-C , 67-H ) :   1.0000 B( 18-C , 19-C ) :   0.9582 B( 18-C , 23-S ) :   1.0853
B( 19-C , 20-O ) :   2.0239 B( 19-C , 21-O ) :   1.2697 B( 21-O , 22-C ) :   0.9050
B( 22-C , 68-H ) :   0.9756 B( 22-C , 69-H ) :   0.9786 B( 22-C , 70-H ) :   0.9633
B( 24-C , 25-C ) :   1.4920 B( 24-C , 71-H ) :   0.9444 B( 25-C , 26-C ) :   1.2068
B( 25-C , 29-S ) :   1.0476 B( 26-C , 27-C ) :   1.5201 B( 26-C , 72-H ) :   0.9988
B( 27-C , 28-C ) :   1.2468 B( 27-C , 73-H ) :   0.9933 B( 28-C , 29-S ) :   1.0670
B( 28-C , 30-C ) :   1.4094 B( 30-C , 31-C ) :   1.2529 B( 30-C , 34-S ) :   1.0597
B( 31-C , 32-C ) :   1.5119 B( 31-C , 74-H ) :   0.9928 B( 32-C , 33-C ) :   1.2110
B( 32-C , 75-H ) :   0.9985 B( 33-C , 34-S ) :   1.0511 B( 33-C , 35-C ) :   1.4901
B( 35-C , 36-C ) :   1.2703 B( 35-C , 76-H ) :   0.9421 B( 36-C , 37-S ) :   1.1007
B( 36-C , 40-C ) :   1.2838 B( 37-S , 38-C ) :   1.1070 B( 38-C , 39-C ) :   1.4026
B( 38-C , 48-C ) :   1.2276 B( 39-C , 40-C ) :   1.2812 B( 39-C , 47-S ) :   1.0662
B( 40-C , 41-C ) :   1.1697 B( 41-C , 42-C ) :   1.6054 B( 41-C , 77-H ) :   0.9849
B( 42-C , 43-C ) :   0.9483 B( 42-C , 47-S ) :   1.0792 B( 43-C , 44-O ) :   2.0582
B( 43-C , 45-O ) :   1.2618 B( 45-O , 46-C ) :   0.9055 B( 46-C , 78-H ) :   0.9610
B( 46-C , 79-H ) :   0.9679 B( 46-C , 80-H ) :   0.9772 B( 48-C , 49-C ) :   1.5537
B( 48-C , 81-H ) :   0.9373 B( 49-C , 50-C ) :   1.1669 B( 49-C , 53-S ) :   1.0350
B( 50-C , 51-C ) :   1.5713 B( 50-C , 82-H ) :   1.0002 B( 51-C , 52-C ) :   1.1933
B( 51-C , 83-H ) :   0.9913 B( 52-C , 53-S ) :   1.0477 B( 52-C , 54-C ) :   1.5168
B( 54-C , 55-C ) :   1.1694 B( 54-C , 58-S ) :   1.0467 B( 55-C , 56-C ) :   1.6432
B( 55-C , 84-H ) :   0.9918 B( 56-C , 57-C ) :   1.0861 B( 56-C , 85-H ) :   0.9933
B( 57-C , 58-S ) :   1.0104 B( 57-C , 59-C ) :   1.8529 B( 59-C , 86-H ) :   0.9509
B( 59-C , 87-H ) :   0.9415

-----------------------------------------------------------------------------
         ABSORPTION SPECTRUM VIA TRANSITION ELECTRIC DIPOLE MOMENTS
-----------------------------------------------------------------------------
State   Energy  Wavelength   fosc         T2         TX        TY        TZ
        (cm-1)    (nm)                  (au**2)     (au)      (au)      (au)
-----------------------------------------------------------------------------
   0    5501.2   1817.8   0.945320254  56.57180  -6.84427   0.22813  -3.11058
   1   10788.8    926.9   0.021789558   0.66489  -0.57508   0.57761   0.02310
   2   13107.7    762.9   0.854792792  21.46891  -0.93589  -4.53146  -0.24258
   3   15711.6    636.5   0.143405118   3.00483   0.04413  -1.70333   0.31869
   4   18288.1    546.8   0.617466006  11.11528  -0.63044   1.92688  -2.64669
   5   19203.5    520.7   0.094541854   1.62076  -0.21561   0.73936  -1.01371
   6   20199.8    495.1   0.129865653   2.11652  -0.43782  -0.94978   1.01131
   7   21460.3    466.0   0.026105584   0.40047   0.42914   0.38390   0.26254
   8   23579.8    424.1   0.279335138   3.89996   0.52751  -1.20205   1.47538
   9   23936.5    417.8   0.140581395   1.93349   1.01239  -0.73618   0.60547
  10   24692.3    405.0   0.011121106   0.14827   0.30209  -0.10322   0.21531
  11   25484.6    392.4   0.035747088   0.46178  -0.53768  -0.01189  -0.41538
  12   26792.9    373.2   0.099861648   1.22703   0.89839  -0.57005   0.30817
  13   28180.1    354.9   0.004802263   0.05610  -0.06302  -0.07759   0.21473
  14   28426.4    351.8   0.050739487   0.58762  -0.30465  -0.39338   0.58315
  15   28640.8    349.2   0.136806889   1.57253  -0.54832   0.70327  -0.88163
  16   29235.1    342.1   0.052088340   0.58656  -0.29460   0.47108  -0.52712
  17   29615.0    337.7   0.130812173   1.45416   0.79458  -0.51651   0.74567
  18   29774.2    335.9   0.018642128   0.20612  -0.07800   0.44252   0.06496
  19   30103.3    332.2   0.006927916   0.07576  -0.24144  -0.10065  -0.08567
  20   30284.9    330.2   0.218958056   2.38018  -0.80485  -0.76413   1.07168
  21   30479.7    328.1   0.083388007   0.90067   0.33828   0.34798  -0.81557
  22   30706.1    325.7   0.013445667   0.14416  -0.19350  -0.24830   0.21228
  23   30810.9    324.6   0.020678130   0.22094   0.25737  -0.34161  -0.19495
  24   31601.4    316.4   0.021974911   0.22893   0.02031   0.27752  -0.38922
  25   32358.4    309.0   0.104079008   1.05889   0.17369  -0.83714   0.57265
  26   32569.3    307.0   0.017755608   0.17947  -0.21169   0.19901   0.30831
  27   32678.1    306.0   0.012128861   0.12219   0.33503   0.01136   0.09906
  28   32734.6    305.5   0.001256637   0.01264   0.10587  -0.03778  -0.00125
  29   33606.9    297.6   0.098855011   0.96838  -0.76856   0.54015   0.29316
  30   33905.8    294.9   0.056391089   0.54754   0.45171   0.58577   0.01914
  31   34032.5    293.8   0.028477809   0.27548   0.06839   0.47160  -0.21998
  32   34907.9    286.5   0.081575180   0.76932   0.74710   0.42195  -0.18200
  33   35079.9    285.1   0.043276321   0.40613   0.38559   0.49937  -0.08991
  34   35232.7    283.8   0.021650066   0.20230   0.31480   0.08823   0.30889
  35   35481.9    281.8   0.043665476   0.40514  -0.35008  -0.18830   0.49713
  36   35722.4    279.9   0.004271347   0.03936  -0.00745  -0.17684   0.08965
  37   35996.1    277.8   0.012791268   0.11699   0.11445   0.05524   0.31755
  38   36219.1    276.1   0.031620251   0.28741   0.53366   0.03436   0.03788
  39   36487.0    274.1   0.084026665   0.75815  -0.31869   0.12607  -0.80043
  40   36663.4    272.8   0.052383522   0.47037   0.64706   0.21801   0.06447
  41   36826.5    271.5   0.003543339   0.03168   0.10687   0.11611   0.08230
  42   37374.3    267.6   0.170108646   1.49840  -0.48846   0.73251  -0.85043
  43   37933.5    263.6   0.074896044   0.65000   0.37804   0.43891  -0.56075
  44   38412.3    260.3   0.050710506   0.43461  -0.54865  -0.15293   0.33197
  45   38483.6    259.9   0.056902847   0.48678   0.15065   0.62714  -0.26605
  46   38792.9    257.8   0.025989672   0.22056   0.45854   0.02679  -0.09787
  47   39301.9    254.4   0.050008034   0.41889   0.27160   0.23278  -0.53939
  48   39448.8    253.5   0.015273701   0.12746  -0.35235  -0.02168  -0.05331
  49   39578.5    252.7   0.006866502   0.05712  -0.13565  -0.18749   0.05968
  50   40045.7    249.7   0.009479433   0.07793  -0.17807   0.02481  -0.21355
  51   40155.2    249.0   0.006707048   0.05499  -0.02038  -0.20516  -0.11172

FINAL SINGLE POINT ENERGY     -6048.610588083393

DIPOLE MOMENT
-------------
                                X             Y             Z
Electronic contribution:     -5.25929     -16.27040       7.64234
Nuclear contribution   :      6.18476      16.99097      -6.32245
                        -----------------------------------------
Total Dipole Moment    :      0.92548       0.72057       1.31988
                        -----------------------------------------
Magnitude (a.u.)       :      1.76573
Magnitude (Debye)      :      4.48814

Rotational constants in cm-1:     0.001456     0.000376     0.000333
Rotational constants in MHz :    43.651161    11.275515     9.981172

                             ****ORCA TERMINATED NORMALLY****
TOTAL RUN TIME: 0 days 0 hours 9 minutes 29 seconds 631 msec
