                         Program Version 4.2.0 -  RELEASE  -
|  1> # ORCA input file
|  2> # SCF done       -172.587815323966          0.000620774382
|  3> ! CAM-B3LYP def2-SVP def2/J RIJCOSX Grid4 TightSCF
|  4> %maxcore 5000
|  5> %tddft
|  6>     Mode sTDDFT
|  7>     Ethresh 5.0
|  8>     maxcore 5000
|  9> end
| 10>
| 11> %pal
| 12>   nprocs 6
| 13>   end
| 14> * xyz 0 1
| 15>    C        4.73235         2.62213         3.86512
| 16>    C        5.48588         1.52835         4.03712
| 17>    C        6.79442         1.44471         4.62225
| 18>    C        7.31016         0.19747         4.66388
| 19>    C        6.46209        -0.80734         4.11637
| 20>    S        4.96558        -0.09230         3.54705
| 21>    C        6.71610        -2.15169         4.01437
| 22>    C        7.87407        -2.86124         4.42525
| 23>    C        7.82724        -4.19209         4.17003
| 24>    C        6.63172        -4.63391         3.53349
| 25>    S        5.55760        -3.25849         3.29586
| 26>    C        6.32886        -5.93292         3.24287
| 27>    C        5.16289        -6.43499         2.61088
| 28>    S        4.57099        -8.00675         3.11242
| 29>    C        3.20958        -7.92470         2.02274
| 30>    C        3.20564        -6.70687         1.36279
| 31>    C        4.33238        -5.90366         1.63950
| 32>    C        4.62967        -4.75439         0.72612
| 33>    C        4.60898        -5.24341        -0.71641
| 34>    S        2.98115        -5.95991        -1.15999
| 35>    O        3.18673        -7.26588        -1.72821
| 36>    O        2.24164        -5.00759        -1.94290
| 37>    C        2.16632        -6.16324         0.46695
| 38>    C        2.35399        -9.05182         1.89536
| 39>    C        1.68505        -9.36464         0.75430
| 40>    C        0.81608       -10.46033         0.56818
| 41>    S        0.13800       -10.67879        -1.02536
| 42>    C       -0.77162       -12.10556        -0.58132
| 43>    C       -0.53666       -12.36965         0.76034
| 44>    C        0.34567       -11.46529         1.41763
| 45>    C        0.52686       -11.81439         2.77559
| 46>    C       -0.17739       -12.92966         3.12330
| 47>    C       -0.22905       -13.59209         4.42519
| 48>    O       -0.88502       -14.57394         4.67054
| 49>    O        0.55250       -12.97217         5.32921
| 50>    C        0.56774       -13.55705         6.62275
| 51>    S       -1.11287       -13.61754         1.81638
| 52>    C       -1.61172       -12.82213        -1.46652
| 53>    S       -2.55988       -14.14124        -0.81783
| 54>    C       -3.27543       -14.48384        -2.37133
| 55>    C       -2.79162       -13.59279        -3.32572
| 56>    C       -1.85748       -12.67185        -2.82609
| 57>    C       -1.19359       -11.73373        -3.78577
| 58>    C       -0.42868       -12.54089        -4.82216
| 59>    S       -1.56720       -13.67387        -5.70418
| 60>    O       -1.05739       -15.01297        -5.59919
| 61>    O       -1.80948       -13.15851        -7.02548
| 62>    C       -3.14086       -13.57072        -4.75958
| 63>    C       -4.20887       -15.52487        -2.53655
| 64>    C       -4.63372       -16.34445        -1.52925
| 65>    C       -5.56111       -17.37799        -1.70468
| 66>    C       -5.99878       -18.20818        -0.70122
| 67>    C       -6.93229       -19.26748        -0.82378
| 68>    C       -7.18559       -19.92935         0.33675
| 69>    C       -6.46588       -19.43102         1.45015
| 70>    S       -5.45200       -18.08629         0.96223
| 71>    C       -6.50529       -19.88117         2.74990
| 72>    C       -7.28267       -20.95486         3.26759
| 73>    C       -7.12117       -21.17137         4.59176
| 74>    C       -6.19566       -20.27872         5.22869
| 75>    S       -5.55102       -19.15209         4.02401
| 76>    C       -5.83777       -20.25189         6.52004
| 77>    H        5.08635         3.58783         4.17998
| 78>    H        3.75935         2.57337         3.41206
| 79>    H        7.28876         2.32846         4.98475
| 80>    H        8.27677        -0.04680         5.06738
| 81>    H        8.70205        -2.36472         4.89849
| 82>    H        8.61213        -4.88701         4.41178
| 83>    H        7.01428        -6.67991         3.62356
| 84>    H        5.61670        -4.34458         0.94049
| 85>    H        3.89867        -3.95185         0.85586
| 86>    H        5.33209        -6.03777        -0.87999
| 87>    H        4.77130        -4.43241        -1.42001
| 88>    H        1.29519        -6.79673         0.34860
| 89>    H        1.86537        -5.15862         0.75776
| 90>    H        2.32204        -9.71969         2.74278
| 91>    H        1.85445        -8.76738        -0.13189
| 92>    H        1.13745       -11.28531         3.48200
| 93>    H        1.21751       -12.93193         7.22980
| 94>    H        0.95287       -14.57784         6.57268
| 95>    H       -0.44143       -13.58377         7.03932
| 96>    H       -0.51052       -11.05393        -3.27866
| 97>    H       -1.95151       -11.12694        -4.28991
| 98>    H        0.32672       -13.17300        -4.36458
| 99>    H        0.01346       -11.91038        -5.58752
|100>    H       -3.74416       -14.41455        -5.07643
|101>    H       -3.60291       -12.63765        -5.07604
|102>    H       -4.60340       -15.67543        -3.53225
|103>    H       -4.23600       -16.19313        -0.53287
|104>    H       -5.96550       -17.54288        -2.69518
|105>    H       -7.38550       -19.50417        -1.77056
|106>    H       -7.86583       -20.75745         0.42450
|107>    H       -7.93594       -21.52929         2.63490
|108>    H       -7.62388       -21.93606         5.15698
|109>    H       -6.25418       -20.95429         7.22042
|110>    H       -5.13035       -19.53527         6.89487
|111> *
|112>
|113>                          ****END OF INPUT****

CARTESIAN COORDINATES (ANGSTROEM)
---------------------------------
  C      4.732350    2.622130    3.865120
  C      5.485880    1.528350    4.037120
  C      6.794420    1.444710    4.622250
  C      7.310160    0.197470    4.663880
  C      6.462090   -0.807340    4.116370
  S      4.965580   -0.092300    3.547050
  C      6.716100   -2.151690    4.014370
  C      7.874070   -2.861240    4.425250
  C      7.827240   -4.192090    4.170030
  C      6.631720   -4.633910    3.533490
  S      5.557600   -3.258490    3.295860
  C      6.328860   -5.932920    3.242870
  C      5.162890   -6.434990    2.610880
  S      4.570990   -8.006750    3.112420
  C      3.209580   -7.924700    2.022740
  C      3.205640   -6.706870    1.362790
  C      4.332380   -5.903660    1.639500
  C      4.629670   -4.754390    0.726120
  C      4.608980   -5.243410   -0.716410
  S      2.981150   -5.959910   -1.159990
  O      3.186730   -7.265880   -1.728210
  O      2.241640   -5.007590   -1.942900
  C      2.166320   -6.163240    0.466950
  C      2.353990   -9.051820    1.895360
  C      1.685050   -9.364640    0.754300
  C      0.816080  -10.460330    0.568180
  S      0.138000  -10.678790   -1.025360
  C     -0.771620  -12.105560   -0.581320
  C     -0.536660  -12.369650    0.760340
  C      0.345670  -11.465290    1.417630
  C      0.526860  -11.814390    2.775590
  C     -0.177390  -12.929660    3.123300
  C     -0.229050  -13.592090    4.425190
  O     -0.885020  -14.573940    4.670540
  O      0.552500  -12.972170    5.329210
  C      0.567740  -13.557050    6.622750
  S     -1.112870  -13.617540    1.816380
  C     -1.611720  -12.822130   -1.466520
  S     -2.559880  -14.141240   -0.817830
  C     -3.275430  -14.483840   -2.371330
  C     -2.791620  -13.592790   -3.325720
  C     -1.857480  -12.671850   -2.826090
  C     -1.193590  -11.733730   -3.785770
  C     -0.428680  -12.540890   -4.822160
  S     -1.567200  -13.673870   -5.704180
  O     -1.057390  -15.012970   -5.599190
  O     -1.809480  -13.158510   -7.025480
  C     -3.140860  -13.570720   -4.759580
  C     -4.208870  -15.524870   -2.536550
  C     -4.633720  -16.344450   -1.529250
  C     -5.561110  -17.377990   -1.704680
  C     -5.998780  -18.208180   -0.701220
  C     -6.932290  -19.267480   -0.823780
  C     -7.185590  -19.929350    0.336750
  C     -6.465880  -19.431020    1.450150
  S     -5.452000  -18.086290    0.962230
  C     -6.505290  -19.881170    2.749900
  C     -7.282670  -20.954860    3.267590
  C     -7.121170  -21.171370    4.591760
  C     -6.195660  -20.278720    5.228690
  S     -5.551020  -19.152090    4.024010
  C     -5.837770  -20.251890    6.520040
  H      5.086350    3.587830    4.179980
  H      3.759350    2.573370    3.412060
  H      7.288760    2.328460    4.984750
  H      8.276770   -0.046800    5.067380
  H      8.702050   -2.364720    4.898490
  H      8.612130   -4.887010    4.411780
  H      7.014280   -6.679910    3.623560
  H      5.616700   -4.344580    0.940490
  H      3.898670   -3.951850    0.855860
  H      5.332090   -6.037770   -0.879990
  H      4.771300   -4.432410   -1.420010
  H      1.295190   -6.796730    0.348600
  H      1.865370   -5.158620    0.757760
  H      2.322040   -9.719690    2.742780
  H      1.854450   -8.767380   -0.131890
  H      1.137450  -11.285310    3.482000
  H      1.217510  -12.931930    7.229800
  H      0.952870  -14.577840    6.572680
  H     -0.441430  -13.583770    7.039320
  H     -0.510520  -11.053930   -3.278660
  H     -1.951510  -11.126940   -4.289910
  H      0.326720  -13.173000   -4.364580
  H      0.013460  -11.910380   -5.587520
  H     -3.744160  -14.414550   -5.076430
  H     -3.602910  -12.637650   -5.076040
  H     -4.603400  -15.675430   -3.532250
  H     -4.236000  -16.193130   -0.532870
  H     -5.965500  -17.542880   -2.695180
  H     -7.385500  -19.504170   -1.770560
  H     -7.865830  -20.757450    0.424500
  H     -7.935940  -21.529290    2.634900
  H     -7.623880  -21.936060    5.156980
  H     -6.254180  -20.954290    7.220420
  H     -5.130350  -19.535270    6.894870

 Total Charge           Charge          ....    0
 Multiplicity           Mult            ....    1
 Number of Electrons    NEL             ....  518
 Basis Dimension        Dim             .... 1078

ORBITAL ENERGIES
----------------

  NO   OCC          E(Eh)            E(eV)
   0   2.0000     -89.127804     -2425.2908
   1   2.0000     -89.119215     -2425.0571
   2   2.0000     -88.967351     -2420.9247
   3   2.0000     -88.955151     -2420.5927
   4   2.0000     -88.955126     -2420.5920
   5   2.0000     -88.953393     -2420.5449
   6   2.0000     -88.949062     -2420.4270
   7   2.0000     -88.943582     -2420.2779
   8   2.0000     -88.936389     -2420.0822
   9   2.0000     -88.932857     -2419.9861
  10   2.0000     -19.259018      -524.0645
  11   2.0000     -19.203432      -522.5519
  12   2.0000     -19.184889      -522.0474
  13   2.0000     -19.181181      -521.9465
  14   2.0000     -19.172985      -521.7234
  15   2.0000     -19.172566      -521.7120
  16   2.0000     -10.402588      -283.0688
  17   2.0000     -10.321345      -280.8581
  18   2.0000     -10.317493      -280.7533
  19   2.0000     -10.316150      -280.7167
  20   2.0000     -10.315668      -280.7036
  21   2.0000     -10.313040      -280.6321
  22   2.0000     -10.311400      -280.5874
  23   2.0000     -10.311277      -280.5841
  24   2.0000     -10.311049      -280.5779
  25   2.0000     -10.308512      -280.5089
  26   2.0000     -10.307733      -280.4877
  27   2.0000     -10.307278      -280.4753
  28   2.0000     -10.305095      -280.4159
  29   2.0000     -10.304812      -280.4082
  30   2.0000     -10.304781      -280.4074
  31   2.0000     -10.302976      -280.3582
  32   2.0000     -10.302533      -280.3462
  33   2.0000     -10.301381      -280.3148
  34   2.0000     -10.301181      -280.3094
  35   2.0000     -10.300828      -280.2998
  36   2.0000     -10.300428      -280.2889
  37   2.0000     -10.295525      -280.1555
  38   2.0000     -10.294739      -280.1341
  39   2.0000     -10.293650      -280.1045
  40   2.0000     -10.293316      -280.0954
  41   2.0000     -10.292852      -280.0827
  42   2.0000     -10.291456      -280.0448
  43   2.0000     -10.290519      -280.0193
  44   2.0000     -10.289430      -279.9896
  45   2.0000     -10.289377      -279.9882
  46   2.0000     -10.289241      -279.9845
  47   2.0000     -10.288806      -279.9726
  48   2.0000     -10.287687      -279.9422
  49   2.0000     -10.287609      -279.9401
  50   2.0000     -10.286240      -279.9028
  51   2.0000     -10.284883      -279.8659
  52   2.0000     -10.284427      -279.8535
  53   2.0000     -10.283733      -279.8346
  54   2.0000     -10.283081      -279.8169
  55   2.0000     -10.280119      -279.7363
  56   2.0000     -10.278344      -279.6880
  57   2.0000     -10.277694      -279.6703
  58   2.0000     -10.275384      -279.6074
  59   2.0000     -10.274678      -279.5882
  60   2.0000     -10.271499      -279.5017
  61   2.0000     -10.265382      -279.3352
  62   2.0000      -8.194468      -222.9828
  63   2.0000      -8.186029      -222.7532
  64   2.0000      -8.061855      -219.3742
  65   2.0000      -8.051055      -219.0803
  66   2.0000      -8.050057      -219.0532
  67   2.0000      -8.048621      -219.0141
  68   2.0000      -8.044978      -218.9150
  69   2.0000      -8.040225      -218.7856
  70   2.0000      -8.032756      -218.5824
  71   2.0000      -8.029633      -218.4974
  72   2.0000      -6.163366      -167.7137
  73   2.0000      -6.162885      -167.7006
  74   2.0000      -6.162536      -167.6911
  75   2.0000      -6.154830      -167.4814
  76   2.0000      -6.154503      -167.4725
  77   2.0000      -6.154110      -167.4618
  78   2.0000      -6.031202      -164.1173
  79   2.0000      -6.027044      -164.0042
  80   2.0000      -6.023993      -163.9212
  81   2.0000      -6.020368      -163.8225
  82   2.0000      -6.019893      -163.8096
  83   2.0000      -6.018025      -163.7588
  84   2.0000      -6.016338      -163.7129
  85   2.0000      -6.015488      -163.6897
  86   2.0000      -6.014838      -163.6721
  87   2.0000      -6.013940      -163.6476
  88   2.0000      -6.012977      -163.6214
  89   2.0000      -6.011224      -163.5737
  90   2.0000      -6.010790      -163.5619
  91   2.0000      -6.010434      -163.5522
  92   2.0000      -6.010048      -163.5417
  93   2.0000      -6.006158      -163.4359
  94   2.0000      -6.005667      -163.4225
  95   2.0000      -6.002488      -163.3360
  96   2.0000      -6.000755      -163.2888
  97   2.0000      -5.999434      -163.2529
  98   2.0000      -5.998568      -163.2293
  99   2.0000      -5.995534      -163.1468
 100   2.0000      -5.993529      -163.0922
 101   2.0000      -5.990152      -163.0003
 102   2.0000      -1.189741       -32.3745
 103   2.0000      -1.189217       -32.3602
 104   2.0000      -1.179846       -32.1052
 105   2.0000      -1.096694       -29.8426
 106   2.0000      -1.068223       -29.0678
 107   2.0000      -1.058490       -28.8030
 108   2.0000      -1.013431       -27.5769
 109   2.0000      -1.000377       -27.2217
 110   2.0000      -0.994307       -27.0565
 111   2.0000      -0.990691       -26.9581
 112   2.0000      -0.986758       -26.8511
 113   2.0000      -0.973517       -26.4907
 114   2.0000      -0.964069       -26.2337
 115   2.0000      -0.951092       -25.8805
 116   2.0000      -0.924664       -25.1614
 117   2.0000      -0.922600       -25.1052
 118   2.0000      -0.916082       -24.9279
 119   2.0000      -0.905104       -24.6291
 120   2.0000      -0.892705       -24.2917
 121   2.0000      -0.882553       -24.0155
 122   2.0000      -0.872976       -23.7549
 123   2.0000      -0.867114       -23.5954
 124   2.0000      -0.858074       -23.3494
 125   2.0000      -0.852786       -23.2055
 126   2.0000      -0.849797       -23.1242
 127   2.0000      -0.847146       -23.0520
 128   2.0000      -0.840488       -22.8708
 129   2.0000      -0.838986       -22.8300
 130   2.0000      -0.826529       -22.4910
 131   2.0000      -0.825495       -22.4629
 132   2.0000      -0.817358       -22.2414
 133   2.0000      -0.814328       -22.1590
 134   2.0000      -0.811296       -22.0765
 135   2.0000      -0.804749       -21.8983
 136   2.0000      -0.794332       -21.6149
 137   2.0000      -0.786891       -21.4124
 138   2.0000      -0.771407       -20.9911
 139   2.0000      -0.756348       -20.5813
 140   2.0000      -0.745366       -20.2824
 141   2.0000      -0.740327       -20.1453
 142   2.0000      -0.733354       -19.9556
 143   2.0000      -0.717340       -19.5198
 144   2.0000      -0.714398       -19.4398
 145   2.0000      -0.704483       -19.1700
 146   2.0000      -0.689123       -18.7520
 147   2.0000      -0.688557       -18.7366
 148   2.0000      -0.677585       -18.4380
 149   2.0000      -0.668580       -18.1930
 150   2.0000      -0.662384       -18.0244
 151   2.0000      -0.650557       -17.7026
 152   2.0000      -0.646395       -17.5893
 153   2.0000      -0.645109       -17.5543
 154   2.0000      -0.637855       -17.3569
 155   2.0000      -0.633022       -17.2254
 156   2.0000      -0.631815       -17.1926
 157   2.0000      -0.627421       -17.0730
 158   2.0000      -0.620938       -16.8966
 159   2.0000      -0.615384       -16.7454
 160   2.0000      -0.612905       -16.6780
 161   2.0000      -0.606837       -16.5129
 162   2.0000      -0.604244       -16.4423
 163   2.0000      -0.603201       -16.4139
 164   2.0000      -0.593140       -16.1402
 165   2.0000      -0.588794       -16.0219
 166   2.0000      -0.585680       -15.9372
 167   2.0000      -0.582420       -15.8485
 168   2.0000      -0.578905       -15.7528
 169   2.0000      -0.576398       -15.6846
 170   2.0000      -0.569750       -15.5037
 171   2.0000      -0.567949       -15.4547
 172   2.0000      -0.562238       -15.2993
 173   2.0000      -0.560962       -15.2645
 174   2.0000      -0.554742       -15.0953
 175   2.0000      -0.548902       -14.9364
 176   2.0000      -0.547468       -14.8974
 177   2.0000      -0.545314       -14.8387
 178   2.0000      -0.535388       -14.5686
 179   2.0000      -0.533372       -14.5138
 180   2.0000      -0.528272       -14.3750
 181   2.0000      -0.525932       -14.3113
 182   2.0000      -0.523738       -14.2516
 183   2.0000      -0.519607       -14.1392
 184   2.0000      -0.516211       -14.0468
 185   2.0000      -0.514569       -14.0021
 186   2.0000      -0.512634       -13.9495
 187   2.0000      -0.511470       -13.9178
 188   2.0000      -0.510146       -13.8818
 189   2.0000      -0.506130       -13.7725
 190   2.0000      -0.503325       -13.6962
 191   2.0000      -0.501945       -13.6586
 192   2.0000      -0.499704       -13.5976
 193   2.0000      -0.497835       -13.5468
 194   2.0000      -0.495288       -13.4775
 195   2.0000      -0.494215       -13.4483
 196   2.0000      -0.491216       -13.3667
 197   2.0000      -0.490637       -13.3509
 198   2.0000      -0.489417       -13.3177
 199   2.0000      -0.486612       -13.2414
 200   2.0000      -0.485332       -13.2066
 201   2.0000      -0.483563       -13.1584
 202   2.0000      -0.480533       -13.0760
 203   2.0000      -0.479552       -13.0493
 204   2.0000      -0.473403       -12.8819
 205   2.0000      -0.471705       -12.8357
 206   2.0000      -0.467830       -12.7303
 207   2.0000      -0.465254       -12.6602
 208   2.0000      -0.463826       -12.6213
 209   2.0000      -0.459149       -12.4941
 210   2.0000      -0.458171       -12.4675
 211   2.0000      -0.455982       -12.4079
 212   2.0000      -0.455122       -12.3845
 213   2.0000      -0.450465       -12.2578
 214   2.0000      -0.448910       -12.2155
 215   2.0000      -0.446887       -12.1604
 216   2.0000      -0.438420       -11.9300
 217   2.0000      -0.436412       -11.8754
 218   2.0000      -0.433714       -11.8019
 219   2.0000      -0.431069       -11.7300
 220   2.0000      -0.426912       -11.6169
 221   2.0000      -0.425913       -11.5897
 222   2.0000      -0.423699       -11.5294
 223   2.0000      -0.422442       -11.4952
 224   2.0000      -0.418898       -11.3988
 225   2.0000      -0.416411       -11.3311
 226   2.0000      -0.414268       -11.2728
 227   2.0000      -0.408872       -11.1260
 228   2.0000      -0.402756       -10.9595
 229   2.0000      -0.400328       -10.8935
 230   2.0000      -0.398259       -10.8372
 231   2.0000      -0.392670       -10.6851
 232   2.0000      -0.390774       -10.6335
 233   2.0000      -0.389758       -10.6059
 234   2.0000      -0.380339       -10.3495
 235   2.0000      -0.378513       -10.2999
 236   2.0000      -0.377526       -10.2730
 237   2.0000      -0.368977       -10.0404
 238   2.0000      -0.368370       -10.0239
 239   2.0000      -0.359846        -9.7919
 240   2.0000      -0.356877        -9.7111
 241   2.0000      -0.356741        -9.7074
 242   2.0000      -0.353115        -9.6088
 243   2.0000      -0.348010        -9.4698
 244   2.0000      -0.343214        -9.3393
 245   2.0000      -0.342285        -9.3140
 246   2.0000      -0.334675        -9.1070
 247   2.0000      -0.331835        -9.0297
 248   2.0000      -0.329123        -8.9559
 249   2.0000      -0.323116        -8.7924
 250   2.0000      -0.315352        -8.5812
 251   2.0000      -0.311351        -8.4723
 252   2.0000      -0.310806        -8.4575
 253   2.0000      -0.307566        -8.3693
 254   2.0000      -0.296053        -8.0560
 255   2.0000      -0.278310        -7.5732
 256   2.0000      -0.243354        -6.6220
 257   2.0000      -0.222798        -6.0626
 258   2.0000      -0.202111        -5.4997
 259   0.0000      -0.081469        -2.2169
 260   0.0000      -0.068019        -1.8509
 261   0.0000      -0.053153        -1.4464
 262   0.0000      -0.014164        -0.3854
 263   0.0000      -0.005370        -0.1461

MULLIKEN ATOMIC CHARGES
-----------------------
   0 C :   -0.022954
   1 C :   -0.067911
   2 C :    0.056658
   3 C :    0.029645
   4 C :   -0.064360
   5 S :    0.078504
   6 C :   -0.057012
   7 C :    0.036891
   8 C :    0.033681
   9 C :   -0.025986
  10 S :    0.067689
  11 C :   -0.015498
  12 C :   -0.151925
  13 S :    0.125195
  14 C :   -0.112045
  15 C :   -0.104096
  16 C :   -0.074708
  17 C :    0.099131
  18 C :    0.022444
  19 S :    0.642552
  20 O :   -0.457932
  21 O :   -0.461090
  22 C :    0.110369
  23 C :    0.016710
  24 C :    0.049743
  25 C :   -0.124354
  26 S :    0.132318
  27 C :   -0.106198
  28 C :   -0.077823
  29 C :    0.145141
  30 C :   -0.006147
  31 C :   -0.138592
  32 C :    0.206935
  33 O :   -0.197130
  34 O :   -0.308535
  35 C :    0.191423
  36 S :    0.169461
  37 C :   -0.114686
  38 S :    0.097275
  39 C :   -0.046381
  40 C :   -0.075497
  41 C :   -0.100107
  42 C :    0.089186
  43 C :    0.020225
  44 S :    0.641062
  45 O :   -0.461481
  46 O :   -0.467659
  47 C :    0.116909
  48 C :   -0.014134
  49 C :    0.001002
  50 C :   -0.020414
  51 C :   -0.015222
  52 C :    0.035530
  53 C :    0.025249
  54 C :   -0.048778
  55 S :    0.077758
  56 C :   -0.068026
  57 C :    0.030016
  58 C :    0.050586
  59 C :   -0.064989
  60 S :    0.088250
  61 C :   -0.029792
  62 H :    0.021959
  63 H :    0.023976
  64 H :   -0.009735
  65 H :   -0.010785
  66 H :   -0.012868
  67 H :   -0.009828
  68 H :   -0.007035
  69 H :    0.040732
  70 H :    0.030078
  71 H :    0.058293
  72 H :    0.061978
  73 H :    0.060023
  74 H :    0.048883
  75 H :   -0.027672
  76 H :   -0.006531
  77 H :   -0.000621
  78 H :    0.033155
  79 H :    0.033547
  80 H :    0.034728
  81 H :    0.032570
  82 H :    0.029590
  83 H :    0.058706
  84 H :    0.064580
  85 H :    0.054938
  86 H :    0.049713
  87 H :   -0.021091
  88 H :    0.010913
  89 H :   -0.018296
  90 H :   -0.014432
  91 H :   -0.013682
  92 H :   -0.012529
  93 H :   -0.012017
  94 H :    0.018906
  95 H :    0.023780
Sum of atomic charges:   -0.0000000

LOEWDIN ATOMIC CHARGES
----------------------
   0 C :   -0.070397
   1 C :   -0.140044
   2 C :   -0.026861
   3 C :   -0.027132
   4 C :   -0.173319
   5 S :    0.349787
   6 C :   -0.184391
   7 C :   -0.029047
   8 C :   -0.035149
   9 C :   -0.140593
  10 S :    0.380605
  11 C :   -0.089649
  12 C :   -0.173946
  13 S :    0.425680
  14 C :   -0.157459
  15 C :   -0.098548
  16 C :   -0.071782
  17 C :   -0.045772
  18 C :   -0.130685
  19 S :    1.160926
  20 O :   -0.522804
  21 O :   -0.522468
  22 C :   -0.128122
  23 C :   -0.050199
  24 C :   -0.035509
  25 C :   -0.167449
  26 S :    0.475502
  27 C :   -0.207760
  28 C :   -0.190895
  29 C :   -0.073350
  30 C :   -0.017887
  31 C :   -0.198780
  32 C :    0.066268
  33 O :   -0.173337
  34 O :   -0.098303
  35 C :    0.081867
  36 S :    0.432967
  37 C :   -0.183180
  38 S :    0.437416
  39 C :   -0.154644
  40 C :   -0.093521
  41 C :   -0.070114
  42 C :   -0.041408
  43 C :   -0.129865
  44 S :    1.158354
  45 O :   -0.518357
  46 O :   -0.526617
  47 C :   -0.127426
  48 C :   -0.047470
  49 C :   -0.026535
  50 C :   -0.063025
  51 C :   -0.140419
  52 C :   -0.036555
  53 C :   -0.029589
  54 C :   -0.181588
  55 S :    0.370142
  56 C :   -0.176162
  57 C :   -0.027208
  58 C :   -0.031565
  59 C :   -0.139627
  60 S :    0.357815
  61 C :   -0.076081
  62 H :    0.029768
  63 H :    0.027619
  64 H :    0.034406
  65 H :    0.032714
  66 H :    0.032295
  67 H :    0.033953
  68 H :    0.033837
  69 H :    0.035350
  70 H :    0.034220
  71 H :    0.039149
  72 H :    0.040341
  73 H :    0.043516
  74 H :    0.039091
  75 H :    0.026237
  76 H :    0.028338
  77 H :    0.033730
  78 H :    0.025399
  79 H :    0.024123
  80 H :    0.024100
  81 H :    0.021029
  82 H :    0.038769
  83 H :    0.040016
  84 H :    0.040499
  85 H :    0.042872
  86 H :    0.038217
  87 H :    0.031014
  88 H :    0.018360
  89 H :    0.032245
  90 H :    0.032912
  91 H :    0.031156
  92 H :    0.031832
  93 H :    0.033012
  94 H :    0.028145
  95 H :    0.027003

  Mayer bond orders larger than 0.100000
B(  0-C ,  1-C ) :   1.8686 B(  0-C , 62-H ) :   0.9510 B(  0-C , 63-H ) :   0.9413
B(  1-C ,  2-C ) :   1.0770 B(  1-C ,  5-S ) :   1.0062 B(  2-C ,  3-C ) :   1.6684
B(  2-C , 64-H ) :   0.9930 B(  3-C ,  4-C ) :   1.1478 B(  3-C , 65-H ) :   0.9912
B(  4-C ,  5-S ) :   1.0455 B(  4-C ,  6-C ) :   1.5697 B(  6-C ,  7-C ) :   1.1615
B(  6-C , 10-S ) :   1.0295 B(  7-C ,  8-C ) :   1.6244 B(  7-C , 66-H ) :   0.9917
B(  8-C ,  9-C ) :   1.1198 B(  8-C , 67-H ) :   0.9974 B(  9-C , 10-S ) :   1.0302
B(  9-C , 11-C ) :   1.6562 B( 11-C , 12-C ) :   1.0987 B( 11-C , 68-H ) :   0.9475
B( 12-C , 13-S ) :   1.1047 B( 12-C , 16-C ) :   1.5474 B( 13-S , 14-C ) :   1.1188
B( 14-C , 15-C ) :   1.5224 B( 14-C , 23-C ) :   1.1296 B( 15-C , 16-C ) :   1.2738
B( 15-C , 22-C ) :   1.0313 B( 16-C , 17-C ) :   1.0495 B( 17-C , 18-C ) :   1.0973
B( 17-C , 69-H ) :   0.9118 B( 17-C , 70-H ) :   0.8927 B( 18-C , 19-S ) :   0.8353
B( 18-C , 71-H ) :   0.9270 B( 18-C , 72-H ) :   0.9254 B( 19-S , 20-O ) :   1.6892
B( 19-S , 21-O ) :   1.7222 B( 19-S , 22-C ) :   0.8451 B( 22-C , 73-H ) :   0.9153
B( 22-C , 74-H ) :   0.9044 B( 23-C , 24-C ) :   1.6613 B( 23-C , 75-H ) :   0.9500
B( 24-C , 25-C ) :   1.1820 B( 24-C , 76-H ) :   0.9289 B( 25-C , 26-S ) :   1.1260
B( 25-C , 27-C ) :   0.1022 B( 25-C , 29-C ) :   1.3477 B( 26-S , 27-C ) :   1.1213
B( 27-C , 28-C ) :   1.4681 B( 27-C , 37-C ) :   1.1935 B( 28-C , 29-C ) :   1.2610
B( 28-C , 36-S ) :   1.0532 B( 29-C , 30-C ) :   1.1347 B( 30-C , 31-C ) :   1.6153
B( 30-C , 77-H ) :   0.9991 B( 31-C , 32-C ) :   0.9664 B( 31-C , 36-S ) :   1.0688
B( 32-C , 33-O ) :   2.1435 B( 32-C , 34-O ) :   1.2269 B( 34-O , 35-C ) :   0.9223
B( 35-C , 78-H ) :   0.9809 B( 35-C , 79-H ) :   0.9769 B( 35-C , 80-H ) :   0.9754
B( 37-C , 38-S ) :   1.1093 B( 37-C , 41-C ) :   1.5166 B( 38-S , 39-C ) :   1.1048
B( 39-C , 40-C ) :   1.4715 B( 39-C , 48-C ) :   1.1779 B( 40-C , 41-C ) :   1.3160
B( 40-C , 47-C ) :   1.0419 B( 41-C , 42-C ) :   1.0548 B( 42-C , 43-C ) :   1.0994
B( 42-C , 81-H ) :   0.9063 B( 42-C , 82-H ) :   0.8942 B( 43-C , 44-S ) :   0.8307
B( 43-C , 83-H ) :   0.9271 B( 43-C , 84-H ) :   0.9280 B( 44-S , 45-O ) :   1.7139
B( 44-S , 46-O ) :   1.7152 B( 44-S , 47-C ) :   0.8373 B( 47-C , 85-H ) :   0.9061
B( 47-C , 86-H ) :   0.9039 B( 48-C , 49-C ) :   1.5988 B( 48-C , 87-H ) :   0.9768
B( 49-C , 50-C ) :   1.1743 B( 49-C , 88-H ) :   0.9704 B( 50-C , 51-C ) :   1.5503
B( 50-C , 89-H ) :   0.9849 B( 51-C , 52-C ) :   1.1404 B( 51-C , 55-S ) :   1.0371
B( 52-C , 53-C ) :   1.5977 B( 52-C , 90-H ) :   0.9995 B( 53-C , 54-C ) :   1.1761
B( 53-C , 91-H ) :   0.9938 B( 54-C , 55-S ) :   1.0379 B( 54-C , 56-C ) :   1.5475
B( 56-C , 57-C ) :   1.1540 B( 56-C , 60-S ) :   1.0493 B( 57-C , 58-C ) :   1.6595
B( 57-C , 92-H ) :   0.9920 B( 58-C , 59-C ) :   1.0804 B( 58-C , 93-H ) :   0.9930
B( 59-C , 60-S ) :   1.0085 B( 59-C , 61-C ) :   1.8625 B( 61-C , 94-H ) :   0.9507
B( 61-C , 95-H ) :   0.9414

-----------------------------------------------------------------------------
         ABSORPTION SPECTRUM VIA TRANSITION ELECTRIC DIPOLE MOMENTS
-----------------------------------------------------------------------------
State   Energy  Wavelength   fosc         T2         TX        TY        TZ
        (cm-1)    (nm)                  (au**2)     (au)      (au)      (au)
-----------------------------------------------------------------------------
   0   13705.6    729.6   1.860039089  44.67869  -3.62071  -5.55269   0.85834
   1   18078.6    553.1   0.857810257  15.62076  -0.63063  -2.30812  -3.14573
   2   19153.0    522.1   0.321042862   5.51825  -0.72996  -2.15942   0.56772
   3   21429.0    466.7   0.142298052   2.18611  -0.39484   1.07748  -0.93234
   4   22435.5    445.7   0.310287325   4.55307   1.12777  -1.15607   1.39453
   5   24338.0    410.9   0.116966915   1.58217   0.19198   1.18443   0.37743
   6   25710.5    388.9   0.079977906   1.02408   0.84907  -0.44250  -0.32765
   7   26407.6    378.7   0.431524076   5.37963  -0.53595  -0.18314  -2.24919
   8   28334.2    352.9   0.133181041   1.54742   0.17513   0.81884   0.91992
   9   29519.4    338.8   0.114335785   1.27512   0.71346  -0.26326   0.83474
  10   30180.7    331.3   0.057717843   0.62959  -0.66108   0.21786  -0.38093
  11   30846.4    324.2   0.099168119   1.05839   0.31850   0.63791   0.74163
  12   31688.8    315.6   0.055477319   0.57635  -0.37864  -0.55239   0.35755
  13   32969.2    303.3   0.046632274   0.46564  -0.65479  -0.16742   0.09416
  14   33361.3    299.7   0.002993390   0.02954   0.07545  -0.14910   0.04021
  15   33897.4    295.0   0.053238152   0.51705   0.65259   0.30004   0.03397
  16   34301.6    291.5   0.005606419   0.05381  -0.10794   0.03400  -0.20249
  17   34329.5    291.3   0.000090341   0.00087  -0.01049   0.01669  -0.02186
  18   34490.3    289.9   0.033161692   0.31653   0.21119  -0.28943   0.43377
  19   35018.3    285.6   0.217934545   2.04883   0.95120  -0.39662   0.99335
  20   35264.1    283.6   0.006575009   0.06138  -0.00473  -0.24771  -0.00079
  21   35466.2    282.0   0.098679696   0.91599   0.04058  -0.57645   0.76292
  22   35727.9    279.9   0.053685715   0.49468   0.41778   0.45129   0.34130
  23   35841.0    279.0   0.090754515   0.83361  -0.42978  -0.63747   0.49247
  24   35957.1    278.1   0.209268110   1.91599   0.28049   0.62198  -1.20435
  25   36682.7    272.6   0.027206279   0.24416   0.32892  -0.25663   0.26479
  26   36795.5    271.8   0.046844982   0.41913   0.15635   0.55310  -0.29792
  27   38298.8    261.1   0.055291190   0.47528   0.50471   0.38241  -0.27260
  28   38796.7    257.8   0.065809368   0.55843  -0.27168  -0.00799  -0.69610
  29   39006.6    256.4   0.003369821   0.02844  -0.00743   0.00206  -0.16847
  30   39046.7    256.1   0.001667946   0.01406  -0.08391   0.05745  -0.06100
  31   39225.8    254.9   0.024152023   0.20270   0.24079   0.36207   0.11675
  32   39296.6    254.5   0.009039484   0.07573   0.26555  -0.02094  -0.06910
  33   39576.6    252.7   0.096740447   0.80472   0.18440   0.66376  -0.57458
  34   40043.8    249.7   0.116376169   0.95676  -0.07368  -0.51900   0.82582
  35   40278.3    248.3   0.100704767   0.82310  -0.04410  -0.77490   0.46977

FINAL SINGLE POINT ENERGY     -6202.381607696649

DIPOLE MOMENT
-------------
                                X             Y             Z
Electronic contribution:     -2.99348      -8.51337      -6.61224
Nuclear contribution   :      4.08335      10.40554      10.49581
                        -----------------------------------------
Total Dipole Moment    :      1.08987       1.89217       3.88357
                        -----------------------------------------
Magnitude (a.u.)       :      4.45536
Magnitude (Debye)      :     11.32463

Rotational constants in cm-1:     0.001506     0.000288     0.000251
Rotational constants in MHz :    45.139313     8.638248     7.526040

                             ****ORCA TERMINATED NORMALLY****
TOTAL RUN TIME: 0 days 0 hours 8 minutes 35 seconds 336 msec
