                         Program Version 4.2.0 -  RELEASE  -
|  1> # ORCA input file
|  2> # SCF done       -155.714082169362          0.000684824854
|  3> ! CAM-B3LYP def2-SVP def2/J RIJCOSX Grid4 TightSCF
|  4> %maxcore 5000
|  5> %tddft
|  6>     Mode sTDDFT
|  7>     Ethresh 5.0
|  8>     maxcore 5000
|  9> end
| 10>
| 11> %pal
| 12>   nprocs 6
| 13>   end
| 14> * xyz 0 1
| 15>    C        5.63648        -1.56177         3.15647
| 16>    C        4.41824        -1.95081         2.69374
| 17>    C        3.55638        -0.84871         2.52388
| 18>    C        4.16394         0.36588         2.87071
| 19>    S        5.77290         0.15353         3.39766
| 20>    C        3.23068         1.42223         2.67519
| 21>    C        2.03366         0.86301         2.20413
| 22>    C        2.20035        -0.58259         2.09484
| 23>    C        1.25959        -1.48263         1.68020
| 24>    C       -0.03456        -1.07893         1.29711
| 25>    N       -1.08874        -0.74860         0.98624
| 26>    C        1.51729        -2.86631         1.61308
| 27>    N        1.71984        -3.99407         1.55383
| 28>    C        1.04068         1.81352         1.98499
| 29>    C        1.46590         3.09689         2.29349
| 30>    S        3.13314         3.11972         2.85258
| 31>    C        0.69051         4.27601         2.22531
| 32>    C        1.19487         5.49743         2.60449
| 33>    C        0.28199         6.61925         2.54484
| 34>    O        0.72104         7.87784         2.78351
| 35>    C        2.12980         8.01580         2.85830
| 36>    C        2.75198         6.87395         3.64981
| 37>    O        2.47145         5.63454         3.02255
| 38>    C       -1.00788         6.30453         2.18288
| 39>   Si       -1.09774         4.48662         1.71441
| 40>    C       -1.35520         4.19081        -0.11740
| 41>    C       -2.32028         3.53579         2.76697
| 42>    C       -2.09636         7.22314         2.11290
| 43>    S       -3.30814         6.96965         0.89561
| 44>    C       -4.17943         8.36146         1.41725
| 45>    C       -3.59599         8.99759         2.46308
| 46>    C       -4.20884        10.19983         3.10186
| 47>    C       -2.39524         8.34191         2.89412
| 48>    C       -1.61227         8.64382         4.04889
| 49>    C       -1.48730         9.81789         4.71400
| 50>    C       -0.58998         9.93610         5.80449
| 51>    C       -0.38821        11.06316         6.53303
| 52>    C        0.59016        11.16691         7.55709
| 53>    C        1.72791        10.38781         7.74963
| 54>    C        2.20289         9.49842         6.78110
| 55>    N        2.62943         8.83642         5.94396
| 56>    C        2.44796        10.75004         8.92390
| 57>    C        1.86371        11.83425         9.56231
| 58>    S        0.43303        12.40373         8.79012
| 59>    S        2.69910        12.39261        10.98134
| 60>    C        3.85808        11.12998        10.73397
| 61>    C        3.61280        10.32098         9.62577
| 62>    C        4.57555         9.28462         9.53447
| 63>    C        4.51216         8.26465         8.57243
| 64>    N        4.43111         7.41125         7.80968
| 65>    C        5.53081         9.35056        10.54697
| 66>    S        5.24466        10.68328        11.64528
| 67>    C        6.63659         8.46669        10.72600
| 68>    C        7.61735         8.45850        11.72344
| 69>    O        8.46843         7.43536        11.48831
| 70>    N        8.08745         6.78154        10.38481
| 71>    C        7.02281         7.35545         9.91362
| 72>    C        7.86640         9.28766        12.87539
| 73>    O        7.19756        10.24230        13.20084
| 74>    H        6.48513        -2.17704         3.37830
| 75>    H        4.15550        -2.97242         2.48784
| 76>    H        0.04947         1.61069         1.62598
| 77>    H        2.54739         8.03825         1.84231
| 78>    H        2.31382         8.96650         3.35972
| 79>    H        2.35975         6.87616         4.67273
| 80>    H        3.83689         6.96794         3.68616
| 81>    H       -0.65342         4.75464        -0.72940
| 82>    H       -2.35590         4.47695        -0.43341
| 83>    H       -1.22946         3.14019        -0.37232
| 84>    H       -2.11585         3.63257         3.83189
| 85>    H       -2.31254         2.47263         2.53583
| 86>    H       -3.33818         3.88498         2.60342
| 87>    H       -5.08734         8.62821         0.91277
| 88>    H       -5.22142        10.34027         2.73039
| 89>    H       -3.63407        11.09532         2.86750
| 90>    H       -4.24346        10.08102         4.18322
| 91>    H       -1.02825         7.81032         4.41750
| 92>    H       -2.00799        10.70863         4.40173
| 93>    H       -0.02052         9.05071         6.05216
| 94>    H       -1.01100        11.93257         6.37050
| 95>    H        6.55755         6.98107         9.02612
| 96>    H        8.74623         8.96620        13.45609
| 97> *
| 98>
| 99>                          ****END OF INPUT****

CARTESIAN COORDINATES (ANGSTROEM)
---------------------------------
  C      5.636480   -1.561770    3.156470
  C      4.418240   -1.950810    2.693740
  C      3.556380   -0.848710    2.523880
  C      4.163940    0.365880    2.870710
  S      5.772900    0.153530    3.397660
  C      3.230680    1.422230    2.675190
  C      2.033660    0.863010    2.204130
  C      2.200350   -0.582590    2.094840
  C      1.259590   -1.482630    1.680200
  C     -0.034560   -1.078930    1.297110
  N     -1.088740   -0.748600    0.986240
  C      1.517290   -2.866310    1.613080
  N      1.719840   -3.994070    1.553830
  C      1.040680    1.813520    1.984990
  C      1.465900    3.096890    2.293490
  S      3.133140    3.119720    2.852580
  C      0.690510    4.276010    2.225310
  C      1.194870    5.497430    2.604490
  C      0.281990    6.619250    2.544840
  O      0.721040    7.877840    2.783510
  C      2.129800    8.015800    2.858300
  C      2.751980    6.873950    3.649810
  O      2.471450    5.634540    3.022550
  C     -1.007880    6.304530    2.182880
  Si    -1.097740    4.486620    1.714410
  C     -1.355200    4.190810   -0.117400
  C     -2.320280    3.535790    2.766970
  C     -2.096360    7.223140    2.112900
  S     -3.308140    6.969650    0.895610
  C     -4.179430    8.361460    1.417250
  C     -3.595990    8.997590    2.463080
  C     -4.208840   10.199830    3.101860
  C     -2.395240    8.341910    2.894120
  C     -1.612270    8.643820    4.048890
  C     -1.487300    9.817890    4.714000
  C     -0.589980    9.936100    5.804490
  C     -0.388210   11.063160    6.533030
  C      0.590160   11.166910    7.557090
  C      1.727910   10.387810    7.749630
  C      2.202890    9.498420    6.781100
  N      2.629430    8.836420    5.943960
  C      2.447960   10.750040    8.923900
  C      1.863710   11.834250    9.562310
  S      0.433030   12.403730    8.790120
  S      2.699100   12.392610   10.981340
  C      3.858080   11.129980   10.733970
  C      3.612800   10.320980    9.625770
  C      4.575550    9.284620    9.534470
  C      4.512160    8.264650    8.572430
  N      4.431110    7.411250    7.809680
  C      5.530810    9.350560   10.546970
  S      5.244660   10.683280   11.645280
  C      6.636590    8.466690   10.726000
  C      7.617350    8.458500   11.723440
  O      8.468430    7.435360   11.488310
  N      8.087450    6.781540   10.384810
  C      7.022810    7.355450    9.913620
  C      7.866400    9.287660   12.875390
  O      7.197560   10.242300   13.200840
  H      6.485130   -2.177040    3.378300
  H      4.155500   -2.972420    2.487840
  H      0.049470    1.610690    1.625980
  H      2.547390    8.038250    1.842310
  H      2.313820    8.966500    3.359720
  H      2.359750    6.876160    4.672730
  H      3.836890    6.967940    3.686160
  H     -0.653420    4.754640   -0.729400
  H     -2.355900    4.476950   -0.433410
  H     -1.229460    3.140190   -0.372320
  H     -2.115850    3.632570    3.831890
  H     -2.312540    2.472630    2.535830
  H     -3.338180    3.884980    2.603420
  H     -5.087340    8.628210    0.912770
  H     -5.221420   10.340270    2.730390
  H     -3.634070   11.095320    2.867500
  H     -4.243460   10.081020    4.183220
  H     -1.028250    7.810320    4.417500
  H     -2.007990   10.708630    4.401730
  H     -0.020520    9.050710    6.052160
  H     -1.011000   11.932570    6.370500
  H      6.557550    6.981070    9.026120
  H      8.746230    8.966200   13.456090

 Total Charge           Charge          ....    0
 Multiplicity           Mult            ....    1
 Number of Electrons    NEL             ....  458
 Basis Dimension        Dim             ....  969

ORBITAL ENERGIES
----------------

  NO   OCC          E(Eh)            E(eV)
   0   2.0000     -88.990138     -2421.5448
   1   2.0000     -88.988410     -2421.4977
   2   2.0000     -88.984410     -2421.3889
   3   2.0000     -88.969207     -2420.9752
   4   2.0000     -88.960578     -2420.7404
   5   2.0000     -88.945052     -2420.3179
   6   2.0000     -66.188371     -1801.0771
   7   2.0000     -19.339087      -526.2433
   8   2.0000     -19.260635      -524.1085
   9   2.0000     -19.256964      -524.0086
  10   2.0000     -19.248101      -523.7675
  11   2.0000     -14.486322      -394.1929
  12   2.0000     -14.420503      -392.4018
  13   2.0000     -14.414184      -392.2299
  14   2.0000     -14.412683      -392.1890
  15   2.0000     -14.411355      -392.1529
  16   2.0000     -10.392364      -282.7906
  17   2.0000     -10.364565      -282.0341
  18   2.0000     -10.349062      -281.6123
  19   2.0000     -10.345251      -281.5086
  20   2.0000     -10.342990      -281.4471
  21   2.0000     -10.338671      -281.3295
  22   2.0000     -10.337490      -281.2974
  23   2.0000     -10.336960      -281.2830
  24   2.0000     -10.335900      -281.2541
  25   2.0000     -10.335622      -281.2466
  26   2.0000     -10.335031      -281.2305
  27   2.0000     -10.332634      -281.1653
  28   2.0000     -10.328630      -281.0563
  29   2.0000     -10.327164      -281.0164
  30   2.0000     -10.323088      -280.9055
  31   2.0000     -10.320454      -280.8338
  32   2.0000     -10.317077      -280.7419
  33   2.0000     -10.316074      -280.7146
  34   2.0000     -10.315738      -280.7055
  35   2.0000     -10.313908      -280.6557
  36   2.0000     -10.313897      -280.6554
  37   2.0000     -10.311581      -280.5924
  38   2.0000     -10.311449      -280.5888
  39   2.0000     -10.300532      -280.2917
  40   2.0000     -10.299027      -280.2508
  41   2.0000     -10.298945      -280.2485
  42   2.0000     -10.292935      -280.0850
  43   2.0000     -10.287500      -279.9371
  44   2.0000     -10.283180      -279.8195
  45   2.0000     -10.280392      -279.7437
  46   2.0000     -10.280265      -279.7402
  47   2.0000     -10.278437      -279.6905
  48   2.0000     -10.278056      -279.6801
  49   2.0000     -10.277833      -279.6741
  50   2.0000     -10.274210      -279.5755
  51   2.0000     -10.273515      -279.5566
  52   2.0000     -10.268005      -279.4066
  53   2.0000     -10.267150      -279.3834
  54   2.0000     -10.264967      -279.3239
  55   2.0000     -10.253447      -279.0105
  56   2.0000     -10.252670      -278.9893
  57   2.0000     -10.242723      -278.7187
  58   2.0000     -10.240962      -278.6707
  59   2.0000      -8.083852      -219.9728
  60   2.0000      -8.083438      -219.9615
  61   2.0000      -8.079835      -219.8635
  62   2.0000      -8.064236      -219.4390
  63   2.0000      -8.054211      -219.1662
  64   2.0000      -8.040885      -218.8036
  65   2.0000      -6.053489      -164.7238
  66   2.0000      -6.053440      -164.7225
  67   2.0000      -6.049430      -164.6133
  68   2.0000      -6.049160      -164.6060
  69   2.0000      -6.048913      -164.5993
  70   2.0000      -6.045573      -164.5084
  71   2.0000      -6.045203      -164.4983
  72   2.0000      -6.044260      -164.4727
  73   2.0000      -6.041395      -164.3947
  74   2.0000      -6.033488      -164.1795
  75   2.0000      -6.029054      -164.0589
  76   2.0000      -6.026860      -163.9992
  77   2.0000      -6.023571      -163.9097
  78   2.0000      -6.019034      -163.7863
  79   2.0000      -6.016753      -163.7242
  80   2.0000      -6.010142      -163.5443
  81   2.0000      -6.005866      -163.4279
  82   2.0000      -6.003213      -163.3557
  83   2.0000      -5.354666      -145.7079
  84   2.0000      -3.718343      -101.1813
  85   2.0000      -3.716525      -101.1318
  86   2.0000      -3.715720      -101.1099
  87   2.0000      -1.280426       -34.8422
  88   2.0000      -1.185413       -32.2567
  89   2.0000      -1.161283       -31.6001
  90   2.0000      -1.147510       -31.2253
  91   2.0000      -1.044377       -28.4190
  92   2.0000      -1.021178       -27.7877
  93   2.0000      -1.015047       -27.6208
  94   2.0000      -1.004106       -27.3231
  95   2.0000      -1.003489       -27.3063
  96   2.0000      -0.991210       -26.9722
  97   2.0000      -0.990876       -26.9631
  98   2.0000      -0.984374       -26.7862
  99   2.0000      -0.976381       -26.5687
 100   2.0000      -0.971282       -26.4299
 101   2.0000      -0.958859       -26.0919
 102   2.0000      -0.938287       -25.5321
 103   2.0000      -0.927949       -25.2508
 104   2.0000      -0.923123       -25.1195
 105   2.0000      -0.911435       -24.8014
 106   2.0000      -0.897809       -24.4306
 107   2.0000      -0.888005       -24.1638
 108   2.0000      -0.876375       -23.8474
 109   2.0000      -0.866822       -23.5874
 110   2.0000      -0.861463       -23.4416
 111   2.0000      -0.846572       -23.0364
 112   2.0000      -0.835475       -22.7344
 113   2.0000      -0.833091       -22.6696
 114   2.0000      -0.831723       -22.6323
 115   2.0000      -0.828216       -22.5369
 116   2.0000      -0.817066       -22.2335
 117   2.0000      -0.795364       -21.6430
 118   2.0000      -0.788516       -21.4566
 119   2.0000      -0.778835       -21.1932
 120   2.0000      -0.773122       -21.0377
 121   2.0000      -0.764051       -20.7909
 122   2.0000      -0.760218       -20.6866
 123   2.0000      -0.754674       -20.5357
 124   2.0000      -0.747234       -20.3333
 125   2.0000      -0.728310       -19.8183
 126   2.0000      -0.725692       -19.7471
 127   2.0000      -0.720118       -19.5954
 128   2.0000      -0.711453       -19.3596
 129   2.0000      -0.697894       -18.9907
 130   2.0000      -0.686969       -18.6934
 131   2.0000      -0.684902       -18.6371
 132   2.0000      -0.669279       -18.2120
 133   2.0000      -0.665559       -18.1108
 134   2.0000      -0.657146       -17.8819
 135   2.0000      -0.653708       -17.7883
 136   2.0000      -0.647567       -17.6212
 137   2.0000      -0.641754       -17.4630
 138   2.0000      -0.634666       -17.2701
 139   2.0000      -0.629115       -17.1191
 140   2.0000      -0.625341       -17.0164
 141   2.0000      -0.619460       -16.8564
 142   2.0000      -0.611751       -16.6466
 143   2.0000      -0.605333       -16.4720
 144   2.0000      -0.602113       -16.3843
 145   2.0000      -0.597756       -16.2658
 146   2.0000      -0.595080       -16.1930
 147   2.0000      -0.590392       -16.0654
 148   2.0000      -0.579241       -15.7619
 149   2.0000      -0.570265       -15.5177
 150   2.0000      -0.559077       -15.2133
 151   2.0000      -0.555962       -15.1285
 152   2.0000      -0.549117       -14.9422
 153   2.0000      -0.544692       -14.8218
 154   2.0000      -0.543692       -14.7946
 155   2.0000      -0.534794       -14.5525
 156   2.0000      -0.532630       -14.4936
 157   2.0000      -0.528888       -14.3918
 158   2.0000      -0.526497       -14.3267
 159   2.0000      -0.523429       -14.2432
 160   2.0000      -0.520821       -14.1723
 161   2.0000      -0.517231       -14.0746
 162   2.0000      -0.516384       -14.0515
 163   2.0000      -0.510988       -13.9047
 164   2.0000      -0.508981       -13.8501
 165   2.0000      -0.507149       -13.8002
 166   2.0000      -0.504378       -13.7248
 167   2.0000      -0.500283       -13.6134
 168   2.0000      -0.498659       -13.5692
 169   2.0000      -0.492541       -13.4027
 170   2.0000      -0.487988       -13.2788
 171   2.0000      -0.486925       -13.2499
 172   2.0000      -0.485896       -13.2219
 173   2.0000      -0.484968       -13.1967
 174   2.0000      -0.481885       -13.1127
 175   2.0000      -0.478104       -13.0099
 176   2.0000      -0.473386       -12.8815
 177   2.0000      -0.471525       -12.8308
 178   2.0000      -0.469639       -12.7795
 179   2.0000      -0.468598       -12.7512
 180   2.0000      -0.466241       -12.6871
 181   2.0000      -0.465129       -12.6568
 182   2.0000      -0.463111       -12.6019
 183   2.0000      -0.460203       -12.5228
 184   2.0000      -0.456600       -12.4247
 185   2.0000      -0.454946       -12.3797
 186   2.0000      -0.453794       -12.3484
 187   2.0000      -0.451020       -12.2729
 188   2.0000      -0.449977       -12.2445
 189   2.0000      -0.449238       -12.2244
 190   2.0000      -0.446538       -12.1509
 191   2.0000      -0.444893       -12.1061
 192   2.0000      -0.441374       -12.0104
 193   2.0000      -0.440973       -11.9995
 194   2.0000      -0.438420       -11.9300
 195   2.0000      -0.434362       -11.8196
 196   2.0000      -0.431237       -11.7345
 197   2.0000      -0.427589       -11.6353
 198   2.0000      -0.424636       -11.5549
 199   2.0000      -0.421778       -11.4772
 200   2.0000      -0.421002       -11.4561
 201   2.0000      -0.418420       -11.3858
 202   2.0000      -0.414927       -11.2907
 203   2.0000      -0.410437       -11.1686
 204   2.0000      -0.408394       -11.1130
 205   2.0000      -0.405800       -11.0424
 206   2.0000      -0.399420       -10.8688
 207   2.0000      -0.394712       -10.7407
 208   2.0000      -0.394495       -10.7347
 209   2.0000      -0.393204       -10.6996
 210   2.0000      -0.388317       -10.5666
 211   2.0000      -0.385297       -10.4845
 212   2.0000      -0.378880       -10.3098
 213   2.0000      -0.377656       -10.2765
 214   2.0000      -0.373205       -10.1554
 215   2.0000      -0.371253       -10.1023
 216   2.0000      -0.361320        -9.8320
 217   2.0000      -0.359779        -9.7901
 218   2.0000      -0.349031        -9.4976
 219   2.0000      -0.335013        -9.1162
 220   2.0000      -0.326792        -8.8925
 221   2.0000      -0.324516        -8.8305
 222   2.0000      -0.309806        -8.4303
 223   2.0000      -0.303365        -8.2550
 224   2.0000      -0.300940        -8.1890
 225   2.0000      -0.290383        -7.9017
 226   2.0000      -0.274596        -7.4721
 227   2.0000      -0.252249        -6.8641
 228   2.0000      -0.219022        -5.9599
 229   0.0000      -0.082984        -2.2581
 230   0.0000      -0.078680        -2.1410
 231   0.0000      -0.058932        -1.6036
 232   0.0000      -0.030331        -0.8253
 233   0.0000      -0.019120        -0.5203

MULLIKEN ATOMIC CHARGES
-----------------------
   0 C :   -0.087935
   1 C :    0.033571
   2 C :   -0.038337
   3 C :   -0.114096
   4 S :    0.168657
   5 C :   -0.103024
   6 C :    0.034378
   7 C :    0.302265
   8 C :   -0.310667
   9 C :   -0.182786
  10 N :    0.156565
  11 C :   -0.193231
  12 N :    0.163933
  13 C :   -0.080978
  14 C :   -0.054859
  15 S :    0.190142
  16 C :   -0.183484
  17 C :    0.096397
  18 C :    0.136986
  19 O :   -0.292240
  20 C :    0.184012
  21 C :    0.183015
  22 O :   -0.313867
  23 C :   -0.251406
  24 Si:    0.457560
  25 C :   -0.177127
  26 C :   -0.173739
  27 C :   -0.106721
  28 S :    0.088807
  29 C :   -0.120705
  30 C :   -0.093506
  31 C :    0.121497
  32 C :    0.133147
  33 C :    0.005425
  34 C :   -0.021177
  35 C :    0.026442
  36 C :   -0.003772
  37 C :   -0.076004
  38 C :   -0.041530
  39 C :   -0.283142
  40 N :    0.150571
  41 C :    0.143824
  42 C :   -0.243334
  43 S :    0.167265
  44 S :    0.188598
  45 C :   -0.216243
  46 C :    0.137832
  47 C :   -0.024016
  48 C :   -0.298066
  49 N :    0.184798
  50 C :   -0.071208
  51 S :    0.213195
  52 C :   -0.044683
  53 C :    0.055630
  54 O :   -0.161821
  55 N :    0.056658
  56 C :    0.000019
  57 C :    0.170875
  58 O :   -0.181799
  59 H :    0.029067
  60 H :    0.006943
  61 H :    0.004353
  62 H :    0.023325
  63 H :    0.043225
  64 H :    0.052871
  65 H :    0.036735
  66 H :    0.052758
  67 H :    0.046888
  68 H :    0.048278
  69 H :    0.050851
  70 H :    0.049555
  71 H :    0.046375
  72 H :    0.008185
  73 H :    0.003477
  74 H :    0.033938
  75 H :    0.027981
  76 H :   -0.003172
  77 H :   -0.025175
  78 H :    0.012644
  79 H :   -0.014718
  80 H :    0.040368
  81 H :    0.018687
Sum of atomic charges:    0.0000000

LOEWDIN ATOMIC CHARGES
----------------------
   0 C :   -0.187683
   1 C :   -0.035430
   2 C :   -0.088274
   3 C :   -0.173200
   4 S :    0.467371
   5 C :   -0.204143
   6 C :   -0.072509
   7 C :    0.089871
   8 C :   -0.117288
   9 C :   -0.012376
  10 N :   -0.050766
  11 C :   -0.017054
  12 N :   -0.044116
  13 C :   -0.047280
  14 C :   -0.155675
  15 S :    0.486614
  16 C :   -0.221940
  17 C :    0.017533
  18 C :    0.036122
  19 O :   -0.078077
  20 C :    0.075377
  21 C :    0.073867
  22 O :   -0.093990
  23 C :   -0.245522
  24 Si:    0.664433
  25 C :   -0.242822
  26 C :   -0.241791
  27 C :   -0.143691
  28 S :    0.427285
  29 C :   -0.202525
  30 C :   -0.048939
  31 C :   -0.044831
  32 C :   -0.083218
  33 C :    0.033211
  34 C :   -0.057185
  35 C :    0.026780
  36 C :   -0.089455
  37 C :   -0.110647
  38 C :   -0.126501
  39 C :   -0.013552
  40 N :   -0.066000
  41 C :   -0.061614
  42 C :   -0.338932
  43 S :    0.444882
  44 S :    0.422789
  45 C :   -0.335724
  46 C :   -0.065239
  47 C :   -0.093404
  48 C :   -0.030351
  49 N :   -0.042285
  50 C :   -0.143577
  51 S :    0.510932
  52 C :   -0.060742
  53 C :   -0.029492
  54 O :    0.038389
  55 N :    0.007003
  56 C :   -0.013172
  57 C :    0.101116
  58 O :   -0.134981
  59 H :    0.024242
  60 H :    0.040533
  61 H :    0.032585
  62 H :    0.019567
  63 H :    0.034989
  64 H :    0.023964
  65 H :    0.038331
  66 H :    0.040839
  67 H :    0.032478
  68 H :    0.040492
  69 H :    0.040693
  70 H :    0.039458
  71 H :    0.038366
  72 H :    0.018944
  73 H :    0.031777
  74 H :    0.033377
  75 H :    0.034495
  76 H :    0.032355
  77 H :    0.024122
  78 H :    0.035373
  79 H :    0.027583
  80 H :    0.041342
  81 H :    0.016512

  Mayer bond orders larger than 0.100000
B(  0-C ,  1-C ) :   1.5569 B(  0-C ,  4-S ) :   1.1352 B(  0-C , 59-H ) :   0.9648
B(  1-C ,  2-C ) :   1.2685 B(  1-C , 60-H ) :   0.9966 B(  2-C ,  3-C ) :   1.4515
B(  2-C ,  7-C ) :   1.0218 B(  3-C ,  4-S ) :   1.1418 B(  3-C ,  5-C ) :   1.1849
B(  5-C ,  6-C ) :   1.4483 B(  5-C , 15-S ) :   1.0883 B(  6-C ,  7-C ) :   0.9936
B(  6-C , 13-C ) :   1.2737 B(  7-C ,  8-C ) :   1.6970 B(  8-C ,  9-C ) :   1.1355
B(  8-C , 11-C ) :   1.1297 B(  9-C , 10-N ) :   2.9917 B( 11-C , 12-N ) :   3.0044
B( 13-C , 14-C ) :   1.4278 B( 13-C , 61-H ) :   0.9932 B( 14-C , 15-S ) :   1.1026
B( 14-C , 16-C ) :   1.1818 B( 16-C , 17-C ) :   1.6214 B( 16-C , 23-C ) :   0.1022
B( 16-C , 24-Si) :   0.8721 B( 17-C , 18-C ) :   1.0331 B( 17-C , 22-O ) :   1.1426
B( 18-C , 19-O ) :   1.1724 B( 18-C , 23-C ) :   1.6826 B( 19-O , 20-C ) :   0.9278
B( 20-C , 21-C ) :   1.0831 B( 20-C , 62-H ) :   0.9429 B( 20-C , 63-H ) :   0.9467
B( 21-C , 22-O ) :   0.9076 B( 21-C , 64-H ) :   0.9369 B( 21-C , 65-H ) :   0.9501
B( 23-C , 24-Si) :   0.8636 B( 23-C , 27-C ) :   1.0930 B( 24-Si, 25-C ) :   1.0740
B( 24-Si, 26-C ) :   1.0752 B( 25-C , 66-H ) :   0.9443 B( 25-C , 67-H ) :   0.9499
B( 25-C , 68-H ) :   0.9459 B( 26-C , 69-H ) :   0.9462 B( 26-C , 70-H ) :   0.9502
B( 26-C , 71-H ) :   0.9443 B( 27-C , 28-S ) :   1.1602 B( 27-C , 32-C ) :   1.4367
B( 28-S , 29-C ) :   1.1089 B( 29-C , 30-C ) :   1.6242 B( 29-C , 72-H ) :   0.9674
B( 30-C , 31-C ) :   1.0984 B( 30-C , 32-C ) :   1.2004 B( 31-C , 73-H ) :   0.9444
B( 31-C , 74-H ) :   0.9400 B( 31-C , 75-H ) :   0.9426 B( 32-C , 33-C ) :   1.1193
B( 33-C , 34-C ) :   1.6398 B( 33-C , 76-H ) :   0.9487 B( 34-C , 35-C ) :   1.1555
B( 34-C , 77-H ) :   0.9901 B( 35-C , 36-C ) :   1.6239 B( 35-C , 78-H ) :   0.9767
B( 36-C , 37-C ) :   1.1353 B( 36-C , 79-H ) :   0.9548 B( 37-C , 38-C ) :   1.4681
B( 37-C , 43-S ) :   1.1321 B( 38-C , 39-C ) :   1.1817 B( 38-C , 41-C ) :   1.2340
B( 39-C , 40-N ) :   2.9086 B( 41-C , 42-C ) :   1.4339 B( 41-C , 46-C ) :   1.0754
B( 42-C , 43-S ) :   1.0777 B( 42-C , 44-S ) :   1.0719 B( 44-S , 45-C ) :   1.0950
B( 45-C , 46-C ) :   1.3853 B( 45-C , 51-S ) :   1.0713 B( 46-C , 47-C ) :   1.2813
B( 47-C , 48-C ) :   1.1587 B( 47-C , 50-C ) :   1.4767 B( 48-C , 49-N ) :   2.9304
B( 50-C , 51-S ) :   1.1572 B( 50-C , 52-C ) :   1.1298 B( 52-C , 53-C ) :   1.4357
B( 52-C , 56-C ) :   1.2011 B( 53-C , 54-O ) :   1.1243 B( 53-C , 57-C ) :   1.0392
B( 54-O , 55-N ) :   1.0422 B( 55-N , 56-C ) :   1.7347 B( 56-C , 80-H ) :   0.9772
B( 57-C , 58-O ) :   2.0911 B( 57-C , 81-H ) :   0.9542

-----------------------------------------------------------------------------
         ABSORPTION SPECTRUM VIA TRANSITION ELECTRIC DIPOLE MOMENTS
-----------------------------------------------------------------------------
State   Energy  Wavelength   fosc         T2         TX        TY        TZ
        (cm-1)    (nm)                  (au**2)     (au)      (au)      (au)
-----------------------------------------------------------------------------
   0   11649.2    858.4   0.094735560   2.67726   0.76206  -1.43934  -0.15756
   1   18815.8    531.5   0.733149140  12.82760   0.42468  -3.07596  -1.78485
   2   20906.2    478.3   0.000862242   0.01358   0.05379   0.03002   0.09891
   3   23074.5    433.4   0.019238288   0.27448  -0.33005   0.40169   0.06474
   4   25460.7    392.8   0.042099191   0.54435   0.52168  -0.02017   0.52134
   5   25586.6    390.8   0.559694466   7.20134   1.84541  -1.80459   0.73435
   6   26338.9    379.7   0.965079606  12.06261  -2.58072   0.23230  -2.31269
   7   28207.8    354.5   0.141972616   1.65696  -1.07006  -0.01435  -0.71535
   8   28464.8    351.3   0.179572869   2.07686   1.08889  -0.91237   0.24240
   9   31074.0    321.8   0.396825236   4.20415  -1.26060  -1.30438  -0.95583
  10   31202.7    320.5   0.003091938   0.03262  -0.07711  -0.16326  -0.00449
  11   31328.5    319.2   0.288514475   3.03182  -1.05449  -1.33645  -0.36575
  12   32247.7    310.1   0.397888648   4.06198  -1.70744  -0.73259  -0.78100
  13   32538.5    307.3   0.007504187   0.07592   0.07176   0.18714   0.18908
  14   32902.1    303.9   0.069301832   0.69342   0.68390  -0.45407   0.13973
  15   33372.0    299.7   0.001877085   0.01852  -0.10656   0.03878  -0.07522
  16   34073.3    293.5   0.051173244   0.49443   0.01136  -0.69622  -0.09787
  17   34758.3    287.7   0.022101587   0.20933  -0.20312   0.36105   0.19422
  18   35174.6    284.3   0.024025908   0.22487   0.06977   0.30050   0.36014
  19   35860.0    278.9   0.048348445   0.44386  -0.41938   0.49668  -0.14590
  20   36348.0    275.1   0.004733465   0.04287   0.18965  -0.00772  -0.08274
  21   37189.0    268.9   0.013915471   0.12319  -0.02519   0.34767   0.04096
  22   37366.7    267.6   0.038175356   0.33634  -0.13662   0.56025   0.06156
  23   37500.3    266.7   0.032818019   0.28811  -0.31210  -0.43662   0.00761
  24   37932.9    263.6   0.003274406   0.02842   0.00852  -0.01269   0.16788
  25   38694.6    258.4   0.126689389   1.07787   0.34410  -0.96829  -0.14792
  26   38885.9    257.2   0.016064634   0.13600   0.15706  -0.33111   0.04128
  27   39686.2    252.0   0.033743874   0.27992  -0.18273  -0.16528  -0.46820
  28   39718.4    251.8   0.018221564   0.15103   0.36723  -0.03023   0.12354

FINAL SINGLE POINT ENERGY     -4901.935520426029

DIPOLE MOMENT
-------------
                                X             Y             Z
Electronic contribution:     41.21651       3.36844      39.38274
Nuclear contribution   :    -40.79207       0.44891     -37.81814
                        -----------------------------------------
Total Dipole Moment    :      0.42444       3.81734       1.56460
                        -----------------------------------------
Magnitude (a.u.)       :      4.14732
Magnitude (Debye)      :     10.54164

Rotational constants in cm-1:     0.001273     0.000606     0.000425
Rotational constants in MHz :    38.169177    18.158855    12.735650

                             ****ORCA TERMINATED NORMALLY****
TOTAL RUN TIME: 0 days 0 hours 6 minutes 56 seconds 567 msec
