                         Program Version 4.2.0 -  RELEASE  -
|  1> # ORCA input file
|  2> # SCF done       -197.128447517277          0.000578147157
|  3> ! CAM-B3LYP def2-SVP def2/J RIJCOSX Grid4 TightSCF
|  4> %maxcore 5000
|  5> %tddft
|  6>     Mode sTDDFT
|  7>     Ethresh 5.0
|  8>     maxcore 5000
|  9> end
| 10>
| 11> %pal
| 12>   nprocs 6
| 13>   end
| 14> * xyz 0 1
| 15>    C       -3.72650         1.62765        -8.23686
| 16>    C       -2.46382         1.35729        -7.80220
| 17>    C       -2.15252         2.09234        -6.64335
| 18>    C       -3.21165         2.91401        -6.23244
| 19>    S       -4.57043         2.78156        -7.25957
| 20>    C       -2.81777         3.61183        -5.06109
| 21>    C       -1.50495         3.22701        -4.73086
| 22>    C       -1.03344         2.28322        -5.73913
| 23>    C        0.21555         1.74756        -5.84530
| 24>    C        1.27996         2.10675        -4.98883
| 25>    N        2.17447         2.41742        -4.34346
| 26>    C        0.54976         0.83397        -6.86800
| 27>    N        0.82205         0.08768        -7.69477
| 28>    C       -1.03899         3.81594        -3.56144
| 29>    C       -1.98578         4.66866        -3.00612
| 30>    S       -3.46849         4.73292        -3.95303
| 31>    C       -1.85036         5.41103        -1.81851
| 32>    C       -0.81763         5.31070        -0.87487
| 33>    C       -0.97812         6.21234         0.23448
| 34>    N       -0.04075         6.31273         1.17879
| 35>    C        0.99334         5.50650         1.08609
| 36>    C        2.08607         5.68843         2.07612
| 37>    O        2.10734         6.60978         2.86254
| 38>    C        3.16342         4.68521         1.99981
| 39>    C        3.20444         3.70709         1.08930
| 40>    C        2.16838         3.50153         0.06105
| 41>    O        2.18238         2.55910        -0.69987
| 42>    C        1.08391         4.51764         0.05647
| 43>    N        0.20283         4.45089        -0.91638
| 44>    C       -2.15285         6.97503         0.15839
| 45>    S       -3.00919         6.59729        -1.30512
| 46>    C       -2.61547         7.90498         1.10479
| 47>    C       -2.12169         8.08081         2.39403
| 48>    C       -2.82153         9.06110         3.08231
| 49>    C       -3.83375         9.66985         2.30562
| 50>    S       -3.95236         8.99096         0.74165
| 51>    C       -4.45243        10.67207         3.07461
| 52>    C       -3.85398        10.69780         4.35529
| 53>    C       -2.80834         9.68598         4.39695
| 54>    C       -1.99389         9.38176         5.44570
| 55>    C       -1.97651        10.13783         6.63941
| 56>    N       -1.90441        10.76874         7.59320
| 57>    C       -1.10365         8.28452         5.42112
| 58>    N       -0.42072         7.36462         5.44194
| 59>    C       -4.43086        11.62799         5.20790
| 60>    C       -5.44631        12.34234         4.57909
| 61>    S       -5.69420        11.83460         2.91172
| 62>    C       -6.22339        13.36441         5.14997
| 63>    C       -6.28374        13.72027         6.50542
| 64>    C       -7.15679        14.83558         6.75766
| 65>    N       -7.26609        15.35696         7.98177
| 66>    C       -6.60233        14.76332         8.94833
| 67>    C       -6.64834        15.39678        10.29193
| 68>    O       -7.15341        16.48072        10.48510
| 69>    C       -5.99711        14.62239        11.36388
| 70>    C       -5.36012        13.46448        11.16181
| 71>    C       -5.24589        12.81172         9.84506
| 72>    O       -4.73589        11.72261         9.69900
| 73>    C       -5.84273        13.57339         8.71767
| 74>    N       -5.66952        13.08913         7.50788
| 75>    C       -7.79375        15.30788         5.60090
| 76>    S       -7.27792        14.38723         4.22265
| 77>    C       -8.71436        16.36851         5.51442
| 78>    C       -9.30720        17.03884         6.57790
| 79>    C      -10.16930        18.03585         6.13690
| 80>    C      -10.21968        18.14554         4.73472
| 81>    S       -9.23442        16.99389         3.95312
| 82>    C      -11.08688        19.21686         4.39641
| 83>    C      -11.58657        19.78082         5.57875
| 84>    C      -11.05586        19.04323         6.71049
| 85>    C      -11.37018        19.21047         8.02633
| 86>    C      -12.24424        20.23091         8.45886
| 87>    N      -12.95186        21.06033         8.81397
| 88>    C      -10.90265        18.34861         9.04316
| 89>    N      -10.58103        17.63560         9.88062
| 90>    C      -12.46008        20.85601         5.33133
| 91>    C      -12.59916        21.08494         3.99548
| 92>    S      -11.68322        20.00240         3.00136
| 93>    H       -4.22922         1.21424        -9.08826
| 94>    H       -1.80086         0.66602        -8.28920
| 95>    H       -0.08217         3.65114        -3.09946
| 96>    H        3.94350         4.79759         2.74070
| 97>    H        4.01607         2.99238         1.06720
| 98>    H       -1.29272         7.50654         2.76664
| 99>    H       -4.16563        11.80466         6.23477
|100>    H       -6.06084        15.06533        12.34866
|101>    H       -4.89260        12.92937        11.97735
|102>    H       -9.08605        16.79053         7.60045
|103>    H      -12.95627        21.43307         6.08988
|104>    H      -13.19440        21.83729         3.51784
|105> *
|106>
|107>                          ****END OF INPUT****

CARTESIAN COORDINATES (ANGSTROEM)
---------------------------------
  C     -3.726500    1.627650   -8.236860
  C     -2.463820    1.357290   -7.802200
  C     -2.152520    2.092340   -6.643350
  C     -3.211650    2.914010   -6.232440
  S     -4.570430    2.781560   -7.259570
  C     -2.817770    3.611830   -5.061090
  C     -1.504950    3.227010   -4.730860
  C     -1.033440    2.283220   -5.739130
  C      0.215550    1.747560   -5.845300
  C      1.279960    2.106750   -4.988830
  N      2.174470    2.417420   -4.343460
  C      0.549760    0.833970   -6.868000
  N      0.822050    0.087680   -7.694770
  C     -1.038990    3.815940   -3.561440
  C     -1.985780    4.668660   -3.006120
  S     -3.468490    4.732920   -3.953030
  C     -1.850360    5.411030   -1.818510
  C     -0.817630    5.310700   -0.874870
  C     -0.978120    6.212340    0.234480
  N     -0.040750    6.312730    1.178790
  C      0.993340    5.506500    1.086090
  C      2.086070    5.688430    2.076120
  O      2.107340    6.609780    2.862540
  C      3.163420    4.685210    1.999810
  C      3.204440    3.707090    1.089300
  C      2.168380    3.501530    0.061050
  O      2.182380    2.559100   -0.699870
  C      1.083910    4.517640    0.056470
  N      0.202830    4.450890   -0.916380
  C     -2.152850    6.975030    0.158390
  S     -3.009190    6.597290   -1.305120
  C     -2.615470    7.904980    1.104790
  C     -2.121690    8.080810    2.394030
  C     -2.821530    9.061100    3.082310
  C     -3.833750    9.669850    2.305620
  S     -3.952360    8.990960    0.741650
  C     -4.452430   10.672070    3.074610
  C     -3.853980   10.697800    4.355290
  C     -2.808340    9.685980    4.396950
  C     -1.993890    9.381760    5.445700
  C     -1.976510   10.137830    6.639410
  N     -1.904410   10.768740    7.593200
  C     -1.103650    8.284520    5.421120
  N     -0.420720    7.364620    5.441940
  C     -4.430860   11.627990    5.207900
  C     -5.446310   12.342340    4.579090
  S     -5.694200   11.834600    2.911720
  C     -6.223390   13.364410    5.149970
  C     -6.283740   13.720270    6.505420
  C     -7.156790   14.835580    6.757660
  N     -7.266090   15.356960    7.981770
  C     -6.602330   14.763320    8.948330
  C     -6.648340   15.396780   10.291930
  O     -7.153410   16.480720   10.485100
  C     -5.997110   14.622390   11.363880
  C     -5.360120   13.464480   11.161810
  C     -5.245890   12.811720    9.845060
  O     -4.735890   11.722610    9.699000
  C     -5.842730   13.573390    8.717670
  N     -5.669520   13.089130    7.507880
  C     -7.793750   15.307880    5.600900
  S     -7.277920   14.387230    4.222650
  C     -8.714360   16.368510    5.514420
  C     -9.307200   17.038840    6.577900
  C    -10.169300   18.035850    6.136900
  C    -10.219680   18.145540    4.734720
  S     -9.234420   16.993890    3.953120
  C    -11.086880   19.216860    4.396410
  C    -11.586570   19.780820    5.578750
  C    -11.055860   19.043230    6.710490
  C    -11.370180   19.210470    8.026330
  C    -12.244240   20.230910    8.458860
  N    -12.951860   21.060330    8.813970
  C    -10.902650   18.348610    9.043160
  N    -10.581030   17.635600    9.880620
  C    -12.460080   20.856010    5.331330
  C    -12.599160   21.084940    3.995480
  S    -11.683220   20.002400    3.001360
  H     -4.229220    1.214240   -9.088260
  H     -1.800860    0.666020   -8.289200
  H     -0.082170    3.651140   -3.099460
  H      3.943500    4.797590    2.740700
  H      4.016070    2.992380    1.067200
  H     -1.292720    7.506540    2.766640
  H     -4.165630   11.804660    6.234770
  H     -6.060840   15.065330   12.348660
  H     -4.892600   12.929370   11.977350
  H     -9.086050   16.790530    7.600450
  H    -12.956270   21.433070    6.089880
  H    -13.194400   21.837290    3.517840

 Total Charge           Charge          ....    0
 Multiplicity           Mult            ....    1
 Number of Electrons    NEL             ....  578
 Basis Dimension        Dim             .... 1184

ORBITAL ENERGIES
----------------

  NO   OCC          E(Eh)            E(eV)
   0   2.0000     -89.001089     -2421.8428
   1   2.0000     -89.001037     -2421.8413
   2   2.0000     -88.993187     -2421.6277
   3   2.0000     -88.993023     -2421.6233
   4   2.0000     -88.992525     -2421.6097
   5   2.0000     -88.992345     -2421.6048
   6   2.0000     -88.987987     -2421.4862
   7   2.0000     -88.987813     -2421.4815
   8   2.0000     -19.223108      -523.0874
   9   2.0000     -19.223005      -523.0846
  10   2.0000     -19.222908      -523.0819
  11   2.0000     -19.222856      -523.0805
  12   2.0000     -14.448376      -393.1603
  13   2.0000     -14.448240      -393.1566
  14   2.0000     -14.448156      -393.1543
  15   2.0000     -14.448090      -393.1525
  16   2.0000     -14.427181      -392.5836
  17   2.0000     -14.427107      -392.5815
  18   2.0000     -14.423906      -392.4944
  19   2.0000     -14.423755      -392.4903
  20   2.0000     -14.423078      -392.4719
  21   2.0000     -14.422902      -392.4671
  22   2.0000     -10.371970      -282.2356
  23   2.0000     -10.371929      -282.2345
  24   2.0000     -10.371835      -282.2320
  25   2.0000     -10.371832      -282.2319
  26   2.0000     -10.363565      -282.0069
  27   2.0000     -10.361787      -281.9586
  28   2.0000     -10.361780      -281.9584
  29   2.0000     -10.347939      -281.5817
  30   2.0000     -10.347928      -281.5814
  31   2.0000     -10.347878      -281.5801
  32   2.0000     -10.339682      -281.3571
  33   2.0000     -10.339628      -281.3556
  34   2.0000     -10.339403      -281.3495
  35   2.0000     -10.339355      -281.3482
  36   2.0000     -10.338100      -281.3140
  37   2.0000     -10.338080      -281.3135
  38   2.0000     -10.337468      -281.2968
  39   2.0000     -10.337415      -281.2954
  40   2.0000     -10.334782      -281.2237
  41   2.0000     -10.334766      -281.2233
  42   2.0000     -10.334750      -281.2228
  43   2.0000     -10.334433      -281.2142
  44   2.0000     -10.334408      -281.2135
  45   2.0000     -10.334397      -281.2132
  46   2.0000     -10.332917      -281.1730
  47   2.0000     -10.332872      -281.1717
  48   2.0000     -10.331999      -281.1480
  49   2.0000     -10.331942      -281.1464
  50   2.0000     -10.330002      -281.0936
  51   2.0000     -10.329964      -281.0926
  52   2.0000     -10.329510      -281.0803
  53   2.0000     -10.329455      -281.0787
  54   2.0000     -10.327336      -281.0211
  55   2.0000     -10.327270      -281.0193
  56   2.0000     -10.322777      -280.8970
  57   2.0000     -10.322522      -280.8901
  58   2.0000     -10.322310      -280.8843
  59   2.0000     -10.322098      -280.8786
  60   2.0000     -10.312621      -280.6207
  61   2.0000     -10.312529      -280.6182
  62   2.0000     -10.305059      -280.4149
  63   2.0000     -10.305058      -280.4149
  64   2.0000     -10.304426      -280.3977
  65   2.0000     -10.304394      -280.3968
  66   2.0000     -10.304367      -280.3961
  67   2.0000     -10.304345      -280.3955
  68   2.0000     -10.301713      -280.3239
  69   2.0000     -10.301579      -280.3202
  70   2.0000     -10.299959      -280.2761
  71   2.0000     -10.299946      -280.2758
  72   2.0000     -10.298809      -280.2448
  73   2.0000     -10.298651      -280.2405
  74   2.0000     -10.297807      -280.2176
  75   2.0000     -10.297667      -280.2138
  76   2.0000     -10.297340      -280.2049
  77   2.0000     -10.297302      -280.2038
  78   2.0000      -8.095941      -220.3018
  79   2.0000      -8.095918      -220.3011
  80   2.0000      -8.087902      -220.0830
  81   2.0000      -8.087823      -220.0808
  82   2.0000      -8.087265      -220.0657
  83   2.0000      -8.087146      -220.0624
  84   2.0000      -8.082950      -219.9483
  85   2.0000      -8.082838      -219.9452
  86   2.0000      -6.065028      -165.0378
  87   2.0000      -6.064991      -165.0368
  88   2.0000      -6.060912      -164.9258
  89   2.0000      -6.060911      -164.9258
  90   2.0000      -6.058540      -164.8612
  91   2.0000      -6.058539      -164.8612
  92   2.0000      -6.057226      -164.8255
  93   2.0000      -6.057153      -164.8235
  94   2.0000      -6.056515      -164.8061
  95   2.0000      -6.056419      -164.8035
  96   2.0000      -6.053070      -164.7124
  97   2.0000      -6.053031      -164.7113
  98   2.0000      -6.052440      -164.6953
  99   2.0000      -6.052310      -164.6917
 100   2.0000      -6.052204      -164.6888
 101   2.0000      -6.052111      -164.6863
 102   2.0000      -6.050087      -164.6312
 103   2.0000      -6.050004      -164.6290
 104   2.0000      -6.049559      -164.6169
 105   2.0000      -6.049399      -164.6125
 106   2.0000      -6.047791      -164.5687
 107   2.0000      -6.047664      -164.5653
 108   2.0000      -6.045562      -164.5081
 109   2.0000      -6.045424      -164.5044
 110   2.0000      -1.140634       -31.0382
 111   2.0000      -1.140623       -31.0379
 112   2.0000      -1.135865       -30.9085
 113   2.0000      -1.135830       -30.9075
 114   2.0000      -1.100050       -29.9339
 115   2.0000      -1.099906       -29.9300
 116   2.0000      -1.045129       -28.4394
 117   2.0000      -1.042558       -28.3694
 118   2.0000      -1.042528       -28.3686
 119   2.0000      -1.027120       -27.9493
 120   2.0000      -1.026485       -27.9321
 121   2.0000      -1.018939       -27.7267
 122   2.0000      -1.018438       -27.7131
 123   2.0000      -1.016736       -27.6668
 124   2.0000      -1.015106       -27.6224
 125   2.0000      -1.010155       -27.4877
 126   2.0000      -1.002033       -27.2667
 127   2.0000      -1.001905       -27.2632
 128   2.0000      -1.000617       -27.2282
 129   2.0000      -0.996888       -27.1267
 130   2.0000      -0.990610       -26.9559
 131   2.0000      -0.984906       -26.8006
 132   2.0000      -0.957774       -26.0624
 133   2.0000      -0.953944       -25.9581
 134   2.0000      -0.952550       -25.9202
 135   2.0000      -0.936008       -25.4701
 136   2.0000      -0.935949       -25.4685
 137   2.0000      -0.919139       -25.0110
 138   2.0000      -0.911100       -24.7923
 139   2.0000      -0.905131       -24.6299
 140   2.0000      -0.881907       -23.9979
 141   2.0000      -0.878008       -23.8918
 142   2.0000      -0.874770       -23.8037
 143   2.0000      -0.874424       -23.7943
 144   2.0000      -0.866307       -23.5734
 145   2.0000      -0.862635       -23.4735
 146   2.0000      -0.855615       -23.2825
 147   2.0000      -0.852577       -23.1998
 148   2.0000      -0.851280       -23.1645
 149   2.0000      -0.850839       -23.1525
 150   2.0000      -0.817730       -22.2516
 151   2.0000      -0.803439       -21.8627
 152   2.0000      -0.800182       -21.7740
 153   2.0000      -0.792189       -21.5566
 154   2.0000      -0.790654       -21.5148
 155   2.0000      -0.790557       -21.5121
 156   2.0000      -0.776090       -21.1185
 157   2.0000      -0.775124       -21.0922
 158   2.0000      -0.774023       -21.0622
 159   2.0000      -0.768226       -20.9045
 160   2.0000      -0.751384       -20.4462
 161   2.0000      -0.742704       -20.2100
 162   2.0000      -0.741425       -20.1752
 163   2.0000      -0.714845       -19.4519
 164   2.0000      -0.699077       -19.0229
 165   2.0000      -0.698872       -19.0173
 166   2.0000      -0.694265       -18.8919
 167   2.0000      -0.686449       -18.6792
 168   2.0000      -0.685059       -18.6414
 169   2.0000      -0.684318       -18.6212
 170   2.0000      -0.676885       -18.4190
 171   2.0000      -0.676758       -18.4155
 172   2.0000      -0.674453       -18.3528
 173   2.0000      -0.667929       -18.1753
 174   2.0000      -0.664697       -18.0873
 175   2.0000      -0.659248       -17.9391
 176   2.0000      -0.653675       -17.7874
 177   2.0000      -0.650866       -17.7110
 178   2.0000      -0.630948       -17.1690
 179   2.0000      -0.630881       -17.1672
 180   2.0000      -0.622112       -16.9285
 181   2.0000      -0.621278       -16.9058
 182   2.0000      -0.620170       -16.8757
 183   2.0000      -0.614320       -16.7165
 184   2.0000      -0.611882       -16.6501
 185   2.0000      -0.611864       -16.6497
 186   2.0000      -0.608065       -16.5463
 187   2.0000      -0.604895       -16.4600
 188   2.0000      -0.595826       -16.2133
 189   2.0000      -0.595600       -16.2071
 190   2.0000      -0.574142       -15.6232
 191   2.0000      -0.572496       -15.5784
 192   2.0000      -0.566588       -15.4176
 193   2.0000      -0.565418       -15.3858
 194   2.0000      -0.561306       -15.2739
 195   2.0000      -0.560944       -15.2641
 196   2.0000      -0.558625       -15.2010
 197   2.0000      -0.557177       -15.1616
 198   2.0000      -0.555248       -15.1091
 199   2.0000      -0.555105       -15.1052
 200   2.0000      -0.546117       -14.8606
 201   2.0000      -0.544230       -14.8093
 202   2.0000      -0.544117       -14.8062
 203   2.0000      -0.533698       -14.5227
 204   2.0000      -0.526884       -14.3372
 205   2.0000      -0.524950       -14.2846
 206   2.0000      -0.522641       -14.2218
 207   2.0000      -0.521853       -14.2004
 208   2.0000      -0.520088       -14.1523
 209   2.0000      -0.517609       -14.0849
 210   2.0000      -0.516711       -14.0604
 211   2.0000      -0.512856       -13.9555
 212   2.0000      -0.504969       -13.7409
 213   2.0000      -0.503560       -13.7026
 214   2.0000      -0.502158       -13.6644
 215   2.0000      -0.501074       -13.6349
 216   2.0000      -0.498965       -13.5775
 217   2.0000      -0.497083       -13.5263
 218   2.0000      -0.496711       -13.5162
 219   2.0000      -0.495023       -13.4703
 220   2.0000      -0.494283       -13.4501
 221   2.0000      -0.492936       -13.4135
 222   2.0000      -0.491955       -13.3868
 223   2.0000      -0.489407       -13.3174
 224   2.0000      -0.489218       -13.3123
 225   2.0000      -0.487873       -13.2757
 226   2.0000      -0.485002       -13.1976
 227   2.0000      -0.482840       -13.1388
 228   2.0000      -0.480578       -13.0772
 229   2.0000      -0.478691       -13.0259
 230   2.0000      -0.476893       -12.9769
 231   2.0000      -0.476277       -12.9601
 232   2.0000      -0.469681       -12.7807
 233   2.0000      -0.468241       -12.7415
 234   2.0000      -0.467698       -12.7267
 235   2.0000      -0.457930       -12.4609
 236   2.0000      -0.457062       -12.4373
 237   2.0000      -0.456872       -12.4321
 238   2.0000      -0.454428       -12.3656
 239   2.0000      -0.452426       -12.3111
 240   2.0000      -0.452373       -12.3097
 241   2.0000      -0.451601       -12.2887
 242   2.0000      -0.451311       -12.2808
 243   2.0000      -0.449653       -12.2357
 244   2.0000      -0.446935       -12.1617
 245   2.0000      -0.444293       -12.0898
 246   2.0000      -0.444000       -12.0819
 247   2.0000      -0.442071       -12.0294
 248   2.0000      -0.437387       -11.9019
 249   2.0000      -0.436626       -11.8812
 250   2.0000      -0.435291       -11.8449
 251   2.0000      -0.434805       -11.8317
 252   2.0000      -0.434665       -11.8278
 253   2.0000      -0.433704       -11.8017
 254   2.0000      -0.433607       -11.7990
 255   2.0000      -0.433182       -11.7875
 256   2.0000      -0.431373       -11.7382
 257   2.0000      -0.421052       -11.4574
 258   2.0000      -0.420954       -11.4547
 259   2.0000      -0.419792       -11.4231
 260   2.0000      -0.412779       -11.2323
 261   2.0000      -0.408761       -11.1230
 262   2.0000      -0.406545       -11.0626
 263   2.0000      -0.406112       -11.0509
 264   2.0000      -0.405629       -11.0377
 265   2.0000      -0.388875       -10.5818
 266   2.0000      -0.380530       -10.3547
 267   2.0000      -0.369742       -10.0612
 268   2.0000      -0.368718       -10.0333
 269   2.0000      -0.368639       -10.0312
 270   2.0000      -0.361697        -9.8423
 271   2.0000      -0.361484        -9.8365
 272   2.0000      -0.354515        -9.6468
 273   2.0000      -0.350989        -9.5509
 274   2.0000      -0.349242        -9.5033
 275   2.0000      -0.346046        -9.4164
 276   2.0000      -0.345367        -9.3979
 277   2.0000      -0.342580        -9.3221
 278   2.0000      -0.342537        -9.3209
 279   2.0000      -0.339570        -9.2402
 280   2.0000      -0.334346        -9.0980
 281   2.0000      -0.334281        -9.0962
 282   2.0000      -0.321539        -8.7495
 283   2.0000      -0.319464        -8.6931
 284   2.0000      -0.319048        -8.6817
 285   2.0000      -0.311861        -8.4862
 286   2.0000      -0.288090        -7.8393
 287   2.0000      -0.254118        -6.9149
 288   2.0000      -0.227542        -6.1917
 289   0.0000      -0.119307        -3.2465
 290   0.0000      -0.104686        -2.8486
 291   0.0000      -0.099679        -2.7124
 292   0.0000      -0.088861        -2.4180
 293   0.0000      -0.088216        -2.4005

MULLIKEN ATOMIC CHARGES
-----------------------
   0 C :   -0.078348
   1 C :    0.032709
   2 C :   -0.029811
   3 C :   -0.116512
   4 S :    0.179331
   5 C :   -0.094799
   6 C :    0.022221
   7 C :    0.298099
   8 C :   -0.290739
   9 C :   -0.192874
  10 N :    0.192916
  11 C :   -0.190520
  12 N :    0.169695
  13 C :   -0.050010
  14 C :   -0.098901
  15 S :    0.172081
  16 C :   -0.112538
  17 C :    0.019754
  18 C :    0.027739
  19 N :    0.063344
  20 C :   -0.118786
  21 C :    0.140605
  22 O :   -0.098700
  23 C :   -0.010883
  24 C :   -0.010665
  25 C :    0.139697
  26 O :   -0.098154
  27 C :   -0.118974
  28 N :    0.066975
  29 C :   -0.121038
  30 S :    0.193536
  31 C :   -0.093571
  32 C :   -0.051747
  33 C :    0.027168
  34 C :   -0.095151
  35 S :    0.173133
  36 C :   -0.095170
  37 C :    0.028261
  38 C :    0.301325
  39 C :   -0.287329
  40 C :   -0.191664
  41 N :    0.190762
  42 C :   -0.194293
  43 N :    0.190549
  44 C :   -0.055277
  45 C :   -0.091943
  46 S :    0.173253
  47 C :   -0.116312
  48 C :    0.022313
  49 C :    0.021686
  50 N :    0.063655
  51 C :   -0.120371
  52 C :    0.144710
  53 O :   -0.098630
  54 C :   -0.015069
  55 C :   -0.008662
  56 C :    0.140694
  57 O :   -0.097552
  58 C :   -0.118520
  59 N :    0.063655
  60 C :   -0.112021
  61 S :    0.193561
  62 C :   -0.096164
  63 C :   -0.049764
  64 C :    0.021161
  65 C :   -0.097027
  66 S :    0.172904
  67 C :   -0.116475
  68 C :   -0.029363
  69 C :    0.300198
  70 C :   -0.290408
  71 C :   -0.190796
  72 N :    0.168752
  73 C :   -0.192770
  74 N :    0.191885
  75 C :    0.035869
  76 C :   -0.081110
  77 S :    0.178953
  78 H :    0.036707
  79 H :    0.013588
  80 H :    0.028624
  81 H :    0.020774
  82 H :    0.020859
  83 H :    0.028181
  84 H :    0.029211
  85 H :    0.019713
  86 H :    0.020109
  87 H :    0.028042
  88 H :    0.013315
  89 H :    0.037141
Sum of atomic charges:   -0.0000000

LOEWDIN ATOMIC CHARGES
----------------------
   0 C :   -0.176186
   1 C :   -0.034545
   2 C :   -0.071989
   3 C :   -0.186664
   4 S :    0.474039
   5 C :   -0.177299
   6 C :   -0.067569
   7 C :    0.078373
   8 C :   -0.095056
   9 C :   -0.022963
  10 N :   -0.016836
  11 C :   -0.015223
  12 N :   -0.033379
  13 C :   -0.006167
  14 C :   -0.187835
  15 S :    0.458014
  16 C :   -0.190660
  17 C :   -0.045042
  18 C :   -0.043361
  19 N :    0.008360
  20 C :   -0.038844
  21 C :    0.055012
  22 O :   -0.092629
  23 C :   -0.012059
  24 C :   -0.012246
  25 C :    0.054981
  26 O :   -0.092056
  27 C :   -0.038982
  28 N :    0.008641
  29 C :   -0.194117
  30 S :    0.483270
  31 C :   -0.183247
  32 C :   -0.006954
  33 C :   -0.062346
  34 C :   -0.180283
  35 S :    0.454162
  36 C :   -0.179928
  37 C :   -0.062650
  38 C :    0.073378
  39 C :   -0.084988
  40 C :   -0.021067
  41 N :   -0.015154
  42 C :   -0.020516
  43 N :   -0.016082
  44 C :   -0.007201
  45 C :   -0.183255
  46 S :    0.453997
  47 C :   -0.193998
  48 C :   -0.043652
  49 C :   -0.044827
  50 N :    0.008365
  51 C :   -0.038874
  52 C :    0.055284
  53 O :   -0.092430
  54 C :   -0.012468
  55 C :   -0.011696
  56 C :    0.054896
  57 O :   -0.092200
  58 C :   -0.038789
  59 N :    0.008063
  60 C :   -0.190724
  61 S :    0.483078
  62 C :   -0.187829
  63 C :   -0.006173
  64 C :   -0.067471
  65 C :   -0.177457
  66 S :    0.458237
  67 C :   -0.186557
  68 C :   -0.072282
  69 C :    0.078514
  70 C :   -0.095239
  71 C :   -0.015240
  72 N :   -0.033394
  73 C :   -0.022854
  74 N :   -0.017092
  75 C :   -0.034255
  76 C :   -0.176350
  77 S :    0.473968
  78 H :    0.027810
  79 H :    0.042998
  80 H :    0.044249
  81 H :    0.046417
  82 H :    0.046396
  83 H :    0.044435
  84 H :    0.044666
  85 H :    0.046235
  86 H :    0.046296
  87 H :    0.044218
  88 H :    0.042980
  89 H :    0.027897

  Mayer bond orders larger than 0.100000
B(  0-C ,  1-C ) :   1.5456 B(  0-C ,  4-S ) :   1.1498 B(  0-C , 78-H ) :   0.9642
B(  1-C ,  2-C ) :   1.2786 B(  1-C , 79-H ) :   0.9962 B(  2-C ,  3-C ) :   1.4511
B(  2-C ,  7-C ) :   1.0162 B(  3-C ,  4-S ) :   1.1300 B(  3-C ,  5-C ) :   1.1967
B(  5-C ,  6-C ) :   1.4380 B(  5-C , 15-S ) :   1.1252 B(  6-C ,  7-C ) :   0.9849
B(  6-C , 13-C ) :   1.2710 B(  7-C ,  8-C ) :   1.7166 B(  8-C ,  9-C ) :   1.1325
B(  8-C , 11-C ) :   1.1294 B(  9-C , 10-N ) :   3.0010 B( 11-C , 12-N ) :   3.0005
B( 13-C , 14-C ) :   1.4584 B( 13-C , 80-H ) :   0.9883 B( 14-C , 15-S ) :   1.0802
B( 14-C , 16-C ) :   1.1888 B( 16-C , 17-C ) :   1.3687 B( 16-C , 29-C ) :   0.1496
B( 16-C , 30-S ) :   1.1500 B( 17-C , 18-C ) :   1.1849 B( 17-C , 28-N ) :   1.4388
B( 18-C , 19-N ) :   1.4400 B( 18-C , 29-C ) :   1.3649 B( 19-N , 20-C ) :   1.7120
B( 20-C , 21-C ) :   0.8901 B( 20-C , 27-C ) :   1.0926 B( 21-C , 22-O ) :   2.2433
B( 21-C , 23-C ) :   1.0228 B( 23-C , 24-C ) :   1.6877 B( 23-C , 81-H ) :   0.9946
B( 24-C , 25-C ) :   1.0237 B( 24-C , 82-H ) :   0.9946 B( 25-C , 26-O ) :   2.2412
B( 25-C , 27-C ) :   0.8897 B( 27-C , 28-N ) :   1.7179 B( 29-C , 30-S ) :   1.1461
B( 29-C , 31-C ) :   1.1945 B( 31-C , 32-C ) :   1.4429 B( 31-C , 35-S ) :   1.0790
B( 32-C , 33-C ) :   1.2831 B( 32-C , 83-H ) :   0.9889 B( 33-C , 34-C ) :   1.4090
B( 33-C , 38-C ) :   0.9900 B( 34-C , 35-S ) :   1.1120 B( 34-C , 36-C ) :   1.2296
B( 36-C , 37-C ) :   1.4056 B( 36-C , 46-S ) :   1.1144 B( 37-C , 38-C ) :   0.9906
B( 37-C , 44-C ) :   1.2857 B( 38-C , 39-C ) :   1.7228 B( 39-C , 40-C ) :   1.1321
B( 39-C , 42-C ) :   1.1326 B( 40-C , 41-N ) :   2.9982 B( 42-C , 43-N ) :   2.9977
B( 44-C , 45-C ) :   1.4482 B( 44-C , 84-H ) :   0.9866 B( 45-C , 46-S ) :   1.0772
B( 45-C , 47-C ) :   1.1918 B( 47-C , 48-C ) :   1.3671 B( 47-C , 60-C ) :   0.1496
B( 47-C , 61-S ) :   1.1455 B( 48-C , 49-C ) :   1.1826 B( 48-C , 59-N ) :   1.4409
B( 49-C , 50-N ) :   1.4376 B( 49-C , 60-C ) :   1.3703 B( 50-N , 51-C ) :   1.7174
B( 51-C , 52-C ) :   0.8903 B( 51-C , 58-C ) :   1.0923 B( 52-C , 53-O ) :   2.2413
B( 52-C , 54-C ) :   1.0215 B( 54-C , 55-C ) :   1.6869 B( 54-C , 85-H ) :   0.9954
B( 55-C , 56-C ) :   1.0237 B( 55-C , 86-H ) :   0.9947 B( 56-C , 57-O ) :   2.2433
B( 56-C , 58-C ) :   0.8896 B( 58-C , 59-N ) :   1.7127 B( 60-C , 61-S ) :   1.1497
B( 60-C , 62-C ) :   1.1855 B( 62-C , 63-C ) :   1.4570 B( 62-C , 66-S ) :   1.0808
B( 63-C , 64-C ) :   1.2731 B( 63-C , 87-H ) :   0.9887 B( 64-C , 65-C ) :   1.4388
B( 64-C , 69-C ) :   0.9868 B( 65-C , 66-S ) :   1.1254 B( 65-C , 67-C ) :   1.1977
B( 67-C , 68-C ) :   1.4494 B( 67-C , 77-S ) :   1.1303 B( 68-C , 69-C ) :   1.0170
B( 68-C , 75-C ) :   1.2796 B( 69-C , 70-C ) :   1.7144 B( 70-C , 71-C ) :   1.1310
B( 70-C , 73-C ) :   1.1313 B( 71-C , 72-N ) :   2.9995 B( 73-C , 74-N ) :   3.0009
B( 75-C , 76-C ) :   1.5456 B( 75-C , 88-H ) :   0.9959 B( 76-C , 77-S ) :   1.1496
B( 76-C , 89-H ) :   0.9640

-----------------------------------------------------------------------------
         ABSORPTION SPECTRUM VIA TRANSITION ELECTRIC DIPOLE MOMENTS
-----------------------------------------------------------------------------
State   Energy  Wavelength   fosc         T2         TX        TY        TZ
        (cm-1)    (nm)                  (au**2)     (au)      (au)      (au)
-----------------------------------------------------------------------------
   0    8925.9   1120.3   0.869255437  32.06070   2.42446  -4.11617  -3.03971
   1   12339.2    810.4   0.195111806   5.20560  -0.86871   1.82467   1.05902
   2   12470.3    801.9   0.182959506   4.83008   1.33706  -0.34347   1.71008
   3   14066.6    710.9   0.154207222   3.60904  -0.93559   1.25611   1.07513
   4   14679.5    681.2   0.040948465   0.91834  -0.60241   0.18561  -0.72179
   5   16653.9    600.5   0.022807726   0.45086  -0.42214   0.11143  -0.51014
   6   17401.6    574.7   0.039651449   0.75015  -0.64232   0.21293   0.54058
   7   17774.0    562.6   0.156425186   2.89732  -1.03193   0.34393  -1.30925
   8   20594.0    485.6   0.048122479   0.76928   0.50748  -0.46791  -0.54112
   9   21330.9    468.8   0.007961834   0.12288  -0.22191   0.07413  -0.26103
  10   23526.6    425.1   0.043419795   0.60758  -0.48135   0.14516  -0.59566
  11   23601.4    423.7   0.121316100   1.69222  -0.39804   1.08557   0.59609
  12   23913.7    418.2   0.119776588   1.64892   0.61728  -0.86225  -0.72416
  13   24781.1    403.5   0.001503412   0.01997   0.11584  -0.00518   0.08079
  14   24793.6    403.3   0.005467392   0.07260   0.18956   0.11622  -0.15218
  15   26005.6    384.5   0.004218191   0.05340   0.16980  -0.15492   0.02377
  16   26025.6    384.2   0.154100925   1.94930  -0.50746   1.01352   0.81521
  17   26137.4    382.6   0.203304613   2.56071  -0.43449   1.13116   1.04518
  18   26156.4    382.3   0.097454247   1.22659  -0.77628   0.78481  -0.08973
  19   26507.5    377.3   0.021937577   0.27246   0.32801  -0.09717   0.39424
  20   26679.6    374.8   0.002120558   0.02617  -0.07801  -0.14171   0.00005
  21   26724.7    374.2   0.001535825   0.01892  -0.02887  -0.12848   0.03973
  22   27043.6    369.8   0.288848537   3.51626  -0.83209   1.34215   1.01120
  23   27953.7    357.7   0.451302177   5.31500   0.90528  -1.75624  -1.18790
  24   28851.5    346.6   0.348406631   3.97552   1.24661  -0.36753   1.51209
  25   29128.8    343.3   0.219954423   2.48591  -0.95370   0.34879  -1.20612
  26   29668.6    337.1   0.002340034   0.02597   0.00062   0.15347   0.04911
  27   29952.9    333.9   0.104271120   1.14604   0.65375  -0.23748   0.81380
  28   30565.1    327.2   0.339293726   3.65448  -1.30961   0.62519   1.24440
  29   30639.7    326.4   0.152723693   1.64096  -0.79357   0.28943  -0.96304
  30   30844.7    324.2   0.000075595   0.00081   0.01758  -0.01844   0.01256
  31   30866.1    324.0   0.000093540   0.00100  -0.00195   0.02854   0.01340
  32   30881.3    323.8   0.002779898   0.02964  -0.10839  -0.00415  -0.13368
  33   31512.5    317.3   0.013226673   0.13818  -0.21168   0.02976  -0.30411
  34   32264.3    309.9   0.209204907   2.13464  -0.81191   0.84490   0.87269
  35   32527.4    307.4   0.006765193   0.06847   0.13827  -0.11803  -0.18821
  36   32729.7    305.5   0.038484244   0.38709   0.34451  -0.40813  -0.31912
  37   32782.4    305.0   0.003131144   0.03144   0.04770   0.16750   0.03334
  38   33015.4    302.9   0.103233259   1.02939   0.59661  -0.21969   0.79069
  39   33134.4    301.8   0.103427874   1.02762  -0.70025   0.34247   0.64806
  40   33522.3    298.3   0.681956555   6.69728  -1.54242   0.57610  -1.99658
  41   33792.9    295.9   0.098561821   0.96019   0.75505   0.43677  -0.44646
  42   33817.5    295.7   0.012864960   0.12524   0.33882   0.02549   0.09894
  43   33963.9    294.4   0.000432465   0.00419   0.04173  -0.00632   0.04910
  44   33971.6    294.4   0.000199501   0.00193   0.03339  -0.02460  -0.01461
  45   34148.3    292.8   0.013398386   0.12917   0.23572  -0.04312   0.26786
  46   34386.2    290.8   0.025746170   0.24649   0.33594   0.30795  -0.19699
  47   34468.3    290.1   0.012610633   0.12045   0.15897  -0.23377  -0.20130
  48   34479.1    290.0   0.002566190   0.02450   0.10119  -0.06036   0.10305
  49   34591.9    289.1   0.000647190   0.00616   0.06157  -0.00949   0.04774
  50   34692.2    288.2   0.113240207   1.07459   0.33978  -0.85799  -0.47222
  51   34958.7    286.1   0.000140983   0.00133   0.01403   0.01326  -0.03090
  52   35039.9    285.4   0.001694589   0.01592  -0.10069   0.00250   0.07601
  53   35204.5    284.1   0.007499681   0.07013   0.18840  -0.02845   0.18393
  54   35468.3    281.9   0.449058721   4.16811  -1.34203   0.84828   1.28354
  55   35983.7    277.9   0.005232728   0.04787   0.18367  -0.08297   0.08518
  56   36012.3    277.7   0.032288231   0.29517   0.33372  -0.21160  -0.37286
  57   36036.0    277.5   0.012108557   0.11062  -0.07648  -0.31973  -0.05041
  58   36405.0    274.7   0.160808897   1.45420   0.70940  -0.27749   0.93485
  59   36626.9    273.0   0.283565733   2.54876  -0.96212   0.32155  -1.23276
  60   36885.4    271.1   0.055057075   0.49140   0.65272  -0.20253  -0.15600
  61   36940.9    270.7   0.332817248   2.96602  -0.97312   0.35726  -1.37529
  62   37108.8    269.5   0.042034247   0.37291  -0.19184   0.50723   0.28076
  63   37162.6    269.1   0.173874470   1.54030  -0.74901   0.26286  -0.95404
  64   37448.6    267.0   0.021128918   0.18574  -0.26095   0.08590  -0.33207
  65   37671.6    265.5   0.013140510   0.11483   0.16117  -0.23321  -0.18567
  66   37797.9    264.6   0.002198158   0.01915  -0.08630   0.02716  -0.10469
  67   37822.5    264.4   0.000118408   0.00103  -0.01047   0.01354   0.02716
  68   37977.7    263.3   0.015331175   0.13290   0.18384   0.07830   0.30491
  69   37992.7    263.2   0.025759090   0.22321  -0.14046   0.44081   0.09572
  70   38167.0    262.0   0.041108332   0.35458   0.37721  -0.15971   0.43218
  71   38264.4    261.3   0.037144556   0.31958  -0.29012   0.31562   0.36850
  72   38391.0    260.5   0.043964836   0.37701  -0.26555   0.44645   0.32738
  73   38689.4    258.5   0.031487633   0.26793  -0.31707   0.09762  -0.39733
  74   38863.5    257.3   0.024345604   0.20623   0.25914  -0.12503   0.35135
  75   38872.5    257.3   0.011456014   0.09702  -0.22069   0.02754  -0.21808
  76   38912.7    257.0   0.002062259   0.01745  -0.01316  -0.11352   0.06625
  77   38970.6    256.6   0.209356812   1.76858  -0.81504   0.27831  -1.01333
  78   39141.6    255.5   0.003613869   0.03040  -0.00041   0.02086   0.17309
  79   39152.3    255.4   0.044628164   0.37526  -0.43719   0.23148   0.36129
  80   39409.8    253.7   0.019079752   0.15938   0.29795   0.13927  -0.22631
  81   39512.3    253.1   0.028608899   0.23837   0.30885  -0.10755   0.36251
  82   39602.0    252.5   0.009752359   0.08107  -0.09623  -0.26797  -0.00131
  83   39673.4    252.1   0.000689441   0.00572   0.03007  -0.01605  -0.06752
  84   39727.1    251.7   0.072955241   0.60457  -0.48237   0.15967  -0.58855
  85   40052.2    249.7   0.095380700   0.78399   0.53326  -0.18672   0.68173
  86   40271.5    248.3   0.012474031   0.10197   0.20526  -0.07654   0.23234
  87   40319.3    248.0   0.053239423   0.43471   0.29139  -0.43220  -0.40374

FINAL SINGLE POINT ENERGY     -6170.189997443877

DIPOLE MOMENT
-------------
                                X             Y             Z
Electronic contribution:     -7.24525       2.94072      -9.65820
Nuclear contribution   :      4.58763      -1.95620       6.25545
                        -----------------------------------------
Total Dipole Moment    :     -2.65762       0.98452      -3.40275
                        -----------------------------------------
Magnitude (a.u.)       :      4.42842
Magnitude (Debye)      :     11.25615

Rotational constants in cm-1:     0.001277     0.000207     0.000181
Rotational constants in MHz :    38.297165     6.190833     5.416542

                             ****ORCA TERMINATED NORMALLY****
TOTAL RUN TIME: 0 days 0 hours 9 minutes 41 seconds 359 msec
