                         Program Version 4.2.0 -  RELEASE  -
|  1> # ORCA input file
|  2> # SCF done       -180.425639973377          0.000691692534
|  3> ! CAM-B3LYP def2-SVP def2/J RIJCOSX Grid4 TightSCF
|  4> %maxcore 5000
|  5> %tddft
|  6>     Mode sTDDFT
|  7>     Ethresh 5.0
|  8>     maxcore 5000
|  9> end
| 10>
| 11> %pal
| 12>   nprocs 6
| 13>   end
| 14> * xyz 0 1
| 15>    C        0.26923        -1.45251        -3.59232
| 16>    C       -0.32641        -0.65196        -4.51727
| 17>    C       -0.57413         0.63492        -3.99997
| 18>    C       -0.14887         0.76829        -2.67284
| 19>    S        0.54620        -0.66905        -2.06906
| 20>    C       -0.43535         2.09203        -2.23444
| 21>    C       -1.04002         2.78810        -3.28719
| 22>    C       -1.14840         1.89295        -4.43504
| 23>    C       -1.67994         2.18658        -5.65683
| 24>    C       -2.21186         3.45673        -5.96262
| 25>    N       -2.64751         4.48583        -6.21991
| 26>    C       -1.73289         1.23882        -6.70005
| 27>    N       -1.78129         0.47056        -7.55016
| 28>    C       -1.36115         4.10640        -2.95847
| 29>    C       -1.00429         4.41825        -1.66053
| 30>    S       -0.26004         3.05704        -0.83404
| 31>    C       -1.17375         5.65823        -0.99275
| 32>    C       -0.81659         5.97346         0.30200
| 33>    C       -1.13072         7.29886         0.61196
| 34>    C       -1.73195         7.99934        -0.45770
| 35>    S       -1.91171         7.00529        -1.85356
| 36>    C       -1.97408         9.29353        -0.00261
| 37>    C       -1.51363         9.34806         1.33229
| 38>    N       -1.01531         8.12550         1.69865
| 39>    C       -0.41681         7.79060         2.96021
| 40>    C       -1.68011        10.60119         1.92707
| 41>    C       -2.26427        11.50011         1.05841
| 42>    S       -2.62289        10.80377        -0.51890
| 43>    C       -2.57245        12.86315         1.29614
| 44>    C       -3.15382        13.75654         0.41735
| 45>    C       -3.29260        15.02782         0.97527
| 46>    C       -2.81415        15.10582         2.29273
| 47>    S       -2.19627        13.60926         2.84543
| 48>    C       -2.98019        16.43447         2.75693
| 49>    C       -3.56327        17.19774         1.73315
| 50>    C       -3.78638        16.33801         0.58138
| 51>    C       -4.34054        16.68663        -0.61471
| 52>    C       -4.78902        17.99715        -0.88323
| 53>    N       -5.15720        19.05943        -1.10861
| 54>    C       -4.50595        15.76056        -1.66620
| 55>    N       -4.64529        15.01349        -2.52468
| 56>    C       -3.74732        18.53527         2.08521
| 57>    C       -3.31044        18.80042         3.36863
| 58>    S       -2.66608        17.36494         4.15784
| 59>    C       -3.31544        20.04976         4.03833
| 60>    C       -2.89522        20.32216         5.32409
| 61>    C       -3.02123        21.68005         5.62619
| 62>    C       -3.53946        22.44970         4.56109
| 63>    S       -3.88302        21.47926         3.17944
| 64>    C       -3.58361        23.76901         5.00618
| 65>    C       -3.09344        23.76830         6.33200
| 66>    N       -2.75816        22.49168         6.69840
| 67>    C       -2.21521        22.06450         7.95738
| 68>    C       -3.06345        25.03903         6.91216
| 69>    C       -3.52045        26.00548         6.04032
| 70>    S       -4.00764        25.35382         4.47940
| 71>    C       -3.61464        27.40233         6.26906
| 72>    C       -4.02083        28.37522         5.37598
| 73>    C       -3.97412        29.65288         5.93685
| 74>    C       -3.53386        29.65300         7.26521
| 75>    S       -3.17218        28.08018         7.82944
| 76>    C       -3.52082        30.99588         7.73748
| 77>    C       -3.95088        31.83727         6.70453
| 78>    C       -4.24868        31.02983         5.53786
| 79>    C       -4.68504        31.45895         4.31848
| 80>    C       -4.91338        32.82268         4.04011
| 81>    N       -5.09786        33.93015         3.80612
| 82>    C       -4.93392        30.57107         3.25104
| 83>    N       -5.13953        29.85749         2.37735
| 84>    C       -3.96710        33.19318         7.08697
| 85>    C       -3.55823        33.35047         8.37511
| 86>    S       -3.14197        31.86000         9.15995
| 87>    H        0.57239        -2.47422        -3.70274
| 88>    H       -0.57222        -0.97112        -5.51354
| 89>    H       -1.82941         4.81643        -3.61601
| 90>    H       -0.35078         5.26686         0.96512
| 91>    H       -0.84717         8.41497         3.74175
| 92>    H        0.66601         7.94716         2.93878
| 93>    H       -0.61582         6.74458         3.19125
| 94>    H       -1.39398        10.86467         2.92944
| 95>    H       -3.45098        13.47815        -0.57762
| 96>    H       -4.17198        19.29254         1.45118
| 97>    H       -2.51852        19.56495         5.98784
| 98>    H       -2.12317        22.92430         8.61672
| 99>    H       -1.22824        21.61663         7.81673
|100>    H       -2.87068        21.32590         8.42514
|101>    H       -2.72670        25.27018         7.90688
|102>    H       -4.32816        28.14624         4.37154
|103>    H       -4.26260        34.00720         6.45065
|104>    H       -3.47028        34.26170         8.93179
|105> *
|106>
|107>                          ****END OF INPUT****

CARTESIAN COORDINATES (ANGSTROEM)
---------------------------------
  C      0.269230   -1.452510   -3.592320
  C     -0.326410   -0.651960   -4.517270
  C     -0.574130    0.634920   -3.999970
  C     -0.148870    0.768290   -2.672840
  S      0.546200   -0.669050   -2.069060
  C     -0.435350    2.092030   -2.234440
  C     -1.040020    2.788100   -3.287190
  C     -1.148400    1.892950   -4.435040
  C     -1.679940    2.186580   -5.656830
  C     -2.211860    3.456730   -5.962620
  N     -2.647510    4.485830   -6.219910
  C     -1.732890    1.238820   -6.700050
  N     -1.781290    0.470560   -7.550160
  C     -1.361150    4.106400   -2.958470
  C     -1.004290    4.418250   -1.660530
  S     -0.260040    3.057040   -0.834040
  C     -1.173750    5.658230   -0.992750
  C     -0.816590    5.973460    0.302000
  C     -1.130720    7.298860    0.611960
  C     -1.731950    7.999340   -0.457700
  S     -1.911710    7.005290   -1.853560
  C     -1.974080    9.293530   -0.002610
  C     -1.513630    9.348060    1.332290
  N     -1.015310    8.125500    1.698650
  C     -0.416810    7.790600    2.960210
  C     -1.680110   10.601190    1.927070
  C     -2.264270   11.500110    1.058410
  S     -2.622890   10.803770   -0.518900
  C     -2.572450   12.863150    1.296140
  C     -3.153820   13.756540    0.417350
  C     -3.292600   15.027820    0.975270
  C     -2.814150   15.105820    2.292730
  S     -2.196270   13.609260    2.845430
  C     -2.980190   16.434470    2.756930
  C     -3.563270   17.197740    1.733150
  C     -3.786380   16.338010    0.581380
  C     -4.340540   16.686630   -0.614710
  C     -4.789020   17.997150   -0.883230
  N     -5.157200   19.059430   -1.108610
  C     -4.505950   15.760560   -1.666200
  N     -4.645290   15.013490   -2.524680
  C     -3.747320   18.535270    2.085210
  C     -3.310440   18.800420    3.368630
  S     -2.666080   17.364940    4.157840
  C     -3.315440   20.049760    4.038330
  C     -2.895220   20.322160    5.324090
  C     -3.021230   21.680050    5.626190
  C     -3.539460   22.449700    4.561090
  S     -3.883020   21.479260    3.179440
  C     -3.583610   23.769010    5.006180
  C     -3.093440   23.768300    6.332000
  N     -2.758160   22.491680    6.698400
  C     -2.215210   22.064500    7.957380
  C     -3.063450   25.039030    6.912160
  C     -3.520450   26.005480    6.040320
  S     -4.007640   25.353820    4.479400
  C     -3.614640   27.402330    6.269060
  C     -4.020830   28.375220    5.375980
  C     -3.974120   29.652880    5.936850
  C     -3.533860   29.653000    7.265210
  S     -3.172180   28.080180    7.829440
  C     -3.520820   30.995880    7.737480
  C     -3.950880   31.837270    6.704530
  C     -4.248680   31.029830    5.537860
  C     -4.685040   31.458950    4.318480
  C     -4.913380   32.822680    4.040110
  N     -5.097860   33.930150    3.806120
  C     -4.933920   30.571070    3.251040
  N     -5.139530   29.857490    2.377350
  C     -3.967100   33.193180    7.086970
  C     -3.558230   33.350470    8.375110
  S     -3.141970   31.860000    9.159950
  H      0.572390   -2.474220   -3.702740
  H     -0.572220   -0.971120   -5.513540
  H     -1.829410    4.816430   -3.616010
  H     -0.350780    5.266860    0.965120
  H     -0.847170    8.414970    3.741750
  H      0.666010    7.947160    2.938780
  H     -0.615820    6.744580    3.191250
  H     -1.393980   10.864670    2.929440
  H     -3.450980   13.478150   -0.577620
  H     -4.171980   19.292540    1.451180
  H     -2.518520   19.564950    5.987840
  H     -2.123170   22.924300    8.616720
  H     -1.228240   21.616630    7.816730
  H     -2.870680   21.325900    8.425140
  H     -2.726700   25.270180    7.906880
  H     -4.328160   28.146240    4.371540
  H     -4.262600   34.007200    6.450650
  H     -3.470280   34.261700    8.931790

 Total Charge           Charge          ....    0
 Multiplicity           Mult            ....    1
 Number of Electrons    NEL             ....  558
 Basis Dimension        Dim             .... 1138

ORBITAL ENERGIES
----------------

  NO   OCC          E(Eh)            E(eV)
   0   2.0000     -88.982880     -2421.3473
   1   2.0000     -88.982807     -2421.3453
   2   2.0000     -88.982708     -2421.3426
   3   2.0000     -88.982692     -2421.3421
   4   2.0000     -88.981617     -2421.3129
   5   2.0000     -88.981545     -2421.3109
   6   2.0000     -88.958876     -2420.6941
   7   2.0000     -88.958793     -2420.6918
   8   2.0000     -88.958581     -2420.6860
   9   2.0000     -88.958570     -2420.6858
  10   2.0000     -14.470836      -393.7715
  11   2.0000     -14.470762      -393.7695
  12   2.0000     -14.423304      -392.4781
  13   2.0000     -14.423225      -392.4759
  14   2.0000     -14.423047      -392.4711
  15   2.0000     -14.422961      -392.4687
  16   2.0000     -14.422567      -392.4580
  17   2.0000     -14.422535      -392.4571
  18   2.0000     -10.357644      -281.8458
  19   2.0000     -10.356376      -281.8113
  20   2.0000     -10.356341      -281.8104
  21   2.0000     -10.344255      -281.4815
  22   2.0000     -10.343973      -281.4738
  23   2.0000     -10.343955      -281.4733
  24   2.0000     -10.327732      -281.0319
  25   2.0000     -10.327704      -281.0311
  26   2.0000     -10.323814      -280.9253
  27   2.0000     -10.323711      -280.9224
  28   2.0000     -10.323564      -280.9185
  29   2.0000     -10.323555      -280.9182
  30   2.0000     -10.323536      -280.9177
  31   2.0000     -10.323471      -280.9159
  32   2.0000     -10.323425      -280.9147
  33   2.0000     -10.323339      -280.9123
  34   2.0000     -10.323015      -280.9035
  35   2.0000     -10.322989      -280.9028
  36   2.0000     -10.321611      -280.8653
  37   2.0000     -10.321514      -280.8627
  38   2.0000     -10.320373      -280.8316
  39   2.0000     -10.320249      -280.8282
  40   2.0000     -10.319801      -280.8161
  41   2.0000     -10.319782      -280.8156
  42   2.0000     -10.313208      -280.6367
  43   2.0000     -10.313204      -280.6366
  44   2.0000     -10.313187      -280.6361
  45   2.0000     -10.313066      -280.6328
  46   2.0000     -10.311842      -280.5995
  47   2.0000     -10.310934      -280.5748
  48   2.0000     -10.310549      -280.5643
  49   2.0000     -10.309844      -280.5451
  50   2.0000     -10.305104      -280.4161
  51   2.0000     -10.305073      -280.4153
  52   2.0000     -10.295910      -280.1660
  53   2.0000     -10.295794      -280.1628
  54   2.0000     -10.295374      -280.1514
  55   2.0000     -10.295322      -280.1500
  56   2.0000     -10.294867      -280.1376
  57   2.0000     -10.294732      -280.1339
  58   2.0000     -10.294543      -280.1287
  59   2.0000     -10.294520      -280.1281
  60   2.0000     -10.291771      -280.0533
  61   2.0000     -10.291689      -280.0511
  62   2.0000     -10.291577      -280.0480
  63   2.0000     -10.291495      -280.0458
  64   2.0000     -10.291434      -280.0442
  65   2.0000     -10.291384      -280.0428
  66   2.0000     -10.291324      -280.0412
  67   2.0000     -10.291306      -280.0407
  68   2.0000     -10.287690      -279.9423
  69   2.0000     -10.287492      -279.9369
  70   2.0000     -10.287351      -279.9330
  71   2.0000     -10.287278      -279.9311
  72   2.0000      -8.077279      -219.7939
  73   2.0000      -8.077237      -219.7928
  74   2.0000      -8.077174      -219.7911
  75   2.0000      -8.077157      -219.7906
  76   2.0000      -8.076597      -219.7754
  77   2.0000      -8.076571      -219.7747
  78   2.0000      -8.053386      -219.1438
  79   2.0000      -8.053359      -219.1430
  80   2.0000      -8.053087      -219.1356
  81   2.0000      -8.053066      -219.1351
  82   2.0000      -6.046585      -164.5359
  83   2.0000      -6.046521      -164.5342
  84   2.0000      -6.046508      -164.5338
  85   2.0000      -6.046464      -164.5326
  86   2.0000      -6.045861      -164.5162
  87   2.0000      -6.045834      -164.5155
  88   2.0000      -6.042480      -164.4242
  89   2.0000      -6.042447      -164.4233
  90   2.0000      -6.042378      -164.4215
  91   2.0000      -6.042337      -164.4204
  92   2.0000      -6.041437      -164.3959
  93   2.0000      -6.041408      -164.3951
  94   2.0000      -6.039529      -164.3439
  95   2.0000      -6.039526      -164.3439
  96   2.0000      -6.039421      -164.3410
  97   2.0000      -6.039417      -164.3409
  98   2.0000      -6.039204      -164.3351
  99   2.0000      -6.039166      -164.3340
 100   2.0000      -6.023162      -163.8986
 101   2.0000      -6.023138      -163.8979
 102   2.0000      -6.022852      -163.8901
 103   2.0000      -6.022830      -163.8895
 104   2.0000      -6.019038      -163.7864
 105   2.0000      -6.019012      -163.7856
 106   2.0000      -6.018762      -163.7788
 107   2.0000      -6.018741      -163.7783
 108   2.0000      -6.014647      -163.6669
 109   2.0000      -6.014601      -163.6656
 110   2.0000      -6.014365      -163.6592
 111   2.0000      -6.014365      -163.6592
 112   2.0000      -1.096904       -29.8483
 113   2.0000      -1.096835       -29.8464
 114   2.0000      -1.036553       -28.2060
 115   2.0000      -1.035685       -28.1824
 116   2.0000      -1.035640       -28.1812
 117   2.0000      -1.014970       -27.6187
 118   2.0000      -1.014394       -27.6031
 119   2.0000      -1.014323       -27.6011
 120   2.0000      -1.001012       -27.2389
 121   2.0000      -1.000450       -27.2236
 122   2.0000      -1.000384       -27.2218
 123   2.0000      -0.996825       -27.1250
 124   2.0000      -0.992953       -27.0196
 125   2.0000      -0.992900       -27.0182
 126   2.0000      -0.980325       -26.6760
 127   2.0000      -0.972679       -26.4679
 128   2.0000      -0.972276       -26.4570
 129   2.0000      -0.967497       -26.3269
 130   2.0000      -0.948659       -25.8143
 131   2.0000      -0.947644       -25.7867
 132   2.0000      -0.946943       -25.7676
 133   2.0000      -0.910877       -24.7862
 134   2.0000      -0.905443       -24.6384
 135   2.0000      -0.901824       -24.5399
 136   2.0000      -0.888134       -24.1674
 137   2.0000      -0.882030       -24.0013
 138   2.0000      -0.863670       -23.5016
 139   2.0000      -0.860524       -23.4161
 140   2.0000      -0.858082       -23.3496
 141   2.0000      -0.851733       -23.1768
 142   2.0000      -0.847873       -23.0718
 143   2.0000      -0.847783       -23.0693
 144   2.0000      -0.841377       -22.8950
 145   2.0000      -0.840715       -22.8770
 146   2.0000      -0.837300       -22.7841
 147   2.0000      -0.837235       -22.7823
 148   2.0000      -0.829081       -22.5605
 149   2.0000      -0.819281       -22.2938
 150   2.0000      -0.807459       -21.9721
 151   2.0000      -0.789097       -21.4724
 152   2.0000      -0.772170       -21.0118
 153   2.0000      -0.770378       -20.9630
 154   2.0000      -0.768954       -20.9243
 155   2.0000      -0.767137       -20.8749
 156   2.0000      -0.762878       -20.7590
 157   2.0000      -0.756088       -20.5742
 158   2.0000      -0.736821       -20.0499
 159   2.0000      -0.720593       -19.6083
 160   2.0000      -0.706097       -19.2139
 161   2.0000      -0.697152       -18.9705
 162   2.0000      -0.695210       -18.9176
 163   2.0000      -0.694811       -18.9068
 164   2.0000      -0.676675       -18.4133
 165   2.0000      -0.676001       -18.3949
 166   2.0000      -0.673107       -18.3162
 167   2.0000      -0.672720       -18.3056
 168   2.0000      -0.656080       -17.8528
 169   2.0000      -0.654583       -17.8121
 170   2.0000      -0.648899       -17.6574
 171   2.0000      -0.648454       -17.6453
 172   2.0000      -0.645414       -17.5626
 173   2.0000      -0.644669       -17.5423
 174   2.0000      -0.624250       -16.9867
 175   2.0000      -0.622654       -16.9433
 176   2.0000      -0.617855       -16.8127
 177   2.0000      -0.611973       -16.6526
 178   2.0000      -0.611843       -16.6491
 179   2.0000      -0.610024       -16.5996
 180   2.0000      -0.608623       -16.5615
 181   2.0000      -0.607319       -16.5260
 182   2.0000      -0.606141       -16.4939
 183   2.0000      -0.600709       -16.3461
 184   2.0000      -0.592132       -16.1127
 185   2.0000      -0.591016       -16.0823
 186   2.0000      -0.570359       -15.5202
 187   2.0000      -0.570328       -15.5194
 188   2.0000      -0.568519       -15.4702
 189   2.0000      -0.566807       -15.4236
 190   2.0000      -0.563307       -15.3284
 191   2.0000      -0.556417       -15.1409
 192   2.0000      -0.550124       -14.9696
 193   2.0000      -0.539677       -14.6854
 194   2.0000      -0.538289       -14.6476
 195   2.0000      -0.538247       -14.6465
 196   2.0000      -0.532510       -14.4903
 197   2.0000      -0.525737       -14.3060
 198   2.0000      -0.525076       -14.2880
 199   2.0000      -0.520017       -14.1504
 200   2.0000      -0.516664       -14.0591
 201   2.0000      -0.511528       -13.9194
 202   2.0000      -0.507216       -13.8020
 203   2.0000      -0.506536       -13.7835
 204   2.0000      -0.502291       -13.6680
 205   2.0000      -0.501734       -13.6529
 206   2.0000      -0.499456       -13.5909
 207   2.0000      -0.499300       -13.5867
 208   2.0000      -0.497800       -13.5458
 209   2.0000      -0.495253       -13.4765
 210   2.0000      -0.493678       -13.4337
 211   2.0000      -0.489631       -13.3235
 212   2.0000      -0.489106       -13.3093
 213   2.0000      -0.487056       -13.2535
 214   2.0000      -0.485565       -13.2129
 215   2.0000      -0.483053       -13.1445
 216   2.0000      -0.480867       -13.0851
 217   2.0000      -0.480189       -13.0666
 218   2.0000      -0.479230       -13.0405
 219   2.0000      -0.475474       -12.9383
 220   2.0000      -0.474896       -12.9226
 221   2.0000      -0.473366       -12.8809
 222   2.0000      -0.473268       -12.8783
 223   2.0000      -0.469896       -12.7865
 224   2.0000      -0.466431       -12.6922
 225   2.0000      -0.461726       -12.5642
 226   2.0000      -0.459455       -12.5024
 227   2.0000      -0.457393       -12.4463
 228   2.0000      -0.454378       -12.3643
 229   2.0000      -0.454303       -12.3622
 230   2.0000      -0.454236       -12.3604
 231   2.0000      -0.450471       -12.2579
 232   2.0000      -0.450286       -12.2529
 233   2.0000      -0.450247       -12.2518
 234   2.0000      -0.449142       -12.2218
 235   2.0000      -0.448011       -12.1910
 236   2.0000      -0.443726       -12.0744
 237   2.0000      -0.438817       -11.9408
 238   2.0000      -0.435860       -11.8604
 239   2.0000      -0.433519       -11.7967
 240   2.0000      -0.433299       -11.7907
 241   2.0000      -0.433099       -11.7852
 242   2.0000      -0.432836       -11.7781
 243   2.0000      -0.432268       -11.7626
 244   2.0000      -0.431819       -11.7504
 245   2.0000      -0.431649       -11.7458
 246   2.0000      -0.431265       -11.7353
 247   2.0000      -0.427824       -11.6417
 248   2.0000      -0.424061       -11.5393
 249   2.0000      -0.421844       -11.4790
 250   2.0000      -0.419784       -11.4229
 251   2.0000      -0.417543       -11.3619
 252   2.0000      -0.416455       -11.3323
 253   2.0000      -0.416230       -11.3262
 254   2.0000      -0.412470       -11.2239
 255   2.0000      -0.411978       -11.2105
 256   2.0000      -0.402623       -10.9559
 257   2.0000      -0.400746       -10.9048
 258   2.0000      -0.399580       -10.8731
 259   2.0000      -0.381115       -10.3707
 260   2.0000      -0.376642       -10.2490
 261   2.0000      -0.369241       -10.0475
 262   2.0000      -0.353024        -9.6063
 263   2.0000      -0.343108        -9.3365
 264   2.0000      -0.340927        -9.2771
 265   2.0000      -0.340731        -9.2718
 266   2.0000      -0.335254        -9.1227
 267   2.0000      -0.331938        -9.0325
 268   2.0000      -0.330947        -9.0055
 269   2.0000      -0.315617        -8.5884
 270   2.0000      -0.314955        -8.5704
 271   2.0000      -0.314107        -8.5473
 272   2.0000      -0.305816        -8.3217
 273   2.0000      -0.285156        -7.7595
 274   2.0000      -0.278747        -7.5851
 275   2.0000      -0.276178        -7.5152
 276   2.0000      -0.262073        -7.1314
 277   2.0000      -0.233833        -6.3629
 278   2.0000      -0.215954        -5.8764
 279   0.0000      -0.099125        -2.6973
 280   0.0000      -0.095371        -2.5952
 281   0.0000      -0.094589        -2.5739
 282   0.0000      -0.049843        -1.3563
 283   0.0000      -0.037421        -1.0183

MULLIKEN ATOMIC CHARGES
-----------------------
   0 C :   -0.085401
   1 C :    0.040691
   2 C :   -0.036589
   3 C :   -0.115519
   4 S :    0.172378
   5 C :   -0.105178
   6 C :    0.019346
   7 C :    0.297374
   8 C :   -0.304053
   9 C :   -0.189982
  10 N :    0.176494
  11 C :   -0.189524
  12 N :    0.173037
  13 C :   -0.071208
  14 C :   -0.043955
  15 S :    0.166682
  16 C :   -0.050749
  17 C :   -0.119114
  18 C :    0.157770
  19 C :   -0.114548
  20 S :    0.146781
  21 C :   -0.118045
  22 C :    0.156732
  23 N :   -0.165768
  24 C :    0.126358
  25 C :   -0.117766
  26 C :   -0.052714
  27 S :    0.145812
  28 C :   -0.044076
  29 C :   -0.067544
  30 C :    0.013634
  31 C :   -0.101658
  32 S :    0.165315
  33 C :   -0.101032
  34 C :    0.014971
  35 C :    0.302031
  36 C :   -0.302162
  37 C :   -0.191383
  38 N :    0.178507
  39 C :   -0.188602
  40 N :    0.175619
  41 C :   -0.068182
  42 C :   -0.043877
  43 S :    0.165451
  44 C :   -0.051822
  45 C :   -0.114974
  46 C :    0.157646
  47 C :   -0.112340
  48 S :    0.145388
  49 C :   -0.121682
  50 C :    0.157886
  51 N :   -0.169553
  52 C :    0.129181
  53 C :   -0.117243
  54 C :   -0.052597
  55 S :    0.147470
  56 C :   -0.046443
  57 C :   -0.065613
  58 C :    0.015530
  59 C :   -0.106664
  60 S :    0.166558
  61 C :   -0.114097
  62 C :   -0.036544
  63 C :    0.298048
  64 C :   -0.298934
  65 C :   -0.191962
  66 N :    0.172393
  67 C :   -0.189973
  68 N :    0.174556
  69 C :    0.041449
  70 C :   -0.086037
  71 S :    0.172218
  72 H :    0.033082
  73 H :    0.010120
  74 H :    0.014714
  75 H :   -0.023157
  76 H :    0.038569
  77 H :    0.043745
  78 H :    0.039433
  79 H :   -0.023921
  80 H :    0.014407
  81 H :    0.014378
  82 H :   -0.024924
  83 H :    0.037860
  84 H :    0.039526
  85 H :    0.041634
  86 H :   -0.021707
  87 H :    0.014198
  88 H :    0.010496
  89 H :    0.033347
Sum of atomic charges:   -0.0000000

LOEWDIN ATOMIC CHARGES
----------------------
   0 C :   -0.182098
   1 C :   -0.033820
   2 C :   -0.081561
   3 C :   -0.180658
   4 S :    0.469926
   5 C :   -0.188211
   6 C :   -0.067314
   7 C :    0.084267
   8 C :   -0.104666
   9 C :   -0.017367
  10 N :   -0.033437
  11 C :   -0.016263
  12 N :   -0.035747
  13 C :   -0.042192
  14 C :   -0.173368
  15 S :    0.464126
  16 C :   -0.177368
  17 C :   -0.084407
  18 C :   -0.018488
  19 C :   -0.219926
  20 S :    0.426793
  21 C :   -0.220912
  22 C :   -0.017548
  23 N :    0.027270
  24 C :    0.039905
  25 C :   -0.085489
  26 C :   -0.176280
  27 S :    0.426249
  28 C :   -0.175197
  29 C :   -0.040645
  30 C :   -0.070362
  31 C :   -0.183857
  32 S :    0.460314
  33 C :   -0.183869
  34 C :   -0.070343
  35 C :    0.083545
  36 C :   -0.101242
  37 C :   -0.016993
  38 N :   -0.031667
  39 C :   -0.016863
  40 N :   -0.031786
  41 C :   -0.040892
  42 C :   -0.175040
  43 S :    0.460340
  44 C :   -0.176471
  45 C :   -0.084912
  46 C :   -0.019110
  47 C :   -0.218929
  48 S :    0.426672
  49 C :   -0.222206
  50 C :   -0.016752
  51 N :    0.027183
  52 C :    0.039929
  53 C :   -0.084699
  54 C :   -0.177237
  55 S :    0.426151
  56 C :   -0.173446
  57 C :   -0.041646
  58 C :   -0.067378
  59 C :   -0.188381
  60 S :    0.463995
  61 C :   -0.180553
  62 C :   -0.081557
  63 C :    0.084260
  64 C :   -0.104470
  65 C :   -0.016386
  66 N :   -0.035656
  67 C :   -0.017419
  68 N :   -0.033387
  69 C :   -0.033814
  70 C :   -0.182138
  71 S :    0.469796
  72 H :    0.026275
  73 H :    0.041924
  74 H :    0.036090
  75 H :    0.024052
  76 H :    0.034351
  77 H :    0.029289
  78 H :    0.033915
  79 H :    0.023698
  80 H :    0.036051
  81 H :    0.036120
  82 H :    0.024480
  83 H :    0.036018
  84 H :    0.030542
  85 H :    0.031153
  86 H :    0.023344
  87 H :    0.036063
  88 H :    0.042067
  89 H :    0.026271

  Mayer bond orders larger than 0.100000
B(  0-C ,  1-C ) :   1.5538 B(  0-C ,  4-S ) :   1.1426 B(  0-C , 72-H ) :   0.9643
B(  1-C ,  2-C ) :   1.2745 B(  1-C , 73-H ) :   0.9951 B(  2-C ,  3-C ) :   1.4587
B(  2-C ,  7-C ) :   1.0186 B(  3-C ,  4-S ) :   1.1363 B(  3-C ,  5-C ) :   1.1822
B(  5-C ,  6-C ) :   1.4698 B(  5-C , 15-S ) :   1.1100 B(  6-C ,  7-C ) :   0.9902
B(  6-C , 13-C ) :   1.2885 B(  7-C ,  8-C ) :   1.7104 B(  8-C ,  9-C ) :   1.1355
B(  8-C , 11-C ) :   1.1304 B(  9-C , 10-N ) :   2.9937 B( 11-C , 12-N ) :   3.0039
B( 13-C , 14-C ) :   1.4679 B( 13-C , 74-H ) :   0.9884 B( 14-C , 15-S ) :   1.1072
B( 14-C , 16-C ) :   1.1708 B( 16-C , 17-C ) :   1.4799 B( 16-C , 20-S ) :   1.1000
B( 17-C , 18-C ) :   1.2332 B( 17-C , 75-H ) :   1.0019 B( 18-C , 19-C ) :   1.3978
B( 18-C , 23-N ) :   1.1483 B( 19-C , 20-S ) :   1.0301 B( 19-C , 21-C ) :   1.3906
B( 21-C , 22-C ) :   1.4000 B( 21-C , 27-S ) :   1.0289 B( 22-C , 23-N ) :   1.1470
B( 22-C , 25-C ) :   1.2310 B( 23-N , 24-C ) :   0.9707 B( 24-C , 76-H ) :   0.9722
B( 24-C , 77-H ) :   0.9733 B( 24-C , 78-H ) :   0.9721 B( 25-C , 26-C ) :   1.4796
B( 25-C , 79-H ) :   1.0016 B( 26-C , 27-S ) :   1.1001 B( 26-C , 28-C ) :   1.1755
B( 28-C , 29-C ) :   1.4651 B( 28-C , 32-S ) :   1.0993 B( 29-C , 30-C ) :   1.2895
B( 29-C , 80-H ) :   0.9875 B( 30-C , 31-C ) :   1.4536 B( 30-C , 35-C ) :   0.9934
B( 31-C , 32-S ) :   1.1078 B( 31-C , 33-C ) :   1.1887 B( 33-C , 34-C ) :   1.4523
B( 33-C , 43-S ) :   1.1078 B( 34-C , 35-C ) :   0.9934 B( 34-C , 41-C ) :   1.2904
B( 35-C , 36-C ) :   1.7153 B( 36-C , 37-C ) :   1.1351 B( 36-C , 39-C ) :   1.1329
B( 37-C , 38-N ) :   2.9944 B( 39-C , 40-N ) :   2.9938 B( 41-C , 42-C ) :   1.4644
B( 41-C , 81-H ) :   0.9877 B( 42-C , 43-S ) :   1.0996 B( 42-C , 44-C ) :   1.1760
B( 44-C , 45-C ) :   1.4741 B( 44-C , 48-S ) :   1.0997 B( 45-C , 46-C ) :   1.2334
B( 45-C , 82-H ) :   1.0038 B( 46-C , 47-C ) :   1.3977 B( 46-C , 51-N ) :   1.1488
B( 47-C , 48-S ) :   1.0303 B( 47-C , 49-C ) :   1.3908 B( 49-C , 50-C ) :   1.3976
B( 49-C , 55-S ) :   1.0286 B( 50-C , 51-N ) :   1.1452 B( 50-C , 53-C ) :   1.2325
B( 51-N , 52-C ) :   0.9718 B( 52-C , 83-H ) :   0.9741 B( 52-C , 84-H ) :   0.9718
B( 52-C , 85-H ) :   0.9719 B( 53-C , 54-C ) :   1.4850 B( 53-C , 86-H ) :   0.9988
B( 54-C , 55-S ) :   1.1004 B( 54-C , 56-C ) :   1.1692 B( 56-C , 57-C ) :   1.4684
B( 56-C , 60-S ) :   1.1072 B( 57-C , 58-C ) :   1.2882 B( 57-C , 87-H ) :   0.9884
B( 58-C , 59-C ) :   1.4703 B( 58-C , 63-C ) :   0.9892 B( 59-C , 60-S ) :   1.1097
B( 59-C , 61-C ) :   1.1821 B( 61-C , 62-C ) :   1.4578 B( 61-C , 71-S ) :   1.1362
B( 62-C , 63-C ) :   1.0187 B( 62-C , 69-C ) :   1.2747 B( 63-C , 64-C ) :   1.7106
B( 64-C , 65-C ) :   1.1305 B( 64-C , 67-C ) :   1.1339 B( 65-C , 66-N ) :   3.0032
B( 67-C , 68-N ) :   2.9931 B( 69-C , 70-C ) :   1.5527 B( 69-C , 88-H ) :   0.9955
B( 70-C , 71-S ) :   1.1424 B( 70-C , 89-H ) :   0.9647

-----------------------------------------------------------------------------
         ABSORPTION SPECTRUM VIA TRANSITION ELECTRIC DIPOLE MOMENTS
-----------------------------------------------------------------------------
State   Energy  Wavelength   fosc         T2         TX        TY        TZ
        (cm-1)    (nm)                  (au**2)     (au)      (au)      (au)
-----------------------------------------------------------------------------
   0    9445.9   1058.7   0.317325290  11.05954  -0.35842   3.12447   1.08111
   1   12103.7    826.2   0.262533732   7.14072   0.26415  -2.51548  -0.86214
   2   12169.1    821.8   0.001894429   0.05125  -0.18042  -0.10265   0.09033
   3   17170.4    582.4   0.000873682   0.01675  -0.12756  -0.01077   0.01909
   4   20112.4    497.2   1.329213044  21.75735  -0.48923   4.38534   1.51222
   5   20609.7    485.2   0.000737426   0.01178   0.10360  -0.02026   0.02522
   6   21610.6    462.7   1.695151342  25.82358   0.52233  -4.77902  -1.64673
   7   23370.0    427.9   0.714847599  10.07002   0.32824  -2.98431  -1.02771
   8   24551.2    407.3   0.009483005   0.12716   0.35276   0.03614  -0.03761
   9   24884.0    401.9   0.000241438   0.00319  -0.00073  -0.05229  -0.02142
  10   25128.6    398.0   0.003546710   0.04647  -0.20846   0.01930  -0.05135
  11   25440.8    393.1   0.008972344   0.11611  -0.28978  -0.07337   0.16355
  12   25618.1    390.3   0.001654610   0.02126  -0.01627   0.13416   0.05476
  13   26030.4    384.2   0.001271094   0.01608   0.07911   0.05265   0.08393
  14   26164.5    382.2   0.017233314   0.21684   0.05496  -0.44443  -0.12768
  15   29382.4    340.3   0.000667842   0.00748   0.07553   0.00328   0.04203
  16   29631.4    337.5   0.000149259   0.00166   0.03755   0.01322  -0.00859
  17   29969.5    333.7   0.404917891   4.44799  -0.13163   1.99523   0.67062
  18   31228.5    320.2   0.000141801   0.00149  -0.00989   0.03732   0.00212
  19   31310.3    319.4   0.022448019   0.23603  -0.16048   0.13153  -0.43929
  20   31740.5    315.1   0.819532317   8.50019   1.10011  -0.74895   2.59403
  21   32278.9    309.8   0.083425734   0.85086  -0.23319   0.88940   0.07377
  22   32336.5    309.2   1.027002972  10.45573   1.11640  -0.64463   2.96544
  23   32388.6    308.8   0.119616073   1.21583  -0.50569   0.82287  -0.53196
  24   32677.7    306.0   0.002417844   0.02436  -0.07122   0.12091   0.06832
  25   33261.8    300.6   0.536328699   5.30836  -0.93968   0.59891  -2.01660
  26   33875.8    295.2   0.055894304   0.54319  -0.23483   0.20551  -0.66770
  27   34149.0    292.8   0.067142321   0.64728  -0.07741   0.77624   0.19683
  28   34694.0    288.2   0.009536592   0.09049   0.03558   0.27027  -0.12720
  29   34734.1    287.9   0.250377591   2.37310   0.15313  -1.44093  -0.52284
  30   34769.0    287.6   0.003495297   0.03310   0.01990  -0.18081  -0.00248
  31   34956.3    286.1   0.013378752   0.12600   0.02030   0.35131  -0.04656
  32   34969.0    286.0   0.028117089   0.26471   0.03580  -0.43574  -0.27121
  33   36001.6    277.8   0.000380830   0.00348  -0.04679   0.01553   0.03243
  34   36591.3    273.3   0.176009719   1.58356   0.37515  -0.37866   1.13993
  35   36628.6    273.0   0.001931011   0.01736   0.02477   0.02674  -0.12660
  36   36665.8    272.7   0.003058932   0.02747  -0.00074   0.12119   0.11303
  37   37530.4    266.5   0.006955993   0.06102  -0.07003  -0.03676  -0.23401
  38   37593.5    266.0   0.015063166   0.13191   0.13807  -0.15264   0.29925
  39   38367.4    260.6   0.003064563   0.02630   0.11353  -0.01662   0.11459
  40   38483.6    259.9   0.072438723   0.61968  -0.29824   0.20374  -0.69945
  41   38553.9    259.4   0.002601196   0.02221  -0.03237   0.11229  -0.09249
  42   39404.4    253.8   0.004659785   0.03893  -0.07931   0.03063  -0.17805
  43   39591.3    252.6   0.020242756   0.16832  -0.04543   0.38499   0.13434
  44   39856.2    250.9   0.048753090   0.40270  -0.05959   0.60117   0.19429
  45   39970.3    250.2   0.013842940   0.11402   0.14019  -0.08376   0.29555
  46   40178.1    248.9   0.049259578   0.40362   0.27984  -0.14821   0.55077

FINAL SINGLE POINT ENERGY     -6483.925663607803

DIPOLE MOMENT
-------------
                                X             Y             Z
Electronic contribution:     -8.04720       5.34986     -17.95977
Nuclear contribution   :     11.24146      -7.52363      25.39446
                        -----------------------------------------
Total Dipole Moment    :      3.19425      -2.17377       7.43469
                        -----------------------------------------
Magnitude (a.u.)       :      8.37873
Magnitude (Debye)      :     21.29704

Rotational constants in cm-1:     0.003446     0.000119     0.000116
Rotational constants in MHz :   103.311410     3.582081     3.472449

                             ****ORCA TERMINATED NORMALLY****
TOTAL RUN TIME: 0 days 0 hours 8 minutes 59 seconds 337 msec
