                         Program Version 4.2.0 -  RELEASE  -
|  1> # ORCA input file
|  2> # SCF done       -168.456087972177          0.000655065253
|  3> ! CAM-B3LYP def2-SVP def2/J RIJCOSX Grid4 TightSCF
|  4> %maxcore 5000
|  5> %tddft
|  6>     Mode sTDDFT
|  7>     Ethresh 5.0
|  8>     maxcore 5000
|  9> end
| 10>
| 11> %pal
| 12>   nprocs 6
| 13>   end
| 14> * xyz 0 1
| 15>    C       -1.26009        -3.05815        -0.31681
| 16>    C       -1.48554        -2.64167         0.96005
| 17>    C       -1.53849        -1.23697         1.03873
| 18>    C       -1.34826        -0.62479        -0.20608
| 19>    S       -1.10743        -1.76192        -1.45641
| 20>    C       -1.42021         0.78660        -0.03416
| 21>    C       -1.65819         1.05760         1.32026
| 22>    C       -1.74557        -0.20702         2.04041
| 23>    C       -1.98307        -0.37992         3.37237
| 24>    C       -2.20284         0.70338         4.24953
| 25>    N       -2.39740         1.57317         4.97083
| 26>    C       -2.04208        -1.65919         3.96449
| 27>    N       -2.09069        -2.69612         4.45196
| 28>    C       -1.74126         2.42135         1.59992
| 29>    C       -1.57041         3.19895         0.46773
| 30>    S       -1.30954         2.20844        -0.96829
| 31>    C       -1.60813         4.61943         0.34841
| 32>    C       -1.74109         5.24954        -0.84846
| 33>    C       -1.84745         6.65547        -0.98131
| 34>    C       -1.64394         7.49954         0.06534
| 35>    C       -1.17234         6.91984         1.38196
| 36>    C       -1.59587         5.45493         1.62033
| 37>    N       -0.77047         4.80607         2.61398
| 38>    C        0.42583         5.17133         2.74168
| 39>    C        0.99140         6.30987         1.99518
| 40>    N        0.26185         7.12937         1.38280
| 41>    F        2.30976         6.46633         1.98719
| 42>    F        1.20476         4.55029         3.61885
| 43>    C       -1.70727         8.91694        -0.03874
| 44>    C       -2.02314         9.68191        -1.15203
| 45>    C       -1.98770        11.04726        -0.88463
| 46>    C       -1.64017        11.33623         0.44634
| 47>    S       -1.35462         9.92481         1.35961
| 48>    C       -1.63331        12.74315         0.61441
| 49>    C       -1.97124        13.34673        -0.60943
| 50>    C       -2.20792        12.30212        -1.59163
| 51>    C       -2.56449        12.45323        -2.89898
| 52>    C       -2.75549        13.71646        -3.49907
| 53>    N       -2.91592        14.73228        -4.00542
| 54>    C       -2.77138        11.34487        -3.74711
| 55>    N       -2.94294        10.44478        -4.43705
| 56>    C       -1.98907        14.74141        -0.54123
| 57>    C       -1.67299        15.20223         0.72153
| 58>    S       -1.34468        13.88788         1.84481
| 59>    C       -1.59991        16.56154         1.16105
| 60>    C       -1.31425        16.93279         2.46151
| 61>    C       -1.25484        18.26562         2.89258
| 62>    C       -1.47044        19.34450         2.06001
| 63>    C       -1.74479        19.01331         0.70541
| 64>    C       -1.82104        17.64067         0.26143
| 65>    N       -2.10484        17.66100        -1.02531
| 66>    O       -2.20190        18.94263        -1.36698
| 67>    N       -1.99078        19.76969        -0.34813
| 68>    C       -1.42399        20.73217         2.50224
| 69>    C       -1.02572        21.73383         1.63719
| 70>    C       -0.96008        23.07231         2.03637
| 71>    C       -1.30266        23.44380         3.30845
| 72>    C       -1.73690        22.46323         4.21866
| 73>    C       -1.80287        21.09937         3.82526
| 74>    N       -2.26690        20.17871         4.69468
| 75>    C       -2.61980        20.55480         5.89575
| 76>    C       -2.51066        21.91812         6.30185
| 77>    N       -2.08879        22.83125         5.46914
| 78>    C       -2.88688        22.35565         7.67804
| 79>    C       -3.14402        19.50394         6.81738
| 80>    H       -1.17173        -4.06502        -0.67284
| 81>    H       -1.60543        -3.30954         1.79331
| 82>    H       -1.91940         2.83820         2.57268
| 83>    H       -1.80224         4.65554        -1.74900
| 84>    H       -2.09749         7.04661        -1.95425
| 85>    H       -1.56453         7.53062         2.20847
| 86>    H       -2.61683         5.43836         2.02713
| 87>    H       -2.26762         9.25824        -2.10787
| 88>    H       -2.21698        15.40883        -1.35227
| 89>    H       -1.12634        16.15593         3.18937
| 90>    H       -1.02920        18.45281         3.92915
| 91>    H       -0.74914        21.47420         0.62777
| 92>    H       -0.63035        23.81387         1.32427
| 93>    H       -1.25421        24.46776         3.64347
| 94>    H       -3.93606        22.13684         7.87189
| 95>    H       -2.71965        23.42470         7.77232
| 96>    H       -2.29015        21.82913         8.42155
| 97>    H       -4.15606        19.75013         7.13516
| 98>    H       -2.52061        19.43334         7.70771
| 99>    H       -3.15268        18.54588         6.30532
|100> *
|101>
|102>                          ****END OF INPUT****

CARTESIAN COORDINATES (ANGSTROEM)
---------------------------------
  C     -1.260090   -3.058150   -0.316810
  C     -1.485540   -2.641670    0.960050
  C     -1.538490   -1.236970    1.038730
  C     -1.348260   -0.624790   -0.206080
  S     -1.107430   -1.761920   -1.456410
  C     -1.420210    0.786600   -0.034160
  C     -1.658190    1.057600    1.320260
  C     -1.745570   -0.207020    2.040410
  C     -1.983070   -0.379920    3.372370
  C     -2.202840    0.703380    4.249530
  N     -2.397400    1.573170    4.970830
  C     -2.042080   -1.659190    3.964490
  N     -2.090690   -2.696120    4.451960
  C     -1.741260    2.421350    1.599920
  C     -1.570410    3.198950    0.467730
  S     -1.309540    2.208440   -0.968290
  C     -1.608130    4.619430    0.348410
  C     -1.741090    5.249540   -0.848460
  C     -1.847450    6.655470   -0.981310
  C     -1.643940    7.499540    0.065340
  C     -1.172340    6.919840    1.381960
  C     -1.595870    5.454930    1.620330
  N     -0.770470    4.806070    2.613980
  C      0.425830    5.171330    2.741680
  C      0.991400    6.309870    1.995180
  N      0.261850    7.129370    1.382800
  F      2.309760    6.466330    1.987190
  F      1.204760    4.550290    3.618850
  C     -1.707270    8.916940   -0.038740
  C     -2.023140    9.681910   -1.152030
  C     -1.987700   11.047260   -0.884630
  C     -1.640170   11.336230    0.446340
  S     -1.354620    9.924810    1.359610
  C     -1.633310   12.743150    0.614410
  C     -1.971240   13.346730   -0.609430
  C     -2.207920   12.302120   -1.591630
  C     -2.564490   12.453230   -2.898980
  C     -2.755490   13.716460   -3.499070
  N     -2.915920   14.732280   -4.005420
  C     -2.771380   11.344870   -3.747110
  N     -2.942940   10.444780   -4.437050
  C     -1.989070   14.741410   -0.541230
  C     -1.672990   15.202230    0.721530
  S     -1.344680   13.887880    1.844810
  C     -1.599910   16.561540    1.161050
  C     -1.314250   16.932790    2.461510
  C     -1.254840   18.265620    2.892580
  C     -1.470440   19.344500    2.060010
  C     -1.744790   19.013310    0.705410
  C     -1.821040   17.640670    0.261430
  N     -2.104840   17.661000   -1.025310
  O     -2.201900   18.942630   -1.366980
  N     -1.990780   19.769690   -0.348130
  C     -1.423990   20.732170    2.502240
  C     -1.025720   21.733830    1.637190
  C     -0.960080   23.072310    2.036370
  C     -1.302660   23.443800    3.308450
  C     -1.736900   22.463230    4.218660
  C     -1.802870   21.099370    3.825260
  N     -2.266900   20.178710    4.694680
  C     -2.619800   20.554800    5.895750
  C     -2.510660   21.918120    6.301850
  N     -2.088790   22.831250    5.469140
  C     -2.886880   22.355650    7.678040
  C     -3.144020   19.503940    6.817380
  H     -1.171730   -4.065020   -0.672840
  H     -1.605430   -3.309540    1.793310
  H     -1.919400    2.838200    2.572680
  H     -1.802240    4.655540   -1.749000
  H     -2.097490    7.046610   -1.954250
  H     -1.564530    7.530620    2.208470
  H     -2.616830    5.438360    2.027130
  H     -2.267620    9.258240   -2.107870
  H     -2.216980   15.408830   -1.352270
  H     -1.126340   16.155930    3.189370
  H     -1.029200   18.452810    3.929150
  H     -0.749140   21.474200    0.627770
  H     -0.630350   23.813870    1.324270
  H     -1.254210   24.467760    3.643470
  H     -3.936060   22.136840    7.871890
  H     -2.719650   23.424700    7.772320
  H     -2.290150   21.829130    8.421550
  H     -4.156060   19.750130    7.135160
  H     -2.520610   19.433340    7.707710
  H     -3.152680   18.545880    6.305320

 Total Charge           Charge          ....    0
 Multiplicity           Mult            ....    1
 Number of Electrons    NEL             ....  468
 Basis Dimension        Dim             .... 1026

ORBITAL ENERGIES
----------------

  NO   OCC          E(Eh)            E(eV)
   0   2.0000     -88.987799     -2421.4811
   1   2.0000     -88.985582     -2421.4208
   2   2.0000     -88.985359     -2421.4147
   3   2.0000     -88.984422     -2421.3892
   4   2.0000     -24.811516      -675.1557
   5   2.0000     -24.811207      -675.1473
   6   2.0000     -19.351712      -526.5869
   7   2.0000     -14.477720      -393.9588
   8   2.0000     -14.475468      -393.8975
   9   2.0000     -14.440111      -392.9354
  10   2.0000     -14.439250      -392.9120
  11   2.0000     -14.427548      -392.5935
  12   2.0000     -14.425695      -392.5431
  13   2.0000     -14.424588      -392.5130
  14   2.0000     -14.423127      -392.4732
  15   2.0000     -14.415209      -392.2578
  16   2.0000     -14.412939      -392.1960
  17   2.0000     -10.426757      -283.7265
  18   2.0000     -10.425346      -283.6881
  19   2.0000     -10.360237      -281.9164
  20   2.0000     -10.359204      -281.8883
  21   2.0000     -10.347346      -281.5656
  22   2.0000     -10.346621      -281.5459
  23   2.0000     -10.342187      -281.4252
  24   2.0000     -10.341745      -281.4132
  25   2.0000     -10.329974      -281.0929
  26   2.0000     -10.328195      -281.0445
  27   2.0000     -10.328103      -281.0420
  28   2.0000     -10.327017      -281.0124
  29   2.0000     -10.326697      -281.0037
  30   2.0000     -10.326176      -280.9895
  31   2.0000     -10.324946      -280.9561
  32   2.0000     -10.323962      -280.9293
  33   2.0000     -10.322760      -280.8966
  34   2.0000     -10.321915      -280.8736
  35   2.0000     -10.321687      -280.8674
  36   2.0000     -10.320994      -280.8485
  37   2.0000     -10.319006      -280.7944
  38   2.0000     -10.318422      -280.7785
  39   2.0000     -10.318276      -280.7746
  40   2.0000     -10.312224      -280.6099
  41   2.0000     -10.310863      -280.5728
  42   2.0000     -10.309876      -280.5460
  43   2.0000     -10.308330      -280.5039
  44   2.0000     -10.306390      -280.4511
  45   2.0000     -10.305740      -280.4335
  46   2.0000     -10.300588      -280.2932
  47   2.0000     -10.299458      -280.2625
  48   2.0000     -10.297680      -280.2141
  49   2.0000     -10.297038      -280.1966
  50   2.0000     -10.296916      -280.1933
  51   2.0000     -10.295823      -280.1636
  52   2.0000     -10.295194      -280.1465
  53   2.0000     -10.294758      -280.1346
  54   2.0000     -10.292593      -280.0757
  55   2.0000     -10.291971      -280.0588
  56   2.0000     -10.291168      -280.0369
  57   2.0000     -10.290759      -280.0258
  58   2.0000     -10.287693      -279.9424
  59   2.0000     -10.286393      -279.9070
  60   2.0000     -10.275642      -279.6144
  61   2.0000     -10.275151      -279.6011
  62   2.0000     -10.273059      -279.5441
  63   2.0000     -10.272695      -279.5342
  64   2.0000     -10.269530      -279.4481
  65   2.0000      -8.082083      -219.9246
  66   2.0000      -8.080526      -219.8823
  67   2.0000      -8.079942      -219.8664
  68   2.0000      -8.078984      -219.8403
  69   2.0000      -6.051258      -164.6631
  70   2.0000      -6.049783      -164.6230
  71   2.0000      -6.049197      -164.6070
  72   2.0000      -6.048236      -164.5809
  73   2.0000      -6.047095      -164.5498
  74   2.0000      -6.045337      -164.5020
  75   2.0000      -6.045016      -164.4932
  76   2.0000      -6.044635      -164.4829
  77   2.0000      -6.044087      -164.4680
  78   2.0000      -6.043167      -164.4429
  79   2.0000      -6.042335      -164.4203
  80   2.0000      -6.041343      -164.3933
  81   2.0000      -1.341269       -36.4978
  82   2.0000      -1.326814       -36.1044
  83   2.0000      -1.305754       -35.5314
  84   2.0000      -1.093767       -29.7629
  85   2.0000      -1.074685       -29.2437
  86   2.0000      -1.040708       -28.3191
  87   2.0000      -1.038993       -28.2724
  88   2.0000      -1.025671       -27.9099
  89   2.0000      -1.017687       -27.6927
  90   2.0000      -1.016698       -27.6658
  91   2.0000      -1.010369       -27.4935
  92   2.0000      -1.004132       -27.3238
  93   2.0000      -1.002620       -27.2827
  94   2.0000      -1.002316       -27.2744
  95   2.0000      -0.997167       -27.1343
  96   2.0000      -0.992533       -27.0082
  97   2.0000      -0.988764       -26.9056
  98   2.0000      -0.964413       -26.2430
  99   2.0000      -0.954708       -25.9789
 100   2.0000      -0.950212       -25.8566
 101   2.0000      -0.946382       -25.7524
 102   2.0000      -0.919491       -25.0206
 103   2.0000      -0.912379       -24.8271
 104   2.0000      -0.903364       -24.5818
 105   2.0000      -0.888180       -24.1686
 106   2.0000      -0.880591       -23.9621
 107   2.0000      -0.876525       -23.8515
 108   2.0000      -0.872958       -23.7544
 109   2.0000      -0.862675       -23.4746
 110   2.0000      -0.856364       -23.3028
 111   2.0000      -0.850365       -23.1396
 112   2.0000      -0.846854       -23.0441
 113   2.0000      -0.838964       -22.8294
 114   2.0000      -0.813370       -22.1329
 115   2.0000      -0.803379       -21.8610
 116   2.0000      -0.799903       -21.7665
 117   2.0000      -0.784531       -21.3482
 118   2.0000      -0.783616       -21.3233
 119   2.0000      -0.777600       -21.1596
 120   2.0000      -0.772833       -21.0298
 121   2.0000      -0.767174       -20.8759
 122   2.0000      -0.759480       -20.6665
 123   2.0000      -0.746363       -20.3096
 124   2.0000      -0.741055       -20.1651
 125   2.0000      -0.716111       -19.4864
 126   2.0000      -0.715364       -19.4661
 127   2.0000      -0.709947       -19.3186
 128   2.0000      -0.700791       -19.0695
 129   2.0000      -0.696786       -18.9605
 130   2.0000      -0.691602       -18.8195
 131   2.0000      -0.686467       -18.6797
 132   2.0000      -0.680654       -18.5215
 133   2.0000      -0.675607       -18.3842
 134   2.0000      -0.669388       -18.2150
 135   2.0000      -0.669188       -18.2095
 136   2.0000      -0.656229       -17.8569
 137   2.0000      -0.645273       -17.5588
 138   2.0000      -0.641230       -17.4488
 139   2.0000      -0.636186       -17.3115
 140   2.0000      -0.633113       -17.2279
 141   2.0000      -0.629885       -17.1400
 142   2.0000      -0.621546       -16.9131
 143   2.0000      -0.619352       -16.8534
 144   2.0000      -0.612940       -16.6789
 145   2.0000      -0.610216       -16.6048
 146   2.0000      -0.609556       -16.5869
 147   2.0000      -0.605950       -16.4887
 148   2.0000      -0.603361       -16.4183
 149   2.0000      -0.595291       -16.1987
 150   2.0000      -0.588497       -16.0138
 151   2.0000      -0.584072       -15.8934
 152   2.0000      -0.574439       -15.6313
 153   2.0000      -0.571320       -15.5464
 154   2.0000      -0.569527       -15.4976
 155   2.0000      -0.560945       -15.2641
 156   2.0000      -0.556955       -15.1555
 157   2.0000      -0.553329       -15.0569
 158   2.0000      -0.548304       -14.9201
 159   2.0000      -0.547260       -14.8917
 160   2.0000      -0.544647       -14.8206
 161   2.0000      -0.542506       -14.7623
 162   2.0000      -0.540619       -14.7110
 163   2.0000      -0.539799       -14.6887
 164   2.0000      -0.530206       -14.4276
 165   2.0000      -0.526637       -14.3305
 166   2.0000      -0.519652       -14.1404
 167   2.0000      -0.512400       -13.9431
 168   2.0000      -0.507610       -13.8128
 169   2.0000      -0.506094       -13.7715
 170   2.0000      -0.504560       -13.7298
 171   2.0000      -0.501719       -13.6525
 172   2.0000      -0.499006       -13.5786
 173   2.0000      -0.498349       -13.5608
 174   2.0000      -0.494565       -13.4578
 175   2.0000      -0.493740       -13.4353
 176   2.0000      -0.492813       -13.4101
 177   2.0000      -0.490867       -13.3572
 178   2.0000      -0.489473       -13.3192
 179   2.0000      -0.488729       -13.2990
 180   2.0000      -0.486764       -13.2455
 181   2.0000      -0.483671       -13.1614
 182   2.0000      -0.480067       -13.0633
 183   2.0000      -0.478088       -13.0094
 184   2.0000      -0.476285       -12.9604
 185   2.0000      -0.475518       -12.9395
 186   2.0000      -0.467178       -12.7125
 187   2.0000      -0.465825       -12.6757
 188   2.0000      -0.465047       -12.6546
 189   2.0000      -0.464117       -12.6293
 190   2.0000      -0.460806       -12.5392
 191   2.0000      -0.457462       -12.4482
 192   2.0000      -0.456683       -12.4270
 193   2.0000      -0.452620       -12.3164
 194   2.0000      -0.451169       -12.2769
 195   2.0000      -0.448611       -12.2073
 196   2.0000      -0.446069       -12.1381
 197   2.0000      -0.441538       -12.0149
 198   2.0000      -0.439800       -11.9676
 199   2.0000      -0.436115       -11.8673
 200   2.0000      -0.435541       -11.8517
 201   2.0000      -0.435270       -11.8443
 202   2.0000      -0.434443       -11.8218
 203   2.0000      -0.433649       -11.8002
 204   2.0000      -0.432053       -11.7568
 205   2.0000      -0.431525       -11.7424
 206   2.0000      -0.426604       -11.6085
 207   2.0000      -0.425092       -11.5673
 208   2.0000      -0.420515       -11.4428
 209   2.0000      -0.420298       -11.4369
 210   2.0000      -0.414712       -11.2849
 211   2.0000      -0.410245       -11.1633
 212   2.0000      -0.403390       -10.9768
 213   2.0000      -0.403248       -10.9729
 214   2.0000      -0.400585       -10.9005
 215   2.0000      -0.399464       -10.8700
 216   2.0000      -0.387834       -10.5535
 217   2.0000      -0.384145       -10.4531
 218   2.0000      -0.374748       -10.1974
 219   2.0000      -0.371228       -10.1016
 220   2.0000      -0.362943        -9.8762
 221   2.0000      -0.357948        -9.7403
 222   2.0000      -0.354486        -9.6461
 223   2.0000      -0.344499        -9.3743
 224   2.0000      -0.341419        -9.2905
 225   2.0000      -0.338378        -9.2077
 226   2.0000      -0.320769        -8.7286
 227   2.0000      -0.317184        -8.6310
 228   2.0000      -0.315075        -8.5736
 229   2.0000      -0.313989        -8.5441
 230   2.0000      -0.313062        -8.5188
 231   2.0000      -0.291567        -7.9339
 232   2.0000      -0.264840        -7.2067
 233   2.0000      -0.236390        -6.4325
 234   0.0000      -0.104442        -2.8420
 235   0.0000      -0.097708        -2.6588
 236   0.0000      -0.070914        -1.9297
 237   0.0000      -0.056950        -1.5497
 238   0.0000      -0.043577        -1.1858

MULLIKEN ATOMIC CHARGES
-----------------------
   0 C :   -0.081932
   1 C :    0.035126
   2 C :   -0.031090
   3 C :   -0.119763
   4 S :    0.180814
   5 C :   -0.095479
   6 C :    0.013392
   7 C :    0.303350
   8 C :   -0.299519
   9 C :   -0.186649
  10 N :    0.174339
  11 C :   -0.191954
  12 N :    0.170166
  13 C :   -0.033250
  14 C :   -0.083499
  15 S :    0.166444
  16 C :    0.021278
  17 C :   -0.036057
  18 C :   -0.051507
  19 C :    0.079975
  20 C :    0.020346
  21 C :    0.135243
  22 N :   -0.100687
  23 C :    0.123706
  24 C :    0.121129
  25 N :   -0.077956
  26 F :   -0.140252
  27 F :   -0.138274
  28 C :   -0.050478
  29 C :   -0.040459
  30 C :    0.013067
  31 C :   -0.097778
  32 S :    0.174329
  33 C :   -0.087521
  34 C :    0.018381
  35 C :    0.311367
  36 C :   -0.301300
  37 C :   -0.191836
  38 N :    0.187471
  39 C :   -0.186641
  40 N :    0.163424
  41 C :   -0.056394
  42 C :   -0.118136
  43 S :    0.161600
  44 C :    0.165979
  45 C :   -0.079734
  46 C :   -0.003542
  47 C :    0.062701
  48 C :   -0.041814
  49 C :   -0.057461
  50 N :    0.045279
  51 O :   -0.087929
  52 N :    0.042394
  53 C :    0.056829
  54 C :   -0.029411
  55 C :    0.042008
  56 C :    0.004382
  57 C :   -0.023937
  58 C :   -0.029219
  59 N :   -0.007917
  60 C :   -0.168840
  61 C :   -0.185333
  62 N :    0.010122
  63 C :    0.131906
  64 C :    0.128151
  65 H :    0.035934
  66 H :    0.012836
  67 H :    0.026470
  68 H :   -0.010906
  69 H :   -0.010899
  70 H :    0.041021
  71 H :    0.040341
  72 H :    0.002050
  73 H :    0.024977
  74 H :   -0.011884
  75 H :   -0.010024
  76 H :   -0.006620
  77 H :   -0.006318
  78 H :   -0.026594
  79 H :    0.024612
  80 H :    0.028072
  81 H :    0.022489
  82 H :    0.026200
  83 H :    0.024602
  84 H :    0.022491
Sum of atomic charges:   -0.0000000

LOEWDIN ATOMIC CHARGES
----------------------
   0 C :   -0.177816
   1 C :   -0.034559
   2 C :   -0.074819
   3 C :   -0.185442
   4 S :    0.476585
   5 C :   -0.176518
   6 C :   -0.075029
   7 C :    0.083018
   8 C :   -0.103285
   9 C :   -0.017439
  10 N :   -0.031842
  11 C :   -0.016534
  12 N :   -0.035507
  13 C :   -0.022380
  14 C :   -0.167746
  15 S :    0.472015
  16 C :   -0.042031
  17 C :   -0.040699
  18 C :   -0.017963
  19 C :   -0.037780
  20 C :    0.010567
  21 C :    0.027143
  22 N :   -0.063304
  23 C :    0.055791
  24 C :    0.047092
  25 N :   -0.071948
  26 F :   -0.029296
  27 F :   -0.026885
  28 C :   -0.153281
  29 C :   -0.023783
  30 C :   -0.064053
  31 C :   -0.189229
  32 S :    0.485450
  33 C :   -0.172968
  34 C :   -0.073726
  35 C :    0.081546
  36 C :   -0.100405
  37 C :   -0.021439
  38 N :   -0.021604
  39 C :   -0.013812
  40 N :   -0.038887
  41 C :   -0.018075
  42 C :   -0.163716
  43 S :    0.469845
  44 C :   -0.040757
  45 C :   -0.021873
  46 C :    0.007877
  47 C :   -0.018763
  48 C :   -0.043229
  49 C :   -0.045946
  50 N :   -0.021408
  51 O :    0.079249
  52 N :   -0.024491
  53 C :   -0.024571
  54 C :    0.000294
  55 C :   -0.016721
  56 C :   -0.009667
  57 C :   -0.015050
  58 C :   -0.006572
  59 N :   -0.047437
  60 C :   -0.002889
  61 C :   -0.007188
  62 N :   -0.045355
  63 C :   -0.053254
  64 C :   -0.053415
  65 H :    0.027474
  66 H :    0.042621
  67 H :    0.039500
  68 H :    0.024288
  69 H :    0.035024
  70 H :    0.027806
  71 H :    0.048451
  72 H :    0.038129
  73 H :    0.041573
  74 H :    0.024514
  75 H :    0.032752
  76 H :    0.031473
  77 H :    0.033212
  78 H :    0.034040
  79 H :    0.037387
  80 H :    0.039342
  81 H :    0.036323
  82 H :    0.038233
  83 H :    0.037209
  84 H :    0.036567

  Mayer bond orders larger than 0.100000
B(  0-C ,  1-C ) :   1.5464 B(  0-C ,  4-S ) :   1.1505 B(  0-C , 65-H ) :   0.9645
B(  1-C ,  2-C ) :   1.2780 B(  1-C , 66-H ) :   0.9963 B(  2-C ,  3-C ) :   1.4567
B(  2-C ,  7-C ) :   1.0134 B(  3-C ,  4-S ) :   1.1342 B(  3-C ,  5-C ) :   1.1837
B(  5-C ,  6-C ) :   1.4529 B(  5-C , 15-S ) :   1.1297 B(  6-C ,  7-C ) :   0.9994
B(  6-C , 13-C ) :   1.2652 B(  7-C ,  8-C ) :   1.7083 B(  8-C ,  9-C ) :   1.1347
B(  8-C , 11-C ) :   1.1296 B(  9-C , 10-N ) :   2.9893 B( 11-C , 12-N ) :   3.0018
B( 13-C , 14-C ) :   1.4657 B( 13-C , 67-H ) :   0.9810 B( 14-C , 15-S ) :   1.0927
B( 14-C , 16-C ) :   1.1456 B( 16-C , 17-C ) :   1.6663 B( 16-C , 21-C ) :   0.9548
B( 17-C , 18-C ) :   1.1290 B( 17-C , 68-H ) :   0.9730 B( 18-C , 19-C ) :   1.6765
B( 18-C , 69-H ) :   0.9791 B( 19-C , 20-C ) :   0.9850 B( 19-C , 28-C ) :   1.1297
B( 20-C , 21-C ) :   0.9833 B( 20-C , 25-N ) :   1.0291 B( 20-C , 70-H ) :   0.8933
B( 21-C , 22-N ) :   1.0111 B( 21-C , 71-H ) :   0.8722 B( 22-N , 23-C ) :   1.9286
B( 23-C , 24-C ) :   0.9329 B( 23-C , 27-F ) :   1.1711 B( 24-C , 25-N ) :   1.9507
B( 24-C , 26-F ) :   1.1698 B( 28-C , 29-C ) :   1.4597 B( 28-C , 32-S ) :   1.1017
B( 29-C , 30-C ) :   1.3087 B( 29-C , 72-H ) :   0.9881 B( 30-C , 31-C ) :   1.4299
B( 30-C , 35-C ) :   0.9891 B( 31-C , 32-S ) :   1.1256 B( 31-C , 33-C ) :   1.1847
B( 33-C , 34-C ) :   1.4404 B( 33-C , 43-S ) :   1.1273 B( 34-C , 35-C ) :   1.0011
B( 34-C , 41-C ) :   1.2397 B( 35-C , 36-C ) :   1.7089 B( 36-C , 37-C ) :   1.1342
B( 36-C , 39-C ) :   1.1363 B( 37-C , 38-N ) :   2.9953 B( 39-C , 40-N ) :   2.9848
B( 41-C , 42-C ) :   1.4982 B( 41-C , 73-H ) :   0.9820 B( 42-C , 43-S ) :   1.0820
B( 42-C , 44-C ) :   1.1174 B( 44-C , 45-C ) :   1.4699 B( 44-C , 47-C ) :   0.1132
B( 44-C , 49-C ) :   1.1491 B( 45-C , 46-C ) :   1.2039 B( 45-C , 74-H ) :   0.9883
B( 46-C , 47-C ) :   1.5296 B( 46-C , 75-H ) :   0.9781 B( 47-C , 48-C ) :   1.1606
B( 47-C , 53-C ) :   0.9903 B( 48-C , 49-C ) :   1.1442 B( 48-C , 52-N ) :   1.5891
B( 49-C , 50-N ) :   1.5993 B( 50-N , 51-O ) :   1.0635 B( 50-N , 52-N ) :   0.1808
B( 51-O , 52-N ) :   1.0657 B( 53-C , 54-C ) :   1.4849 B( 53-C , 56-C ) :   0.1058
B( 53-C , 58-C ) :   1.2304 B( 54-C , 55-C ) :   1.2444 B( 54-C , 76-H ) :   0.9886
B( 55-C , 56-C ) :   1.4268 B( 55-C , 77-H ) :   0.9880 B( 56-C , 57-C ) :   1.2592
B( 56-C , 78-H ) :   1.0112 B( 57-C , 58-C ) :   1.2630 B( 57-C , 62-N ) :   1.3913
B( 58-C , 59-N ) :   1.4195 B( 59-N , 60-C ) :   1.6931 B( 60-C , 61-C ) :   1.1667
B( 60-C , 64-C ) :   1.0928 B( 61-C , 62-N ) :   1.7231 B( 61-C , 63-C ) :   1.0928
B( 63-C , 79-H ) :   0.9411 B( 63-C , 80-H ) :   0.9411 B( 63-C , 81-H ) :   0.9417
B( 64-C , 82-H ) :   0.9420 B( 64-C , 83-H ) :   0.9409 B( 64-C , 84-H ) :   0.9433

-----------------------------------------------------------------------------
         ABSORPTION SPECTRUM VIA TRANSITION ELECTRIC DIPOLE MOMENTS
-----------------------------------------------------------------------------
State   Energy  Wavelength   fosc         T2         TX        TY        TZ
        (cm-1)    (nm)                  (au**2)     (au)      (au)      (au)
-----------------------------------------------------------------------------
   0   11806.9    847.0   0.303455985   8.46128  -0.02506   2.90293   0.18351
   1   13748.1    727.4   0.081403879   1.94930   0.04392  -1.39540  -0.01489
   2   20646.4    484.3   1.756905258  28.01433  -0.02636  -5.27355  -0.45093
   3   21241.8    470.8   0.140394346   2.17588   0.00859  -1.41559  -0.41463
   4   22770.9    439.2   0.034974922   0.50565  -0.13616   0.45897   0.52579
   5   23435.2    426.7   0.033151556   0.46570  -0.22806  -0.44847  -0.46106
   6   24658.6    405.5   0.327133394   4.36749   0.23677  -1.70903   1.17926
   7   27306.6    366.2   0.015975709   0.19261   0.00851   0.21260   0.38384
   8   29225.3    342.2   0.042732503   0.48136   0.00678  -0.50413  -0.47663
   9   30101.7    332.2   0.076897510   0.84100   0.01748  -0.89476   0.20027
  10   30773.5    325.0   0.010281121   0.10999  -0.17041   0.27469   0.07413
  11   31252.8    320.0   0.016737424   0.17631   0.02878  -0.41242   0.07344
  12   31511.3    317.3   0.413891469   4.32409  -0.75201   0.04102  -1.93827
  13   31832.2    314.1   0.101563667   1.05038   0.02964  -1.00409  -0.20324
  14   31973.8    312.8   0.867362472   8.93064  -0.36558  -0.21218   2.95837
  15   32898.3    304.0   0.071577207   0.71627   0.18641   0.70334   0.43225
  16   33247.6    300.8   0.193818680   1.91916  -0.01695  -1.16645  -0.74717
  17   33578.9    297.8   0.046946002   0.46027   0.20932   0.43587  -0.47588
  18   33623.2    297.4   0.065197939   0.63837   0.06316  -0.77662  -0.17676
  19   33859.3    295.3   0.062572101   0.60839  -0.15610   0.68283  -0.34316
  20   35135.4    284.6   0.012081226   0.11320  -0.13680   0.09318   0.29292
  21   35198.9    284.1   0.009797598   0.09164   0.08457  -0.12062  -0.26445
  22   35814.6    279.2   0.156940644   1.44261  -0.06474  -0.25865  -1.17112
  23   36280.7    275.6   0.027078931   0.24571  -0.06817  -0.15181   0.46693
  24   36612.3    273.1   0.046166139   0.41512  -0.12981  -0.63091  -0.01463
  25   36915.4    270.9   0.008440936   0.07528  -0.18896   0.08451  -0.18008
  26   37168.3    269.0   0.016548698   0.14658   0.15404   0.10543  -0.33427
  27   37501.6    266.7   0.003307599   0.02904   0.15579   0.03416   0.05999
  28   38081.7    262.6   0.014011655   0.12113   0.01715   0.29395  -0.18556
  29   38307.5    261.0   0.002194271   0.01886   0.01697   0.11544   0.07241
  30   38511.0    259.7   0.010512147   0.08986  -0.06981  -0.03601   0.28930
  31   38669.6    258.6   0.063916020   0.54415   0.06178   0.48191   0.55506
  32   38748.4    258.1   0.023817183   0.20235  -0.08769  -0.43853  -0.04855
  33   39271.0    254.6   0.147362316   1.23535  -0.05104   1.08586  -0.23165
  34   39414.8    253.7   0.001107195   0.00925   0.03318  -0.02957  -0.08528
  35   39892.0    250.7   0.002664263   0.02199   0.03819  -0.02593   0.14091
  36   40011.3    249.9   0.099511562   0.81878  -0.10115   0.83430   0.33539

FINAL SINGLE POINT ENERGY     -4252.317018825919

DIPOLE MOMENT
-------------
                                X             Y             Z
Electronic contribution:     15.70562     -74.67993     -27.54543
Nuclear contribution   :    -15.38589      74.55394      28.86035
                        -----------------------------------------
Total Dipole Moment    :      0.31973      -0.12599       1.31492
                        -----------------------------------------
Magnitude (a.u.)       :      1.35909
Magnitude (Debye)      :      3.45452

Rotational constants in cm-1:     0.002571     0.000275     0.000254
Rotational constants in MHz :    77.072931     8.242445     7.629005

                             ****ORCA TERMINATED NORMALLY****
TOTAL RUN TIME: 0 days 0 hours 14 minutes 14 seconds 298 msec
