                         Program Version 4.2.0 -  RELEASE  -
|  1> # ORCA input file
|  2> # SCF done       -207.334801659531          0.000665405350
|  3> ! CAM-B3LYP def2-SVP def2/J RIJCOSX Grid4 TightSCF
|  4> %maxcore 5000
|  5> %tddft
|  6>     Mode sTDDFT
|  7>     Ethresh 5.0
|  8>     maxcore 5000
|  9> end
| 10>
| 11> %pal
| 12>   nprocs 6
| 13>   end
| 14> * xyz 0 1
| 15>    C       -3.82804       -16.60248        11.17166
| 16>    C       -3.79243       -17.94793        11.40782
| 17>    F       -3.13093       -18.42849        12.46944
| 18>    C       -4.44804       -18.84591        10.54184
| 19>    F       -4.39678       -20.16061        10.79855
| 20>    C       -5.12967       -18.38587         9.45032
| 21>    C       -5.18377       -17.00486         9.17932
| 22>    C       -4.52297       -16.09553        10.05493
| 23>    C       -4.56553       -14.70487         9.80554
| 24>    C       -5.24675       -14.23635         8.71234
| 25>    C       -5.89606       -15.15207         7.84191
| 26>    C       -5.87638       -16.49989         8.05701
| 27>    C       -6.54266       -14.41402         6.73939
| 28>    O       -7.18499       -14.92070         5.84247
| 29>    C       -6.23324       -12.98498         6.97301
| 30>    C       -5.46717       -12.88354         8.20746
| 31>    C       -5.03341       -11.74358         8.83369
| 32>    C       -5.24848       -10.41099         8.41977
| 33>    N       -5.37115        -9.29416         8.18023
| 34>    C       -4.29470       -11.73772        10.03691
| 35>    N       -3.69122       -11.65274        11.01009
| 36>    C       -6.54532       -11.90308         6.19355
| 37>    C       -7.26249       -11.78021         4.98473
| 38>    C       -7.92073       -12.68517         4.18180
| 39>    C       -8.51626       -12.10544         3.04768
| 40>    C       -8.30554       -10.69591         2.98231
| 41>    S       -7.37209       -10.13891         4.33348
| 42>    C       -8.80234        -9.92335         1.95879
| 43>    C       -9.53807       -10.55840         0.95495
| 44>    C       -9.74790       -11.96806         1.01887
| 45>    C       -9.25318       -12.74109         2.03879
| 46>    S      -10.68998       -12.51618        -0.34019
| 47>    C      -10.80253       -10.87744        -0.98105
| 48>    C      -10.14048        -9.97733        -0.17622
| 49>    C      -11.52170       -10.68115        -2.17767
| 50>    C      -11.73800        -9.50240        -2.84253
| 51>    C      -12.48140        -9.36148        -4.04593
| 52>    C      -12.56247        -8.08796        -4.51706
| 53>    C      -11.88539        -7.13948        -3.71701
| 54>    S      -11.14414        -7.93045        -2.34270
| 55>    C      -11.76062        -5.77790        -3.89814
| 56>    C      -12.28196        -4.96353        -4.92970
| 57>    C      -11.96152        -3.64760        -4.80501
| 58>    C      -11.16524        -3.33610        -3.66922
| 59>    S      -10.85150        -4.80440        -2.76328
| 60>    C      -10.70432        -2.08833        -3.34135
| 61>    C       -9.90568        -1.72681        -2.23657
| 62>    C       -9.42033        -2.48617        -1.19620
| 63>    C       -8.63978        -1.76102        -0.27583
| 64>    C       -8.52239        -0.38498        -0.62960
| 65>    S       -9.39765        -0.04407        -2.09520
| 66>    C       -7.80091         0.51002         0.12115
| 67>    C       -7.16826         0.03583         1.27622
| 68>    C       -7.28363        -1.33958         1.62851
| 69>    C       -8.00628        -2.23479         0.87565
| 70>    S       -6.40845        -1.69277         3.08573
| 71>    C       -5.93196        -0.01025         3.25194
| 72>    C       -6.40339         0.75731         2.21229
| 73>    C       -5.09110         0.34251         4.33325
| 74>    C       -4.81526         1.56546         4.86644
| 75>    C       -3.58949         1.71385         5.70061
| 76>    O       -2.90407         0.82267         6.14408
| 77>    C       -3.36953         3.16982         5.81375
| 78>    C       -2.32123         3.83680         6.37830
| 79>    C       -2.30658         5.24922         6.34154
| 80>    C       -3.38055         5.94297         5.71207
| 81>    C       -3.35549         7.35146         5.67085
| 82>    C       -2.31548         8.03854         6.23107
| 83>    C       -1.25511         7.35149         6.85524
| 84>    C       -1.24946         5.98591         6.91025
| 85>    F       -0.24787         8.05136         7.39510
| 86>    F       -2.29404         9.37753         6.19117
| 87>    C       -4.45705         5.22443         5.14287
| 88>    C       -4.45524         3.85649         5.19990
| 89>    C       -5.42962         2.86795         4.73979
| 90>    C       -6.75053         3.13213         4.48332
| 91>    C       -7.73120         2.13715         4.30013
| 92>    N       -8.57308         1.36713         4.17467
| 93>    C       -7.29931         4.43021         4.45349
| 94>    N       -7.78891         5.46684         4.39359
| 95>    H       -3.32167       -15.92851        11.84492
| 96>    H       -5.62610       -19.08602         8.79681
| 97>    H       -4.05376       -14.04718        10.48855
| 98>    H       -6.38182       -17.17016         7.37843
| 99>    H       -6.17519       -10.94868         6.54909
|100>    H       -7.96955       -13.73447         4.40825
|101>    H       -8.63581        -8.85878         1.92420
|102>    H       -9.41898       -13.80578         2.07575
|103>    H      -10.08198        -8.92467        -0.37941
|104>    H      -11.95652       -11.56777        -2.62070
|105>    H      -12.93260       -10.21472        -4.52080
|106>    H      -13.08569        -7.80456        -5.41259
|107>    H      -12.87442        -5.37065        -5.72923
|108>    H      -12.26801        -2.87976        -5.49322
|109>    H      -10.97643        -1.28460        -4.01321
|110>    H       -9.61557        -3.53552        -1.07990
|111>    H       -7.72635         1.54931        -0.15655
|112>    H       -8.08663        -3.27235         1.15687
|113>    H       -6.17055         1.80130         2.09549
|114>    H       -4.52268        -0.47457         4.76882
|115>    H       -1.51400         3.29438         6.84636
|116>    H       -4.16127         7.89318         5.20063
|117>    H       -0.43062         5.47448         7.39152
|118>    H       -5.25284         5.77545         4.66757
|119> *
|120>
|121>                          ****END OF INPUT****

CARTESIAN COORDINATES (ANGSTROEM)
---------------------------------
  C     -3.828040  -16.602480   11.171660
  C     -3.792430  -17.947930   11.407820
  F     -3.130930  -18.428490   12.469440
  C     -4.448040  -18.845910   10.541840
  F     -4.396780  -20.160610   10.798550
  C     -5.129670  -18.385870    9.450320
  C     -5.183770  -17.004860    9.179320
  C     -4.522970  -16.095530   10.054930
  C     -4.565530  -14.704870    9.805540
  C     -5.246750  -14.236350    8.712340
  C     -5.896060  -15.152070    7.841910
  C     -5.876380  -16.499890    8.057010
  C     -6.542660  -14.414020    6.739390
  O     -7.184990  -14.920700    5.842470
  C     -6.233240  -12.984980    6.973010
  C     -5.467170  -12.883540    8.207460
  C     -5.033410  -11.743580    8.833690
  C     -5.248480  -10.410990    8.419770
  N     -5.371150   -9.294160    8.180230
  C     -4.294700  -11.737720   10.036910
  N     -3.691220  -11.652740   11.010090
  C     -6.545320  -11.903080    6.193550
  C     -7.262490  -11.780210    4.984730
  C     -7.920730  -12.685170    4.181800
  C     -8.516260  -12.105440    3.047680
  C     -8.305540  -10.695910    2.982310
  S     -7.372090  -10.138910    4.333480
  C     -8.802340   -9.923350    1.958790
  C     -9.538070  -10.558400    0.954950
  C     -9.747900  -11.968060    1.018870
  C     -9.253180  -12.741090    2.038790
  S    -10.689980  -12.516180   -0.340190
  C    -10.802530  -10.877440   -0.981050
  C    -10.140480   -9.977330   -0.176220
  C    -11.521700  -10.681150   -2.177670
  C    -11.738000   -9.502400   -2.842530
  C    -12.481400   -9.361480   -4.045930
  C    -12.562470   -8.087960   -4.517060
  C    -11.885390   -7.139480   -3.717010
  S    -11.144140   -7.930450   -2.342700
  C    -11.760620   -5.777900   -3.898140
  C    -12.281960   -4.963530   -4.929700
  C    -11.961520   -3.647600   -4.805010
  C    -11.165240   -3.336100   -3.669220
  S    -10.851500   -4.804400   -2.763280
  C    -10.704320   -2.088330   -3.341350
  C     -9.905680   -1.726810   -2.236570
  C     -9.420330   -2.486170   -1.196200
  C     -8.639780   -1.761020   -0.275830
  C     -8.522390   -0.384980   -0.629600
  S     -9.397650   -0.044070   -2.095200
  C     -7.800910    0.510020    0.121150
  C     -7.168260    0.035830    1.276220
  C     -7.283630   -1.339580    1.628510
  C     -8.006280   -2.234790    0.875650
  S     -6.408450   -1.692770    3.085730
  C     -5.931960   -0.010250    3.251940
  C     -6.403390    0.757310    2.212290
  C     -5.091100    0.342510    4.333250
  C     -4.815260    1.565460    4.866440
  C     -3.589490    1.713850    5.700610
  O     -2.904070    0.822670    6.144080
  C     -3.369530    3.169820    5.813750
  C     -2.321230    3.836800    6.378300
  C     -2.306580    5.249220    6.341540
  C     -3.380550    5.942970    5.712070
  C     -3.355490    7.351460    5.670850
  C     -2.315480    8.038540    6.231070
  C     -1.255110    7.351490    6.855240
  C     -1.249460    5.985910    6.910250
  F     -0.247870    8.051360    7.395100
  F     -2.294040    9.377530    6.191170
  C     -4.457050    5.224430    5.142870
  C     -4.455240    3.856490    5.199900
  C     -5.429620    2.867950    4.739790
  C     -6.750530    3.132130    4.483320
  C     -7.731200    2.137150    4.300130
  N     -8.573080    1.367130    4.174670
  C     -7.299310    4.430210    4.453490
  N     -7.788910    5.466840    4.393590
  H     -3.321670  -15.928510   11.844920
  H     -5.626100  -19.086020    8.796810
  H     -4.053760  -14.047180   10.488550
  H     -6.381820  -17.170160    7.378430
  H     -6.175190  -10.948680    6.549090
  H     -7.969550  -13.734470    4.408250
  H     -8.635810   -8.858780    1.924200
  H     -9.418980  -13.805780    2.075750
  H    -10.081980   -8.924670   -0.379410
  H    -11.956520  -11.567770   -2.620700
  H    -12.932600  -10.214720   -4.520800
  H    -13.085690   -7.804560   -5.412590
  H    -12.874420   -5.370650   -5.729230
  H    -12.268010   -2.879760   -5.493220
  H    -10.976430   -1.284600   -4.013210
  H     -9.615570   -3.535520   -1.079900
  H     -7.726350    1.549310   -0.156550
  H     -8.086630   -3.272350    1.156870
  H     -6.170550    1.801300    2.095490
  H     -4.522680   -0.474570    4.768820
  H     -1.514000    3.294380    6.846360
  H     -4.161270    7.893180    5.200630
  H     -0.430620    5.474480    7.391520
  H     -5.252840    5.775450    4.667570

 Total Charge           Charge          ....    0
 Multiplicity           Mult            ....    1
 Number of Electrons    NEL             ....  584
 Basis Dimension        Dim             .... 1264

ORBITAL ENERGIES
----------------

  NO   OCC          E(Eh)            E(eV)
   0   2.0000     -88.959960     -2420.7236
   1   2.0000     -88.959738     -2420.7175
   2   2.0000     -88.954124     -2420.5648
   3   2.0000     -88.953121     -2420.5375
   4   2.0000     -88.952836     -2420.5297
   5   2.0000     -88.952026     -2420.5077
   6   2.0000     -24.797151      -674.7648
   7   2.0000     -24.796932      -674.7588
   8   2.0000     -24.796668      -674.7516
   9   2.0000     -24.795953      -674.7322
  10   2.0000     -19.219848      -522.9986
  11   2.0000     -19.214473      -522.8524
  12   2.0000     -14.416926      -392.3045
  13   2.0000     -14.415633      -392.2693
  14   2.0000     -14.414268      -392.2322
  15   2.0000     -14.413380      -392.2080
  16   2.0000     -10.380296      -282.4622
  17   2.0000     -10.380220      -282.4601
  18   2.0000     -10.379843      -282.4499
  19   2.0000     -10.379386      -282.4375
  20   2.0000     -10.370658      -282.1999
  21   2.0000     -10.365693      -282.0648
  22   2.0000     -10.343864      -281.4709
  23   2.0000     -10.342682      -281.4387
  24   2.0000     -10.341435      -281.4048
  25   2.0000     -10.340864      -281.3892
  26   2.0000     -10.325110      -280.9605
  27   2.0000     -10.323982      -280.9298
  28   2.0000     -10.323374      -280.9133
  29   2.0000     -10.323051      -280.9045
  30   2.0000     -10.322353      -280.8855
  31   2.0000     -10.320733      -280.8414
  32   2.0000     -10.319594      -280.8104
  33   2.0000     -10.318207      -280.7727
  34   2.0000     -10.316877      -280.7365
  35   2.0000     -10.316681      -280.7312
  36   2.0000     -10.315164      -280.6899
  37   2.0000     -10.315148      -280.6894
  38   2.0000     -10.314909      -280.6830
  39   2.0000     -10.314427      -280.6698
  40   2.0000     -10.310744      -280.5696
  41   2.0000     -10.309715      -280.5416
  42   2.0000     -10.309248      -280.5289
  43   2.0000     -10.309160      -280.5265
  44   2.0000     -10.309023      -280.5228
  45   2.0000     -10.308759      -280.5156
  46   2.0000     -10.308608      -280.5115
  47   2.0000     -10.307376      -280.4780
  48   2.0000     -10.307126      -280.4712
  49   2.0000     -10.305590      -280.4294
  50   2.0000     -10.301687      -280.3232
  51   2.0000     -10.301508      -280.3183
  52   2.0000     -10.300965      -280.3035
  53   2.0000     -10.300892      -280.3015
  54   2.0000     -10.300632      -280.2945
  55   2.0000     -10.300457      -280.2897
  56   2.0000     -10.300193      -280.2825
  57   2.0000     -10.300057      -280.2788
  58   2.0000     -10.299995      -280.2771
  59   2.0000     -10.299372      -280.2602
  60   2.0000     -10.299038      -280.2511
  61   2.0000     -10.298635      -280.2401
  62   2.0000     -10.298433      -280.2346
  63   2.0000     -10.298068      -280.2247
  64   2.0000     -10.297135      -280.1993
  65   2.0000     -10.296318      -280.1771
  66   2.0000     -10.295854      -280.1644
  67   2.0000     -10.294134      -280.1176
  68   2.0000     -10.292649      -280.0772
  69   2.0000     -10.291964      -280.0586
  70   2.0000     -10.291582      -280.0482
  71   2.0000     -10.291384      -280.0428
  72   2.0000     -10.290677      -280.0235
  73   2.0000     -10.290032      -280.0060
  74   2.0000     -10.289896      -280.0023
  75   2.0000     -10.287766      -279.9443
  76   2.0000     -10.286352      -279.9059
  77   2.0000     -10.285654      -279.8869
  78   2.0000     -10.279845      -279.7288
  79   2.0000     -10.279606      -279.7223
  80   2.0000      -8.055841      -219.2106
  81   2.0000      -8.055661      -219.2057
  82   2.0000      -8.050213      -219.0574
  83   2.0000      -8.049295      -219.0324
  84   2.0000      -8.048943      -219.0229
  85   2.0000      -8.048126      -219.0007
  86   2.0000      -6.025614      -163.9653
  87   2.0000      -6.025450      -163.9608
  88   2.0000      -6.021461      -163.8523
  89   2.0000      -6.021283      -163.8474
  90   2.0000      -6.019807      -163.8073
  91   2.0000      -6.018929      -163.7834
  92   2.0000      -6.018476      -163.7711
  93   2.0000      -6.017753      -163.7514
  94   2.0000      -6.016824      -163.7261
  95   2.0000      -6.016630      -163.7208
  96   2.0000      -6.015834      -163.6992
  97   2.0000      -6.015025      -163.6771
  98   2.0000      -6.014569      -163.6647
  99   2.0000      -6.013853      -163.6453
 100   2.0000      -6.011394      -163.5783
 101   2.0000      -6.010325      -163.5493
 102   2.0000      -6.010147      -163.5444
 103   2.0000      -6.009192      -163.5184
 104   2.0000      -1.319598       -35.9081
 105   2.0000      -1.319297       -35.8999
 106   2.0000      -1.304738       -35.5037
 107   2.0000      -1.304432       -35.4954
 108   2.0000      -1.134431       -30.8694
 109   2.0000      -1.130272       -30.7563
 110   2.0000      -1.020146       -27.7596
 111   2.0000      -1.019070       -27.7303
 112   2.0000      -1.010574       -27.4991
 113   2.0000      -1.006720       -27.3942
 114   2.0000      -1.005440       -27.3594
 115   2.0000      -1.003385       -27.3035
 116   2.0000      -1.003342       -27.3023
 117   2.0000      -0.994168       -27.0527
 118   2.0000      -0.992942       -27.0193
 119   2.0000      -0.989638       -26.9294
 120   2.0000      -0.983814       -26.7709
 121   2.0000      -0.981570       -26.7099
 122   2.0000      -0.978818       -26.6350
 123   2.0000      -0.977486       -26.5987
 124   2.0000      -0.934032       -25.4163
 125   2.0000      -0.933313       -25.3967
 126   2.0000      -0.924344       -25.1527
 127   2.0000      -0.921507       -25.0755
 128   2.0000      -0.904744       -24.6193
 129   2.0000      -0.900243       -24.4969
 130   2.0000      -0.894769       -24.3479
 131   2.0000      -0.891443       -24.2574
 132   2.0000      -0.889814       -24.2131
 133   2.0000      -0.883418       -24.0390
 134   2.0000      -0.881865       -23.9968
 135   2.0000      -0.879121       -23.9221
 136   2.0000      -0.871112       -23.7042
 137   2.0000      -0.862066       -23.4580
 138   2.0000      -0.859790       -23.3961
 139   2.0000      -0.839704       -22.8495
 140   2.0000      -0.839391       -22.8410
 141   2.0000      -0.838250       -22.8099
 142   2.0000      -0.836865       -22.7723
 143   2.0000      -0.834112       -22.6974
 144   2.0000      -0.831480       -22.6257
 145   2.0000      -0.819833       -22.3088
 146   2.0000      -0.807639       -21.9770
 147   2.0000      -0.792052       -21.5528
 148   2.0000      -0.787072       -21.4173
 149   2.0000      -0.783461       -21.3191
 150   2.0000      -0.773054       -21.0359
 151   2.0000      -0.767236       -20.8776
 152   2.0000      -0.765195       -20.8220
 153   2.0000      -0.754569       -20.5329
 154   2.0000      -0.741334       -20.1727
 155   2.0000      -0.733914       -19.9708
 156   2.0000      -0.722744       -19.6669
 157   2.0000      -0.717269       -19.5179
 158   2.0000      -0.714686       -19.4476
 159   2.0000      -0.709232       -19.2992
 160   2.0000      -0.700746       -19.0683
 161   2.0000      -0.695242       -18.9185
 162   2.0000      -0.690770       -18.7968
 163   2.0000      -0.684096       -18.6152
 164   2.0000      -0.683257       -18.5924
 165   2.0000      -0.676241       -18.4015
 166   2.0000      -0.669932       -18.2298
 167   2.0000      -0.669342       -18.2137
 168   2.0000      -0.664245       -18.0750
 169   2.0000      -0.661559       -18.0019
 170   2.0000      -0.655397       -17.8342
 171   2.0000      -0.653328       -17.7780
 172   2.0000      -0.649411       -17.6714
 173   2.0000      -0.641225       -17.4486
 174   2.0000      -0.640712       -17.4347
 175   2.0000      -0.636687       -17.3251
 176   2.0000      -0.635171       -17.2839
 177   2.0000      -0.627500       -17.0752
 178   2.0000      -0.625208       -17.0128
 179   2.0000      -0.616315       -16.7708
 180   2.0000      -0.614689       -16.7265
 181   2.0000      -0.610886       -16.6230
 182   2.0000      -0.607882       -16.5413
 183   2.0000      -0.601451       -16.3663
 184   2.0000      -0.595673       -16.2091
 185   2.0000      -0.589719       -16.0471
 186   2.0000      -0.585838       -15.9415
 187   2.0000      -0.584246       -15.8981
 188   2.0000      -0.583986       -15.8911
 189   2.0000      -0.580956       -15.8086
 190   2.0000      -0.575904       -15.6712
 191   2.0000      -0.573822       -15.6145
 192   2.0000      -0.572695       -15.5838
 193   2.0000      -0.566775       -15.4227
 194   2.0000      -0.565361       -15.3843
 195   2.0000      -0.559176       -15.2159
 196   2.0000      -0.553206       -15.0535
 197   2.0000      -0.552443       -15.0327
 198   2.0000      -0.545879       -14.8541
 199   2.0000      -0.545613       -14.8469
 200   2.0000      -0.544716       -14.8225
 201   2.0000      -0.540559       -14.7094
 202   2.0000      -0.539019       -14.6675
 203   2.0000      -0.538044       -14.6409
 204   2.0000      -0.536705       -14.6045
 205   2.0000      -0.535062       -14.5598
 206   2.0000      -0.534573       -14.5465
 207   2.0000      -0.531458       -14.4617
 208   2.0000      -0.530894       -14.4464
 209   2.0000      -0.528610       -14.3842
 210   2.0000      -0.526498       -14.3267
 211   2.0000      -0.523850       -14.2547
 212   2.0000      -0.518445       -14.1076
 213   2.0000      -0.517598       -14.0846
 214   2.0000      -0.514738       -14.0067
 215   2.0000      -0.514344       -13.9960
 216   2.0000      -0.512864       -13.9557
 217   2.0000      -0.512636       -13.9495
 218   2.0000      -0.511414       -13.9163
 219   2.0000      -0.508762       -13.8441
 220   2.0000      -0.506350       -13.7785
 221   2.0000      -0.504753       -13.7350
 222   2.0000      -0.501180       -13.6378
 223   2.0000      -0.498978       -13.5779
 224   2.0000      -0.496742       -13.5170
 225   2.0000      -0.495335       -13.4788
 226   2.0000      -0.491806       -13.3827
 227   2.0000      -0.489007       -13.3066
 228   2.0000      -0.487411       -13.2631
 229   2.0000      -0.486262       -13.2319
 230   2.0000      -0.482383       -13.1263
 231   2.0000      -0.475131       -12.9290
 232   2.0000      -0.471456       -12.8290
 233   2.0000      -0.469708       -12.7814
 234   2.0000      -0.468625       -12.7519
 235   2.0000      -0.467183       -12.7127
 236   2.0000      -0.466428       -12.6921
 237   2.0000      -0.466211       -12.6862
 238   2.0000      -0.462048       -12.5730
 239   2.0000      -0.461759       -12.5651
 240   2.0000      -0.458837       -12.4856
 241   2.0000      -0.455278       -12.3887
 242   2.0000      -0.450306       -12.2534
 243   2.0000      -0.449177       -12.2227
 244   2.0000      -0.447701       -12.1826
 245   2.0000      -0.445398       -12.1199
 246   2.0000      -0.445194       -12.1143
 247   2.0000      -0.443333       -12.0637
 248   2.0000      -0.442391       -12.0381
 249   2.0000      -0.441253       -12.0071
 250   2.0000      -0.437894       -11.9157
 251   2.0000      -0.433588       -11.7985
 252   2.0000      -0.432538       -11.7700
 253   2.0000      -0.430367       -11.7109
 254   2.0000      -0.427569       -11.6347
 255   2.0000      -0.427021       -11.6198
 256   2.0000      -0.426368       -11.6021
 257   2.0000      -0.426169       -11.5966
 258   2.0000      -0.423998       -11.5376
 259   2.0000      -0.422452       -11.4955
 260   2.0000      -0.418545       -11.3892
 261   2.0000      -0.418069       -11.3762
 262   2.0000      -0.410297       -11.1648
 263   2.0000      -0.410236       -11.1631
 264   2.0000      -0.408228       -11.1084
 265   2.0000      -0.405688       -11.0393
 266   2.0000      -0.404498       -11.0069
 267   2.0000      -0.401483       -10.9249
 268   2.0000      -0.392958       -10.6929
 269   2.0000      -0.387266       -10.5380
 270   2.0000      -0.385552       -10.4914
 271   2.0000      -0.382557       -10.4099
 272   2.0000      -0.378608       -10.3024
 273   2.0000      -0.373740       -10.1700
 274   2.0000      -0.357307        -9.7228
 275   2.0000      -0.351833        -9.5739
 276   2.0000      -0.345732        -9.4078
 277   2.0000      -0.342422        -9.3178
 278   2.0000      -0.340295        -9.2599
 279   2.0000      -0.335296        -9.1239
 280   2.0000      -0.333071        -9.0633
 281   2.0000      -0.326736        -8.8909
 282   2.0000      -0.317048        -8.6273
 283   2.0000      -0.316408        -8.6099
 284   2.0000      -0.311509        -8.4766
 285   2.0000      -0.302488        -8.2311
 286   2.0000      -0.299106        -8.1391
 287   2.0000      -0.290941        -7.9169
 288   2.0000      -0.284248        -7.7348
 289   2.0000      -0.269746        -7.3402
 290   2.0000      -0.259075        -7.0498
 291   2.0000      -0.223790        -6.0896
 292   0.0000      -0.106918        -2.9094
 293   0.0000      -0.096126        -2.6157
 294   0.0000      -0.082403        -2.2423
 295   0.0000      -0.059721        -1.6251
 296   0.0000      -0.056924        -1.5490

MULLIKEN ATOMIC CHARGES
-----------------------
   0 C :   -0.107913
   1 C :    0.241333
   2 F :   -0.172282
   3 C :    0.240159
   4 F :   -0.173124
   5 C :   -0.106252
   6 C :    0.117848
   7 C :    0.113641
   8 C :   -0.082102
   9 C :    0.046762
  10 C :   -0.001469
  11 C :   -0.083938
  12 C :    0.159057
  13 O :   -0.155129
  14 C :   -0.082847
  15 C :    0.327395
  16 C :   -0.361180
  17 C :   -0.184664
  18 N :    0.151533
  19 C :   -0.181942
  20 N :    0.145661
  21 C :    0.054025
  22 C :   -0.095994
  23 C :   -0.009440
  24 C :    0.091904
  25 C :   -0.024297
  26 S :    0.122367
  27 C :   -0.059384
  28 C :    0.112465
  29 C :   -0.036036
  30 C :   -0.043245
  31 S :    0.107547
  32 C :   -0.069824
  33 C :   -0.042651
  34 C :    0.039660
  35 C :   -0.024291
  36 C :    0.039905
  37 C :    0.032127
  38 C :   -0.031222
  39 S :    0.059323
  40 C :   -0.031709
  41 C :    0.032459
  42 C :    0.039276
  43 C :   -0.025040
  44 S :    0.059698
  45 C :    0.045687
  46 C :   -0.077294
  47 C :   -0.037895
  48 C :    0.110130
  49 C :   -0.040298
  50 S :    0.108397
  51 C :   -0.041982
  52 C :    0.088666
  53 C :   -0.022024
  54 C :   -0.055075
  55 S :    0.134739
  56 C :   -0.101637
  57 C :    0.022862
  58 C :    0.094463
  59 C :   -0.135231
  60 C :    0.137702
  61 O :   -0.138416
  62 C :    0.015609
  63 C :   -0.083168
  64 C :    0.114879
  65 C :    0.113356
  66 C :   -0.108776
  67 C :    0.242457
  68 C :    0.238484
  69 C :   -0.103932
  70 F :   -0.172840
  71 F :   -0.171549
  72 C :   -0.085434
  73 C :    0.034746
  74 C :    0.271340
  75 C :   -0.334845
  76 C :   -0.210102
  77 N :    0.185218
  78 C :   -0.175221
  79 N :    0.149412
  80 H :    0.008743
  81 H :   -0.001679
  82 H :   -0.006869
  83 H :   -0.012110
  84 H :    0.002512
  85 H :    0.009107
  86 H :   -0.027148
  87 H :   -0.020420
  88 H :   -0.009156
  89 H :   -0.013724
  90 H :   -0.007258
  91 H :   -0.008867
  92 H :   -0.009014
  93 H :   -0.005927
  94 H :   -0.012270
  95 H :   -0.007234
  96 H :   -0.026558
  97 H :   -0.027937
  98 H :   -0.006319
  99 H :    0.028357
 100 H :   -0.007958
 101 H :    0.005218
 102 H :    0.000336
 103 H :   -0.004427
Sum of atomic charges:   -0.0000000

LOEWDIN ATOMIC CHARGES
----------------------
   0 C :   -0.028899
   1 C :    0.066272
   2 F :   -0.049721
   3 C :    0.067748
   4 F :   -0.050401
   5 C :   -0.033805
   6 C :   -0.008794
   7 C :   -0.006760
   8 C :    0.017638
   9 C :   -0.023313
  10 C :   -0.051652
  11 C :    0.028384
  12 C :    0.087998
  13 O :   -0.143504
  14 C :   -0.095649
  15 C :    0.076405
  16 C :   -0.140378
  17 C :   -0.025340
  18 N :   -0.047400
  19 C :   -0.016060
  20 N :   -0.055369
  21 C :    0.054506
  22 C :   -0.170429
  23 C :    0.007620
  24 C :   -0.055183
  25 C :   -0.143263
  26 S :    0.406442
  27 C :   -0.041756
  28 C :   -0.027143
  29 C :   -0.153638
  30 C :   -0.019596
  31 S :    0.389990
  32 C :   -0.142725
  33 C :   -0.070563
  34 C :   -0.077401
  35 C :   -0.134083
  36 C :   -0.027032
  37 C :   -0.030718
  38 C :   -0.175697
  39 S :    0.391314
  40 C :   -0.171688
  41 C :   -0.033075
  42 C :   -0.024005
  43 C :   -0.137130
  44 S :    0.391261
  45 C :   -0.071528
  46 C :   -0.146706
  47 C :   -0.066347
  48 C :   -0.030672
  49 C :   -0.151375
  50 S :    0.391249
  51 C :   -0.023561
  52 C :   -0.045557
  53 C :   -0.140952
  54 C :   -0.036882
  55 S :    0.414801
  56 C :   -0.171537
  57 C :   -0.002826
  58 C :    0.055096
  59 C :   -0.092107
  60 C :    0.082800
  61 O :   -0.139462
  62 C :   -0.053729
  63 C :    0.030850
  64 C :   -0.009489
  65 C :   -0.005831
  66 C :   -0.030576
  67 C :    0.066890
  68 C :    0.066926
  69 C :   -0.032530
  70 F :   -0.050056
  71 F :   -0.049317
  72 C :    0.012526
  73 C :   -0.020096
  74 C :    0.064868
  75 C :   -0.139191
  76 C :   -0.020996
  77 N :   -0.034847
  78 C :   -0.019510
  79 N :   -0.053165
  80 H :    0.048056
  81 H :    0.044375
  82 H :    0.039854
  83 H :    0.039288
  84 H :    0.042900
  85 H :    0.034623
  86 H :    0.032390
  87 H :    0.035485
  88 H :    0.016206
  89 H :    0.034536
  90 H :    0.035729
  91 H :    0.034162
  92 H :    0.034055
  93 H :    0.036243
  94 H :    0.035181
  95 H :    0.016449
  96 H :    0.033428
  97 H :    0.032368
  98 H :    0.033923
  99 H :    0.047695
 100 H :    0.041098
 101 H :    0.047028
 102 H :    0.045143
 103 H :    0.039220

  Mayer bond orders larger than 0.100000
B(  0-C ,  1-C ) :   1.4415 B(  0-C ,  5-C ) :   0.1088 B(  0-C ,  7-C ) :   1.1864
B(  0-C , 80-H ) :   1.0070 B(  1-C ,  2-F ) :   1.1336 B(  1-C ,  3-C ) :   1.1910
B(  3-C ,  4-F ) :   1.1317 B(  3-C ,  5-C ) :   1.4428 B(  5-C ,  6-C ) :   1.1931
B(  5-C , 81-H ) :   1.0073 B(  6-C ,  7-C ) :   1.2562 B(  6-C , 11-C ) :   1.1864
B(  7-C ,  8-C ) :   1.2192 B(  8-C ,  9-C ) :   1.4468 B(  8-C , 82-H ) :   0.9889
B(  9-C , 10-C ) :   1.2230 B(  9-C , 15-C ) :   0.9783 B( 10-C , 11-C ) :   1.4714
B( 10-C , 12-C ) :   0.9520 B( 11-C , 83-H ) :   1.0163 B( 12-C , 13-O ) :   2.1672
B( 12-C , 14-C ) :   0.9375 B( 14-C , 15-C ) :   1.0856 B( 14-C , 21-C ) :   1.5858
B( 15-C , 16-C ) :   1.6157 B( 16-C , 17-C ) :   1.1371 B( 16-C , 19-C ) :   1.1528
B( 17-C , 18-N ) :   2.9599 B( 19-C , 20-N ) :   2.9556 B( 21-C , 22-C ) :   1.2193
B( 21-C , 84-H ) :   0.9067 B( 22-C , 23-C ) :   1.4849 B( 22-C , 26-S ) :   1.0604
B( 23-C , 24-C ) :   1.1716 B( 23-C , 85-H ) :   0.9823 B( 24-C , 25-C ) :   1.2543
B( 24-C , 30-C ) :   1.2839 B( 25-C , 26-S ) :   1.0642 B( 25-C , 27-C ) :   1.3774
B( 27-C , 28-C ) :   1.3167 B( 27-C , 86-H ) :   1.0022 B( 28-C , 29-C ) :   1.2502
B( 28-C , 33-C ) :   1.1999 B( 29-C , 30-C ) :   1.4153 B( 29-C , 31-S ) :   1.0398
B( 30-C , 87-H ) :   1.0028 B( 31-S , 32-C ) :   1.0646 B( 32-C , 33-C ) :   1.5089
B( 32-C , 34-C ) :   1.1597 B( 33-C , 88-H ) :   0.9788 B( 34-C , 35-C ) :   1.6051
B( 34-C , 89-H ) :   0.9538 B( 35-C , 36-C ) :   1.1397 B( 35-C , 39-S ) :   1.0476
B( 36-C , 37-C ) :   1.5963 B( 36-C , 90-H ) :   0.9993 B( 37-C , 38-C ) :   1.1824
B( 37-C , 91-H ) :   0.9934 B( 38-C , 39-S ) :   1.0379 B( 38-C , 40-C ) :   1.5154
B( 40-C , 41-C ) :   1.1829 B( 40-C , 44-S ) :   1.0422 B( 41-C , 42-C ) :   1.5965
B( 41-C , 92-H ) :   0.9930 B( 42-C , 43-C ) :   1.1411 B( 42-C , 93-H ) :   0.9984
B( 43-C , 44-S ) :   1.0420 B( 43-C , 45-C ) :   1.6096 B( 45-C , 46-C ) :   1.1588
B( 45-C , 94-H ) :   0.9526 B( 46-C , 47-C ) :   1.5151 B( 46-C , 50-S ) :   1.0635
B( 47-C , 48-C ) :   1.1979 B( 47-C , 95-H ) :   0.9770 B( 48-C , 49-C ) :   1.2585
B( 48-C , 54-C ) :   1.3163 B( 49-C , 50-S ) :   1.0420 B( 49-C , 51-C ) :   1.4106
B( 51-C , 52-C ) :   1.2921 B( 51-C , 96-H ) :   1.0017 B( 52-C , 53-C ) :   1.2719
B( 52-C , 57-C ) :   1.2104 B( 53-C , 54-C ) :   1.3799 B( 53-C , 55-S ) :   1.0574
B( 54-C , 97-H ) :   1.0007 B( 55-S , 56-C ) :   1.0686 B( 56-C , 57-C ) :   1.4949
B( 56-C , 58-C ) :   1.1236 B( 57-C , 98-H ) :   0.9904 B( 58-C , 59-C ) :   1.6677
B( 58-C , 99-H ) :   0.9267 B( 59-C , 60-C ) :   0.9418 B( 59-C , 74-C ) :   1.0442
B( 60-C , 61-O ) :   2.2712 B( 60-C , 62-C ) :   0.9161 B( 62-C , 63-C ) :   1.4753
B( 62-C , 73-C ) :   1.2225 B( 63-C , 64-C ) :   1.1927 B( 63-C ,100-H ) :   1.0163
B( 64-C , 65-C ) :   1.2569 B( 64-C , 69-C ) :   1.1920 B( 65-C , 66-C ) :   1.1904
B( 65-C , 72-C ) :   1.2143 B( 66-C , 67-C ) :   1.4410 B( 66-C , 69-C ) :   0.1092
B( 66-C ,101-H ) :   1.0069 B( 67-C , 68-C ) :   1.1927 B( 67-C , 71-F ) :   1.1346
B( 68-C , 69-C ) :   1.4433 B( 68-C , 70-F ) :   1.1318 B( 69-C ,102-H ) :   1.0069
B( 72-C , 73-C ) :   1.4572 B( 72-C ,103-H ) :   0.9931 B( 73-C , 74-C ) :   0.9936
B( 74-C , 75-C ) :   1.6470 B( 75-C , 76-C ) :   1.1669 B( 75-C , 78-C ) :   1.1298
B( 76-C , 77-N ) :   3.0059 B( 78-C , 79-N ) :   2.9822

-----------------------------------------------------------------------------
         ABSORPTION SPECTRUM VIA TRANSITION ELECTRIC DIPOLE MOMENTS
-----------------------------------------------------------------------------
State   Energy  Wavelength   fosc         T2         TX        TY        TZ
        (cm-1)    (nm)                  (au**2)     (au)      (au)      (au)
-----------------------------------------------------------------------------
   0   12597.0    793.8   1.151062013  30.08205  -0.14044  -5.35354   1.18402
   1   16808.2    594.9   1.162293378  22.76516  -2.37698  -0.64236  -4.08687
   2   19442.4    514.3   0.137061397   2.32082  -0.58454  -1.40621  -0.04117
   3   19996.7    500.1   0.551120845   9.07327   1.57823   0.70661   2.46641
   4   21359.4    468.2   0.053724309   0.82805   0.41642   0.76293   0.26942
   5   23442.6    426.6   0.472243324   6.63186   1.27521  -0.17847   2.23021
   6   24091.0    415.1   0.221923024   3.03265   0.04674  -1.74048  -0.03449
   7   25020.3    399.7   0.040656798   0.53495   0.23152   0.09303   0.68753
   8   25425.6    393.3   0.159992349   2.07159   0.95380  -0.36097   1.01565
   9   25526.0    391.8   0.180775688   2.33149  -0.71345  -0.08876  -1.34707
  10   26159.7    382.3   0.142816238   1.79730  -0.65256  -0.11086  -1.16583
  11   27400.1    365.0   0.055099989   0.66203   0.20558   0.73176   0.29034
  12   27648.4    361.7   0.264839856   3.15347   1.15116  -0.55565   1.23270
  13   27981.7    357.4   0.135604457   1.59542   0.87185   0.86791   0.28644
  14   28451.3    351.5   0.001701536   0.01969   0.00306   0.11947  -0.07353
  15   28812.3    347.1   0.112425671   1.28459   0.14008  -0.97250   0.56499
  16   28974.2    345.1   0.068621495   0.77969  -0.25331  -0.25411  -0.80682
  17   29094.3    343.7   0.269610396   3.05074  -1.09002  -0.24201  -1.34314
  18   29396.8    340.2   0.069348749   0.77663  -0.29799   0.66670  -0.49330
  19   29699.5    336.7   0.011509127   0.12758  -0.28676   0.09571  -0.19023
  20   30151.9    331.7   0.042986330   0.46934   0.51903   0.40779   0.18347
  21   30592.3    326.9   0.036169886   0.38923  -0.25258  -0.56921   0.03795
  22   31154.1    321.0   0.112363385   1.18737   0.28013  -0.95615   0.44122
  23   31557.8    316.9   0.049630841   0.51775   0.44818   0.37921   0.41603
  24   31870.4    313.8   0.002308474   0.02385   0.13359  -0.07050   0.03207
  25   32323.8    309.4   0.005769012   0.05876  -0.20199   0.04449  -0.12640
  26   32665.2    306.1   0.000513436   0.00517  -0.06110   0.00464  -0.03769
  27   32963.5    303.4   0.039257755   0.39207   0.50344   0.31032   0.20572
  28   33550.8    298.1   0.147984727   1.45208  -0.78321  -0.02806  -0.91535
  29   33733.7    296.4   0.469329033   4.58025  -0.42825  -2.09569   0.07022
  30   33858.2    295.3   0.077781293   0.75629  -0.48268  -0.71854  -0.08374
  31   34020.1    293.9   0.248477819   2.40451   1.32730  -0.50679   0.62126
  32   34290.8    291.6   0.028589384   0.27448   0.19917   0.47331   0.10384
  33   34573.6    289.2   0.122041098   1.16208   0.55786  -0.82014   0.42218
  34   34878.4    286.7   0.021976181   0.20743  -0.05095   0.44421  -0.08666
  35   34976.5    285.9   0.001119676   0.01054  -0.01864   0.09688  -0.02839
  36   35100.1    284.9   0.592082590   5.55328   1.18499   2.02618   0.20895
  37   35328.0    283.1   0.084850765   0.79070  -0.70565   0.01894  -0.54075
  38   35524.5    281.5   0.125767034   1.16550   0.61092   0.84010   0.29414
  39   35804.6    279.3   0.033675115   0.30963  -0.52423   0.01827  -0.18568
  40   36083.2    277.1   0.008003679   0.07302   0.02112   0.23557  -0.13070
  41   36339.1    275.2   0.011274042   0.10214   0.25165   0.04254   0.19236
  42   36809.3    271.7   0.042000388   0.37564   0.17741   0.57392   0.12156
  43   37272.9    268.3   0.018757878   0.16568   0.14438   0.15488   0.34762
  44   37288.6    268.2   0.150698331   1.33048  -0.27128  -1.12104   0.01297
  45   37587.5    266.0   0.003217971   0.02818  -0.12848  -0.07803  -0.07477
  46   37705.9    265.2   0.040403953   0.35277  -0.40032   0.09442  -0.42848
  47   37823.8    264.4   0.100424479   0.87408  -0.46852  -0.04095  -0.80802
  48   38189.1    261.9   0.069333783   0.59770  -0.03692  -0.76605   0.09750
  49   38394.6    260.5   0.024517751   0.21023  -0.29451   0.33874   0.09351
  50   38569.0    259.3   0.005232256   0.04466  -0.08477   0.13829  -0.13546
  51   38847.9    257.4   0.227406917   1.92713   0.92622   0.77717   0.68210
  52   39117.8    255.6   0.056142199   0.47249  -0.22881  -0.52828  -0.37557
  53   39554.7    252.8   0.010450825   0.08698  -0.09294   0.26357   0.09421
  54   39773.9    251.4   0.029444573   0.24371  -0.23297   0.41933   0.11665
  55   39953.5    250.3   0.014854789   0.12240  -0.21087   0.27889  -0.01247
  56   40084.7    249.5   0.046731590   0.38380   0.35922  -0.00300   0.50473

FINAL SINGLE POINT ENERGY     -5606.432542925580

DIPOLE MOMENT
-------------
                                X             Y             Z
Electronic contribution:     29.51280       5.82916      43.55948
Nuclear contribution   :    -30.79364      -7.29635     -48.06499
                        -----------------------------------------
Total Dipole Moment    :     -1.28083      -1.46719      -4.50551
                        -----------------------------------------
Magnitude (a.u.)       :      4.90844
Magnitude (Debye)      :     12.47627

Rotational constants in cm-1:     0.000499     0.000224     0.000156
Rotational constants in MHz :    14.971010     6.714463     4.679575

                             ****ORCA TERMINATED NORMALLY****
TOTAL RUN TIME: 0 days 0 hours 11 minutes 54 seconds 784 msec
