                         Program Version 4.2.0 -  RELEASE  -
|  1> # ORCA input file
|  2> # SCF done       -165.511585393701          0.005638478192
|  3> ! CAM-B3LYP def2-SVP def2/J RIJCOSX Grid4 TightSCF
|  4> %maxcore 5000
|  5> %tddft
|  6>     Mode sTDDFT
|  7>     Ethresh 5.0
|  8>     maxcore 5000
|  9> end
| 10>
| 11> %pal
| 12>   nprocs 6
| 13>   end
| 14> * xyz 0 1
| 15>    C       -3.61714        10.87191        -7.87237
| 16>    C       -3.07319         9.71328        -8.33912
| 17>    C       -2.65411         8.88362        -7.28159
| 18>    C       -2.90086         9.45145        -6.02736
| 19>    S       -3.63643        10.98832        -6.14685
| 20>    C       -2.44933         8.54991        -5.02185
| 21>    C       -1.92401         7.40934        -5.64985
| 22>    C       -2.02527         7.58686        -7.09253
| 23>    C       -1.59168         6.72751        -8.05886
| 24>    C       -0.97380         5.49691        -7.74848
| 25>    N       -0.47337         4.49671        -7.49608
| 26>    C       -1.72908         7.01466        -9.43356
| 27>    N       -1.83917         7.25251       -10.54955
| 28>    C       -1.45592         6.45606        -4.74394
| 29>    C       -1.62090         6.87543        -3.43978
| 30>    S       -2.35984         8.46192        -3.32403
| 31>    C       -1.25189         6.23241        -2.21423
| 32>    C       -0.76065         4.97056        -2.09239
| 33>    C       -0.41673         4.45406        -0.80356
| 34>    C        0.03723         3.16097        -0.62768
| 35>    C        0.35534         2.65260         0.64190
| 36>    N        0.60019         2.23365         1.68166
| 37>    C        0.18622         2.27765        -1.71021
| 38>    N        0.30095         1.56444        -2.60214
| 39>    C       -0.57349         5.36199         0.29856
| 40>    C       -1.06585         6.60476         0.08879
| 41>    O       -1.43798         7.04241        -1.13955
| 42>    C       -1.25628         7.63475         1.10898
| 43>    C       -0.60962         7.67319         2.29757
| 44>    C       -0.81120         8.79081         3.17586
| 45>    C       -0.14599         8.90752         4.38673
| 46>    C       -0.30577        10.04137         5.20054
| 47>    N       -0.43363        10.98412         5.84689
| 48>    C        0.73969         7.92215         4.84841
| 49>    N        1.46234         7.11194         5.22246
| 50>    C       -1.71750         9.78622         2.72120
| 51>    C       -2.35398         9.67187         1.51282
| 52>    O       -2.11751         8.59568         0.70310
| 53>    C       -3.31019        10.55767         0.95567
| 54>    C       -3.71686        11.78100         1.42158
| 55>    C       -4.73597        12.57679         0.82729
| 56>    C       -4.96424        13.76318         1.45205
| 57>    C       -4.12667        13.98956         2.56753
| 58>    S       -3.05626        12.62194         2.80555
| 59>    C       -4.05821        15.08582         3.39995
| 60>    C       -4.86166        16.25274         3.39656
| 61>    C       -4.51514        17.15670         4.34844
| 62>    C       -3.40724        16.77058         5.15548
| 63>    S       -2.85201        15.18143         4.66078
| 64>    C       -2.84627        17.53693         6.13817
| 65>    C       -1.70934        17.24554         6.92733
| 66>    C       -0.90681        16.13076         6.97163
| 67>    C        0.17995        16.25676         7.86450
| 68>    C        1.20675        15.35994         8.15911
| 69>    C        2.17041        15.77217         9.06765
| 70>    C        2.05468        17.06297         9.64960
| 71>    N        1.09038        17.92019         9.39319
| 72>    C        0.18729        17.52205         8.52250
| 73>    S       -1.14492        18.50636         8.03027
| 74>    S        3.35085        17.41253        10.75865
| 75>    C        4.04356        15.83975        10.43463
| 76>    C        3.33551        15.09960         9.54977
| 77>    F        3.67676        13.86990         9.14794
| 78>    F        5.16874        15.48725        11.04597
| 79>    H       -4.01501        11.68598        -8.44221
| 80>    H       -2.97863         9.47597        -9.38117
| 81>    H       -1.01507         5.51495        -5.01562
| 82>    H       -0.63572         4.34834        -2.96240
| 83>    H       -0.30758         5.03410         1.28935
| 84>    H        0.07963         6.89552         2.58031
| 85>    H       -1.90960        10.62924         3.36054
| 86>    H       -3.76700        10.20666         0.04011
| 87>    H       -5.26893        12.23596        -0.04244
| 88>    H       -5.69815        14.48286         1.13652
| 89>    H       -5.66700        16.38391         2.69720
| 90>    H       -5.00741        18.10080         4.50046
| 91>    H       -3.30518        18.50021         6.31850
| 92>    H       -1.07277        15.23987         6.39607
| 93>    H        1.25369        14.38615         7.69677
| 94> *
| 95>
| 96>                          ****END OF INPUT****

CARTESIAN COORDINATES (ANGSTROEM)
---------------------------------
  C     -3.617140   10.871910   -7.872370
  C     -3.073190    9.713280   -8.339120
  C     -2.654110    8.883620   -7.281590
  C     -2.900860    9.451450   -6.027360
  S     -3.636430   10.988320   -6.146850
  C     -2.449330    8.549910   -5.021850
  C     -1.924010    7.409340   -5.649850
  C     -2.025270    7.586860   -7.092530
  C     -1.591680    6.727510   -8.058860
  C     -0.973800    5.496910   -7.748480
  N     -0.473370    4.496710   -7.496080
  C     -1.729080    7.014660   -9.433560
  N     -1.839170    7.252510  -10.549550
  C     -1.455920    6.456060   -4.743940
  C     -1.620900    6.875430   -3.439780
  S     -2.359840    8.461920   -3.324030
  C     -1.251890    6.232410   -2.214230
  C     -0.760650    4.970560   -2.092390
  C     -0.416730    4.454060   -0.803560
  C      0.037230    3.160970   -0.627680
  C      0.355340    2.652600    0.641900
  N      0.600190    2.233650    1.681660
  C      0.186220    2.277650   -1.710210
  N      0.300950    1.564440   -2.602140
  C     -0.573490    5.361990    0.298560
  C     -1.065850    6.604760    0.088790
  O     -1.437980    7.042410   -1.139550
  C     -1.256280    7.634750    1.108980
  C     -0.609620    7.673190    2.297570
  C     -0.811200    8.790810    3.175860
  C     -0.145990    8.907520    4.386730
  C     -0.305770   10.041370    5.200540
  N     -0.433630   10.984120    5.846890
  C      0.739690    7.922150    4.848410
  N      1.462340    7.111940    5.222460
  C     -1.717500    9.786220    2.721200
  C     -2.353980    9.671870    1.512820
  O     -2.117510    8.595680    0.703100
  C     -3.310190   10.557670    0.955670
  C     -3.716860   11.781000    1.421580
  C     -4.735970   12.576790    0.827290
  C     -4.964240   13.763180    1.452050
  C     -4.126670   13.989560    2.567530
  S     -3.056260   12.621940    2.805550
  C     -4.058210   15.085820    3.399950
  C     -4.861660   16.252740    3.396560
  C     -4.515140   17.156700    4.348440
  C     -3.407240   16.770580    5.155480
  S     -2.852010   15.181430    4.660780
  C     -2.846270   17.536930    6.138170
  C     -1.709340   17.245540    6.927330
  C     -0.906810   16.130760    6.971630
  C      0.179950   16.256760    7.864500
  C      1.206750   15.359940    8.159110
  C      2.170410   15.772170    9.067650
  C      2.054680   17.062970    9.649600
  N      1.090380   17.920190    9.393190
  C      0.187290   17.522050    8.522500
  S     -1.144920   18.506360    8.030270
  S      3.350850   17.412530   10.758650
  C      4.043560   15.839750   10.434630
  C      3.335510   15.099600    9.549770
  F      3.676760   13.869900    9.147940
  F      5.168740   15.487250   11.045970
  H     -4.015010   11.685980   -8.442210
  H     -2.978630    9.475970   -9.381170
  H     -1.015070    5.514950   -5.015620
  H     -0.635720    4.348340   -2.962400
  H     -0.307580    5.034100    1.289350
  H      0.079630    6.895520    2.580310
  H     -1.909600   10.629240    3.360540
  H     -3.767000   10.206660    0.040110
  H     -5.268930   12.235960   -0.042440
  H     -5.698150   14.482860    1.136520
  H     -5.667000   16.383910    2.697200
  H     -5.007410   18.100800    4.500460
  H     -3.305180   18.500210    6.318500
  H     -1.072770   15.239870    6.396070
  H      1.253690   14.386150    7.696770

 Total Charge           Charge          ....    0
 Multiplicity           Mult            ....    1
 Number of Electrons    NEL             ....  476
 Basis Dimension        Dim             ....  995

ORBITAL ENERGIES
----------------

  NO   OCC          E(Eh)            E(eV)
   0   2.0000     -89.010007     -2422.0854
   1   2.0000     -89.002621     -2421.8845
   2   2.0000     -88.974649     -2421.1233
   3   2.0000     -88.973185     -2421.0835
   4   2.0000     -88.967978     -2420.9417
   5   2.0000     -88.960725     -2420.7444
   6   2.0000     -24.806781      -675.0268
   7   2.0000     -24.792264      -674.6318
   8   2.0000     -19.338294      -526.2217
   9   2.0000     -19.325545      -525.8748
  10   2.0000     -14.440235      -392.9388
  11   2.0000     -14.440164      -392.9368
  12   2.0000     -14.427963      -392.6048
  13   2.0000     -14.403052      -391.9270
  14   2.0000     -14.402377      -391.9086
  15   2.0000     -14.401177      -391.8760
  16   2.0000     -14.396522      -391.7493
  17   2.0000     -10.402907      -283.0775
  18   2.0000     -10.402214      -283.0586
  19   2.0000     -10.398091      -282.9465
  20   2.0000     -10.387078      -282.6468
  21   2.0000     -10.386534      -282.6320
  22   2.0000     -10.377162      -282.3769
  23   2.0000     -10.365019      -282.0465
  24   2.0000     -10.364072      -282.0207
  25   2.0000     -10.351865      -281.6886
  26   2.0000     -10.350303      -281.6461
  27   2.0000     -10.347632      -281.5734
  28   2.0000     -10.344914      -281.4994
  29   2.0000     -10.344865      -281.4981
  30   2.0000     -10.344735      -281.4946
  31   2.0000     -10.343899      -281.4718
  32   2.0000     -10.343596      -281.4636
  33   2.0000     -10.340365      -281.3756
  34   2.0000     -10.339973      -281.3650
  35   2.0000     -10.339681      -281.3570
  36   2.0000     -10.333247      -281.1820
  37   2.0000     -10.333178      -281.1801
  38   2.0000     -10.327953      -281.0379
  39   2.0000     -10.327751      -281.0324
  40   2.0000     -10.326387      -280.9953
  41   2.0000     -10.325147      -280.9615
  42   2.0000     -10.323865      -280.9266
  43   2.0000     -10.320585      -280.8374
  44   2.0000     -10.319698      -280.8133
  45   2.0000     -10.319547      -280.8092
  46   2.0000     -10.317312      -280.7483
  47   2.0000     -10.316527      -280.7270
  48   2.0000     -10.315757      -280.7060
  49   2.0000     -10.315750      -280.7058
  50   2.0000     -10.315629      -280.7025
  51   2.0000     -10.311920      -280.6016
  52   2.0000     -10.311631      -280.5937
  53   2.0000     -10.308433      -280.5067
  54   2.0000     -10.306364      -280.4504
  55   2.0000     -10.305758      -280.4339
  56   2.0000     -10.305210      -280.4190
  57   2.0000     -10.305088      -280.4157
  58   2.0000     -10.303885      -280.3830
  59   2.0000     -10.303079      -280.3610
  60   2.0000     -10.302786      -280.3531
  61   2.0000     -10.300189      -280.2824
  62   2.0000     -10.298794      -280.2444
  63   2.0000     -10.294180      -280.1189
  64   2.0000      -8.104344      -220.5304
  65   2.0000      -8.097739      -220.3507
  66   2.0000      -8.070399      -219.6067
  67   2.0000      -8.069034      -219.5696
  68   2.0000      -8.065061      -219.4615
  69   2.0000      -8.057560      -219.2574
  70   2.0000      -6.073545      -165.2696
  71   2.0000      -6.069323      -165.1547
  72   2.0000      -6.067008      -165.0917
  73   2.0000      -6.066839      -165.0871
  74   2.0000      -6.062513      -164.9694
  75   2.0000      -6.060341      -164.9103
  76   2.0000      -6.040137      -164.3605
  77   2.0000      -6.038792      -164.3239
  78   2.0000      -6.035954      -164.2466
  79   2.0000      -6.034627      -164.2106
  80   2.0000      -6.034621      -164.2104
  81   2.0000      -6.031447      -164.1240
  82   2.0000      -6.030830      -164.1072
  83   2.0000      -6.030041      -164.0858
  84   2.0000      -6.026958      -164.0019
  85   2.0000      -6.025786      -163.9700
  86   2.0000      -6.023092      -163.8967
  87   2.0000      -6.018827      -163.7806
  88   2.0000      -1.324421       -36.0393
  89   2.0000      -1.303857       -35.4798
  90   2.0000      -1.256287       -34.1853
  91   2.0000      -1.231683       -33.5158
  92   2.0000      -1.074729       -29.2449
  93   2.0000      -1.059482       -28.8300
  94   2.0000      -1.032677       -28.1006
  95   2.0000      -1.023861       -27.8607
  96   2.0000      -1.017899       -27.6984
  97   2.0000      -1.014533       -27.6069
  98   2.0000      -1.005198       -27.3528
  99   2.0000      -1.003232       -27.2993
 100   2.0000      -0.999748       -27.2045
 101   2.0000      -0.992854       -27.0169
 102   2.0000      -0.982185       -26.7266
 103   2.0000      -0.979338       -26.6491
 104   2.0000      -0.977501       -26.5991
 105   2.0000      -0.970844       -26.4180
 106   2.0000      -0.970089       -26.3975
 107   2.0000      -0.964339       -26.2410
 108   2.0000      -0.961191       -26.1553
 109   2.0000      -0.935478       -25.4556
 110   2.0000      -0.920768       -25.0554
 111   2.0000      -0.913954       -24.8699
 112   2.0000      -0.902679       -24.5631
 113   2.0000      -0.893872       -24.3235
 114   2.0000      -0.880825       -23.9685
 115   2.0000      -0.878859       -23.9150
 116   2.0000      -0.876168       -23.8418
 117   2.0000      -0.868138       -23.6232
 118   2.0000      -0.867030       -23.5931
 119   2.0000      -0.852642       -23.2016
 120   2.0000      -0.849162       -23.1069
 121   2.0000      -0.837337       -22.7851
 122   2.0000      -0.825841       -22.4723
 123   2.0000      -0.816530       -22.2189
 124   2.0000      -0.814954       -22.1760
 125   2.0000      -0.807563       -21.9749
 126   2.0000      -0.792304       -21.5597
 127   2.0000      -0.781510       -21.2660
 128   2.0000      -0.777484       -21.1564
 129   2.0000      -0.755694       -20.5635
 130   2.0000      -0.745823       -20.2949
 131   2.0000      -0.728400       -19.8208
 132   2.0000      -0.720376       -19.6024
 133   2.0000      -0.715453       -19.4685
 134   2.0000      -0.713402       -19.4127
 135   2.0000      -0.704335       -19.1659
 136   2.0000      -0.698736       -19.0136
 137   2.0000      -0.691220       -18.8090
 138   2.0000      -0.688913       -18.7463
 139   2.0000      -0.682057       -18.5597
 140   2.0000      -0.676935       -18.4203
 141   2.0000      -0.673315       -18.3218
 142   2.0000      -0.661642       -18.0042
 143   2.0000      -0.655454       -17.8358
 144   2.0000      -0.652581       -17.7576
 145   2.0000      -0.645085       -17.5537
 146   2.0000      -0.637197       -17.3390
 147   2.0000      -0.633992       -17.2518
 148   2.0000      -0.630443       -17.1552
 149   2.0000      -0.627992       -17.0885
 150   2.0000      -0.623169       -16.9573
 151   2.0000      -0.620179       -16.8759
 152   2.0000      -0.612719       -16.6729
 153   2.0000      -0.610679       -16.6174
 154   2.0000      -0.607737       -16.5374
 155   2.0000      -0.603855       -16.4317
 156   2.0000      -0.595884       -16.2148
 157   2.0000      -0.588285       -16.0080
 158   2.0000      -0.586218       -15.9518
 159   2.0000      -0.584278       -15.8990
 160   2.0000      -0.584158       -15.8958
 161   2.0000      -0.578734       -15.7482
 162   2.0000      -0.577422       -15.7124
 163   2.0000      -0.568065       -15.4578
 164   2.0000      -0.563540       -15.3347
 165   2.0000      -0.559266       -15.2184
 166   2.0000      -0.554476       -15.0881
 167   2.0000      -0.550946       -14.9920
 168   2.0000      -0.546929       -14.8827
 169   2.0000      -0.538660       -14.6577
 170   2.0000      -0.533031       -14.5045
 171   2.0000      -0.532336       -14.4856
 172   2.0000      -0.531802       -14.4711
 173   2.0000      -0.523878       -14.2555
 174   2.0000      -0.518341       -14.1048
 175   2.0000      -0.515866       -14.0374
 176   2.0000      -0.515207       -14.0195
 177   2.0000      -0.514105       -13.9895
 178   2.0000      -0.511547       -13.9199
 179   2.0000      -0.508580       -13.8392
 180   2.0000      -0.504746       -13.7348
 181   2.0000      -0.502841       -13.6830
 182   2.0000      -0.502255       -13.6670
 183   2.0000      -0.498852       -13.5744
 184   2.0000      -0.497580       -13.5398
 185   2.0000      -0.496278       -13.5044
 186   2.0000      -0.494128       -13.4459
 187   2.0000      -0.489848       -13.3294
 188   2.0000      -0.487224       -13.2580
 189   2.0000      -0.484256       -13.1773
 190   2.0000      -0.483907       -13.1678
 191   2.0000      -0.473743       -12.8912
 192   2.0000      -0.470561       -12.8046
 193   2.0000      -0.470064       -12.7911
 194   2.0000      -0.467385       -12.7182
 195   2.0000      -0.464106       -12.6290
 196   2.0000      -0.461169       -12.5490
 197   2.0000      -0.455634       -12.3984
 198   2.0000      -0.454371       -12.3641
 199   2.0000      -0.450365       -12.2551
 200   2.0000      -0.449526       -12.2322
 201   2.0000      -0.449149       -12.2220
 202   2.0000      -0.448630       -12.2078
 203   2.0000      -0.438887       -11.9427
 204   2.0000      -0.436435       -11.8760
 205   2.0000      -0.436252       -11.8710
 206   2.0000      -0.436007       -11.8643
 207   2.0000      -0.433801       -11.8043
 208   2.0000      -0.432146       -11.7593
 209   2.0000      -0.431472       -11.7410
 210   2.0000      -0.428608       -11.6630
 211   2.0000      -0.426921       -11.6171
 212   2.0000      -0.420765       -11.4496
 213   2.0000      -0.420062       -11.4305
 214   2.0000      -0.419836       -11.4243
 215   2.0000      -0.417966       -11.3734
 216   2.0000      -0.416504       -11.3336
 217   2.0000      -0.415964       -11.3190
 218   2.0000      -0.412918       -11.2361
 219   2.0000      -0.410047       -11.1580
 220   2.0000      -0.404094       -10.9959
 221   2.0000      -0.402091       -10.9415
 222   2.0000      -0.400318       -10.8932
 223   2.0000      -0.386649       -10.5213
 224   2.0000      -0.369897       -10.0654
 225   2.0000      -0.363900        -9.9022
 226   2.0000      -0.363329        -9.8867
 227   2.0000      -0.353936        -9.6311
 228   2.0000      -0.353336        -9.6148
 229   2.0000      -0.341806        -9.3010
 230   2.0000      -0.334566        -9.1040
 231   2.0000      -0.334217        -9.0945
 232   2.0000      -0.311628        -8.4798
 233   2.0000      -0.301043        -8.1918
 234   2.0000      -0.285213        -7.7610
 235   2.0000      -0.281601        -7.6628
 236   2.0000      -0.278608        -7.5813
 237   2.0000      -0.243981        -6.6390
 238   0.0000      -0.116821        -3.1789
 239   0.0000      -0.110850        -3.0164
 240   0.0000      -0.085041        -2.3141
 241   0.0000      -0.065342        -1.7780
 242   0.0000      -0.048986        -1.3330

MULLIKEN ATOMIC CHARGES
-----------------------
   0 C :   -0.072412
   1 C :    0.032476
   2 C :   -0.020629
   3 C :   -0.122442
   4 S :    0.184970
   5 C :   -0.090872
   6 C :   -0.005012
   7 C :    0.295476
   8 C :   -0.287061
   9 C :   -0.186367
  10 N :    0.183822
  11 C :   -0.188108
  12 N :    0.177737
  13 C :   -0.012485
  14 C :   -0.117058
  15 S :    0.226748
  16 C :    0.268690
  17 C :   -0.167112
  18 C :    0.282215
  19 C :   -0.345159
  20 C :   -0.173609
  21 N :    0.143029
  22 C :   -0.173911
  23 N :    0.140954
  24 C :   -0.120852
  25 C :    0.212957
  26 O :   -0.233853
  27 C :    0.204617
  28 C :   -0.122257
  29 C :    0.276979
  30 C :   -0.351496
  31 C :   -0.163404
  32 N :    0.110829
  33 C :   -0.175034
  34 N :    0.133406
  35 C :   -0.187559
  36 C :    0.235407
  37 O :   -0.224774
  38 C :   -0.045251
  39 C :    0.007929
  40 C :    0.024866
  41 C :    0.049483
  42 C :   -0.046750
  43 S :    0.078998
  44 C :   -0.018975
  45 C :    0.024335
  46 C :    0.055305
  47 C :   -0.037369
  48 S :    0.087455
  49 C :    0.058814
  50 C :   -0.093743
  51 C :   -0.017642
  52 C :    0.088367
  53 C :   -0.006559
  54 C :    0.046105
  55 C :   -0.148839
  56 N :   -0.014188
  57 C :   -0.125832
  58 S :    0.128549
  59 S :    0.128489
  60 C :    0.058722
  61 C :    0.241801
  62 F :   -0.170426
  63 F :   -0.150481
  64 H :    0.041424
  65 H :    0.016331
  66 H :    0.021206
  67 H :    0.033245
  68 H :    0.041833
  69 H :    0.038369
  70 H :    0.040131
  71 H :   -0.009509
  72 H :   -0.008819
  73 H :   -0.003822
  74 H :   -0.005832
  75 H :   -0.000012
  76 H :   -0.004352
  77 H :    0.014129
  78 H :    0.013668
Sum of atomic charges:   -0.0000000

LOEWDIN ATOMIC CHARGES
----------------------
   0 C :   -0.168663
   1 C :   -0.032660
   2 C :   -0.065828
   3 C :   -0.191699
   4 S :    0.480418
   5 C :   -0.167985
   6 C :   -0.071485
   7 C :    0.077884
   8 C :   -0.094569
   9 C :   -0.019692
  10 N :   -0.021124
  11 C :   -0.016952
  12 N :   -0.025583
  13 C :   -0.001195
  14 C :   -0.195264
  15 S :    0.501554
  16 C :    0.074371
  17 C :   -0.048847
  18 C :    0.051834
  19 C :   -0.166238
  20 C :   -0.033504
  21 N :   -0.055890
  22 C :   -0.030559
  23 N :   -0.057144
  24 C :   -0.024167
  25 C :    0.072509
  26 O :   -0.009257
  27 C :    0.067041
  28 C :   -0.024642
  29 C :    0.052731
  30 C :   -0.179424
  31 C :   -0.023258
  32 N :   -0.082283
  33 C :   -0.035405
  34 N :   -0.065305
  35 C :   -0.073235
  36 C :    0.087960
  37 O :   -0.005437
  38 C :   -0.105436
  39 C :   -0.110804
  40 C :   -0.042489
  41 C :   -0.012601
  42 C :   -0.192987
  43 S :    0.412100
  44 C :   -0.148047
  45 C :   -0.041130
  46 C :   -0.005380
  47 C :   -0.148382
  48 S :    0.408170
  49 C :   -0.044950
  50 C :   -0.159601
  51 C :   -0.045434
  52 C :   -0.064488
  53 C :    0.027969
  54 C :   -0.083809
  55 C :   -0.128168
  56 N :   -0.095634
  57 C :   -0.131070
  58 S :    0.411666
  59 S :    0.407982
  60 C :   -0.099577
  61 C :    0.003750
  62 F :   -0.050274
  63 F :   -0.040932
  64 H :    0.029947
  65 H :    0.044165
  66 H :    0.046820
  67 H :    0.051467
  68 H :    0.054657
  69 H :    0.052682
  70 H :    0.026800
  71 H :    0.039357
  72 H :    0.034913
  73 H :    0.036528
  74 H :    0.034877
  75 H :    0.038969
  76 H :    0.038029
  77 H :    0.024551
  78 H :    0.046787

  Mayer bond orders larger than 0.100000
B(  0-C ,  1-C ) :   1.5450 B(  0-C ,  4-S ) :   1.1585 B(  0-C , 64-H ) :   0.9640
B(  1-C ,  2-C ) :   1.2777 B(  1-C , 65-H ) :   0.9980 B(  2-C ,  3-C ) :   1.4615
B(  2-C ,  7-C ) :   1.0133 B(  3-C ,  4-S ) :   1.1294 B(  3-C ,  5-C ) :   1.1880
B(  5-C ,  6-C ) :   1.4464 B(  5-C , 15-S ) :   1.1375 B(  6-C ,  7-C ) :   0.9945
B(  6-C , 13-C ) :   1.3074 B(  7-C ,  8-C ) :   1.7197 B(  8-C ,  9-C ) :   1.1300
B(  8-C , 11-C ) :   1.1287 B(  9-C , 10-N ) :   2.9895 B( 11-C , 12-N ) :   3.0008
B( 13-C , 14-C ) :   1.5013 B( 13-C , 66-H ) :   0.9843 B( 14-C , 15-S ) :   1.0962
B( 14-C , 16-C ) :   1.0511 B( 16-C , 17-C ) :   1.5824 B( 16-C , 26-O ) :   1.1259
B( 17-C , 18-C ) :   1.1264 B( 17-C , 67-H ) :   0.9658 B( 18-C , 19-C ) :   1.5598
B( 18-C , 24-C ) :   1.1039 B( 19-C , 20-C ) :   1.1277 B( 19-C , 22-C ) :   1.1325
B( 20-C , 21-N ) :   3.0082 B( 22-C , 23-N ) :   3.0083 B( 24-C , 25-C ) :   1.6441
B( 24-C , 68-H ) :   0.9609 B( 25-C , 26-O ) :   1.1133 B( 25-C , 27-C ) :   0.9485
B( 27-C , 28-C ) :   1.6386 B( 27-C , 37-O ) :   1.1460 B( 28-C , 29-C ) :   1.1040
B( 28-C , 69-H ) :   0.9599 B( 29-C , 30-C ) :   1.5317 B( 29-C , 35-C ) :   1.2010
B( 30-C , 31-C ) :   1.1347 B( 30-C , 33-C ) :   1.1304 B( 31-C , 32-N ) :   2.9947
B( 33-C , 34-N ) :   3.0046 B( 35-C , 36-C ) :   1.4871 B( 35-C , 70-H ) :   0.9427
B( 36-C , 37-O ) :   1.0733 B( 36-C , 38-C ) :   1.1621 B( 38-C , 39-C ) :   1.5258
B( 38-C , 71-H ) :   0.9643 B( 39-C , 40-C ) :   1.1506 B( 39-C , 43-S ) :   1.0773
B( 40-C , 41-C ) :   1.5841 B( 40-C , 72-H ) :   1.0012 B( 41-C , 42-C ) :   1.1901
B( 41-C , 73-H ) :   0.9931 B( 42-C , 43-S ) :   1.0299 B( 42-C , 44-C ) :   1.5093
B( 44-C , 45-C ) :   1.1741 B( 44-C , 48-S ) :   1.0679 B( 45-C , 46-C ) :   1.6040
B( 45-C , 74-H ) :   0.9944 B( 46-C , 47-C ) :   1.1314 B( 46-C , 75-H ) :   0.9990
B( 47-C , 48-S ) :   1.0320 B( 47-C , 49-C ) :   1.6290 B( 49-C , 50-C ) :   1.1531
B( 49-C , 76-H ) :   0.9522 B( 50-C , 51-C ) :   1.5155 B( 50-C , 58-S ) :   1.0591
B( 51-C , 52-C ) :   1.1845 B( 51-C , 77-H ) :   0.9816 B( 52-C , 53-C ) :   1.3301
B( 52-C , 57-C ) :   1.1964 B( 53-C , 54-C ) :   1.3759 B( 53-C , 78-H ) :   0.9958
B( 54-C , 55-C ) :   1.1813 B( 54-C , 61-C ) :   1.0680 B( 55-C , 56-N ) :   1.5568
B( 55-C , 59-S ) :   1.0813 B( 56-N , 57-C ) :   1.5393 B( 57-C , 58-S ) :   1.0916
B( 59-S , 60-C ) :   1.0656 B( 60-C , 61-C ) :   1.5183 B( 60-C , 63-F ) :   1.1401
B( 61-C , 62-F ) :   1.1779

-----------------------------------------------------------------------------
         ABSORPTION SPECTRUM VIA TRANSITION ELECTRIC DIPOLE MOMENTS
-----------------------------------------------------------------------------
State   Energy  Wavelength   fosc         T2         TX        TY        TZ
        (cm-1)    (nm)                  (au**2)     (au)      (au)      (au)
-----------------------------------------------------------------------------
   0   14564.1    686.6   0.962941868  21.76669  -0.40929  -3.85893  -2.58994
   1   16837.7    593.9   0.082400553   1.61110  -0.33331   0.89213  -0.83911
   2   18066.2    553.5   0.010009731   0.18240   0.20280   0.19463   0.32155
   3   21340.2    468.6   0.083215873   1.28376   0.69749   0.31874   0.83407
   4   22834.0    437.9   0.275609585   3.97364  -1.32561  -0.00172  -1.48875
   5   24092.1    415.1   0.087324584   1.19327   0.19199  -1.01216  -0.36324
   6   24215.9    413.0   0.109462039   1.48812  -0.31549  -0.76664  -0.89490
   7   25311.7    395.1   0.254108770   3.30502   0.60594  -1.47358   0.87546
   8   25931.5    385.6   0.035904266   0.45582   0.57225  -0.30000  -0.19584
   9   26448.9    378.1   0.377998588   4.70499  -0.79153   0.28566  -1.99922
  10   27227.4    367.3   0.118887392   1.43749  -0.60091  -0.36219   0.97222
  11   27426.3    364.6   0.321218769   3.85575   0.71640   0.62733   1.71726
  12   27572.0    362.7   0.246072749   2.93812  -0.99381   1.31751  -0.46327
  13   28602.7    349.6   0.872857304  10.04644   2.32399  -1.11331   1.84555
  14   28955.8    345.4   0.342460788   3.89360  -0.68467   1.23357  -1.37954
  15   30119.8    332.0   0.005588941   0.06109   0.07571  -0.07367   0.22345
  16   30926.7    323.3   0.027057940   0.28803  -0.14913   0.30217  -0.41771
  17   31389.0    318.6   0.262668792   2.75490  -0.61815   1.17290   0.99855
  18   31574.7    316.7   0.475757315   4.96046  -0.91294   1.84737   0.84512
  19   32258.5    310.0   0.066166921   0.67526   0.36917  -0.26126   0.68609
  20   32706.2    305.8   0.048270761   0.48588   0.25122  -0.62092  -0.19295
  21   33784.8    296.0   0.131649825   1.28285   0.08191   0.88565   0.70126
  22   34114.8    293.1   0.082699688   0.79806  -0.22744   0.78732   0.35561
  23   34145.7    292.9   0.243064470   2.34348  -0.03989   0.20166  -1.51698
  24   34399.9    290.7   0.001381351   0.01322   0.09367  -0.00861   0.06612
  25   34453.2    290.2   0.067746069   0.64734   0.05190  -0.74597  -0.29693
  26   35286.6    283.4   0.100962259   0.94194   0.28545  -0.79773  -0.47338
  27   35682.4    280.3   0.233497783   2.15429  -0.40791   0.79923  -1.16152
  28   35750.1    279.7   0.071351264   0.65705   0.40923  -0.31591   0.62433
  29   35941.2    278.2   0.042475884   0.38907  -0.17762   0.59766   0.01791
  30   36395.4    274.8   0.040779900   0.36887  -0.25774   0.52588   0.16091
  31   36702.7    272.5   0.108511022   0.97331   0.14205  -0.89445  -0.39126
  32   36908.3    270.9   0.002933929   0.02617   0.02572  -0.02105   0.15832
  33   37035.2    270.0   0.104379838   0.92785  -0.53721  -0.03772  -0.79864
  34   37441.7    267.1   0.125792119   1.10605   0.68802  -0.41351   0.67948
  35   37611.6    265.9   0.092239139   0.80736   0.79375  -0.13572   0.39863
  36   38784.6    257.8   0.029883076   0.25365  -0.13971   0.36710   0.31523
  37   39280.5    254.6   0.003035218   0.02544   0.08226  -0.10151  -0.09148
  38   40014.7    249.9   0.036465605   0.30001  -0.33585   0.41399   0.12582
  39   40165.7    249.0   0.029052790   0.23813   0.25177  -0.03254   0.41675

FINAL SINGLE POINT ENERGY     -4918.486529026943

DIPOLE MOMENT
-------------
                                X             Y             Z
Electronic contribution:     26.96274       5.66909      26.38532
Nuclear contribution   :    -31.68305       0.69614     -28.79680
                        -----------------------------------------
Total Dipole Moment    :     -4.72031       6.36523      -2.41148
                        -----------------------------------------
Magnitude (a.u.)       :      8.28328
Magnitude (Debye)      :     21.05441

Rotational constants in cm-1:     0.001432     0.000345     0.000298
Rotational constants in MHz :    42.924348    10.339718     8.936414

                             ****ORCA TERMINATED NORMALLY****
TOTAL RUN TIME: 0 days 0 hours 6 minutes 43 seconds 960 msec
