                         Program Version 4.2.0 -  RELEASE  -
|  1> # ORCA input file
|  2> # SCF done       -174.834575550924          0.000685089378
|  3> ! CAM-B3LYP def2-SVP def2/J RIJCOSX Grid4 TightSCF
|  4> %maxcore 5000
|  5> %tddft
|  6>     Mode sTDDFT
|  7>     Ethresh 5.0
|  8>     maxcore 5000
|  9> end
| 10>
| 11> %pal
| 12>   nprocs 6
| 13>   end
| 14> * xyz 0 1
| 15>    C       13.77218         8.32510         3.51091
| 16>    C       13.52444         8.56582         2.19505
| 17>    C       12.14753         8.74526         1.95537
| 18>    C       11.38288         8.63155         3.12267
| 19>    S       12.34350         8.30845         4.49620
| 20>    C       10.01305         8.82760         2.78971
| 21>    C        9.91915         9.06540         1.41383
| 22>    C       11.26126         9.01867         0.84160
| 23>    C       11.60111         9.19241        -0.46864
| 24>    C       10.64197         9.45235        -1.46942
| 25>    N        9.86972         9.66002        -2.29143
| 26>    C       12.93777         9.12346        -0.91307
| 27>    N       14.02249         9.06617        -1.28138
| 28>    C        8.60759         9.27389         0.98271
| 29>    C        7.70156         9.19404         2.02289
| 30>    S        8.48643         8.85661         3.55923
| 31>    C        6.29296         9.34879         1.95863
| 32>    C        5.38858         9.23642         2.99401
| 33>    C        4.07854         9.44718         2.55700
| 34>    C        3.98440         9.72469         1.17415
| 35>    S        5.53227         9.72329         0.41535
| 36>    C        2.63161         9.90180         0.89218
| 37>    C        1.93673         9.72577         2.11152
| 38>    N        2.82962         9.46258         3.11754
| 39>    C        2.50113         9.18308         4.48714
| 40>    C        0.55391         9.86267         1.99086
| 41>    C        0.18999        10.14494         0.68791
| 42>    S        1.55697        10.24808        -0.40975
| 43>    C       -1.13063        10.32537         0.21682
| 44>    S       -1.45765        10.69795        -1.49583
| 45>    C       -3.12609        10.69417        -1.09933
| 46>    C       -3.30488        10.42215         0.26119
| 47>    N       -2.19577        10.22440         0.96643
| 48>    C       -4.75906        10.40187         0.61340
| 49>    C       -5.38309        10.68426        -0.72238
| 50>    C       -4.39485        10.85555        -1.69584
| 51>    S       -5.05481        11.17337        -3.24512
| 52>    C       -6.68250        11.06216        -2.59225
| 53>    C       -6.67024        10.80069        -1.23034
| 54>    C       -7.77494        11.21074        -3.48394
| 55>    C       -9.08039        11.06824        -3.14750
| 56>    C      -10.16830        11.16499        -4.05350
| 57>    C      -10.16771        11.46770        -5.40198
| 58>    C      -11.45136        11.41028        -5.94659
| 59>    C      -12.45090        11.05810        -5.01075
| 60>    S      -11.78478        10.81581        -3.44154
| 61>    C      -13.65541        11.01136        -5.70948
| 62>    C      -13.35864        11.33863        -7.05191
| 63>    N      -12.01930        11.59568        -7.18017
| 64>    C      -11.32868        11.91278        -8.39839
| 65>    C      -14.47257        11.30798        -7.89281
| 66>    C      -15.61730        10.95852        -7.20644
| 67>    S      -15.33192        10.67123        -5.49223
| 68>    C      -16.92202        10.79500        -7.73688
| 69>    C      -18.06790        10.41394        -7.06459
| 70>    C      -19.17083        10.32946        -7.91648
| 71>    C      -18.86483        10.64965        -9.24395
| 72>    S      -17.21712        11.05827        -9.44999
| 73>    C      -20.04734        10.52199       -10.02476
| 74>    C      -21.09531        10.12041        -9.18733
| 75>    C      -20.58778         9.98592        -7.83686
| 76>    C      -21.28038         9.61309        -6.72142
| 77>    C      -22.65391         9.29628        -6.76208
| 78>    N      -23.77090         9.03732        -6.78868
| 79>    C      -20.67359         9.51866        -5.45196
| 80>    N      -20.18937         9.43444        -4.41562
| 81>    C      -22.31013         9.96387        -9.88423
| 82>    C      -22.16354        10.24371       -11.20731
| 83>    S      -20.54859        10.70499       -11.64616
| 84>    H       14.71851         8.15191         3.98253
| 85>    H       14.28977         8.61146         1.44201
| 86>    H        8.30843         9.47330        -0.03047
| 87>    H        5.68559         9.00758         4.00173
| 88>    H        1.65503         9.79881         4.79170
| 89>    H        3.35701         9.41620         5.11857
| 90>    H        2.23693         8.12989         4.62296
| 91>    H       -0.17169         9.76451         2.77568
| 92>    H       -5.00613        11.16398         1.35469
| 93>    H       -5.06341         9.43441         1.01653
| 94>    H       -7.56632        10.70020        -0.64620
| 95>    H       -7.51151        11.42982        -4.50911
| 96>    H       -9.34457        10.83640        -2.12566
| 97>    H       -9.27716        11.70992        -5.95121
| 98>    H      -11.98416        12.49247        -9.04760
| 99>    H      -11.02070        11.00533        -8.92722
|100>    H      -10.44314        12.50407        -8.16914
|101>    H      -14.46825        11.51454        -8.94800
|102>    H      -18.07774        10.20909        -6.00922
|103>    H      -23.23965         9.66171        -9.43747
|104>    H      -22.91013        10.20995       -11.97504
|105> *
|106>
|107>                          ****END OF INPUT****

CARTESIAN COORDINATES (ANGSTROEM)
---------------------------------
  C     13.772180    8.325100    3.510910
  C     13.524440    8.565820    2.195050
  C     12.147530    8.745260    1.955370
  C     11.382880    8.631550    3.122670
  S     12.343500    8.308450    4.496200
  C     10.013050    8.827600    2.789710
  C      9.919150    9.065400    1.413830
  C     11.261260    9.018670    0.841600
  C     11.601110    9.192410   -0.468640
  C     10.641970    9.452350   -1.469420
  N      9.869720    9.660020   -2.291430
  C     12.937770    9.123460   -0.913070
  N     14.022490    9.066170   -1.281380
  C      8.607590    9.273890    0.982710
  C      7.701560    9.194040    2.022890
  S      8.486430    8.856610    3.559230
  C      6.292960    9.348790    1.958630
  C      5.388580    9.236420    2.994010
  C      4.078540    9.447180    2.557000
  C      3.984400    9.724690    1.174150
  S      5.532270    9.723290    0.415350
  C      2.631610    9.901800    0.892180
  C      1.936730    9.725770    2.111520
  N      2.829620    9.462580    3.117540
  C      2.501130    9.183080    4.487140
  C      0.553910    9.862670    1.990860
  C      0.189990   10.144940    0.687910
  S      1.556970   10.248080   -0.409750
  C     -1.130630   10.325370    0.216820
  S     -1.457650   10.697950   -1.495830
  C     -3.126090   10.694170   -1.099330
  C     -3.304880   10.422150    0.261190
  N     -2.195770   10.224400    0.966430
  C     -4.759060   10.401870    0.613400
  C     -5.383090   10.684260   -0.722380
  C     -4.394850   10.855550   -1.695840
  S     -5.054810   11.173370   -3.245120
  C     -6.682500   11.062160   -2.592250
  C     -6.670240   10.800690   -1.230340
  C     -7.774940   11.210740   -3.483940
  C     -9.080390   11.068240   -3.147500
  C    -10.168300   11.164990   -4.053500
  C    -10.167710   11.467700   -5.401980
  C    -11.451360   11.410280   -5.946590
  C    -12.450900   11.058100   -5.010750
  S    -11.784780   10.815810   -3.441540
  C    -13.655410   11.011360   -5.709480
  C    -13.358640   11.338630   -7.051910
  N    -12.019300   11.595680   -7.180170
  C    -11.328680   11.912780   -8.398390
  C    -14.472570   11.307980   -7.892810
  C    -15.617300   10.958520   -7.206440
  S    -15.331920   10.671230   -5.492230
  C    -16.922020   10.795000   -7.736880
  C    -18.067900   10.413940   -7.064590
  C    -19.170830   10.329460   -7.916480
  C    -18.864830   10.649650   -9.243950
  S    -17.217120   11.058270   -9.449990
  C    -20.047340   10.521990  -10.024760
  C    -21.095310   10.120410   -9.187330
  C    -20.587780    9.985920   -7.836860
  C    -21.280380    9.613090   -6.721420
  C    -22.653910    9.296280   -6.762080
  N    -23.770900    9.037320   -6.788680
  C    -20.673590    9.518660   -5.451960
  N    -20.189370    9.434440   -4.415620
  C    -22.310130    9.963870   -9.884230
  C    -22.163540   10.243710  -11.207310
  S    -20.548590   10.704990  -11.646160
  H     14.718510    8.151910    3.982530
  H     14.289770    8.611460    1.442010
  H      8.308430    9.473300   -0.030470
  H      5.685590    9.007580    4.001730
  H      1.655030    9.798810    4.791700
  H      3.357010    9.416200    5.118570
  H      2.236930    8.129890    4.622960
  H     -0.171690    9.764510    2.775680
  H     -5.006130   11.163980    1.354690
  H     -5.063410    9.434410    1.016530
  H     -7.566320   10.700200   -0.646200
  H     -7.511510   11.429820   -4.509110
  H     -9.344570   10.836400   -2.125660
  H     -9.277160   11.709920   -5.951210
  H    -11.984160   12.492470   -9.047600
  H    -11.020700   11.005330   -8.927220
  H    -10.443140   12.504070   -8.169140
  H    -14.468250   11.514540   -8.948000
  H    -18.077740   10.209090   -6.009220
  H    -23.239650    9.661710   -9.437470
  H    -22.910130   10.209950  -11.975040

 Total Charge           Charge          ....    0
 Multiplicity           Mult            ....    1
 Number of Electrons    NEL             ....  542
 Basis Dimension        Dim             .... 1111

ORBITAL ENERGIES
----------------

  NO   OCC          E(Eh)            E(eV)
   0   2.0000     -88.981757     -2421.3167
   1   2.0000     -88.981107     -2421.2990
   2   2.0000     -88.979219     -2421.2477
   3   2.0000     -88.979133     -2421.2453
   4   2.0000     -88.962328     -2420.7880
   5   2.0000     -88.957375     -2420.6532
   6   2.0000     -88.956471     -2420.6286
   7   2.0000     -88.955946     -2420.6143
   8   2.0000     -88.954534     -2420.5759
   9   2.0000     -88.949042     -2420.4265
  10   2.0000     -14.467272      -393.6745
  11   2.0000     -14.463678      -393.5767
  12   2.0000     -14.423007      -392.4700
  13   2.0000     -14.422661      -392.4606
  14   2.0000     -14.421192      -392.4206
  15   2.0000     -14.420838      -392.4110
  16   2.0000     -14.405189      -391.9851
  17   2.0000     -10.356121      -281.8044
  18   2.0000     -10.354004      -281.7468
  19   2.0000     -10.343815      -281.4695
  20   2.0000     -10.341864      -281.4164
  21   2.0000     -10.334326      -281.2113
  22   2.0000     -10.323555      -280.9182
  23   2.0000     -10.323331      -280.9121
  24   2.0000     -10.323259      -280.9102
  25   2.0000     -10.323226      -280.9093
  26   2.0000     -10.321859      -280.8721
  27   2.0000     -10.321780      -280.8699
  28   2.0000     -10.321445      -280.8608
  29   2.0000     -10.321337      -280.8579
  30   2.0000     -10.320687      -280.8402
  31   2.0000     -10.319655      -280.8121
  32   2.0000     -10.317736      -280.7599
  33   2.0000     -10.317338      -280.7490
  34   2.0000     -10.311893      -280.6009
  35   2.0000     -10.309270      -280.5295
  36   2.0000     -10.307972      -280.4942
  37   2.0000     -10.306286      -280.4483
  38   2.0000     -10.304695      -280.4050
  39   2.0000     -10.304661      -280.4041
  40   2.0000     -10.303778      -280.3801
  41   2.0000     -10.303358      -280.3686
  42   2.0000     -10.302591      -280.3477
  43   2.0000     -10.298792      -280.2444
  44   2.0000     -10.298675      -280.2412
  45   2.0000     -10.298668      -280.2410
  46   2.0000     -10.298165      -280.2273
  47   2.0000     -10.297270      -280.2030
  48   2.0000     -10.294269      -280.1213
  49   2.0000     -10.294113      -280.1171
  50   2.0000     -10.293784      -280.1081
  51   2.0000     -10.291972      -280.0588
  52   2.0000     -10.291304      -280.0406
  53   2.0000     -10.290908      -280.0299
  54   2.0000     -10.290741      -280.0253
  55   2.0000     -10.290714      -280.0246
  56   2.0000     -10.289282      -279.9856
  57   2.0000     -10.288655      -279.9685
  58   2.0000     -10.287899      -279.9480
  59   2.0000     -10.287864      -279.9470
  60   2.0000     -10.285992      -279.8961
  61   2.0000     -10.283099      -279.8173
  62   2.0000     -10.283051      -279.8161
  63   2.0000     -10.279491      -279.7192
  64   2.0000     -10.279146      -279.7098
  65   2.0000     -10.277647      -279.6690
  66   2.0000     -10.274529      -279.5842
  67   2.0000     -10.274159      -279.5741
  68   2.0000     -10.271615      -279.5049
  69   2.0000      -8.076324      -219.7679
  70   2.0000      -8.076132      -219.7627
  71   2.0000      -8.074138      -219.7085
  72   2.0000      -8.073677      -219.6959
  73   2.0000      -8.057536      -219.2567
  74   2.0000      -8.051986      -219.1057
  75   2.0000      -8.051658      -219.0967
  76   2.0000      -8.050846      -219.0747
  77   2.0000      -8.049020      -219.0250
  78   2.0000      -8.043934      -218.8866
  79   2.0000      -6.045598      -164.5091
  80   2.0000      -6.045379      -164.5031
  81   2.0000      -6.043387      -164.4489
  82   2.0000      -6.042961      -164.4373
  83   2.0000      -6.041518      -164.3981
  84   2.0000      -6.040983      -164.3835
  85   2.0000      -6.038991      -164.3293
  86   2.0000      -6.038891      -164.3266
  87   2.0000      -6.038730      -164.3222
  88   2.0000      -6.038564      -164.3177
  89   2.0000      -6.036737      -164.2680
  90   2.0000      -6.035932      -164.2461
  91   2.0000      -6.026834      -163.9985
  92   2.0000      -6.022862      -163.8904
  93   2.0000      -6.021740      -163.8599
  94   2.0000      -6.020973      -163.8390
  95   2.0000      -6.020567      -163.8280
  96   2.0000      -6.019512      -163.7992
  97   2.0000      -6.018776      -163.7792
  98   2.0000      -6.017673      -163.7492
  99   2.0000      -6.016981      -163.7304
 100   2.0000      -6.016515      -163.7177
 101   2.0000      -6.014714      -163.6687
 102   2.0000      -6.013703      -163.6412
 103   2.0000      -6.013558      -163.6372
 104   2.0000      -6.013221      -163.6281
 105   2.0000      -6.012132      -163.5984
 106   2.0000      -6.010284      -163.5481
 107   2.0000      -6.009574      -163.5288
 108   2.0000      -6.005375      -163.4146
 109   2.0000      -1.093786       -29.7634
 110   2.0000      -1.090286       -29.6682
 111   2.0000      -1.061782       -28.8926
 112   2.0000      -1.035160       -28.1681
 113   2.0000      -1.032882       -28.1062
 114   2.0000      -1.014271       -27.5997
 115   2.0000      -1.012331       -27.5469
 116   2.0000      -1.000413       -27.2226
 117   2.0000      -0.998578       -27.1727
 118   2.0000      -0.992025       -26.9944
 119   2.0000      -0.990992       -26.9663
 120   2.0000      -0.989379       -26.9224
 121   2.0000      -0.972396       -26.4602
 122   2.0000      -0.970145       -26.3990
 123   2.0000      -0.969052       -26.3693
 124   2.0000      -0.967131       -26.3170
 125   2.0000      -0.947193       -25.7744
 126   2.0000      -0.944993       -25.7146
 127   2.0000      -0.923850       -25.1392
 128   2.0000      -0.904567       -24.6145
 129   2.0000      -0.902574       -24.5603
 130   2.0000      -0.892868       -24.2962
 131   2.0000      -0.890087       -24.2205
 132   2.0000      -0.882210       -24.0062
 133   2.0000      -0.866663       -23.5831
 134   2.0000      -0.859305       -23.3829
 135   2.0000      -0.855328       -23.2747
 136   2.0000      -0.846984       -23.0476
 137   2.0000      -0.844563       -22.9817
 138   2.0000      -0.840474       -22.8704
 139   2.0000      -0.836655       -22.7665
 140   2.0000      -0.833909       -22.6918
 141   2.0000      -0.832782       -22.6611
 142   2.0000      -0.831740       -22.6328
 143   2.0000      -0.821196       -22.3459
 144   2.0000      -0.810701       -22.0603
 145   2.0000      -0.799434       -21.7537
 146   2.0000      -0.788234       -21.4489
 147   2.0000      -0.770277       -20.9603
 148   2.0000      -0.769004       -20.9257
 149   2.0000      -0.765620       -20.8336
 150   2.0000      -0.764187       -20.7946
 151   2.0000      -0.760575       -20.6963
 152   2.0000      -0.750300       -20.4167
 153   2.0000      -0.735243       -20.0070
 154   2.0000      -0.713492       -19.4151
 155   2.0000      -0.705147       -19.1880
 156   2.0000      -0.695444       -18.9240
 157   2.0000      -0.693186       -18.8626
 158   2.0000      -0.686889       -18.6912
 159   2.0000      -0.672628       -18.3031
 160   2.0000      -0.670388       -18.2422
 161   2.0000      -0.659049       -17.9336
 162   2.0000      -0.654155       -17.8005
 163   2.0000      -0.652672       -17.7601
 164   2.0000      -0.648834       -17.6557
 165   2.0000      -0.643019       -17.4974
 166   2.0000      -0.640400       -17.4262
 167   2.0000      -0.638445       -17.3730
 168   2.0000      -0.631925       -17.1956
 169   2.0000      -0.621563       -16.9136
 170   2.0000      -0.616759       -16.7829
 171   2.0000      -0.615351       -16.7445
 172   2.0000      -0.609536       -16.5863
 173   2.0000      -0.608405       -16.5555
 174   2.0000      -0.605214       -16.4687
 175   2.0000      -0.604538       -16.4503
 176   2.0000      -0.601938       -16.3796
 177   2.0000      -0.587372       -15.9832
 178   2.0000      -0.585397       -15.9295
 179   2.0000      -0.584586       -15.9074
 180   2.0000      -0.572499       -15.5785
 181   2.0000      -0.566646       -15.4192
 182   2.0000      -0.564072       -15.3492
 183   2.0000      -0.563078       -15.3221
 184   2.0000      -0.559904       -15.2358
 185   2.0000      -0.558243       -15.1906
 186   2.0000      -0.550658       -14.9842
 187   2.0000      -0.546026       -14.8581
 188   2.0000      -0.538597       -14.6560
 189   2.0000      -0.537842       -14.6354
 190   2.0000      -0.535660       -14.5761
 191   2.0000      -0.530396       -14.4328
 192   2.0000      -0.524653       -14.2765
 193   2.0000      -0.520596       -14.1661
 194   2.0000      -0.518769       -14.1164
 195   2.0000      -0.514676       -14.0051
 196   2.0000      -0.510070       -13.8797
 197   2.0000      -0.504420       -13.7260
 198   2.0000      -0.500523       -13.6199
 199   2.0000      -0.500144       -13.6096
 200   2.0000      -0.497426       -13.5356
 201   2.0000      -0.496820       -13.5192
 202   2.0000      -0.493485       -13.4284
 203   2.0000      -0.493363       -13.4251
 204   2.0000      -0.491647       -13.3784
 205   2.0000      -0.489635       -13.3236
 206   2.0000      -0.485886       -13.2216
 207   2.0000      -0.483697       -13.1621
 208   2.0000      -0.480046       -13.0627
 209   2.0000      -0.478966       -13.0333
 210   2.0000      -0.477711       -12.9992
 211   2.0000      -0.475883       -12.9494
 212   2.0000      -0.475661       -12.9434
 213   2.0000      -0.471416       -12.8279
 214   2.0000      -0.469270       -12.7695
 215   2.0000      -0.468385       -12.7454
 216   2.0000      -0.466962       -12.7067
 217   2.0000      -0.466249       -12.6873
 218   2.0000      -0.462985       -12.5985
 219   2.0000      -0.455648       -12.3988
 220   2.0000      -0.454354       -12.3636
 221   2.0000      -0.452987       -12.3264
 222   2.0000      -0.452445       -12.3117
 223   2.0000      -0.451988       -12.2992
 224   2.0000      -0.450318       -12.2538
 225   2.0000      -0.449303       -12.2262
 226   2.0000      -0.448460       -12.2032
 227   2.0000      -0.448179       -12.1956
 228   2.0000      -0.441697       -12.0192
 229   2.0000      -0.439884       -11.9698
 230   2.0000      -0.435266       -11.8442
 231   2.0000      -0.433772       -11.8035
 232   2.0000      -0.433146       -11.7865
 233   2.0000      -0.431642       -11.7456
 234   2.0000      -0.431471       -11.7409
 235   2.0000      -0.430927       -11.7261
 236   2.0000      -0.429654       -11.6915
 237   2.0000      -0.427926       -11.6445
 238   2.0000      -0.421675       -11.4744
 239   2.0000      -0.421422       -11.4675
 240   2.0000      -0.419579       -11.4173
 241   2.0000      -0.416501       -11.3336
 242   2.0000      -0.416054       -11.3214
 243   2.0000      -0.415441       -11.3047
 244   2.0000      -0.412678       -11.2295
 245   2.0000      -0.408382       -11.1126
 246   2.0000      -0.407489       -11.0883
 247   2.0000      -0.400204       -10.8901
 248   2.0000      -0.398509       -10.8440
 249   2.0000      -0.392093       -10.6694
 250   2.0000      -0.375760       -10.2250
 251   2.0000      -0.371766       -10.1163
 252   2.0000      -0.360919        -9.8211
 253   2.0000      -0.347881        -9.4663
 254   2.0000      -0.346958        -9.4412
 255   2.0000      -0.340290        -9.2597
 256   2.0000      -0.339329        -9.2336
 257   2.0000      -0.337971        -9.1966
 258   2.0000      -0.328450        -8.9376
 259   2.0000      -0.325462        -8.8563
 260   2.0000      -0.320706        -8.7268
 261   2.0000      -0.317044        -8.6272
 262   2.0000      -0.313537        -8.5318
 263   2.0000      -0.311528        -8.4771
 264   2.0000      -0.294316        -8.0087
 265   2.0000      -0.278312        -7.5732
 266   2.0000      -0.273882        -7.4527
 267   2.0000      -0.270536        -7.3617
 268   2.0000      -0.251851        -6.8532
 269   2.0000      -0.228045        -6.2054
 270   2.0000      -0.206685        -5.6242
 271   0.0000      -0.095377        -2.5953
 272   0.0000      -0.093306        -2.5390
 273   0.0000      -0.058248        -1.5850
 274   0.0000      -0.037343        -1.0162
 275   0.0000      -0.016675        -0.4538

MULLIKEN ATOMIC CHARGES
-----------------------
   0 C :   -0.086373
   1 C :    0.038323
   2 C :   -0.036539
   3 C :   -0.113737
   4 S :    0.172261
   5 C :   -0.103778
   6 C :    0.014345
   7 C :    0.297871
   8 C :   -0.300004
   9 C :   -0.187839
  10 N :    0.173041
  11 C :   -0.190660
  12 N :    0.169551
  13 C :   -0.066833
  14 C :   -0.045519
  15 S :    0.166106
  16 C :   -0.052116
  17 C :   -0.117433
  18 C :    0.158578
  19 C :   -0.116226
  20 S :    0.143180
  21 C :   -0.113704
  22 C :    0.161474
  23 N :   -0.170658
  24 C :    0.127144
  25 C :   -0.095826
  26 C :   -0.038249
  27 S :    0.137279
  28 C :   -0.104125
  29 S :    0.123025
  30 C :   -0.054014
  31 C :   -0.223082
  32 N :   -0.023300
  33 C :    0.392596
  34 C :   -0.167072
  35 C :   -0.103947
  36 S :    0.138376
  37 C :   -0.076085
  38 C :   -0.020452
  39 C :    0.041897
  40 C :    0.045249
  41 C :   -0.077452
  42 C :   -0.084956
  43 C :    0.147290
  44 C :   -0.121982
  45 S :    0.131616
  46 C :   -0.118884
  47 C :    0.157261
  48 N :   -0.170750
  49 C :    0.127581
  50 C :   -0.115176
  51 C :   -0.054214
  52 S :    0.141593
  53 C :   -0.042672
  54 C :   -0.069258
  55 C :    0.015602
  56 C :   -0.105421
  57 S :    0.164118
  58 C :   -0.113841
  59 C :   -0.039345
  60 C :    0.298989
  61 C :   -0.302337
  62 C :   -0.190895
  63 N :    0.170705
  64 C :   -0.187896
  65 N :    0.170609
  66 C :    0.040651
  67 C :   -0.086576
  68 S :    0.171112
  69 H :    0.033215
  70 H :    0.011780
  71 H :    0.013100
  72 H :   -0.022029
  73 H :    0.042849
  74 H :    0.037184
  75 H :    0.043013
  76 H :   -0.014297
  77 H :    0.033572
  78 H :    0.031820
  79 H :   -0.026439
  80 H :   -0.026770
  81 H :   -0.022811
  82 H :   -0.031872
  83 H :    0.037678
  84 H :    0.040889
  85 H :    0.039943
  86 H :   -0.023745
  87 H :    0.012173
  88 H :    0.009179
  89 H :    0.033368
Sum of atomic charges:   -0.0000000

LOEWDIN ATOMIC CHARGES
----------------------
   0 C :   -0.182448
   1 C :   -0.034126
   2 C :   -0.082139
   3 C :   -0.180220
   4 S :    0.470161
   5 C :   -0.188741
   6 C :   -0.067474
   7 C :    0.084925
   8 C :   -0.105381
   9 C :   -0.017080
  10 N :   -0.034976
  11 C :   -0.016266
  12 N :   -0.036498
  13 C :   -0.042507
  14 C :   -0.172672
  15 S :    0.464857
  16 C :   -0.178213
  17 C :   -0.083795
  18 C :   -0.016635
  19 C :   -0.221138
  20 S :    0.423354
  21 C :   -0.218435
  22 C :   -0.018502
  23 N :    0.027651
  24 C :    0.040435
  25 C :   -0.053227
  26 C :   -0.193536
  27 S :    0.408680
  28 C :   -0.140241
  29 S :    0.400434
  30 C :   -0.217963
  31 C :   -0.039571
  32 N :   -0.095256
  33 C :   -0.012365
  34 C :   -0.049697
  35 C :   -0.202631
  36 S :    0.429737
  37 C :   -0.167092
  38 C :   -0.055268
  39 C :   -0.044045
  40 C :   -0.046026
  41 C :   -0.155725
  42 C :   -0.082448
  43 C :   -0.013954
  44 C :   -0.226817
  45 S :    0.410508
  46 C :   -0.219524
  47 C :   -0.020157
  48 N :    0.025162
  49 C :    0.039834
  50 C :   -0.083171
  51 C :   -0.181901
  52 S :    0.421876
  53 C :   -0.170632
  54 C :   -0.044393
  55 C :   -0.067195
  56 C :   -0.191015
  57 S :    0.463398
  58 C :   -0.179131
  59 C :   -0.083318
  60 C :    0.085399
  61 C :   -0.106294
  62 C :   -0.016270
  63 N :   -0.037325
  64 C :   -0.016949
  65 N :   -0.035888
  66 C :   -0.034084
  67 C :   -0.183559
  68 S :    0.468853
  69 H :    0.026200
  70 H :    0.042080
  71 H :    0.035887
  72 H :    0.023888
  73 H :    0.035263
  74 H :    0.033908
  75 H :    0.029410
  76 H :    0.035547
  77 H :    0.054932
  78 H :    0.054208
  79 H :    0.028920
  80 H :    0.023842
  81 H :    0.025566
  82 H :    0.026101
  83 H :    0.033301
  84 H :    0.028340
  85 H :    0.034518
  86 H :    0.023478
  87 H :    0.035761
  88 H :    0.041566
  89 H :    0.025933

  Mayer bond orders larger than 0.100000
B(  0-C ,  1-C ) :   1.5523 B(  0-C ,  4-S ) :   1.1419 B(  0-C , 69-H ) :   0.9650
B(  1-C ,  2-C ) :   1.2732 B(  1-C , 70-H ) :   0.9962 B(  2-C ,  3-C ) :   1.4558
B(  2-C ,  7-C ) :   1.0195 B(  3-C ,  4-S ) :   1.1366 B(  3-C ,  5-C ) :   1.1828
B(  5-C ,  6-C ) :   1.4701 B(  5-C , 15-S ) :   1.1095 B(  6-C ,  7-C ) :   0.9917
B(  6-C , 13-C ) :   1.2867 B(  7-C ,  8-C ) :   1.7095 B(  8-C ,  9-C ) :   1.1327
B(  8-C , 11-C ) :   1.1304 B(  9-C , 10-N ) :   2.9930 B( 11-C , 12-N ) :   3.0020
B( 13-C , 14-C ) :   1.4659 B( 13-C , 71-H ) :   0.9901 B( 14-C , 15-S ) :   1.1080
B( 14-C , 16-C ) :   1.1723 B( 16-C , 17-C ) :   1.4796 B( 16-C , 20-S ) :   1.0991
B( 17-C , 18-C ) :   1.2329 B( 17-C , 72-H ) :   1.0015 B( 18-C , 19-C ) :   1.3933
B( 18-C , 23-N ) :   1.1523 B( 19-C , 20-S ) :   1.0285 B( 19-C , 21-C ) :   1.3979
B( 21-C , 22-C ) :   1.3829 B( 21-C , 27-S ) :   1.0389 B( 22-C , 23-N ) :   1.1422
B( 22-C , 25-C ) :   1.1999 B( 23-N , 24-C ) :   0.9700 B( 24-C , 73-H ) :   0.9715
B( 24-C , 74-H ) :   0.9729 B( 24-C , 75-H ) :   0.9734 B( 25-C , 26-C ) :   1.4913
B( 25-C , 76-H ) :   1.0268 B( 26-C , 27-S ) :   1.0876 B( 26-C , 28-C ) :   1.1101
B( 28-C , 29-S ) :   1.0771 B( 28-C , 32-N ) :   1.6989 B( 29-S , 30-C ) :   1.0790
B( 30-C , 31-C ) :   1.4929 B( 30-C , 35-C ) :   1.1900 B( 31-C , 32-N ) :   1.4266
B( 31-C , 33-C ) :   1.0437 B( 33-C , 34-C ) :   0.9820 B( 33-C , 77-H ) :   0.8590
B( 33-C , 78-H ) :   0.8612 B( 34-C , 35-C ) :   1.5192 B( 34-C , 38-C ) :   1.3164
B( 35-C , 36-S ) :   1.0836 B( 36-S , 37-C ) :   1.0996 B( 37-C , 38-C ) :   1.4614
B( 37-C , 39-C ) :   1.1318 B( 38-C , 79-H ) :   0.9973 B( 39-C , 40-C ) :   1.6993
B( 39-C , 80-H ) :   0.9568 B( 40-C , 41-C ) :   1.1347 B( 40-C , 81-H ) :   0.9585
B( 41-C , 42-C ) :   1.4818 B( 41-C , 45-S ) :   1.0922 B( 42-C , 43-C ) :   1.2311
B( 42-C , 82-H ) :   1.0048 B( 43-C , 44-C ) :   1.3942 B( 43-C , 48-N ) :   1.1447
B( 44-C , 45-S ) :   1.0294 B( 44-C , 46-C ) :   1.3940 B( 46-C , 47-C ) :   1.3979
B( 46-C , 52-S ) :   1.0306 B( 47-C , 48-N ) :   1.1457 B( 47-C , 50-C ) :   1.2383
B( 48-N , 49-C ) :   0.9727 B( 49-C , 83-H ) :   0.9719 B( 49-C , 84-H ) :   0.9734
B( 49-C , 85-H ) :   0.9720 B( 50-C , 51-C ) :   1.4739 B( 50-C , 86-H ) :   1.0012
B( 51-C , 52-S ) :   1.0970 B( 51-C , 53-C ) :   1.1748 B( 53-C , 54-C ) :   1.4645
B( 53-C , 57-S ) :   1.1081 B( 54-C , 55-C ) :   1.2882 B( 54-C , 87-H ) :   0.9904
B( 55-C , 56-C ) :   1.4712 B( 55-C , 60-C ) :   0.9887 B( 56-C , 57-S ) :   1.1074
B( 56-C , 58-C ) :   1.1822 B( 58-C , 59-C ) :   1.4573 B( 58-C , 68-S ) :   1.1365
B( 59-C , 60-C ) :   1.0211 B( 59-C , 66-C ) :   1.2733 B( 60-C , 61-C ) :   1.7077
B( 61-C , 62-C ) :   1.1307 B( 61-C , 64-C ) :   1.1340 B( 62-C , 63-N ) :   3.0025
B( 64-C , 65-N ) :   2.9921 B( 66-C , 67-C ) :   1.5544 B( 66-C , 88-H ) :   0.9953
B( 67-C , 68-S ) :   1.1404 B( 67-C , 89-H ) :   0.9645

-----------------------------------------------------------------------------
         ABSORPTION SPECTRUM VIA TRANSITION ELECTRIC DIPOLE MOMENTS
-----------------------------------------------------------------------------
State   Energy  Wavelength   fosc         T2         TX        TY        TZ
        (cm-1)    (nm)                  (au**2)     (au)      (au)      (au)
-----------------------------------------------------------------------------
   0   11341.6    881.7   0.306666074   8.90156  -2.71913  -0.07438  -1.22570
   1   11785.8    848.5   0.171785106   4.79844  -2.13736   0.29753  -0.37632
   2   17909.0    558.4   2.709126356  49.80057   6.55291  -0.42638   2.58420
   3   19080.3    524.1   0.161577784   2.78786  -1.51731   0.04499  -0.69542
   4   19694.1    507.8   0.708079773  11.83645   3.21510  -0.21390   1.20576
   5   23186.1    431.3   0.053734311   0.76296   0.30654  -0.50245  -0.64540
   6   23915.8    418.1   0.036152893   0.49766   0.28725   0.32185   0.55817
   7   24421.0    409.5   0.020053812   0.27034  -0.23379   0.27180   0.37657
   8   25183.4    397.1   0.008904886   0.11641   0.24528  -0.02528   0.23581
   9   25432.9    393.2   0.012947394   0.16760   0.33720  -0.05988   0.22429
  10   26109.4    383.0   0.036489229   0.46009  -0.63174   0.02806  -0.24538
  11   28195.5    354.7   0.646866407   7.55285   2.73920   0.21683  -0.05140
  12   28787.7    347.4   0.036509362   0.41752  -0.60334  -0.12972   0.19148
  13   29322.0    341.0   0.003451727   0.03875  -0.07580  -0.01291   0.18122
  14   30015.0    333.2   0.004166782   0.04570   0.06054  -0.10583   0.17561
  15   31357.0    318.9   0.007043924   0.07395   0.02360  -0.23475  -0.13524
  16   31853.2    313.9   0.230974005   2.38718  -0.51056  -0.46141   1.38333
  17   31884.0    313.6   1.245967047  12.86499  -0.64933  -0.65599   3.46598
  18   32142.1    311.1   0.074631254   0.76440   0.65624  -0.03467   0.57667
  19   32241.6    310.2   0.265627477   2.71227   1.36428   0.28807  -0.87636
  20   33330.0    300.0   0.113945471   1.12548  -0.84601  -0.00261  -0.64010
  21   33391.7    299.5   0.025716958   0.25355   0.12808   0.26845  -0.40630
  22   33501.9    298.5   0.150772973   1.48159  -1.21400   0.03436  -0.08135
  23   33862.9    295.3   0.063622646   0.61853   0.54564   0.09701  -0.55803
  24   34320.1    291.4   0.038518875   0.36949   0.06136  -0.23720  -0.55629
  25   34765.8    287.6   0.028244029   0.26745   0.23391   0.09590  -0.45116
  26   35133.3    284.6   0.007132010   0.06683   0.04004  -0.02645  -0.25402
  27   35756.0    279.7   0.008002583   0.07368   0.18017   0.07916  -0.18696
  28   36191.0    276.3   0.000244370   0.00222   0.04270   0.00934   0.01766
  29   37101.1    269.5   0.032139519   0.28519   0.49017   0.07892  -0.19670
  30   37171.6    269.0   0.008293903   0.07346   0.23701   0.05340  -0.12012
  31   37382.0    267.5   0.011618098   0.10232   0.19799   0.04333  -0.24747
  32   37505.2    266.6   0.041861902   0.36745  -0.60168  -0.01122  -0.07289
  33   37729.5    265.0   0.101283306   0.88376   0.81118  -0.04524   0.47296
  34   37907.4    263.8   0.003526369   0.03063   0.17403   0.01127  -0.01457
  35   38611.8    259.0   0.071955100   0.61350  -0.41348   0.13946  -0.65045
  36   39023.1    256.3   0.053736799   0.45334  -0.01976  -0.10900   0.66413
  37   39342.3    254.2   0.010008009   0.08375   0.24813   0.05298   0.13917
  38   39461.4    253.4   0.101573525   0.84739  -0.72575  -0.15372   0.54502

FINAL SINGLE POINT ENERGY     -6354.970384868870

DIPOLE MOMENT
-------------
                                X             Y             Z
Electronic contribution:      9.39653      -2.41552      -6.62580
Nuclear contribution   :     -8.35539       2.78918       7.33069
                        -----------------------------------------
Total Dipole Moment    :      1.04113       0.37366       0.70488
                        -----------------------------------------
Magnitude (a.u.)       :      1.31166
Magnitude (Debye)      :      3.33396

Rotational constants in cm-1:     0.003643     0.000103     0.000101
Rotational constants in MHz :   109.207795     3.087453     3.020403

                             ****ORCA TERMINATED NORMALLY****
TOTAL RUN TIME: 0 days 0 hours 7 minutes 31 seconds 395 msec
