                         Program Version 4.2.0 -  RELEASE  -
|  1> # ORCA input file
|  2> # SCF done       -175.182257508434          0.000752769942
|  3> ! CAM-B3LYP def2-SVP def2/J RIJCOSX Grid4 TightSCF
|  4> %maxcore 5000
|  5> %tddft
|  6>     Mode sTDDFT
|  7>     Ethresh 5.0
|  8>     maxcore 5000
|  9> end
| 10>
| 11> %pal
| 12>   nprocs 6
| 13>   end
| 14> * xyz 0 1
| 15>    C        0.57175        13.77061        -6.19129
| 16>    C       -0.28762        14.15845        -5.20772
| 17>    C       -0.54216        13.10581        -4.30848
| 18>    C        0.14624        11.93567        -4.64777
| 19>    S        1.09407        12.12623        -6.05373
| 20>    C       -0.17057        10.92771        -3.69008
| 21>    C       -1.05691        11.47302        -2.75089
| 22>    C       -1.32218        12.86029        -3.10829
| 23>    C       -2.13641        13.73506        -2.45073
| 24>    C       -2.84315        13.36845        -1.28597
| 25>    N       -3.41759        13.07148        -0.33901
| 26>    C       -2.32687        15.06251        -2.88946
| 27>    N       -2.48651        16.14205        -3.24119
| 28>    C       -1.43328        10.55665        -1.76731
| 29>    C       -0.83898         9.32650        -1.96108
| 30>    S        0.20057         9.29520        -3.37043
| 31>    C       -1.02114         8.15410        -1.15073
| 32>    C       -0.44290         6.94990        -1.40541
| 33>    C       -0.70619         5.83783        -0.54874
| 34>    C       -0.12007         4.59371        -0.75607
| 35>    C       -0.39128         3.49169         0.06175
| 36>    N       -0.60419         2.56375         0.70871
| 37>    C        0.78121         4.36054        -1.80110
| 38>    N        1.51829         4.15073        -2.65915
| 39>    C       -1.59709         6.07650         0.52984
| 40>    C       -2.14176         7.31798         0.73865
| 41>    O       -1.84368         8.35917        -0.09574
| 42>    C       -3.01016         7.71185         1.78975
| 43>    C       -3.61301         6.92751         2.73798
| 44>    C       -4.43640         7.41158         3.79414
| 45>    C       -4.93581         6.44544         4.61139
| 46>    C       -4.55121         5.13642         4.24432
| 47>    S       -3.51849         5.18412         2.82828
| 48>    C       -4.86003         3.92185         4.81820
| 49>    C       -5.59737         3.63309         5.99297
| 50>    C       -5.67526         2.30610         6.27505
| 51>    C       -5.01633         1.46153         5.33633
| 52>    S       -4.29806         2.44568         4.07365
| 53>    C       -4.90183         0.10105         5.41341
| 54>    C       -4.25827        -0.74016         4.47457
| 55>    C       -3.85155        -0.46664         3.19076
| 56>    C       -3.21670        -1.55341         2.56036
| 57>    C       -2.64324        -1.61715         1.27826
| 58>    C       -2.03208        -2.83129         0.93375
| 59>    C       -2.01491        -3.87772         1.89445
| 60>    N       -2.54367        -3.82430         3.09613
| 61>    C       -3.12452        -2.68745         3.41286
| 62>    S       -3.87256        -2.39794         4.94308
| 63>    S       -1.21114        -5.31168         1.31750
| 64>    C       -0.93682        -4.52962        -0.21301
| 65>    C       -1.41212        -3.26178        -0.27814
| 66>    F       -1.32890        -2.51079        -1.38955
| 67>    F       -0.31661        -5.18450        -1.18735
| 68>    C       -2.74963        -0.47990         0.38362
| 69>    C       -1.79557         0.11122        -0.35141
| 70>    C       -2.19437         1.07956        -1.43486
| 71>    O       -3.26966         1.61697        -1.55369
| 72>    C       -1.01123         1.14881        -2.27336
| 73>    C        0.06081         0.46631        -1.70060
| 74>    C       -0.35132        -0.08863        -0.43094
| 75>    C        0.48243        -0.55833         0.54232
| 76>    C        0.08192        -0.90035         1.84860
| 77>    N       -0.18179        -1.16949         2.93281
| 78>    C        1.87424        -0.67403         0.33495
| 79>    N        3.00290        -0.80171         0.17728
| 80>    C        1.22884         0.54173        -2.48108
| 81>    C        1.00950         1.25861        -3.62017
| 82>    S       -0.59425         1.86612        -3.76776
| 83>    H        0.94088        14.35848        -7.00774
| 84>    H       -0.71113        15.14362        -5.13847
| 85>    H       -2.10388        10.75517        -0.95170
| 86>    H        0.21221         6.82992        -2.25384
| 87>    H       -1.81569         5.26375         1.19938
| 88>    H       -3.21962         8.77248         1.82677
| 89>    H       -4.62390         8.46401         3.91174
| 90>    H       -5.57278         6.63436         5.45685
| 91>    H       -6.02963         4.41094         6.59651
| 92>    H       -6.18288         1.89407         7.12923
| 93>    H       -5.30880        -0.38084         6.29203
| 94>    H       -4.01320         0.47101         2.69428
| 95>    H       -3.74737        -0.06419         0.27620
| 96>    H        2.17194         0.09417        -2.22793
| 97>    H        1.71903         1.48517        -4.39128
| 98> *
| 99>
|100>                          ****END OF INPUT****

CARTESIAN COORDINATES (ANGSTROEM)
---------------------------------
  C      0.571750   13.770610   -6.191290
  C     -0.287620   14.158450   -5.207720
  C     -0.542160   13.105810   -4.308480
  C      0.146240   11.935670   -4.647770
  S      1.094070   12.126230   -6.053730
  C     -0.170570   10.927710   -3.690080
  C     -1.056910   11.473020   -2.750890
  C     -1.322180   12.860290   -3.108290
  C     -2.136410   13.735060   -2.450730
  C     -2.843150   13.368450   -1.285970
  N     -3.417590   13.071480   -0.339010
  C     -2.326870   15.062510   -2.889460
  N     -2.486510   16.142050   -3.241190
  C     -1.433280   10.556650   -1.767310
  C     -0.838980    9.326500   -1.961080
  S      0.200570    9.295200   -3.370430
  C     -1.021140    8.154100   -1.150730
  C     -0.442900    6.949900   -1.405410
  C     -0.706190    5.837830   -0.548740
  C     -0.120070    4.593710   -0.756070
  C     -0.391280    3.491690    0.061750
  N     -0.604190    2.563750    0.708710
  C      0.781210    4.360540   -1.801100
  N      1.518290    4.150730   -2.659150
  C     -1.597090    6.076500    0.529840
  C     -2.141760    7.317980    0.738650
  O     -1.843680    8.359170   -0.095740
  C     -3.010160    7.711850    1.789750
  C     -3.613010    6.927510    2.737980
  C     -4.436400    7.411580    3.794140
  C     -4.935810    6.445440    4.611390
  C     -4.551210    5.136420    4.244320
  S     -3.518490    5.184120    2.828280
  C     -4.860030    3.921850    4.818200
  C     -5.597370    3.633090    5.992970
  C     -5.675260    2.306100    6.275050
  C     -5.016330    1.461530    5.336330
  S     -4.298060    2.445680    4.073650
  C     -4.901830    0.101050    5.413410
  C     -4.258270   -0.740160    4.474570
  C     -3.851550   -0.466640    3.190760
  C     -3.216700   -1.553410    2.560360
  C     -2.643240   -1.617150    1.278260
  C     -2.032080   -2.831290    0.933750
  C     -2.014910   -3.877720    1.894450
  N     -2.543670   -3.824300    3.096130
  C     -3.124520   -2.687450    3.412860
  S     -3.872560   -2.397940    4.943080
  S     -1.211140   -5.311680    1.317500
  C     -0.936820   -4.529620   -0.213010
  C     -1.412120   -3.261780   -0.278140
  F     -1.328900   -2.510790   -1.389550
  F     -0.316610   -5.184500   -1.187350
  C     -2.749630   -0.479900    0.383620
  C     -1.795570    0.111220   -0.351410
  C     -2.194370    1.079560   -1.434860
  O     -3.269660    1.616970   -1.553690
  C     -1.011230    1.148810   -2.273360
  C      0.060810    0.466310   -1.700600
  C     -0.351320   -0.088630   -0.430940
  C      0.482430   -0.558330    0.542320
  C      0.081920   -0.900350    1.848600
  N     -0.181790   -1.169490    2.932810
  C      1.874240   -0.674030    0.334950
  N      3.002900   -0.801710    0.177280
  C      1.228840    0.541730   -2.481080
  C      1.009500    1.258610   -3.620170
  S     -0.594250    1.866120   -3.767760
  H      0.940880   14.358480   -7.007740
  H     -0.711130   15.143620   -5.138470
  H     -2.103880   10.755170   -0.951700
  H      0.212210    6.829920   -2.253840
  H     -1.815690    5.263750    1.199380
  H     -3.219620    8.772480    1.826770
  H     -4.623900    8.464010    3.911740
  H     -5.572780    6.634360    5.456850
  H     -6.029630    4.410940    6.596510
  H     -6.182880    1.894070    7.129230
  H     -5.308800   -0.380840    6.292030
  H     -4.013200    0.471010    2.694280
  H     -3.747370   -0.064190    0.276200
  H      2.171940    0.094170   -2.227930
  H      1.719030    1.485170   -4.391280

 Total Charge           Charge          ....    0
 Multiplicity           Mult            ....    1
 Number of Electrons    NEL             ....  510
 Basis Dimension        Dim             .... 1055

ORBITAL ENERGIES
----------------

  NO   OCC          E(Eh)            E(eV)
   0   2.0000     -89.004490     -2421.9353
   1   2.0000     -88.997050     -2421.7329
   2   2.0000     -88.971077     -2421.0261
   3   2.0000     -88.964848     -2420.8566
   4   2.0000     -88.963552     -2420.8213
   5   2.0000     -88.962575     -2420.7947
   6   2.0000     -88.952885     -2420.5311
   7   2.0000     -24.804971      -674.9776
   8   2.0000     -24.794166      -674.6836
   9   2.0000     -19.317695      -525.6612
  10   2.0000     -19.206353      -522.6314
  11   2.0000     -14.437988      -392.8776
  12   2.0000     -14.436650      -392.8412
  13   2.0000     -14.420486      -392.4014
  14   2.0000     -14.402731      -391.9182
  15   2.0000     -14.402322      -391.9071
  16   2.0000     -14.397002      -391.7623
  17   2.0000     -14.393976      -391.6800
  18   2.0000     -10.388947      -282.6976
  19   2.0000     -10.385372      -282.6003
  20   2.0000     -10.378365      -282.4097
  21   2.0000     -10.372320      -282.2452
  22   2.0000     -10.363796      -282.0132
  23   2.0000     -10.363350      -282.0011
  24   2.0000     -10.359745      -281.9030
  25   2.0000     -10.346793      -281.5506
  26   2.0000     -10.344355      -281.4842
  27   2.0000     -10.338483      -281.3244
  28   2.0000     -10.338299      -281.3194
  29   2.0000     -10.336719      -281.2764
  30   2.0000     -10.336378      -281.2671
  31   2.0000     -10.335262      -281.2368
  32   2.0000     -10.335025      -281.2303
  33   2.0000     -10.334701      -281.2215
  34   2.0000     -10.332575      -281.1636
  35   2.0000     -10.331675      -281.1392
  36   2.0000     -10.331059      -281.1224
  37   2.0000     -10.324731      -280.9502
  38   2.0000     -10.324200      -280.9358
  39   2.0000     -10.321874      -280.8725
  40   2.0000     -10.315884      -280.7095
  41   2.0000     -10.315679      -280.7039
  42   2.0000     -10.312368      -280.6138
  43   2.0000     -10.310938      -280.5749
  44   2.0000     -10.310544      -280.5642
  45   2.0000     -10.308199      -280.5004
  46   2.0000     -10.307960      -280.4939
  47   2.0000     -10.307342      -280.4770
  48   2.0000     -10.306729      -280.4604
  49   2.0000     -10.306453      -280.4528
  50   2.0000     -10.305476      -280.4263
  51   2.0000     -10.304980      -280.4128
  52   2.0000     -10.304731      -280.4060
  53   2.0000     -10.304277      -280.3936
  54   2.0000     -10.303660      -280.3768
  55   2.0000     -10.302331      -280.3407
  56   2.0000     -10.302122      -280.3350
  57   2.0000     -10.300552      -280.2923
  58   2.0000     -10.300116      -280.2804
  59   2.0000     -10.299442      -280.2621
  60   2.0000     -10.299088      -280.2524
  61   2.0000     -10.296880      -280.1923
  62   2.0000     -10.294769      -280.1349
  63   2.0000     -10.293701      -280.1058
  64   2.0000     -10.293405      -280.0978
  65   2.0000     -10.289987      -280.0048
  66   2.0000     -10.284291      -279.8498
  67   2.0000     -10.281095      -279.7628
  68   2.0000      -8.098764      -220.3786
  69   2.0000      -8.092059      -220.1961
  70   2.0000      -8.065901      -219.4843
  71   2.0000      -8.060716      -219.3432
  72   2.0000      -8.060586      -219.3397
  73   2.0000      -8.058590      -219.2854
  74   2.0000      -8.049590      -219.0405
  75   2.0000      -6.068042      -165.1198
  76   2.0000      -6.063843      -165.0056
  77   2.0000      -6.061296      -164.9362
  78   2.0000      -6.061135      -164.9319
  79   2.0000      -6.056832      -164.8148
  80   2.0000      -6.054696      -164.7567
  81   2.0000      -6.035116      -164.2239
  82   2.0000      -6.030674      -164.1030
  83   2.0000      -6.030329      -164.0936
  84   2.0000      -6.030282      -164.0923
  85   2.0000      -6.028566      -164.0456
  86   2.0000      -6.028388      -164.0408
  87   2.0000      -6.026429      -163.9875
  88   2.0000      -6.026140      -163.9796
  89   2.0000      -6.024124      -163.9248
  90   2.0000      -6.021645      -163.8573
  91   2.0000      -6.021466      -163.8524
  92   2.0000      -6.019521      -163.7995
  93   2.0000      -6.019001      -163.7854
  94   2.0000      -6.015115      -163.6796
  95   2.0000      -6.010881      -163.5644
  96   2.0000      -1.323096       -36.0033
  97   2.0000      -1.303611       -35.4731
  98   2.0000      -1.227607       -33.4049
  99   2.0000      -1.122823       -30.5536
 100   2.0000      -1.068146       -29.0657
 101   2.0000      -1.053722       -28.6732
 102   2.0000      -1.029400       -28.0114
 103   2.0000      -1.014996       -27.6194
 104   2.0000      -1.014778       -27.6135
 105   2.0000      -1.013161       -27.5695
 106   2.0000      -1.007626       -27.4189
 107   2.0000      -0.996555       -27.1176
 108   2.0000      -0.994583       -27.0640
 109   2.0000      -0.993638       -27.0383
 110   2.0000      -0.986896       -26.8548
 111   2.0000      -0.981498       -26.7079
 112   2.0000      -0.976124       -26.5617
 113   2.0000      -0.968199       -26.3460
 114   2.0000      -0.966419       -26.2976
 115   2.0000      -0.954718       -25.9792
 116   2.0000      -0.951040       -25.8791
 117   2.0000      -0.942985       -25.6599
 118   2.0000      -0.925629       -25.1876
 119   2.0000      -0.915073       -24.9004
 120   2.0000      -0.900490       -24.5036
 121   2.0000      -0.888183       -24.1687
 122   2.0000      -0.881067       -23.9750
 123   2.0000      -0.876232       -23.8435
 124   2.0000      -0.870313       -23.6824
 125   2.0000      -0.861596       -23.4452
 126   2.0000      -0.858693       -23.3662
 127   2.0000      -0.850900       -23.1542
 128   2.0000      -0.847541       -23.0628
 129   2.0000      -0.839643       -22.8479
 130   2.0000      -0.837358       -22.7857
 131   2.0000      -0.830120       -22.5887
 132   2.0000      -0.813697       -22.1418
 133   2.0000      -0.808212       -21.9926
 134   2.0000      -0.801739       -21.8164
 135   2.0000      -0.786094       -21.3907
 136   2.0000      -0.778870       -21.1941
 137   2.0000      -0.765917       -20.8417
 138   2.0000      -0.759974       -20.6800
 139   2.0000      -0.750124       -20.4119
 140   2.0000      -0.736093       -20.0301
 141   2.0000      -0.716849       -19.5065
 142   2.0000      -0.711472       -19.3601
 143   2.0000      -0.710700       -19.3391
 144   2.0000      -0.707814       -19.2606
 145   2.0000      -0.695160       -18.9163
 146   2.0000      -0.687299       -18.7024
 147   2.0000      -0.686501       -18.6806
 148   2.0000      -0.676320       -18.4036
 149   2.0000      -0.674917       -18.3654
 150   2.0000      -0.669522       -18.2186
 151   2.0000      -0.659020       -17.9329
 152   2.0000      -0.657045       -17.8791
 153   2.0000      -0.651937       -17.7401
 154   2.0000      -0.648340       -17.6422
 155   2.0000      -0.638400       -17.3718
 156   2.0000      -0.634603       -17.2684
 157   2.0000      -0.627533       -17.0760
 158   2.0000      -0.625533       -17.0216
 159   2.0000      -0.623800       -16.9745
 160   2.0000      -0.621284       -16.9060
 161   2.0000      -0.613341       -16.6899
 162   2.0000      -0.607354       -16.5269
 163   2.0000      -0.600223       -16.3329
 164   2.0000      -0.598961       -16.2985
 165   2.0000      -0.594263       -16.1707
 166   2.0000      -0.589169       -16.0321
 167   2.0000      -0.585722       -15.9383
 168   2.0000      -0.583813       -15.8864
 169   2.0000      -0.581656       -15.8277
 170   2.0000      -0.579752       -15.7759
 171   2.0000      -0.575289       -15.6544
 172   2.0000      -0.563556       -15.3352
 173   2.0000      -0.553966       -15.0742
 174   2.0000      -0.553413       -15.0591
 175   2.0000      -0.550586       -14.9822
 176   2.0000      -0.547741       -14.9048
 177   2.0000      -0.546367       -14.8674
 178   2.0000      -0.543961       -14.8019
 179   2.0000      -0.534319       -14.5396
 180   2.0000      -0.532139       -14.4802
 181   2.0000      -0.528413       -14.3789
 182   2.0000      -0.527196       -14.3457
 183   2.0000      -0.522951       -14.2302
 184   2.0000      -0.516546       -14.0559
 185   2.0000      -0.515259       -14.0209
 186   2.0000      -0.511623       -13.9220
 187   2.0000      -0.508777       -13.8445
 188   2.0000      -0.508086       -13.8257
 189   2.0000      -0.507313       -13.8047
 190   2.0000      -0.507099       -13.7989
 191   2.0000      -0.503497       -13.7008
 192   2.0000      -0.502123       -13.6635
 193   2.0000      -0.492447       -13.4002
 194   2.0000      -0.492392       -13.3987
 195   2.0000      -0.491385       -13.3713
 196   2.0000      -0.487953       -13.2779
 197   2.0000      -0.484532       -13.1848
 198   2.0000      -0.484119       -13.1735
 199   2.0000      -0.480555       -13.0766
 200   2.0000      -0.479336       -13.0434
 201   2.0000      -0.477988       -13.0067
 202   2.0000      -0.471573       -12.8322
 203   2.0000      -0.468578       -12.7507
 204   2.0000      -0.465754       -12.6738
 205   2.0000      -0.464304       -12.6343
 206   2.0000      -0.463509       -12.6127
 207   2.0000      -0.462370       -12.5817
 208   2.0000      -0.460629       -12.5343
 209   2.0000      -0.460052       -12.5187
 210   2.0000      -0.455045       -12.3824
 211   2.0000      -0.450833       -12.2678
 212   2.0000      -0.447922       -12.1886
 213   2.0000      -0.447343       -12.1728
 214   2.0000      -0.445764       -12.1299
 215   2.0000      -0.441833       -12.0229
 216   2.0000      -0.438726       -11.9383
 217   2.0000      -0.437147       -11.8954
 218   2.0000      -0.435951       -11.8628
 219   2.0000      -0.435572       -11.8525
 220   2.0000      -0.434298       -11.8179
 221   2.0000      -0.433482       -11.7956
 222   2.0000      -0.429091       -11.6762
 223   2.0000      -0.427815       -11.6414
 224   2.0000      -0.427319       -11.6279
 225   2.0000      -0.422213       -11.4890
 226   2.0000      -0.420355       -11.4384
 227   2.0000      -0.416370       -11.3300
 228   2.0000      -0.413939       -11.2639
 229   2.0000      -0.412478       -11.2241
 230   2.0000      -0.410625       -11.1737
 231   2.0000      -0.408761       -11.1229
 232   2.0000      -0.408034       -11.1032
 233   2.0000      -0.406560       -11.0631
 234   2.0000      -0.403373       -10.9763
 235   2.0000      -0.391499       -10.6532
 236   2.0000      -0.386143       -10.5075
 237   2.0000      -0.372889       -10.1468
 238   2.0000      -0.366747        -9.9797
 239   2.0000      -0.357211        -9.7202
 240   2.0000      -0.355146        -9.6640
 241   2.0000      -0.348668        -9.4877
 242   2.0000      -0.345267        -9.3952
 243   2.0000      -0.337622        -9.1872
 244   2.0000      -0.333235        -9.0678
 245   2.0000      -0.330513        -8.9937
 246   2.0000      -0.329349        -8.9621
 247   2.0000      -0.328041        -8.9265
 248   2.0000      -0.317508        -8.6398
 249   2.0000      -0.302514        -8.2318
 250   2.0000      -0.294747        -8.0205
 251   2.0000      -0.286255        -7.7894
 252   2.0000      -0.273643        -7.4462
 253   2.0000      -0.271016        -7.3747
 254   2.0000      -0.235139        -6.3985
 255   0.0000      -0.111913        -3.0453
 256   0.0000      -0.103431        -2.8145
 257   0.0000      -0.064693        -1.7604
 258   0.0000      -0.060805        -1.6546
 259   0.0000      -0.050863        -1.3840

MULLIKEN ATOMIC CHARGES
-----------------------
   0 C :   -0.076468
   1 C :    0.036922
   2 C :   -0.023643
   3 C :   -0.122035
   4 S :    0.194766
   5 C :   -0.085901
   6 C :    0.013140
   7 C :    0.295383
   8 C :   -0.291339
   9 C :   -0.187530
  10 N :    0.171978
  11 C :   -0.191169
  12 N :    0.178691
  13 C :   -0.030564
  14 C :   -0.100489
  15 S :    0.208424
  16 C :    0.269418
  17 C :   -0.197662
  18 C :    0.320360
  19 C :   -0.394458
  20 C :   -0.128712
  21 N :    0.095711
  22 C :   -0.169399
  23 N :    0.104852
  24 C :   -0.196660
  25 C :    0.242680
  26 O :   -0.230876
  27 C :   -0.047032
  28 C :    0.007718
  29 C :    0.025933
  30 C :    0.051629
  31 C :   -0.046451
  32 S :    0.075378
  33 C :   -0.025724
  34 C :    0.033543
  35 C :    0.049655
  36 C :   -0.032369
  37 S :    0.088780
  38 C :    0.048035
  39 C :   -0.076467
  40 C :   -0.037452
  41 C :    0.102093
  42 C :    0.035923
  43 C :    0.054788
  44 C :   -0.165843
  45 N :    0.000846
  46 C :   -0.131023
  47 S :    0.135688
  48 S :    0.136172
  49 C :    0.061796
  50 C :    0.227623
  51 F :   -0.177882
  52 F :   -0.148683
  53 C :   -0.052364
  54 C :   -0.060692
  55 C :    0.120591
  56 O :   -0.146513
  57 C :   -0.172960
  58 C :    0.001146
  59 C :    0.309191
  60 C :   -0.329653
  61 C :   -0.165128
  62 N :    0.168489
  63 C :   -0.199524
  64 N :    0.156342
  65 C :    0.021918
  66 C :   -0.023967
  67 S :    0.199032
  68 H :    0.040878
  69 H :    0.014953
  70 H :    0.016771
  71 H :    0.024941
  72 H :    0.041216
  73 H :    0.001189
  74 H :   -0.002437
  75 H :   -0.003712
  76 H :   -0.006081
  77 H :   -0.000381
  78 H :   -0.003189
  79 H :    0.012671
  80 H :    0.030628
  81 H :    0.011539
  82 H :    0.043015
Sum of atomic charges:   -0.0000000

LOEWDIN ATOMIC CHARGES
----------------------
   0 C :   -0.170378
   1 C :   -0.033348
   2 C :   -0.069185
   3 C :   -0.190011
   4 S :    0.487837
   5 C :   -0.163866
   6 C :   -0.074276
   7 C :    0.081335
   8 C :   -0.099885
   9 C :   -0.015706
  10 N :   -0.033072
  11 C :   -0.017758
  12 N :   -0.028414
  13 C :   -0.004747
  14 C :   -0.193273
  15 S :    0.501637
  16 C :    0.078320
  17 C :   -0.069041
  18 C :    0.064399
  19 C :   -0.200973
  20 C :   -0.011611
  21 N :   -0.091352
  22 C :   -0.029660
  23 N :   -0.095066
  24 C :   -0.076351
  25 C :    0.092847
  26 O :   -0.002109
  27 C :   -0.102608
  28 C :   -0.110024
  29 C :   -0.038975
  30 C :   -0.013170
  31 C :   -0.190916
  32 S :    0.412150
  33 C :   -0.150818
  34 C :   -0.038492
  35 C :   -0.008005
  36 C :   -0.145081
  37 S :    0.413472
  38 C :   -0.045758
  39 C :   -0.154110
  40 C :   -0.049749
  41 C :   -0.049969
  42 C :    0.001123
  43 C :   -0.077689
  44 C :   -0.121852
  45 N :   -0.088101
  46 C :   -0.122507
  47 S :    0.418824
  48 S :    0.417978
  49 C :   -0.094322
  50 C :   -0.002471
  51 F :   -0.048096
  52 F :   -0.039113
  53 C :    0.036069
  54 C :   -0.037829
  55 C :    0.071500
  56 O :   -0.143053
  57 C :   -0.213647
  58 C :   -0.027934
  59 C :    0.074632
  60 C :   -0.125588
  61 C :   -0.010864
  62 N :   -0.049808
  63 C :   -0.014642
  64 N :   -0.052331
  65 C :   -0.045526
  66 C :   -0.128320
  67 S :    0.506284
  68 H :    0.029981
  69 H :    0.043856
  70 H :    0.044161
  71 H :    0.038043
  72 H :    0.026356
  73 H :    0.043203
  74 H :    0.037149
  75 H :    0.036728
  76 H :    0.035015
  77 H :    0.038446
  78 H :    0.038220
  79 H :    0.019336
  80 H :    0.047734
  81 H :    0.042734
  82 H :    0.032082

  Mayer bond orders larger than 0.100000
B(  0-C ,  1-C ) :   1.5444 B(  0-C ,  4-S ) :   1.1600 B(  0-C , 68-H ) :   0.9639
B(  1-C ,  2-C ) :   1.2808 B(  1-C , 69-H ) :   0.9959 B(  2-C ,  3-C ) :   1.4569
B(  2-C ,  7-C ) :   1.0149 B(  3-C ,  4-S ) :   1.1359 B(  3-C ,  5-C ) :   1.1826
B(  5-C ,  6-C ) :   1.4507 B(  5-C , 15-S ) :   1.1468 B(  6-C ,  7-C ) :   0.9922
B(  6-C , 13-C ) :   1.2618 B(  7-C ,  8-C ) :   1.7161 B(  8-C ,  9-C ) :   1.1315
B(  8-C , 11-C ) :   1.1302 B(  9-C , 10-N ) :   2.9936 B( 11-C , 12-N ) :   3.0028
B( 13-C , 14-C ) :   1.4504 B( 13-C , 70-H ) :   1.0081 B( 14-C , 15-S ) :   1.1082
B( 14-C , 16-C ) :   1.0964 B( 16-C , 17-C ) :   1.5410 B( 16-C , 26-O ) :   1.1675
B( 17-C , 18-C ) :   1.1374 B( 17-C , 71-H ) :   0.9609 B( 18-C , 19-C ) :   1.4788
B( 18-C , 24-C ) :   1.2056 B( 19-C , 20-C ) :   1.1546 B( 19-C , 22-C ) :   1.1647
B( 20-C , 21-N ) :   2.9239 B( 22-C , 23-N ) :   2.9386 B( 24-C , 25-C ) :   1.4859
B( 24-C , 72-H ) :   0.9417 B( 25-C , 26-O ) :   1.0667 B( 25-C , 27-C ) :   1.1601
B( 27-C , 28-C ) :   1.5299 B( 27-C , 73-H ) :   0.9659 B( 28-C , 29-C ) :   1.1492
B( 28-C , 32-S ) :   1.0771 B( 29-C , 30-C ) :   1.5872 B( 29-C , 74-H ) :   1.0009
B( 30-C , 31-C ) :   1.1880 B( 30-C , 75-H ) :   0.9934 B( 31-C , 32-S ) :   1.0314
B( 31-C , 33-C ) :   1.5107 B( 33-C , 34-C ) :   1.1713 B( 33-C , 37-S ) :   1.0695
B( 34-C , 35-C ) :   1.6059 B( 34-C , 76-H ) :   0.9943 B( 35-C , 36-C ) :   1.1338
B( 35-C , 77-H ) :   0.9976 B( 36-C , 37-S ) :   1.0341 B( 36-C , 38-C ) :   1.6240
B( 38-C , 39-C ) :   1.1464 B( 38-C , 78-H ) :   0.9563 B( 39-C , 40-C ) :   1.5039
B( 39-C , 47-S ) :   1.0649 B( 40-C , 41-C ) :   1.2291 B( 40-C , 79-H ) :   0.9615
B( 41-C , 42-C ) :   1.3345 B( 41-C , 46-C ) :   1.1928 B( 42-C , 43-C ) :   1.3805
B( 42-C , 53-C ) :   0.9784 B( 43-C , 44-C ) :   1.1647 B( 43-C , 50-C ) :   1.0838
B( 44-C , 45-N ) :   1.5717 B( 44-C , 48-S ) :   1.0755 B( 45-N , 46-C ) :   1.5366
B( 46-C , 47-S ) :   1.0896 B( 48-S , 49-C ) :   1.0848 B( 49-C , 50-C ) :   1.5086
B( 49-C , 52-F ) :   1.1457 B( 50-C , 51-F ) :   1.1170 B( 53-C , 54-C ) :   1.8506
B( 53-C , 80-H ) :   0.9235 B( 54-C , 55-C ) :   0.9197 B( 54-C , 59-C ) :   0.9776
B( 55-C , 56-O ) :   2.2438 B( 55-C , 57-C ) :   1.0310 B( 57-C , 58-C ) :   1.4304
B( 57-C , 67-S ) :   1.1328 B( 58-C , 59-C ) :   1.0275 B( 58-C , 65-C ) :   1.2801
B( 59-C , 60-C ) :   1.6923 B( 60-C , 61-C ) :   1.1686 B( 60-C , 63-C ) :   1.1303
B( 61-C , 62-N ) :   2.9865 B( 63-C , 64-N ) :   3.0023 B( 65-C , 66-C ) :   1.5424
B( 65-C , 81-H ) :   0.9976 B( 66-C , 67-S ) :   1.1894 B( 66-C , 82-H ) :   0.9602

-----------------------------------------------------------------------------
         ABSORPTION SPECTRUM VIA TRANSITION ELECTRIC DIPOLE MOMENTS
-----------------------------------------------------------------------------
State   Energy  Wavelength   fosc         T2         TX        TY        TZ
        (cm-1)    (nm)                  (au**2)     (au)      (au)      (au)
-----------------------------------------------------------------------------
   0   13583.7    736.2   0.653199640  15.83080  -0.90748  -3.64364   1.31574
   1   15955.3    626.8   0.014155592   0.29208  -0.09365  -0.20008   0.49323
   2   16876.7    592.5   0.041415738   0.80789   0.00327   0.85408  -0.28006
   3   21792.5    458.9   0.197932020   2.99010   0.47314   1.40515  -0.88983
   4   22416.7    446.1   0.108707331   1.59648   0.88568  -0.37406  -0.81983
   5   22643.0    441.6   0.280377847   4.07648  -0.64928  -1.36595   1.33757
   6   23671.8    422.4   0.007461613   0.10377  -0.01715  -0.25959   0.18998
   7   23984.7    416.9   0.525455041   7.21235  -1.15689   2.08266   1.23954
   8   24860.6    402.2   0.065213802   0.86358   0.01347   0.92837  -0.03914
   9   25694.1    389.2   0.373242181   4.78226  -0.99073  -0.76989   1.79108
  10   26943.9    371.1   0.056456236   0.68981  -0.00748  -0.82603   0.08618
  11   27342.9    365.7   0.015892494   0.19135   0.20625   0.02728   0.38479
  12   28074.2    356.2   0.000683587   0.00802  -0.02242  -0.06809   0.05364
  13   28291.7    353.5   0.232114002   2.70096   0.17824   1.10716  -1.20141
  14   28755.8    347.8   0.067770637   0.77587  -0.30902   0.57445   0.59194
  15   29136.5    343.2   0.491682803   5.55551  -1.25268   1.56984   1.23365
  16   30223.4    330.9   0.475065877   5.17471   0.71392  -2.15985   0.00980
  17   30689.9    325.8   0.086552420   0.92845  -0.02203   0.96233   0.04356
  18   30732.3    325.4   0.013174375   0.14113   0.10213  -0.34652   0.10307
  19   30841.1    324.2   0.154330930   1.64740  -0.21322   1.25767  -0.14209
  20   31076.8    321.8   0.006561452   0.06951   0.00104   0.26339  -0.01144
  21   31512.1    317.3   0.005677855   0.05932   0.00524   0.15015  -0.19169
  22   31606.1    316.4   0.640847954   6.67513  -1.63165   1.27567   1.54452
  23   31880.9    313.7   0.081229067   0.83880  -0.32656   0.85513   0.03020
  24   31989.3    312.6   0.009455371   0.09731   0.25764   0.13701  -0.11025
  25   32582.7    306.9   0.216992900   2.19247  -0.59012   0.64586  -1.19462
  26   33228.2    300.9   0.058275805   0.57737   0.42143  -0.61768  -0.13508
  27   33470.1    298.8   0.018120561   0.17823  -0.22010  -0.33094  -0.14237
  28   33621.0    297.4   0.068686053   0.67256  -0.14472   0.67394  -0.44433
  29   33903.2    295.0   0.024711796   0.23996   0.07262  -0.35005   0.33489
  30   34073.0    293.5   0.272501296   2.63290  -0.17396  -1.44619   0.71496
  31   34851.7    286.9   0.047579831   0.44944  -0.57607   0.30303   0.16048
  32   34982.2    285.9   0.113656660   1.06961  -0.34039   0.46780  -0.85727
  33   35245.1    283.7   0.059278924   0.55370   0.69074  -0.27537   0.02747
  34   35487.5    281.8   0.033373887   0.30960  -0.17412  -0.28903   0.44243
  35   35621.5    280.7   0.051685739   0.47768   0.22648   0.46325  -0.46019
  36   35706.0    280.1   0.336794990   3.10527  -0.63829   0.82019  -1.42308
  37   35849.6    278.9   0.092671373   0.85101   0.07301  -0.33314   0.85715
  38   35972.6    278.0   0.059762087   0.54693   0.64202  -0.33623   0.14725
  39   36065.6    277.3   0.111522065   1.01799   0.04396   0.84774  -0.54534
  40   36299.5    275.5   0.010024392   0.09091   0.27999   0.05948   0.09478
  41   36495.5    274.0   0.082200542   0.74150   0.31278  -0.19429  -0.77841
  42   36880.7    271.1   0.032703273   0.29192   0.21539  -0.48557  -0.09872
  43   37387.9    267.5   0.006153382   0.05418  -0.17591   0.05676   0.14148
  44   37441.3    267.1   0.067208139   0.59094  -0.08502  -0.74946   0.14838
  45   37510.9    266.6   0.113437725   0.99558  -0.50092   0.82638   0.24851
  46   37667.3    265.5   0.012078717   0.10557  -0.31314  -0.04973   0.07098
  47   38067.1    262.7   0.003840515   0.03321  -0.02466  -0.15453   0.09342
  48   38329.9    260.9   0.012559397   0.10787   0.17131  -0.24831   0.12987
  49   38718.0    258.3   0.019856672   0.16884   0.11485  -0.28018  -0.27775
  50   38785.2    257.8   0.052505799   0.44567   0.55094  -0.12276  -0.35646
  51   38918.4    256.9   0.005893953   0.04986  -0.07420  -0.08391   0.19316
  52   39076.2    255.9   0.010017936   0.08440  -0.16654   0.09017   0.22030
  53   39412.6    253.7   0.042166685   0.35222   0.21489   0.24324  -0.49686
  54   39606.1    252.5   0.019190927   0.15952   0.04027  -0.35852  -0.17135
  55   40205.5    248.7   0.001614792   0.01322   0.02067   0.09465  -0.06194

FINAL SINGLE POINT ENERGY     -5430.720798739861

DIPOLE MOMENT
-------------
                                X             Y             Z
Electronic contribution:     11.83608     -35.52228     -14.62027
Nuclear contribution   :    -13.69357      38.51591      14.36669
                        -----------------------------------------
Total Dipole Moment    :     -1.85749       2.99364      -0.25358
                        -----------------------------------------
Magnitude (a.u.)       :      3.53220
Magnitude (Debye)      :      8.97814

Rotational constants in cm-1:     0.001590     0.000437     0.000355
Rotational constants in MHz :    47.652109    13.107166    10.641598

                             ****ORCA TERMINATED NORMALLY****
TOTAL RUN TIME: 0 days 0 hours 9 minutes 44 seconds 503 msec
