                         Program Version 4.2.0 -  RELEASE  -
|  1> # ORCA input file
|  2> # SCF done       -219.780655068664          0.000700346361
|  3> ! CAM-B3LYP def2-SVP def2/J RIJCOSX Grid4 TightSCF
|  4> %maxcore 5000
|  5> %tddft
|  6>     Mode sTDDFT
|  7>     Ethresh 5.0
|  8>     maxcore 5000
|  9> end
| 10>
| 11> %pal
| 12>   nprocs 6
| 13>   end
| 14> * xyz 0 1
| 15>    C        0.71083         1.37447         3.86854
| 16>    C        2.07130         1.50424         3.87159
| 17>    F        2.63562         2.67100         4.20641
| 18>    C        2.89744         0.41606         3.52318
| 19>    F        4.22742         0.57229         3.53554
| 20>    C        2.35066        -0.78714         3.17557
| 21>    C        0.95185        -0.95172         3.16177
| 22>    C        0.11497         0.14706         3.51391
| 23>    C       -1.29150         0.00613         3.50460
| 24>    C       -1.84679        -1.19533         3.14701
| 25>    C       -1.00272        -2.28372         2.79592
| 26>    C        0.35895        -2.18146         2.80306
| 27>    C       -1.82297        -3.45270         2.43071
| 28>    O       -1.40002        -4.54221         2.10947
| 29>    C       -3.23719        -3.02151         2.60180
| 30>    C       -3.23598        -1.63292         3.04042
| 31>    C       -4.32880        -0.84259         3.27776
| 32>    C       -5.68190        -1.23342         3.17135
| 33>    N       -6.80735        -1.45477         3.12050
| 34>    C       -4.25056         0.50936         3.67843
| 35>    N       -4.25719         1.61043         4.00183
| 36>    C       -4.34318        -3.81790         2.52890
| 37>    C       -4.45632        -5.14669         2.03185
| 38>    C       -3.70284        -5.68355         1.03859
| 39>    C       -3.89014        -7.01495         0.57801
| 40>    C       -4.70886        -7.89708         1.19721
| 41>    C       -5.55060        -7.44834         2.37253
| 42>    C       -5.68215        -5.91417         2.50491
| 43>    N       -6.77712        -5.33880         1.75574
| 44>    C       -7.74930        -6.06116         1.42661
| 45>    C       -7.82091        -7.49111         1.79191
| 46>    N       -6.83089        -8.11429         2.25588
| 47>    F       -8.97649        -8.11397         1.64754
| 48>    F       -8.74752        -5.55130         0.72275
| 49>    C       -4.75100        -9.28514         0.77563
| 50>    C       -4.79925        -9.60862        -0.53834
| 51>    C       -4.69735       -10.94906        -1.00728
| 52>    C       -4.77538       -12.01648        -0.16867
| 53>    C       -5.18303       -11.72006         1.25820
| 54>    C       -4.55710       -10.41701         1.77658
| 55>    N       -5.06696       -10.10957         3.09443
| 56>    C       -6.29822       -10.32974         3.27568
| 57>    C       -7.13898       -10.99908         2.25807
| 58>    N       -6.63331       -11.64573         1.30509
| 59>    F       -8.45167       -10.89957         2.36735
| 60>    F       -6.83566       -10.05280         4.45509
| 61>    C       -4.54105       -13.35929        -0.61947
| 62>    C       -3.72789       -13.60245        -1.68697
| 63>    C       -3.50916       -14.89337        -2.22054
| 64>    C       -4.23915       -15.97556        -1.83380
| 65>    C       -5.28091       -15.79270        -0.75122
| 66>    C       -5.03111       -14.57083         0.15808
| 67>    N       -6.20133       -14.27573         0.95332
| 68>    C       -7.33041       -14.45811         0.42684
| 69>    C       -7.49225       -15.09836        -0.89702
| 70>    N       -6.55841       -15.75049        -1.42952
| 71>    F       -8.67230       -15.02961        -1.49042
| 72>    F       -8.42166       -14.19254         1.12457
| 73>    C       -4.11299       -17.27581        -2.38591
| 74>    C       -3.56078       -17.69467        -3.56013
| 75>    C       -3.17179       -19.13302        -3.66721
| 76>    O       -3.48025       -20.01918        -2.90577
| 77>    C       -2.28873       -19.21330        -4.84583
| 78>    C       -1.55435       -20.27172        -5.29768
| 79>    C       -0.72853       -20.09994        -6.43103
| 80>    C       -0.67819       -18.82804        -7.07216
| 81>    C        0.15957       -18.65809        -8.19266
| 82>    C        0.91022       -19.70190        -8.65602
| 83>    C        0.85778       -20.96023        -8.02270
| 84>    C        0.05517       -21.15673        -6.93399
| 85>    F        1.60611       -21.96425        -8.49725
| 86>    F        1.70732       -19.53769        -9.71912
| 87>    C       -1.45922       -17.75388        -6.58729
| 88>    C       -2.25975       -17.94581        -5.49318
| 89>    C       -3.16636       -17.03877        -4.78809
| 90>    C       -3.70087       -15.90124        -5.33474
| 91>    C       -4.70113       -15.10658        -4.73883
| 92>    N       -5.50512       -14.40445        -4.31725
| 93>    C       -3.33796       -15.40046        -6.60319
| 94>    N       -3.06563       -14.93685        -7.61713
| 95>    H        0.09397         2.21776         4.13720
| 96>    H        2.99562        -1.61048         2.91128
| 97>    H       -1.89307         0.85620         3.78170
| 98>    H        0.97237        -3.02773         2.53335
| 99>    H       -5.27141        -3.41999         2.92127
|100>    H       -2.92148        -5.10575         0.57534
|101>    H       -3.27702        -7.35234        -0.24374
|102>    H       -5.08326        -7.86179         3.27872
|103>    H       -5.88060        -5.66519         3.55598
|104>    H       -4.90594        -8.82496        -1.27388
|105>    H       -4.57531       -11.09377        -2.06923
|106>    H       -4.88195       -12.54463         1.91505
|107>    H       -3.47042       -10.54378         1.89326
|108>    H       -3.21795       -12.78175        -2.16542
|109>    H       -2.73207       -15.00559        -2.96205
|110>    H       -5.30164       -16.69616        -0.12383
|111>    H       -4.23731       -14.82426         0.87782
|112>    H       -4.44990       -18.09295        -1.75347
|113>    H       -1.59876       -21.22545        -4.79441
|114>    H        0.20847       -17.70299        -8.69189
|115>    H        0.02648       -22.12548        -6.46032
|116>    H       -1.39288       -16.80111        -7.08764
|117> *
|118>
|119>                          ****END OF INPUT****

CARTESIAN COORDINATES (ANGSTROEM)
---------------------------------
  C      0.710830    1.374470    3.868540
  C      2.071300    1.504240    3.871590
  F      2.635620    2.671000    4.206410
  C      2.897440    0.416060    3.523180
  F      4.227420    0.572290    3.535540
  C      2.350660   -0.787140    3.175570
  C      0.951850   -0.951720    3.161770
  C      0.114970    0.147060    3.513910
  C     -1.291500    0.006130    3.504600
  C     -1.846790   -1.195330    3.147010
  C     -1.002720   -2.283720    2.795920
  C      0.358950   -2.181460    2.803060
  C     -1.822970   -3.452700    2.430710
  O     -1.400020   -4.542210    2.109470
  C     -3.237190   -3.021510    2.601800
  C     -3.235980   -1.632920    3.040420
  C     -4.328800   -0.842590    3.277760
  C     -5.681900   -1.233420    3.171350
  N     -6.807350   -1.454770    3.120500
  C     -4.250560    0.509360    3.678430
  N     -4.257190    1.610430    4.001830
  C     -4.343180   -3.817900    2.528900
  C     -4.456320   -5.146690    2.031850
  C     -3.702840   -5.683550    1.038590
  C     -3.890140   -7.014950    0.578010
  C     -4.708860   -7.897080    1.197210
  C     -5.550600   -7.448340    2.372530
  C     -5.682150   -5.914170    2.504910
  N     -6.777120   -5.338800    1.755740
  C     -7.749300   -6.061160    1.426610
  C     -7.820910   -7.491110    1.791910
  N     -6.830890   -8.114290    2.255880
  F     -8.976490   -8.113970    1.647540
  F     -8.747520   -5.551300    0.722750
  C     -4.751000   -9.285140    0.775630
  C     -4.799250   -9.608620   -0.538340
  C     -4.697350  -10.949060   -1.007280
  C     -4.775380  -12.016480   -0.168670
  C     -5.183030  -11.720060    1.258200
  C     -4.557100  -10.417010    1.776580
  N     -5.066960  -10.109570    3.094430
  C     -6.298220  -10.329740    3.275680
  C     -7.138980  -10.999080    2.258070
  N     -6.633310  -11.645730    1.305090
  F     -8.451670  -10.899570    2.367350
  F     -6.835660  -10.052800    4.455090
  C     -4.541050  -13.359290   -0.619470
  C     -3.727890  -13.602450   -1.686970
  C     -3.509160  -14.893370   -2.220540
  C     -4.239150  -15.975560   -1.833800
  C     -5.280910  -15.792700   -0.751220
  C     -5.031110  -14.570830    0.158080
  N     -6.201330  -14.275730    0.953320
  C     -7.330410  -14.458110    0.426840
  C     -7.492250  -15.098360   -0.897020
  N     -6.558410  -15.750490   -1.429520
  F     -8.672300  -15.029610   -1.490420
  F     -8.421660  -14.192540    1.124570
  C     -4.112990  -17.275810   -2.385910
  C     -3.560780  -17.694670   -3.560130
  C     -3.171790  -19.133020   -3.667210
  O     -3.480250  -20.019180   -2.905770
  C     -2.288730  -19.213300   -4.845830
  C     -1.554350  -20.271720   -5.297680
  C     -0.728530  -20.099940   -6.431030
  C     -0.678190  -18.828040   -7.072160
  C      0.159570  -18.658090   -8.192660
  C      0.910220  -19.701900   -8.656020
  C      0.857780  -20.960230   -8.022700
  C      0.055170  -21.156730   -6.933990
  F      1.606110  -21.964250   -8.497250
  F      1.707320  -19.537690   -9.719120
  C     -1.459220  -17.753880   -6.587290
  C     -2.259750  -17.945810   -5.493180
  C     -3.166360  -17.038770   -4.788090
  C     -3.700870  -15.901240   -5.334740
  C     -4.701130  -15.106580   -4.738830
  N     -5.505120  -14.404450   -4.317250
  C     -3.337960  -15.400460   -6.603190
  N     -3.065630  -14.936850   -7.617130
  H      0.093970    2.217760    4.137200
  H      2.995620   -1.610480    2.911280
  H     -1.893070    0.856200    3.781700
  H      0.972370   -3.027730    2.533350
  H     -5.271410   -3.419990    2.921270
  H     -2.921480   -5.105750    0.575340
  H     -3.277020   -7.352340   -0.243740
  H     -5.083260   -7.861790    3.278720
  H     -5.880600   -5.665190    3.555980
  H     -4.905940   -8.824960   -1.273880
  H     -4.575310  -11.093770   -2.069230
  H     -4.881950  -12.544630    1.915050
  H     -3.470420  -10.543780    1.893260
  H     -3.217950  -12.781750   -2.165420
  H     -2.732070  -15.005590   -2.962050
  H     -5.301640  -16.696160   -0.123830
  H     -4.237310  -14.824260    0.877820
  H     -4.449900  -18.092950   -1.753470
  H     -1.598760  -21.225450   -4.794410
  H      0.208470  -17.702990   -8.691890
  H      0.026480  -22.125480   -6.460320
  H     -1.392880  -16.801110   -7.087640

 Total Charge           Charge          ....    0
 Multiplicity           Mult            ....    1
 Number of Electrons    NEL             ....  546
 Basis Dimension        Dim             .... 1230

ORBITAL ENERGIES
----------------

  NO   OCC          E(Eh)            E(eV)
   0   2.0000     -24.821490      -675.4271
   1   2.0000     -24.812994      -675.1959
   2   2.0000     -24.807335      -675.0419
   3   2.0000     -24.807001      -675.0328
   4   2.0000     -24.804988      -674.9780
   5   2.0000     -24.801964      -674.8958
   6   2.0000     -24.801703      -674.8886
   7   2.0000     -24.801111      -674.8725
   8   2.0000     -24.800645      -674.8599
   9   2.0000     -24.800385      -674.8528
  10   2.0000     -19.223259      -523.0915
  11   2.0000     -19.220385      -523.0133
  12   2.0000     -14.450205      -393.2101
  13   2.0000     -14.442593      -393.0029
  14   2.0000     -14.434130      -392.7726
  15   2.0000     -14.432089      -392.7171
  16   2.0000     -14.424857      -392.5203
  17   2.0000     -14.422850      -392.4657
  18   2.0000     -14.422167      -392.4471
  19   2.0000     -14.421736      -392.4354
  20   2.0000     -14.418912      -392.3586
  21   2.0000     -14.418798      -392.3554
  22   2.0000     -10.436613      -283.9947
  23   2.0000     -10.428207      -283.7659
  24   2.0000     -10.421578      -283.5856
  25   2.0000     -10.419348      -283.5249
  26   2.0000     -10.419337      -283.5246
  27   2.0000     -10.410801      -283.2923
  28   2.0000     -10.385150      -282.5943
  29   2.0000     -10.385030      -282.5910
  30   2.0000     -10.384620      -282.5799
  31   2.0000     -10.384287      -282.5708
  32   2.0000     -10.375459      -282.3306
  33   2.0000     -10.371351      -282.2188
  34   2.0000     -10.349936      -281.6361
  35   2.0000     -10.349022      -281.6112
  36   2.0000     -10.347096      -281.5588
  37   2.0000     -10.345591      -281.5178
  38   2.0000     -10.342553      -281.4352
  39   2.0000     -10.341659      -281.4109
  40   2.0000     -10.340516      -281.3797
  41   2.0000     -10.338187      -281.3164
  42   2.0000     -10.333939      -281.2008
  43   2.0000     -10.327474      -281.0249
  44   2.0000     -10.324513      -280.9443
  45   2.0000     -10.322582      -280.8917
  46   2.0000     -10.322458      -280.8884
  47   2.0000     -10.321632      -280.8659
  48   2.0000     -10.320987      -280.8483
  49   2.0000     -10.320898      -280.8459
  50   2.0000     -10.317981      -280.7665
  51   2.0000     -10.314708      -280.6775
  52   2.0000     -10.314379      -280.6685
  53   2.0000     -10.314331      -280.6672
  54   2.0000     -10.314297      -280.6663
  55   2.0000     -10.314039      -280.6593
  56   2.0000     -10.312646      -280.6214
  57   2.0000     -10.311247      -280.5833
  58   2.0000     -10.310507      -280.5631
  59   2.0000     -10.309703      -280.5413
  60   2.0000     -10.307063      -280.4694
  61   2.0000     -10.306721      -280.4601
  62   2.0000     -10.306507      -280.4543
  63   2.0000     -10.306290      -280.4484
  64   2.0000     -10.305801      -280.4351
  65   2.0000     -10.305754      -280.4338
  66   2.0000     -10.304750      -280.4065
  67   2.0000     -10.304745      -280.4064
  68   2.0000     -10.304702      -280.4052
  69   2.0000     -10.304410      -280.3973
  70   2.0000     -10.304056      -280.3876
  71   2.0000     -10.303958      -280.3850
  72   2.0000     -10.303670      -280.3771
  73   2.0000     -10.303380      -280.3692
  74   2.0000     -10.298369      -280.2329
  75   2.0000     -10.298040      -280.2239
  76   2.0000     -10.296937      -280.1939
  77   2.0000     -10.295740      -280.1613
  78   2.0000     -10.295266      -280.1484
  79   2.0000     -10.294259      -280.1210
  80   2.0000      -1.350386       -36.7459
  81   2.0000      -1.337271       -36.3890
  82   2.0000      -1.334491       -36.3133
  83   2.0000      -1.332963       -36.2718
  84   2.0000      -1.324600       -36.0442
  85   2.0000      -1.324488       -36.0412
  86   2.0000      -1.322902       -35.9980
  87   2.0000      -1.319730       -35.9117
  88   2.0000      -1.309738       -35.6398
  89   2.0000      -1.309578       -35.6354
  90   2.0000      -1.139229       -31.0000
  91   2.0000      -1.136346       -30.9216
  92   2.0000      -1.098879       -29.9020
  93   2.0000      -1.089744       -29.6534
  94   2.0000      -1.081713       -29.4349
  95   2.0000      -1.031138       -28.0587
  96   2.0000      -1.025737       -27.9117
  97   2.0000      -1.023299       -27.8454
  98   2.0000      -1.019996       -27.7555
  99   2.0000      -1.009092       -27.4588
 100   2.0000      -1.008733       -27.4490
 101   2.0000      -1.007929       -27.4271
 102   2.0000      -1.000426       -27.2230
 103   2.0000      -0.997366       -27.1397
 104   2.0000      -0.986357       -26.8401
 105   2.0000      -0.985645       -26.8208
 106   2.0000      -0.978731       -26.6326
 107   2.0000      -0.971086       -26.4246
 108   2.0000      -0.954878       -25.9836
 109   2.0000      -0.937152       -25.5012
 110   2.0000      -0.934440       -25.4274
 111   2.0000      -0.921616       -25.0784
 112   2.0000      -0.909987       -24.7620
 113   2.0000      -0.901510       -24.5313
 114   2.0000      -0.897476       -24.4216
 115   2.0000      -0.895167       -24.3587
 116   2.0000      -0.890348       -24.2276
 117   2.0000      -0.876916       -23.8621
 118   2.0000      -0.872247       -23.7350
 119   2.0000      -0.869406       -23.6578
 120   2.0000      -0.859542       -23.3893
 121   2.0000      -0.852509       -23.1979
 122   2.0000      -0.844802       -22.9882
 123   2.0000      -0.844144       -22.9703
 124   2.0000      -0.834297       -22.7024
 125   2.0000      -0.805698       -21.9242
 126   2.0000      -0.797717       -21.7070
 127   2.0000      -0.788664       -21.4606
 128   2.0000      -0.779144       -21.2016
 129   2.0000      -0.778530       -21.1849
 130   2.0000      -0.774218       -21.0675
 131   2.0000      -0.771778       -21.0012
 132   2.0000      -0.771314       -20.9885
 133   2.0000      -0.770762       -20.9735
 134   2.0000      -0.755402       -20.5555
 135   2.0000      -0.750700       -20.4276
 136   2.0000      -0.742448       -20.2030
 137   2.0000      -0.733688       -19.9647
 138   2.0000      -0.723914       -19.6987
 139   2.0000      -0.721740       -19.6395
 140   2.0000      -0.716543       -19.4981
 141   2.0000      -0.706624       -19.2282
 142   2.0000      -0.698935       -19.0190
 143   2.0000      -0.691190       -18.8082
 144   2.0000      -0.688193       -18.7267
 145   2.0000      -0.685907       -18.6645
 146   2.0000      -0.679493       -18.4900
 147   2.0000      -0.676744       -18.4151
 148   2.0000      -0.675954       -18.3936
 149   2.0000      -0.670837       -18.2544
 150   2.0000      -0.667614       -18.1667
 151   2.0000      -0.663616       -18.0579
 152   2.0000      -0.662479       -18.0270
 153   2.0000      -0.660437       -17.9714
 154   2.0000      -0.655145       -17.8274
 155   2.0000      -0.652817       -17.7641
 156   2.0000      -0.647346       -17.6152
 157   2.0000      -0.646263       -17.5857
 158   2.0000      -0.643580       -17.5127
 159   2.0000      -0.640562       -17.4306
 160   2.0000      -0.631452       -17.1827
 161   2.0000      -0.627040       -17.0626
 162   2.0000      -0.622756       -16.9461
 163   2.0000      -0.619688       -16.8626
 164   2.0000      -0.614628       -16.7249
 165   2.0000      -0.613704       -16.6997
 166   2.0000      -0.610208       -16.6046
 167   2.0000      -0.605783       -16.4842
 168   2.0000      -0.599394       -16.3103
 169   2.0000      -0.597323       -16.2540
 170   2.0000      -0.596234       -16.2243
 171   2.0000      -0.593213       -16.1422
 172   2.0000      -0.590093       -16.0572
 173   2.0000      -0.588943       -16.0260
 174   2.0000      -0.588872       -16.0240
 175   2.0000      -0.584558       -15.9066
 176   2.0000      -0.582481       -15.8501
 177   2.0000      -0.579313       -15.7639
 178   2.0000      -0.576346       -15.6832
 179   2.0000      -0.574629       -15.6365
 180   2.0000      -0.570908       -15.5352
 181   2.0000      -0.565819       -15.3967
 182   2.0000      -0.562141       -15.2966
 183   2.0000      -0.558372       -15.1941
 184   2.0000      -0.558210       -15.1897
 185   2.0000      -0.557411       -15.1679
 186   2.0000      -0.554229       -15.0813
 187   2.0000      -0.552970       -15.0471
 188   2.0000      -0.550567       -14.9817
 189   2.0000      -0.550447       -14.9784
 190   2.0000      -0.549770       -14.9600
 191   2.0000      -0.546389       -14.8680
 192   2.0000      -0.546000       -14.8574
 193   2.0000      -0.542634       -14.7658
 194   2.0000      -0.541238       -14.7278
 195   2.0000      -0.541131       -14.7249
 196   2.0000      -0.538156       -14.6440
 197   2.0000      -0.536308       -14.5937
 198   2.0000      -0.534209       -14.5366
 199   2.0000      -0.533283       -14.5114
 200   2.0000      -0.532226       -14.4826
 201   2.0000      -0.526562       -14.3285
 202   2.0000      -0.525105       -14.2888
 203   2.0000      -0.522302       -14.2126
 204   2.0000      -0.521564       -14.1925
 205   2.0000      -0.519334       -14.1318
 206   2.0000      -0.517073       -14.0703
 207   2.0000      -0.515758       -14.0345
 208   2.0000      -0.510910       -13.9026
 209   2.0000      -0.510425       -13.8894
 210   2.0000      -0.506881       -13.7929
 211   2.0000      -0.504432       -13.7263
 212   2.0000      -0.503857       -13.7106
 213   2.0000      -0.500971       -13.6321
 214   2.0000      -0.499829       -13.6010
 215   2.0000      -0.494379       -13.4527
 216   2.0000      -0.493215       -13.4211
 217   2.0000      -0.489443       -13.3184
 218   2.0000      -0.488130       -13.2827
 219   2.0000      -0.484973       -13.1968
 220   2.0000      -0.477205       -12.9854
 221   2.0000      -0.473832       -12.8936
 222   2.0000      -0.471244       -12.8232
 223   2.0000      -0.470362       -12.7992
 224   2.0000      -0.469102       -12.7649
 225   2.0000      -0.464472       -12.6389
 226   2.0000      -0.463392       -12.6095
 227   2.0000      -0.460969       -12.5436
 228   2.0000      -0.459597       -12.5063
 229   2.0000      -0.455755       -12.4017
 230   2.0000      -0.453291       -12.3347
 231   2.0000      -0.451972       -12.2988
 232   2.0000      -0.449648       -12.2355
 233   2.0000      -0.449573       -12.2335
 234   2.0000      -0.446884       -12.1603
 235   2.0000      -0.446514       -12.1503
 236   2.0000      -0.440809       -11.9950
 237   2.0000      -0.434128       -11.8132
 238   2.0000      -0.433456       -11.7949
 239   2.0000      -0.431614       -11.7448
 240   2.0000      -0.430946       -11.7266
 241   2.0000      -0.430306       -11.7092
 242   2.0000      -0.428573       -11.6621
 243   2.0000      -0.426343       -11.6014
 244   2.0000      -0.426220       -11.5980
 245   2.0000      -0.423906       -11.5351
 246   2.0000      -0.419809       -11.4236
 247   2.0000      -0.410976       -11.1832
 248   2.0000      -0.408736       -11.1223
 249   2.0000      -0.403990       -10.9931
 250   2.0000      -0.402465       -10.9516
 251   2.0000      -0.396709       -10.7950
 252   2.0000      -0.395185       -10.7535
 253   2.0000      -0.392424       -10.6784
 254   2.0000      -0.389627       -10.6023
 255   2.0000      -0.387102       -10.5336
 256   2.0000      -0.372226       -10.1288
 257   2.0000      -0.369115       -10.0441
 258   2.0000      -0.363792        -9.8993
 259   2.0000      -0.363109        -9.8807
 260   2.0000      -0.359051        -9.7703
 261   2.0000      -0.352099        -9.5811
 262   2.0000      -0.350817        -9.5462
 263   2.0000      -0.346288        -9.4230
 264   2.0000      -0.343045        -9.3347
 265   2.0000      -0.338412        -9.2087
 266   2.0000      -0.325590        -8.8598
 267   2.0000      -0.321605        -8.7513
 268   2.0000      -0.320806        -8.7296
 269   2.0000      -0.306960        -8.3528
 270   2.0000      -0.305155        -8.3037
 271   2.0000      -0.290192        -7.8965
 272   2.0000      -0.264331        -7.1928
 273   0.0000      -0.111724        -3.0402
 274   0.0000      -0.099623        -2.7109
 275   0.0000      -0.070950        -1.9306
 276   0.0000      -0.064783        -1.7628
 277   0.0000      -0.056111        -1.5269

MULLIKEN ATOMIC CHARGES
-----------------------
   0 C :   -0.107607
   1 C :    0.242550
   2 F :   -0.169682
   3 C :    0.239199
   4 F :   -0.171057
   5 C :   -0.104731
   6 C :    0.117559
   7 C :    0.113370
   8 C :   -0.082851
   9 C :    0.051712
  10 C :   -0.008464
  11 C :   -0.081125
  12 C :    0.144598
  13 O :   -0.149951
  14 C :   -0.072688
  15 C :    0.318497
  16 C :   -0.348305
  17 C :   -0.198429
  18 N :    0.163568
  19 C :   -0.183853
  20 N :    0.151317
  21 C :   -0.018104
  22 C :    0.010825
  23 C :    0.053735
  24 C :   -0.015135
  25 C :   -0.022090
  26 C :    0.142659
  27 C :    0.078910
  28 N :   -0.075082
  29 C :    0.124258
  30 C :    0.137583
  31 N :   -0.145004
  32 F :   -0.127519
  33 F :   -0.133241
  34 C :   -0.008736
  35 C :    0.023109
  36 C :   -0.042456
  37 C :    0.046796
  38 C :    0.062615
  39 C :    0.112417
  40 N :   -0.141459
  41 C :    0.170579
  42 C :    0.141368
  43 N :   -0.081938
  44 F :   -0.135994
  45 F :   -0.141106
  46 C :    0.036775
  47 C :   -0.026051
  48 C :    0.008570
  49 C :    0.020863
  50 C :    0.061841
  51 C :    0.072656
  52 N :   -0.113348
  53 C :    0.147665
  54 C :    0.134742
  55 N :   -0.073072
  56 F :   -0.132920
  57 F :   -0.133124
  58 C :    0.060620
  59 C :   -0.116146
  60 C :    0.134288
  61 O :   -0.142360
  62 C :    0.021086
  63 C :   -0.081611
  64 C :    0.111454
  65 C :    0.111284
  66 C :   -0.106516
  67 C :    0.240472
  68 C :    0.239614
  69 C :   -0.102595
  70 F :   -0.170720
  71 F :   -0.170379
  72 C :   -0.081412
  73 C :    0.028312
  74 C :    0.277288
  75 C :   -0.338578
  76 C :   -0.202696
  77 N :    0.181110
  78 C :   -0.180717
  79 N :    0.156845
  80 H :    0.009252
  81 H :   -0.001648
  82 H :   -0.006300
  83 H :   -0.012151
  84 H :    0.027867
  85 H :    0.007109
  86 H :   -0.010073
  87 H :    0.066582
  88 H :    0.034737
  89 H :   -0.010538
  90 H :    0.005182
  91 H :    0.034279
  92 H :    0.027986
  93 H :   -0.012371
  94 H :    0.000868
  95 H :    0.035106
  96 H :    0.037518
  97 H :    0.019263
  98 H :   -0.008330
  99 H :    0.006063
 100 H :    0.000284
 101 H :   -0.004545
Sum of atomic charges:   -0.0000000

LOEWDIN ATOMIC CHARGES
----------------------
   0 C :   -0.028955
   1 C :    0.066879
   2 F :   -0.047578
   3 C :    0.067874
   4 F :   -0.048447
   5 C :   -0.033635
   6 C :   -0.008859
   7 C :   -0.005994
   8 C :    0.017802
   9 C :   -0.023093
  10 C :   -0.053634
  11 C :    0.029619
  12 C :    0.081732
  13 O :   -0.142832
  14 C :   -0.093221
  15 C :    0.073405
  16 C :   -0.135086
  17 C :   -0.026348
  18 N :   -0.040912
  19 C :   -0.016695
  20 N :   -0.051890
  21 C :    0.080243
  22 C :   -0.044305
  23 C :    0.049583
  24 C :   -0.028027
  25 C :    0.009598
  26 C :    0.016185
  27 C :    0.023844
  28 N :   -0.060281
  29 C :    0.046312
  30 C :    0.063766
  31 N :   -0.065210
  32 F :   -0.013603
  33 F :   -0.022304
  34 C :   -0.014106
  35 C :   -0.019204
  36 C :    0.000540
  37 C :   -0.018841
  38 C :    0.014701
  39 C :    0.022548
  40 N :   -0.112986
  41 C :    0.065222
  42 C :    0.045033
  43 N :   -0.070723
  44 F :   -0.021292
  45 F :   -0.027148
  46 C :    0.004542
  47 C :   -0.025189
  48 C :    0.031978
  49 C :   -0.043099
  50 C :    0.022264
  51 C :    0.014124
  52 N :   -0.081325
  53 C :    0.062983
  54 C :    0.051988
  55 N :   -0.064998
  56 F :   -0.021489
  57 F :   -0.017856
  58 C :    0.077024
  59 C :   -0.088307
  60 C :    0.083508
  61 O :   -0.140830
  62 C :   -0.054248
  63 C :    0.031153
  64 C :   -0.009426
  65 C :   -0.005710
  66 C :   -0.030431
  67 C :    0.067242
  68 C :    0.067256
  69 C :   -0.032639
  70 F :   -0.048471
  71 F :   -0.047982
  72 C :    0.013474
  73 C :   -0.020626
  74 C :    0.063975
  75 C :   -0.138778
  76 C :   -0.016925
  77 N :   -0.034715
  78 C :   -0.020056
  79 N :   -0.052232
  80 H :    0.048338
  81 H :    0.044568
  82 H :    0.040109
  83 H :    0.039447
  84 H :    0.046047
  85 H :    0.038366
  86 H :    0.035071
  87 H :    0.050069
  88 H :    0.041504
  89 H :    0.033036
  90 H :    0.036076
  91 H :    0.035032
  92 H :    0.043692
  93 H :    0.032827
  94 H :    0.036178
  95 H :    0.040544
  96 H :    0.045572
  97 H :    0.045034
  98 H :    0.041005
  99 H :    0.047281
 100 H :    0.045136
 101 H :    0.039211

  Mayer bond orders larger than 0.100000
B(  0-C ,  1-C ) :   1.4427 B(  0-C ,  5-C ) :   0.1087 B(  0-C ,  7-C ) :   1.1863
B(  0-C , 80-H ) :   1.0064 B(  1-C ,  2-F ) :   1.1358 B(  1-C ,  3-C ) :   1.1903
B(  3-C ,  4-F ) :   1.1345 B(  3-C ,  5-C ) :   1.4428 B(  5-C ,  6-C ) :   1.1922
B(  5-C , 81-H ) :   1.0068 B(  6-C ,  7-C ) :   1.2552 B(  6-C , 11-C ) :   1.1889
B(  7-C ,  8-C ) :   1.2202 B(  8-C ,  9-C ) :   1.4442 B(  8-C , 82-H ) :   0.9886
B(  9-C , 10-C ) :   1.2196 B(  9-C , 15-C ) :   0.9840 B( 10-C , 11-C ) :   1.4696
B( 10-C , 12-C ) :   0.9403 B( 11-C , 83-H ) :   1.0158 B( 12-C , 13-O ) :   2.2176
B( 12-C , 14-C ) :   0.9398 B( 14-C , 15-C ) :   1.0660 B( 14-C , 21-C ) :   1.5831
B( 15-C , 16-C ) :   1.6385 B( 16-C , 17-C ) :   1.1388 B( 16-C , 19-C ) :   1.1452
B( 17-C , 18-N ) :   2.9725 B( 19-C , 20-N ) :   2.9613 B( 21-C , 22-C ) :   1.1568
B( 21-C , 84-H ) :   0.9399 B( 22-C , 23-C ) :   1.6537 B( 22-C , 27-C ) :   0.9776
B( 23-C , 24-C ) :   1.1188 B( 23-C , 85-H ) :   0.9691 B( 24-C , 25-C ) :   1.7373
B( 24-C , 86-H ) :   0.9861 B( 25-C , 26-C ) :   0.9515 B( 25-C , 34-C ) :   1.0282
B( 26-C , 27-C ) :   0.9635 B( 26-C , 31-N ) :   0.9985 B( 26-C , 87-H ) :   0.8538
B( 27-C , 28-N ) :   1.0173 B( 27-C , 88-H ) :   0.9048 B( 28-N , 29-C ) :   1.9532
B( 29-C , 30-C ) :   0.9319 B( 29-C , 33-F ) :   1.1775 B( 30-C , 31-N ) :   1.8893
B( 30-C , 32-F ) :   1.1763 B( 34-C , 35-C ) :   1.7295 B( 34-C , 39-C ) :   0.9230
B( 35-C , 36-C ) :   1.1113 B( 35-C , 89-H ) :   0.9786 B( 36-C , 37-C ) :   1.6675
B( 36-C , 90-H ) :   0.9787 B( 37-C , 38-C ) :   0.9824 B( 37-C , 46-C ) :   1.1220
B( 38-C , 39-C ) :   1.0025 B( 38-C , 43-N ) :   1.0070 B( 38-C , 91-H ) :   0.8902
B( 39-C , 40-N ) :   1.0309 B( 39-C , 92-H ) :   0.8843 B( 40-N , 41-C ) :   1.8729
B( 41-C , 42-C ) :   0.9202 B( 41-C , 45-F ) :   1.1727 B( 42-C , 43-N ) :   1.9347
B( 42-C , 44-F ) :   1.1728 B( 46-C , 47-C ) :   1.6548 B( 46-C , 51-C ) :   0.9323
B( 47-C , 48-C ) :   1.1483 B( 47-C , 93-H ) :   0.9760 B( 48-C , 49-C ) :   1.6191
B( 48-C , 94-H ) :   0.9731 B( 49-C , 50-C ) :   0.9791 B( 49-C , 58-C ) :   1.1434
B( 50-C , 51-C ) :   0.9934 B( 50-C , 55-N ) :   1.0537 B( 50-C , 95-H ) :   0.9024
B( 51-C , 52-N ) :   1.0143 B( 51-C , 96-H ) :   0.8827 B( 52-N , 53-C ) :   1.9063
B( 53-C , 54-C ) :   0.9326 B( 53-C , 57-F ) :   1.1735 B( 54-C , 55-N ) :   1.9371
B( 54-C , 56-F ) :   1.1763 B( 58-C , 59-C ) :   1.6340 B( 58-C , 97-H ) :   0.9288
B( 59-C , 60-C ) :   0.9415 B( 59-C , 74-C ) :   1.0393 B( 60-C , 61-O ) :   2.2590
B( 60-C , 62-C ) :   0.9181 B( 62-C , 63-C ) :   1.4734 B( 62-C , 73-C ) :   1.2221
B( 63-C , 64-C ) :   1.1932 B( 63-C , 98-H ) :   1.0160 B( 64-C , 65-C ) :   1.2565
B( 64-C , 69-C ) :   1.1931 B( 65-C , 66-C ) :   1.1894 B( 65-C , 72-C ) :   1.2170
B( 66-C , 67-C ) :   1.4417 B( 66-C , 69-C ) :   0.1088 B( 66-C , 99-H ) :   1.0067
B( 67-C , 68-C ) :   1.1922 B( 67-C , 71-F ) :   1.1350 B( 68-C , 69-C ) :   1.4428
B( 68-C , 70-F ) :   1.1341 B( 69-C ,100-H ) :   1.0068 B( 72-C , 73-C ) :   1.4560
B( 72-C ,101-H ) :   0.9931 B( 73-C , 74-C ) :   0.9892 B( 74-C , 75-C ) :   1.6481
B( 75-C , 76-C ) :   1.1721 B( 75-C , 78-C ) :   1.1286 B( 76-C , 77-N ) :   2.9782
B( 78-C , 79-N ) :   2.9873

-----------------------------------------------------------------------------
         ABSORPTION SPECTRUM VIA TRANSITION ELECTRIC DIPOLE MOMENTS
-----------------------------------------------------------------------------
State   Energy  Wavelength   fosc         T2         TX        TY        TZ
        (cm-1)    (nm)                  (au**2)     (au)      (au)      (au)
-----------------------------------------------------------------------------
   0   17193.5    581.6   1.422185818  27.23120  -0.22556   4.42905   2.75024
   1   21025.1    475.6   0.338930797   5.30699  -0.81884  -2.15309  -0.02602
   2   24585.6    406.7   0.000677456   0.00907   0.06246   0.03078  -0.06498
   3   26282.8    380.5   0.016350184   0.20480  -0.24665  -0.37524   0.05618
   4   26859.9    372.3   0.133824827   1.64024   0.46077  -1.19358   0.05750
   5   27226.1    367.3   0.088849858   1.07435  -0.60462  -0.83913  -0.06817
   6   27676.3    361.3   0.008097406   0.09632  -0.04839   0.29257  -0.09156
   7   28208.7    354.5   0.019627700   0.22907   0.22158  -0.23467  -0.35341
   8   28388.4    352.3   0.051318081   0.59512  -0.05522   0.76687  -0.06315
   9   28803.3    347.2   0.085755978   0.98016  -0.81042   0.44237   0.35735
  10   28960.9    345.3   0.000576826   0.00656   0.03240  -0.07333   0.01139
  11   29254.6    341.8   0.063917110   0.71928  -0.73748   0.32852   0.25978
  12   29732.1    336.3   0.229968242   2.54635   1.10070  -1.01455  -0.55271
  13   30589.0    326.9   0.360851299   3.88363   1.47008   1.17148   0.59172
  14   31000.0    322.6   0.006723462   0.07140   0.19421  -0.04740  -0.17731
  15   31908.5    313.4   0.094517718   0.97517  -0.04844   0.84842   0.50301
  16   32189.6    310.7   0.007250494   0.07415   0.08094   0.21267   0.14958
  17   32609.3    306.7   0.013886467   0.14019  -0.26864   0.06872  -0.25160
  18   33299.1    300.3   0.077402092   0.76524  -0.59297   0.63603  -0.09532
  19   33836.2    295.5   0.249776046   2.43022   0.60631  -1.37915  -0.40069
  20   33961.4    294.5   0.557407297   5.40335   2.28876   0.38588   0.12659
  21   34035.4    293.8   0.078510848   0.75941  -0.68465   0.52714   0.11303
  22   34369.9    291.0   0.026679344   0.25555   0.18861   0.27201   0.38208
  23   34551.4    289.4   0.060157495   0.57319  -0.23913  -0.67459  -0.24685
  24   34813.6    287.2   0.403961384   3.82003   1.68612  -0.47918  -0.86452
  25   35122.3    284.7   0.036278345   0.34005  -0.12484   0.47777   0.31016
  26   35573.4    281.1   0.010198885   0.09438  -0.17147   0.17342  -0.18684
  27   35974.3    278.0   0.016916485   0.15481  -0.00203  -0.38673  -0.07244
  28   36220.1    276.1   0.015293766   0.13901  -0.29818   0.21729  -0.05371
  29   36403.6    274.7   0.010548381   0.09539   0.19314   0.21074   0.11695
  30   36618.4    273.1   0.004746065   0.04267   0.09529  -0.01729  -0.18245
  31   36897.9    271.0   0.076292298   0.68070   0.78644  -0.17481  -0.17792
  32   37212.0    268.7   0.067816539   0.59997  -0.44866   0.59213   0.21921
  33   37438.0    267.1   0.007534138   0.06625   0.05267   0.13808  -0.21074
  34   37906.1    263.8   0.009514489   0.08263   0.23652   0.12190   0.10878
  35   38053.1    262.8   0.088464031   0.76534  -0.79001   0.31070   0.21138
  36   38378.7    260.6   0.189455994   1.62515  -0.79288   0.99739  -0.04120
  37   39069.9    256.0   0.039616625   0.33382  -0.26913   0.50987   0.03769
  38   39161.8    255.4   0.039365889   0.33093  -0.03445   0.34600  -0.45829
  39   39562.8    252.8   0.097840974   0.81416  -0.53321   0.40287   0.60625
  40   39817.9    251.1   0.016303171   0.13479   0.23157   0.09326  -0.26921
  41   39976.8    250.1   0.104189925   0.85801   0.14323   0.91241  -0.07073
  42   40322.6    248.0   0.004067096   0.03321   0.09121  -0.06119   0.14540

FINAL SINGLE POINT ENERGY     -3914.866791795775

DIPOLE MOMENT
-------------
                                X             Y             Z
Electronic contribution:    -17.52119       3.86221       3.47291
Nuclear contribution   :     20.73725      -5.61050      -3.04501
                        -----------------------------------------
Total Dipole Moment    :      3.21606      -1.74829       0.42790
                        -----------------------------------------
Magnitude (a.u.)       :      3.68546
Magnitude (Debye)      :      9.36770

Rotational constants in cm-1:     0.001105     0.000244     0.000209
Rotational constants in MHz :    33.127187     7.322095     6.279441

                             ****ORCA TERMINATED NORMALLY****
TOTAL RUN TIME: 0 days 0 hours 10 minutes 51 seconds 299 msec
