                         Program Version 4.2.0 -  RELEASE  -
|  1> # ORCA input file
|  2> # SCF done       -196.282706674505          0.000850184464
|  3> ! CAM-B3LYP def2-SVP def2/J RIJCOSX Grid4 TightSCF
|  4> %maxcore 5000
|  5> %tddft
|  6>     Mode sTDDFT
|  7>     Ethresh 5.0
|  8>     maxcore 5000
|  9> end
| 10>
| 11> %pal
| 12>   nprocs 6
| 13>   end
| 14> * xyz 0 1
| 15>    C        6.01822        -2.29707         4.10243
| 16>    C        7.02704        -1.77399         3.34331
| 17>    F        8.10205        -1.23317         3.93196
| 18>    C        6.95182        -1.79710         1.93620
| 19>    F        7.95678        -1.27877         1.21690
| 20>    C        5.86792        -2.34272         1.30744
| 21>    C        4.81252        -2.89097         2.06185
| 22>    C        4.88728        -2.86814         3.48487
| 23>    C        3.84175        -3.41572         4.26301
| 24>    C        2.75954        -3.97375         3.63544
| 25>    C        2.69633        -3.99899         2.21539
| 26>    C        3.68556        -3.47064         1.43751
| 27>    C        1.45579        -4.67742         1.78602
| 28>    O        1.07708        -4.80104         0.64049
| 29>    C        0.82650        -5.17226         3.03211
| 30>    C        1.56004        -4.61878         4.15801
| 31>    C        1.16661        -4.62014         5.47019
| 32>    C       -0.05239        -5.14326         5.95283
| 33>    N       -1.03011        -5.52681         6.41695
| 34>    C        1.91560        -4.03758         6.51422
| 35>    N        2.48666        -3.59112         7.40423
| 36>    C       -0.13411        -6.13858         3.16244
| 37>    C       -0.92143        -6.78796         2.19261
| 38>    C       -1.20694        -6.49560         0.86766
| 39>    C       -2.03798        -7.44758         0.29381
| 40>    C       -2.39970        -8.49249         1.16476
| 41>    S       -1.73586        -8.26465         2.72877
| 42>    C       -3.18021        -9.45924         0.53136
| 43>    C       -3.43243        -9.14915        -0.81198
| 44>    S       -2.70577        -7.64700        -1.30516
| 45>    C       -4.17007       -10.12654        -1.48196
| 46>    C       -4.47024       -11.19417        -0.66273
| 47>    S       -3.86520       -10.97948         0.97055
| 48>    C       -5.11835       -12.40777        -1.01033
| 49>    C       -5.23574       -13.53524        -0.22584
| 50>    C       -5.84268       -14.58621        -0.91047
| 51>    C       -6.21365       -14.26516        -2.22467
| 52>    S       -5.79878       -12.63471        -2.61326
| 53>    C       -6.77376       -15.35305        -2.89471
| 54>    C       -6.80579       -16.50712        -2.09275
| 55>    S       -6.18349       -16.23868        -0.48977
| 56>    C       -7.29676       -17.63423        -2.73771
| 57>    C       -7.66817       -17.36719        -4.04761
| 58>    S       -7.41470       -15.66842        -4.46157
| 59>    C       -8.16745       -18.22962        -5.03927
| 60>    C       -8.15197       -19.60222        -5.02245
| 61>    C       -8.65330       -20.45031        -6.04308
| 62>    C       -8.42739       -21.77737        -5.83413
| 63>    C       -7.72699       -22.05316        -4.63891
| 64>    S       -7.40414       -20.57658        -3.76880
| 65>    C       -7.27816       -23.27120        -4.15604
| 66>    C       -7.44674       -24.55688        -4.70974
| 67>    C       -6.82833       -25.54389        -3.99729
| 68>    C       -6.13877       -25.08537        -2.85210
| 69>    S       -6.32208       -23.35371        -2.69378
| 70>    C       -5.39117       -25.84253        -1.96926
| 71>    C       -4.71942       -25.28084        -0.88862
| 72>    C       -3.92131       -25.96878         0.00342
| 73>    C       -3.20256       -25.40923         1.11884
| 74>    C       -3.18606       -24.09443         1.52632
| 75>    C       -2.45526       -23.61933         2.63291
| 76>    N       -1.88555       -23.16839         3.52301
| 77>    C       -3.88074       -23.03137         0.91642
| 78>    N       -4.40493       -22.10392         0.48420
| 79>    C       -2.46903       -26.49661         1.76479
| 80>    C       -2.73324       -27.69964         1.06624
| 81>    C       -3.65363       -27.41817        -0.05643
| 82>    O       -4.08434       -28.22970        -0.85308
| 83>    C       -2.18140       -28.90339         1.42755
| 84>    C       -1.32479       -28.92324         2.53415
| 85>    C       -1.06802       -27.71773         3.22660
| 86>    C       -1.62750       -26.49893         2.86038
| 87>    S        0.01821       -27.96559         4.56091
| 88>    C        0.11070       -29.66313         4.17381
| 89>    C       -0.63207       -30.02769         3.10233
| 90>   Br        1.18121       -30.79388         5.22059
| 91>    H        6.09101        -2.27053         5.17846
| 92>    H        5.82573        -2.35340         0.22956
| 93>    H        3.92979        -3.39020         5.33710
| 94>    H        3.61249        -3.50121         0.36101
| 95>    H       -0.28838        -6.52626         4.16356
| 96>    H       -0.81308        -5.63676         0.35784
| 97>    H       -4.45640       -10.07859        -2.51650
| 98>    H       -4.87550       -13.59072         0.78505
| 99>    H       -7.39976       -18.59167        -2.26451
|100>    H       -8.56178       -17.75969        -5.93097
|101>    H       -9.15785       -20.04799        -6.90372
|102>    H       -8.72674       -22.55703        -6.51098
|103>    H       -8.01152       -24.72177        -5.60980
|104>    H       -6.83917       -26.58604        -4.26254
|105>    H       -5.31780       -26.90646        -2.14143
|106>    H       -4.83044       -24.21181        -0.75318
|107>    H       -2.40179       -29.80269         0.87400
|108>    H       -1.39802       -25.60873         3.42140
|109>    H       -0.69012       -31.03270         2.72602
|110> *
|111>
|112>                          ****END OF INPUT****

CARTESIAN COORDINATES (ANGSTROEM)
---------------------------------
  C      6.018220   -2.297070    4.102430
  C      7.027040   -1.773990    3.343310
  F      8.102050   -1.233170    3.931960
  C      6.951820   -1.797100    1.936200
  F      7.956780   -1.278770    1.216900
  C      5.867920   -2.342720    1.307440
  C      4.812520   -2.890970    2.061850
  C      4.887280   -2.868140    3.484870
  C      3.841750   -3.415720    4.263010
  C      2.759540   -3.973750    3.635440
  C      2.696330   -3.998990    2.215390
  C      3.685560   -3.470640    1.437510
  C      1.455790   -4.677420    1.786020
  O      1.077080   -4.801040    0.640490
  C      0.826500   -5.172260    3.032110
  C      1.560040   -4.618780    4.158010
  C      1.166610   -4.620140    5.470190
  C     -0.052390   -5.143260    5.952830
  N     -1.030110   -5.526810    6.416950
  C      1.915600   -4.037580    6.514220
  N      2.486660   -3.591120    7.404230
  C     -0.134110   -6.138580    3.162440
  C     -0.921430   -6.787960    2.192610
  C     -1.206940   -6.495600    0.867660
  C     -2.037980   -7.447580    0.293810
  C     -2.399700   -8.492490    1.164760
  S     -1.735860   -8.264650    2.728770
  C     -3.180210   -9.459240    0.531360
  C     -3.432430   -9.149150   -0.811980
  S     -2.705770   -7.647000   -1.305160
  C     -4.170070  -10.126540   -1.481960
  C     -4.470240  -11.194170   -0.662730
  S     -3.865200  -10.979480    0.970550
  C     -5.118350  -12.407770   -1.010330
  C     -5.235740  -13.535240   -0.225840
  C     -5.842680  -14.586210   -0.910470
  C     -6.213650  -14.265160   -2.224670
  S     -5.798780  -12.634710   -2.613260
  C     -6.773760  -15.353050   -2.894710
  C     -6.805790  -16.507120   -2.092750
  S     -6.183490  -16.238680   -0.489770
  C     -7.296760  -17.634230   -2.737710
  C     -7.668170  -17.367190   -4.047610
  S     -7.414700  -15.668420   -4.461570
  C     -8.167450  -18.229620   -5.039270
  C     -8.151970  -19.602220   -5.022450
  C     -8.653300  -20.450310   -6.043080
  C     -8.427390  -21.777370   -5.834130
  C     -7.726990  -22.053160   -4.638910
  S     -7.404140  -20.576580   -3.768800
  C     -7.278160  -23.271200   -4.156040
  C     -7.446740  -24.556880   -4.709740
  C     -6.828330  -25.543890   -3.997290
  C     -6.138770  -25.085370   -2.852100
  S     -6.322080  -23.353710   -2.693780
  C     -5.391170  -25.842530   -1.969260
  C     -4.719420  -25.280840   -0.888620
  C     -3.921310  -25.968780    0.003420
  C     -3.202560  -25.409230    1.118840
  C     -3.186060  -24.094430    1.526320
  C     -2.455260  -23.619330    2.632910
  N     -1.885550  -23.168390    3.523010
  C     -3.880740  -23.031370    0.916420
  N     -4.404930  -22.103920    0.484200
  C     -2.469030  -26.496610    1.764790
  C     -2.733240  -27.699640    1.066240
  C     -3.653630  -27.418170   -0.056430
  O     -4.084340  -28.229700   -0.853080
  C     -2.181400  -28.903390    1.427550
  C     -1.324790  -28.923240    2.534150
  C     -1.068020  -27.717730    3.226600
  C     -1.627500  -26.498930    2.860380
  S      0.018210  -27.965590    4.560910
  C      0.110700  -29.663130    4.173810
  C     -0.632070  -30.027690    3.102330
  Br     1.181210  -30.793880    5.220590
  H      6.091010   -2.270530    5.178460
  H      5.825730   -2.353400    0.229560
  H      3.929790   -3.390200    5.337100
  H      3.612490   -3.501210    0.361010
  H     -0.288380   -6.526260    4.163560
  H     -0.813080   -5.636760    0.357840
  H     -4.456400  -10.078590   -2.516500
  H     -4.875500  -13.590720    0.785050
  H     -7.399760  -18.591670   -2.264510
  H     -8.561780  -17.759690   -5.930970
  H     -9.157850  -20.047990   -6.903720
  H     -8.726740  -22.557030   -6.510980
  H     -8.011520  -24.721770   -5.609800
  H     -6.839170  -26.586040   -4.262540
  H     -5.317800  -26.906460   -2.141430
  H     -4.830440  -24.211810   -0.753180
  H     -2.401790  -29.802690    0.874000
  H     -1.398020  -25.608730    3.421400
  H     -0.690120  -31.032700    2.726020

 Total Charge           Charge          ....    0
 Multiplicity           Mult            ....    1
 Number of Electrons    NEL             ....  608
 Basis Dimension        Dim             .... 1213

ORBITAL ENERGIES
----------------

  NO   OCC          E(Eh)            E(eV)
   0   2.0000    -482.877897    -13139.7756
   1   2.0000     -88.977819     -2421.2095
   2   2.0000     -88.977372     -2421.1974
   3   2.0000     -88.975086     -2421.1352
   4   2.0000     -88.974912     -2421.1304
   5   2.0000     -88.971761     -2421.0447
   6   2.0000     -88.969516     -2420.9836
   7   2.0000     -88.966976     -2420.9145
   8   2.0000     -88.965510     -2420.8746
   9   2.0000     -88.959702     -2420.7166
  10   2.0000     -62.555573     -1702.2237
  11   2.0000     -56.389511     -1534.4366
  12   2.0000     -56.386820     -1534.3634
  13   2.0000     -56.386783     -1534.3624
  14   2.0000     -24.797323      -674.7695
  15   2.0000     -24.796186      -674.7385
  16   2.0000     -19.219930      -523.0009
  17   2.0000     -19.201126      -522.4892
  18   2.0000     -14.414052      -392.2263
  19   2.0000     -14.413507      -392.2115
  20   2.0000     -14.402655      -391.9162
  21   2.0000     -14.399553      -391.8318
  22   2.0000     -10.380380      -282.4645
  23   2.0000     -10.379590      -282.4430
  24   2.0000     -10.371281      -282.2169
  25   2.0000     -10.351370      -281.6751
  26   2.0000     -10.349291      -281.6185
  27   2.0000     -10.340889      -281.3899
  28   2.0000     -10.340172      -281.3704
  29   2.0000     -10.336923      -281.2820
  30   2.0000     -10.332371      -281.1581
  31   2.0000     -10.328951      -281.0650
  32   2.0000     -10.328611      -281.0558
  33   2.0000     -10.327774      -281.0330
  34   2.0000     -10.326769      -281.0057
  35   2.0000     -10.325812      -280.9796
  36   2.0000     -10.325234      -280.9639
  37   2.0000     -10.323999      -280.9303
  38   2.0000     -10.323754      -280.9236
  39   2.0000     -10.323604      -280.9195
  40   2.0000     -10.323308      -280.9115
  41   2.0000     -10.322775      -280.8970
  42   2.0000     -10.321583      -280.8646
  43   2.0000     -10.321203      -280.8542
  44   2.0000     -10.321119      -280.8519
  45   2.0000     -10.317720      -280.7594
  46   2.0000     -10.316909      -280.7374
  47   2.0000     -10.316587      -280.7286
  48   2.0000     -10.316559      -280.7278
  49   2.0000     -10.316558      -280.7278
  50   2.0000     -10.314041      -280.6593
  51   2.0000     -10.313892      -280.6553
  52   2.0000     -10.309465      -280.5348
  53   2.0000     -10.309131      -280.5257
  54   2.0000     -10.309060      -280.5238
  55   2.0000     -10.307417      -280.4791
  56   2.0000     -10.306691      -280.4593
  57   2.0000     -10.305906      -280.4380
  58   2.0000     -10.304469      -280.3989
  59   2.0000     -10.303949      -280.3847
  60   2.0000     -10.301415      -280.3157
  61   2.0000     -10.301123      -280.3078
  62   2.0000     -10.300869      -280.3009
  63   2.0000     -10.300456      -280.2896
  64   2.0000     -10.300153      -280.2814
  65   2.0000     -10.300150      -280.2813
  66   2.0000     -10.299931      -280.2754
  67   2.0000     -10.299786      -280.2714
  68   2.0000     -10.299280      -280.2577
  69   2.0000     -10.298828      -280.2454
  70   2.0000     -10.295918      -280.1662
  71   2.0000     -10.294766      -280.1348
  72   2.0000     -10.294553      -280.1290
  73   2.0000     -10.292579      -280.0753
  74   2.0000     -10.292418      -280.0709
  75   2.0000     -10.288688      -279.9694
  76   2.0000     -10.287442      -279.9355
  77   2.0000     -10.278655      -279.6964
  78   2.0000     -10.277720      -279.6710
  79   2.0000     -10.275130      -279.6005
  80   2.0000      -8.784982      -239.0515
  81   2.0000      -8.072900      -219.6748
  82   2.0000      -8.072336      -219.6594
  83   2.0000      -8.070320      -219.6046
  84   2.0000      -8.070301      -219.6041
  85   2.0000      -8.066967      -219.5133
  86   2.0000      -8.064738      -219.4527
  87   2.0000      -8.063059      -219.4070
  88   2.0000      -8.061521      -219.3651
  89   2.0000      -8.055773      -219.2087
  90   2.0000      -6.621198      -180.1720
  91   2.0000      -6.606744      -179.7787
  92   2.0000      -6.606577      -179.7741
  93   2.0000      -6.042543      -164.4260
  94   2.0000      -6.041996      -164.4111
  95   2.0000      -6.039894      -164.3539
  96   2.0000      -6.039762      -164.3503
  97   2.0000      -6.038436      -164.3142
  98   2.0000      -6.037907      -164.2998
  99   2.0000      -6.036720      -164.2675
 100   2.0000      -6.035876      -164.2445
 101   2.0000      -6.035735      -164.2407
 102   2.0000      -6.034460      -164.2060
 103   2.0000      -6.034304      -164.2018
 104   2.0000      -6.033736      -164.1863
 105   2.0000      -6.032846      -164.1621
 106   2.0000      -6.032787      -164.1605
 107   2.0000      -6.031910      -164.1366
 108   2.0000      -6.031783      -164.1332
 109   2.0000      -6.031208      -164.1175
 110   2.0000      -6.030583      -164.1005
 111   2.0000      -6.028575      -164.0459
 112   2.0000      -6.027885      -164.0271
 113   2.0000      -6.026953      -164.0017
 114   2.0000      -6.025714      -163.9680
 115   2.0000      -6.025383      -163.9590
 116   2.0000      -6.024097      -163.9240
 117   2.0000      -6.022731      -163.8868
 118   2.0000      -6.021327      -163.8486
 119   2.0000      -6.016924      -163.7288
 120   2.0000      -2.737137       -74.4813
 121   2.0000      -2.732986       -74.3683
 122   2.0000      -2.732880       -74.3655
 123   2.0000      -2.721385       -74.0527
 124   2.0000      -2.721382       -74.0526
 125   2.0000      -1.319616       -35.9086
 126   2.0000      -1.304778       -35.5048
 127   2.0000      -1.134993       -30.8847
 128   2.0000      -1.114471       -30.3263
 129   2.0000      -1.036312       -28.1995
 130   2.0000      -1.031451       -28.0672
 131   2.0000      -1.018744       -27.7214
 132   2.0000      -1.014976       -27.6189
 133   2.0000      -1.010379       -27.4938
 134   2.0000      -1.003058       -27.2946
 135   2.0000      -1.001569       -27.2541
 136   2.0000      -1.000444       -27.2235
 137   2.0000      -0.992791       -27.0152
 138   2.0000      -0.992130       -26.9972
 139   2.0000      -0.985927       -26.8284
 140   2.0000      -0.980306       -26.6755
 141   2.0000      -0.980021       -26.6677
 142   2.0000      -0.975566       -26.5465
 143   2.0000      -0.949927       -25.8488
 144   2.0000      -0.935764       -25.4634
 145   2.0000      -0.931623       -25.3507
 146   2.0000      -0.928549       -25.2671
 147   2.0000      -0.912538       -24.8314
 148   2.0000      -0.902557       -24.5598
 149   2.0000      -0.897718       -24.4281
 150   2.0000      -0.895427       -24.3658
 151   2.0000      -0.891884       -24.2694
 152   2.0000      -0.885433       -24.0939
 153   2.0000      -0.880107       -23.9489
 154   2.0000      -0.874083       -23.7850
 155   2.0000      -0.871938       -23.7266
 156   2.0000      -0.865104       -23.5407
 157   2.0000      -0.861836       -23.4517
 158   2.0000      -0.853302       -23.2195
 159   2.0000      -0.847620       -23.0649
 160   2.0000      -0.839747       -22.8507
 161   2.0000      -0.839311       -22.8388
 162   2.0000      -0.838169       -22.8077
 163   2.0000      -0.826044       -22.4778
 164   2.0000      -0.817957       -22.2577
 165   2.0000      -0.815002       -22.1773
 166   2.0000      -0.806167       -21.9369
 167   2.0000      -0.798310       -21.7231
 168   2.0000      -0.787943       -21.4410
 169   2.0000      -0.773669       -21.0526
 170   2.0000      -0.766382       -20.8543
 171   2.0000      -0.758747       -20.6466
 172   2.0000      -0.746440       -20.3117
 173   2.0000      -0.742052       -20.1923
 174   2.0000      -0.731364       -19.9014
 175   2.0000      -0.720598       -19.6085
 176   2.0000      -0.711970       -19.3737
 177   2.0000      -0.706625       -19.2282
 178   2.0000      -0.696400       -18.9500
 179   2.0000      -0.685420       -18.6512
 180   2.0000      -0.683987       -18.6122
 181   2.0000      -0.677975       -18.4486
 182   2.0000      -0.672436       -18.2979
 183   2.0000      -0.671814       -18.2810
 184   2.0000      -0.667705       -18.1692
 185   2.0000      -0.658469       -17.9178
 186   2.0000      -0.657446       -17.8900
 187   2.0000      -0.653726       -17.7888
 188   2.0000      -0.646916       -17.6035
 189   2.0000      -0.644705       -17.5433
 190   2.0000      -0.644195       -17.5294
 191   2.0000      -0.641466       -17.4552
 192   2.0000      -0.638366       -17.3708
 193   2.0000      -0.634695       -17.2709
 194   2.0000      -0.631015       -17.1708
 195   2.0000      -0.620449       -16.8833
 196   2.0000      -0.620264       -16.8782
 197   2.0000      -0.611005       -16.6263
 198   2.0000      -0.606641       -16.5075
 199   2.0000      -0.605008       -16.4631
 200   2.0000      -0.592315       -16.1177
 201   2.0000      -0.588057       -16.0018
 202   2.0000      -0.586210       -15.9516
 203   2.0000      -0.584242       -15.8980
 204   2.0000      -0.582895       -15.8614
 205   2.0000      -0.580878       -15.8065
 206   2.0000      -0.574848       -15.6424
 207   2.0000      -0.570451       -15.5228
 208   2.0000      -0.560672       -15.2567
 209   2.0000      -0.556702       -15.1486
 210   2.0000      -0.553715       -15.0673
 211   2.0000      -0.550978       -14.9929
 212   2.0000      -0.545908       -14.8549
 213   2.0000      -0.545098       -14.8329
 214   2.0000      -0.539624       -14.6839
 215   2.0000      -0.536170       -14.5899
 216   2.0000      -0.534155       -14.5351
 217   2.0000      -0.533034       -14.5046
 218   2.0000      -0.531484       -14.4624
 219   2.0000      -0.529250       -14.4016
 220   2.0000      -0.528261       -14.3747
 221   2.0000      -0.526303       -14.3214
 222   2.0000      -0.525829       -14.3085
 223   2.0000      -0.523524       -14.2458
 224   2.0000      -0.521224       -14.1832
 225   2.0000      -0.517699       -14.0873
 226   2.0000      -0.515702       -14.0330
 227   2.0000      -0.514286       -13.9944
 228   2.0000      -0.513522       -13.9736
 229   2.0000      -0.510646       -13.8954
 230   2.0000      -0.504229       -13.7208
 231   2.0000      -0.502779       -13.6813
 232   2.0000      -0.498544       -13.5661
 233   2.0000      -0.497576       -13.5397
 234   2.0000      -0.496747       -13.5172
 235   2.0000      -0.495858       -13.4930
 236   2.0000      -0.492820       -13.4103
 237   2.0000      -0.488369       -13.2892
 238   2.0000      -0.485961       -13.2237
 239   2.0000      -0.484475       -13.1832
 240   2.0000      -0.482232       -13.1222
 241   2.0000      -0.482018       -13.1164
 242   2.0000      -0.481471       -13.1015
 243   2.0000      -0.480258       -13.0685
 244   2.0000      -0.478981       -13.0337
 245   2.0000      -0.475011       -12.9257
 246   2.0000      -0.468753       -12.7554
 247   2.0000      -0.468104       -12.7378
 248   2.0000      -0.465703       -12.6724
 249   2.0000      -0.462601       -12.5880
 250   2.0000      -0.459994       -12.5171
 251   2.0000      -0.457707       -12.4548
 252   2.0000      -0.453328       -12.3357
 253   2.0000      -0.449263       -12.2251
 254   2.0000      -0.447371       -12.1736
 255   2.0000      -0.447252       -12.1703
 256   2.0000      -0.444994       -12.1089
 257   2.0000      -0.442133       -12.0311
 258   2.0000      -0.440373       -11.9832
 259   2.0000      -0.438095       -11.9212
 260   2.0000      -0.436844       -11.8871
 261   2.0000      -0.436123       -11.8675
 262   2.0000      -0.435148       -11.8410
 263   2.0000      -0.431192       -11.7333
 264   2.0000      -0.430683       -11.7195
 265   2.0000      -0.429537       -11.6883
 266   2.0000      -0.427853       -11.6425
 267   2.0000      -0.425732       -11.5848
 268   2.0000      -0.424464       -11.5503
 269   2.0000      -0.422205       -11.4888
 270   2.0000      -0.421906       -11.4806
 271   2.0000      -0.419625       -11.4186
 272   2.0000      -0.413671       -11.2565
 273   2.0000      -0.412379       -11.2214
 274   2.0000      -0.410293       -11.1646
 275   2.0000      -0.410085       -11.1590
 276   2.0000      -0.407781       -11.0963
 277   2.0000      -0.399727       -10.8771
 278   2.0000      -0.399218       -10.8633
 279   2.0000      -0.394047       -10.7226
 280   2.0000      -0.388712       -10.5774
 281   2.0000      -0.385698       -10.4954
 282   2.0000      -0.378870       -10.3096
 283   2.0000      -0.374130       -10.1806
 284   2.0000      -0.367348        -9.9960
 285   2.0000      -0.363568        -9.8932
 286   2.0000      -0.354918        -9.6578
 287   2.0000      -0.350768        -9.5449
 288   2.0000      -0.349781        -9.5180
 289   2.0000      -0.346306        -9.4235
 290   2.0000      -0.341772        -9.3001
 291   2.0000      -0.337510        -9.1841
 292   2.0000      -0.330949        -9.0056
 293   2.0000      -0.321493        -8.7483
 294   2.0000      -0.317022        -8.6266
 295   2.0000      -0.310720        -8.4551
 296   2.0000      -0.304281        -8.2799
 297   2.0000      -0.300174        -8.1682
 298   2.0000      -0.297894        -8.1061
 299   2.0000      -0.296095        -8.0572
 300   2.0000      -0.285344        -7.7646
 301   2.0000      -0.280700        -7.6382
 302   2.0000      -0.254772        -6.9327
 303   2.0000      -0.224648        -6.1130
 304   0.0000      -0.113135        -3.0786
 305   0.0000      -0.096731        -2.6322
 306   0.0000      -0.065339        -1.7780
 307   0.0000      -0.059460        -1.6180
 308   0.0000      -0.049832        -1.3560

MULLIKEN ATOMIC CHARGES
-----------------------
   0 C :   -0.113706
   1 C :    0.244431
   2 F :   -0.172076
   3 C :    0.242062
   4 F :   -0.172501
   5 C :   -0.111215
   6 C :    0.119876
   7 C :    0.117618
   8 C :   -0.087783
   9 C :    0.051303
  10 C :    0.001794
  11 C :   -0.088257
  12 C :    0.156931
  13 O :   -0.159277
  14 C :   -0.095863
  15 C :    0.295028
  16 C :   -0.346724
  17 C :   -0.206614
  18 N :    0.164516
  19 C :   -0.184072
  20 N :    0.147254
  21 C :    0.043575
  22 C :   -0.113082
  23 C :    0.010714
  24 C :   -0.046305
  25 C :   -0.054594
  26 S :    0.167221
  27 C :   -0.081468
  28 C :   -0.015703
  29 S :    0.173442
  30 C :   -0.064280
  31 C :   -0.037517
  32 S :    0.159255
  33 C :   -0.043678
  34 C :   -0.057702
  35 C :   -0.021666
  36 C :   -0.080012
  37 S :    0.154998
  38 C :   -0.069540
  39 C :   -0.043584
  40 S :    0.183906
  41 C :   -0.021770
  42 C :   -0.108222
  43 S :    0.151133
  44 C :    0.056507
  45 C :   -0.046873
  46 C :    0.048156
  47 C :    0.025499
  48 C :   -0.024401
  49 S :    0.091469
  50 C :   -0.050594
  51 C :    0.044705
  52 C :    0.025039
  53 C :    0.004922
  54 S :    0.102921
  55 C :   -0.022044
  56 C :   -0.043347
  57 C :   -0.085800
  58 C :    0.329451
  59 C :   -0.363387
  60 C :   -0.191068
  61 N :    0.136163
  62 C :   -0.191229
  63 N :    0.130518
  64 C :    0.012464
  65 C :   -0.008970
  66 C :    0.136782
  67 O :   -0.166783
  68 C :   -0.075709
  69 C :    0.115646
  70 C :   -0.091972
  71 C :   -0.022971
  72 S :    0.179521
  73 C :   -0.123379
  74 C :    0.037617
  75 Br:    0.015301
  76 H :    0.008405
  77 H :   -0.000310
  78 H :   -0.004628
  79 H :   -0.010746
  80 H :    0.021333
  81 H :    0.019687
  82 H :   -0.003165
  83 H :    0.001608
  84 H :    0.013918
  85 H :   -0.002982
  86 H :   -0.002342
  87 H :   -0.006415
  88 H :   -0.005458
  89 H :    0.000103
  90 H :    0.016855
  91 H :    0.015351
  92 H :   -0.016041
  93 H :   -0.010408
  94 H :   -0.006764
Sum of atomic charges:   -0.0000000

LOEWDIN ATOMIC CHARGES
----------------------
   0 C :   -0.029571
   1 C :    0.066465
   2 F :   -0.049530
   3 C :    0.067396
   4 F :   -0.050173
   5 C :   -0.034052
   6 C :   -0.008863
   7 C :   -0.006721
   8 C :    0.016871
   9 C :   -0.022605
  10 C :   -0.050897
  11 C :    0.027650
  12 C :    0.086578
  13 O :   -0.144795
  14 C :   -0.099966
  15 C :    0.075709
  16 C :   -0.142717
  17 C :   -0.027212
  18 N :   -0.050366
  19 C :   -0.017762
  20 N :   -0.055007
  21 C :    0.048173
  22 C :   -0.174829
  23 C :   -0.009710
  24 C :   -0.196170
  25 C :   -0.194656
  26 S :    0.444862
  27 C :   -0.223727
  28 C :   -0.175335
  29 S :    0.417907
  30 C :   -0.073579
  31 C :   -0.160072
  32 S :    0.439122
  33 C :   -0.174207
  34 C :   -0.065174
  35 C :   -0.184667
  36 C :   -0.216034
  37 S :    0.430555
  38 C :   -0.209056
  39 C :   -0.187065
  40 S :    0.426637
  41 C :   -0.059241
  42 C :   -0.168756
  43 S :    0.425570
  44 C :   -0.045189
  45 C :   -0.155690
  46 C :   -0.010595
  47 C :   -0.042489
  48 C :   -0.149519
  49 S :    0.410289
  50 C :   -0.192691
  51 C :   -0.008168
  52 C :   -0.041561
  53 C :   -0.103554
  54 S :    0.410960
  55 C :   -0.072592
  56 C :    0.048484
  57 C :   -0.107768
  58 C :    0.073352
  59 C :   -0.156971
  60 C :   -0.018957
  61 N :   -0.068997
  62 C :   -0.020503
  63 N :   -0.069865
  64 C :   -0.018305
  65 C :   -0.048659
  66 C :    0.081987
  67 O :   -0.158724
  68 C :    0.017283
  69 C :   -0.035768
  70 C :   -0.145736
  71 C :   -0.013410
  72 S :    0.427535
  73 C :   -0.274501
  74 C :   -0.071111
  75 Br:    0.130228
  76 H :    0.047897
  77 H :    0.044621
  78 H :    0.040102
  79 H :    0.039615
  80 H :    0.044581
  81 H :    0.040113
  82 H :    0.032732
  83 H :    0.033184
  84 H :    0.026912
  85 H :    0.038428
  86 H :    0.037591
  87 H :    0.034751
  88 H :    0.035339
  89 H :    0.038772
  90 H :    0.038728
  91 H :    0.030711
  92 H :    0.038701
  93 H :    0.040001
  94 H :    0.037445

  Mayer bond orders larger than 0.100000
B(  0-C ,  1-C ) :   1.4394 B(  0-C ,  5-C ) :   0.1091 B(  0-C ,  7-C ) :   1.1869
B(  0-C , 76-H ) :   1.0083 B(  1-C ,  2-F ) :   1.1328 B(  1-C ,  3-C ) :   1.1925
B(  3-C ,  4-F ) :   1.1323 B(  3-C ,  5-C ) :   1.4412 B(  5-C ,  6-C ) :   1.1920
B(  5-C , 77-H ) :   1.0083 B(  6-C ,  7-C ) :   1.2572 B(  6-C , 11-C ) :   1.1864
B(  7-C ,  8-C ) :   1.2135 B(  8-C ,  9-C ) :   1.4513 B(  8-C , 78-H ) :   0.9927
B(  9-C , 10-C ) :   1.2217 B(  9-C , 15-C ) :   0.9833 B( 10-C , 11-C ) :   1.4714
B( 10-C , 12-C ) :   0.9468 B( 11-C , 79-H ) :   1.0173 B( 12-C , 13-O ) :   2.1781
B( 12-C , 14-C ) :   0.9492 B( 14-C , 15-C ) :   1.0746 B( 14-C , 21-C ) :   1.5795
B( 15-C , 16-C ) :   1.6364 B( 16-C , 17-C ) :   1.1370 B( 16-C , 19-C ) :   1.1457
B( 17-C , 18-N ) :   3.0008 B( 19-C , 20-N ) :   2.9689 B( 21-C , 22-C ) :   1.2282
B( 21-C , 80-H ) :   0.9240 B( 22-C , 23-C ) :   1.4436 B( 22-C , 26-S ) :   1.0596
B( 23-C , 24-C ) :   1.3052 B( 23-C , 81-H ) :   0.9812 B( 24-C , 25-C ) :   1.4035
B( 24-C , 29-S ) :   1.0424 B( 25-C , 26-S ) :   1.1082 B( 25-C , 27-C ) :   1.3160
B( 27-C , 28-C ) :   1.4553 B( 27-C , 32-S ) :   1.0640 B( 28-C , 29-S ) :   1.0605
B( 28-C , 30-C ) :   1.2735 B( 30-C , 31-C ) :   1.5069 B( 30-C , 82-H ) :   0.9957
B( 31-C , 32-S ) :   1.1075 B( 31-C , 33-C ) :   1.1761 B( 33-C , 34-C ) :   1.5057
B( 33-C , 37-S ) :   1.0958 B( 34-C , 35-C ) :   1.2809 B( 34-C , 83-H ) :   0.9923
B( 35-C , 36-C ) :   1.4548 B( 35-C , 40-S ) :   1.0564 B( 36-C , 37-S ) :   1.0663
B( 36-C , 38-C ) :   1.3236 B( 38-C , 39-C ) :   1.4296 B( 38-C , 43-S ) :   1.0804
B( 39-C , 40-S ) :   1.0563 B( 39-C , 41-C ) :   1.3217 B( 41-C , 42-C ) :   1.4577
B( 41-C , 84-H ) :   0.9767 B( 42-C , 43-S ) :   1.0686 B( 42-C , 44-C ) :   1.1804
B( 44-C , 45-C ) :   1.5912 B( 44-C , 85-H ) :   0.9534 B( 45-C , 46-C ) :   1.1556
B( 45-C , 49-S ) :   1.0322 B( 46-C , 47-C ) :   1.5769 B( 46-C , 86-H ) :   0.9980
B( 47-C , 48-C ) :   1.1984 B( 47-C , 87-H ) :   0.9938 B( 48-C , 49-S ) :   1.0766
B( 48-C , 50-C ) :   1.4630 B( 50-C , 51-C ) :   1.2195 B( 50-C , 54-S ) :   1.0461
B( 51-C , 52-C ) :   1.5376 B( 51-C , 88-H ) :   0.9950 B( 52-C , 53-C ) :   1.1812
B( 52-C , 89-H ) :   1.0021 B( 53-C , 54-S ) :   1.0875 B( 53-C , 55-C ) :   1.4134
B( 55-C , 56-C ) :   1.2621 B( 55-C , 90-H ) :   0.9794 B( 56-C , 57-C ) :   1.4815
B( 56-C , 91-H ) :   0.9402 B( 57-C , 58-C ) :   1.1151 B( 57-C , 66-C ) :   0.9649
B( 58-C , 59-C ) :   1.5788 B( 58-C , 64-C ) :   0.9892 B( 59-C , 60-C ) :   1.1505
B( 59-C , 62-C ) :   1.1553 B( 60-C , 61-N ) :   2.9612 B( 62-C , 63-N ) :   2.9558
B( 64-C , 65-C ) :   1.2789 B( 64-C , 71-C ) :   1.4198 B( 65-C , 66-C ) :   0.9351
B( 65-C , 68-C ) :   1.4305 B( 66-C , 67-O ) :   2.1869 B( 68-C , 69-C ) :   1.2401
B( 68-C , 92-H ) :   1.0160 B( 69-C , 70-C ) :   1.3168 B( 69-C , 74-C ) :   1.1595
B( 70-C , 71-C ) :   1.3207 B( 70-C , 72-S ) :   1.0827 B( 71-C , 93-H ) :   0.9788
B( 72-S , 73-C ) :   1.0856 B( 73-C , 74-C ) :   1.6206 B( 73-C , 75-Br) :   1.0141
B( 74-C , 94-H ) :   1.0004

-----------------------------------------------------------------------------
         ABSORPTION SPECTRUM VIA TRANSITION ELECTRIC DIPOLE MOMENTS
-----------------------------------------------------------------------------
State   Energy  Wavelength   fosc         T2         TX        TY        TZ
        (cm-1)    (nm)                  (au**2)     (au)      (au)      (au)
-----------------------------------------------------------------------------
   0   10788.8    926.9   1.289572947  39.35032   1.06010  -6.01925   1.41247
   1   17922.8    557.9   2.180377651  40.04986   3.90924   3.51843   3.51971
   2   19473.0    513.5   0.277004827   4.68307   1.35402   0.62232   1.56921
   3   21630.7    462.3   0.204645721   3.11463   0.44046   1.30793   1.09998
   4   22873.6    437.2   0.052219934   0.75158  -0.62537  -0.58640  -0.12897
   5   24030.7    416.1   0.125226336   1.71556  -0.71821  -0.85266  -0.68753
   6   24505.2    408.1   0.235719623   3.16675   0.46058  -1.69864   0.26312
   7   26195.8    381.7   0.131173396   1.64851  -0.86060  -0.81098  -0.50019
   8   26472.8    377.7   0.015957033   0.19844   0.42587   0.11455   0.06287
   9   26753.9    373.8   0.194622018   2.39486  -0.83468  -0.32370  -1.26230
  10   27001.8    370.3   0.000744625   0.00908  -0.06423  -0.01323  -0.06912
  11   27199.2    367.7   0.053569632   0.64839  -0.23009  -0.75609   0.15419
  12   27957.3    357.7   0.226159836   2.66315  -0.83743  -0.89233   1.07964
  13   28330.3    353.0   0.009857928   0.11455  -0.01213  -0.24320  -0.23507
  14   28764.0    347.7   0.007167901   0.08204  -0.09661   0.02947   0.26802
  15   28919.3    345.8   0.022895635   0.26064  -0.48703  -0.12343  -0.09060
  16   29702.5    336.7   0.029125966   0.32282   0.28097   0.04668  -0.49163
  17   29991.0    333.4   0.003940161   0.04325   0.09414  -0.01705   0.18466
  18   30211.5    331.0   0.032840982   0.35787   0.45333   0.29628  -0.25410
  19   30798.9    324.7   0.249683229   2.66889  -1.24846  -0.43682  -0.95886
  20   31127.1    321.3   0.043958725   0.46492  -0.47030   0.28933  -0.40004
  21   31594.3    316.5   0.158110208   1.64750  -0.67182  -0.96445   0.51574
  22   31928.3    313.2   0.101392184   1.04545   0.29073  -0.87489   0.44215
  23   32240.8    310.2   0.366407430   3.74140   0.91686  -1.62773   0.50125
  24   32368.7    308.9   0.140946265   1.43352   0.27776  -0.79331   0.85266
  25   32844.0    304.5   0.000066861   0.00067  -0.00687  -0.01880   0.01642
  26   33421.5    299.2   0.140724195   1.38618   1.05892  -0.38689   0.33939
  27   33533.0    298.2   0.046379362   0.45533   0.22966  -0.62214  -0.12462
  28   34101.0    293.2   0.032501002   0.31377   0.50684  -0.16090  -0.17603
  29   34221.9    292.2   0.299371468   2.87993  -1.18157  -0.71655   0.98507
  30   34476.3    290.1   0.043960428   0.41978   0.57385   0.10572  -0.28159
  31   34643.6    288.7   0.239547239   2.27638  -1.15811  -0.49052   0.83340
  32   35051.3    285.3   0.079537452   0.74704   0.52159   0.47336  -0.50091
  33   35713.0    280.0   0.033910310   0.31259  -0.48500  -0.22263  -0.16675
  34   35898.0    278.6   0.049958340   0.45816  -0.51245  -0.09138   0.43266
  35   36028.1    277.6   0.035628507   0.32556  -0.07145   0.48968   0.28402
  36   36396.8    274.7   0.047755650   0.43195   0.42725   0.49414   0.07235
  37   36672.6    272.7   0.073539858   0.66017   0.15296  -0.77881  -0.17385
  38   36983.2    270.4   0.027613813   0.24581  -0.17099  -0.04599   0.46310
  39   37341.5    267.8   0.065138755   0.57428   0.06873  -0.72196  -0.21985
  40   37519.1    266.5   0.014078886   0.12354   0.09681  -0.33016   0.07180
  41   37915.2    263.7   0.045965130   0.39911  -0.03295  -0.40037  -0.48757
  42   38181.0    261.9   0.035340486   0.30472  -0.33062  -0.32439  -0.30030
  43   38198.9    261.8   0.064466648   0.55560  -0.23943   0.24590  -0.66167
  44   38479.5    259.9   0.073358423   0.62762  -0.41037  -0.06494  -0.67453
  45   38679.2    258.5   0.057453382   0.48901   0.13904  -0.29242   0.61981
  46   38857.1    257.4   0.157121233   1.33119   0.02428  -0.30177  -1.11334
  47   38930.5    256.9   0.098790524   0.83541  -0.13827  -0.89338   0.13477
  48   39457.0    253.4   0.078424277   0.65434   0.04368  -0.68941   0.42088
  49   39773.3    251.4   0.033424789   0.27666  -0.01609   0.29672   0.43401
  50   39861.8    250.9   0.044403972   0.36672   0.34504   0.49658   0.03279
  51   39974.6    250.2   0.023074175   0.19003  -0.13556   0.23078  -0.34408
  52   40113.8    249.3   0.089880709   0.73765   0.10376  -0.22498  -0.82235

FINAL SINGLE POINT ENERGY     -8943.763934751927

DIPOLE MOMENT
-------------
                                X             Y             Z
Electronic contribution:     59.33526    -100.33267      64.83665
Nuclear contribution   :    -61.51814      99.20752     -69.96492
                        -----------------------------------------
Total Dipole Moment    :     -2.18288      -1.12514      -5.12827
                        -----------------------------------------
Magnitude (a.u.)       :      5.68595
Magnitude (Debye)      :     14.45254

Rotational constants in cm-1:     0.000573     0.000138     0.000115
Rotational constants in MHz :    17.185292     4.126839     3.453536

                             ****ORCA TERMINATED NORMALLY****
TOTAL RUN TIME: 0 days 0 hours 14 minutes 54 seconds 457 msec
