                         Program Version 4.2.0 -  RELEASE  -
|  1> # ORCA input file
|  2> # SCF done       -154.397356158247          0.000867764710
|  3> ! CAM-B3LYP def2-SVP def2/J RIJCOSX Grid4 TightSCF
|  4> %maxcore 5000
|  5> %tddft
|  6>     Mode sTDDFT
|  7>     Ethresh 5.0
|  8>     maxcore 5000
|  9> end
| 10>
| 11> %pal
| 12>   nprocs 6
| 13>   end
| 14> * xyz 0 1
| 15>    C        2.64693        21.63524        -3.56399
| 16>    C        2.71150        21.88496        -2.22640
| 17>    C        2.55850        20.70208        -1.47837
| 18>    C        2.37909        19.57698        -2.28928
| 19>    S        2.39901        19.96553        -3.95086
| 20>    C        2.22587        18.43127        -1.45357
| 21>    C        2.31593        18.84671        -0.11545
| 22>    C        2.52446        20.28659        -0.08627
| 23>    C        2.64916        21.08173         1.01647
| 24>    C        2.59633        20.56967         2.32954
| 25>    N        2.55500        20.17053         3.40380
| 26>    C        2.83663        22.47606         0.92008
| 27>    N        2.98570        23.61129         0.84935
| 28>    C        2.16688        17.78932         0.78725
| 29>    C        1.96291        16.59706         0.13178
| 30>    S        1.95499        16.75711        -1.60811
| 31>    C        1.72147        15.29293         0.68550
| 32>    N        1.74371        15.14995         2.01303
| 33>    C        1.48460        13.94246         2.47864
| 34>    C        1.18860        12.86742         1.65441
| 35>    C        1.19410        13.11209         0.27572
| 36>    N        1.47388        14.32731        -0.19236
| 37>    C        0.88106        12.08077        -0.69095
| 38>    C        0.92534        12.32063        -2.01289
| 39>    C        0.57939        11.37918        -3.03079
| 40>    C        0.73739        11.50575        -4.39912
| 41>    C        1.32509        12.68366        -5.08826
| 42>    O        0.84483        13.16136        -6.07780
| 43>    O        2.43952        13.19970        -4.54070
| 44>    C        0.16225        10.42288        -5.12577
| 45>    C       -0.39854         9.49321        -4.29407
| 46>    S       -0.26174         9.90396        -2.63904
| 47>    C        0.17849        10.28699        -6.57715
| 48>    C       -0.95005        10.01285        -7.28194
| 49>    C       -1.00268         9.86559        -8.67932
| 50>    C        0.20885        10.07993        -9.48945
| 51>    C        1.43352        10.33682        -8.98407
| 52>    S        1.76544        10.45841        -7.30684
| 53>    C       -0.21865         9.96870       -10.84031
| 54>    C       -1.58771         9.71103       -10.87469
| 55>    C       -2.07179         9.58010       -12.19498
| 56>    C       -1.07938         9.74070       -13.10901
| 57>    S        0.47530        10.05310       -12.41200
| 58>    C       -2.08661         9.62763        -9.52500
| 59>    C       -3.45761         9.36780        -9.21428
| 60>    C       -3.92743         8.82922        -8.07201
| 61>    C       -5.31572         8.61152        -7.73343
| 62>    C       -6.36232         9.17968        -8.46156
| 63>    C       -7.66110         8.93866        -8.05280
| 64>    C       -7.94808         8.13272        -6.92407
| 65>    C       -6.90148         7.57048        -6.20197
| 66>    C       -5.61061         7.81743        -6.60743
| 67>    C       -9.37403         8.10921        -6.79701
| 68>    C       -9.88448         8.90331        -7.85517
| 69>    N       -8.83803         9.39511        -8.59748
| 70>    C       -8.91902        10.24299        -9.75174
| 71>    C      -11.25233         9.08211        -8.01058
| 72>    C      -12.09505         8.46707        -7.10493
| 73>    C      -11.60024         7.68634        -6.06222
| 74>    C      -10.24273         7.50069        -5.89962
| 75>    H        2.73031        22.34005        -4.36697
| 76>    H        2.85994        22.86344        -1.80772
| 77>    H        2.19579        17.85893         1.85892
| 78>    H        1.51139        13.84086         3.55609
| 79>    H        0.96423        11.89095         2.05109
| 80>    H        0.60049        11.11045        -0.30457
| 81>    H        1.21348        13.31597        -2.32854
| 82>    H        2.74517        12.70869        -3.76632
| 83>    H       -0.87730         8.57639        -4.57539
| 84>    H       -1.87457         9.96606        -6.72438
| 85>    H        2.30170        10.47983        -9.60810
| 86>    H       -3.09354         9.37660       -12.46097
| 87>    H       -1.15585         9.69411       -14.17788
| 88>    H       -4.14890         9.60315       -10.01346
| 89>    H       -3.21981         8.47982        -7.33239
| 90>    H       -6.16151         9.80807        -9.31467
| 91>    H       -7.10159         6.95613        -5.33683
| 92>    H       -4.78831         7.38711        -6.05314
| 93>    H       -9.95531        10.51866        -9.93034
| 94>    H       -8.53451         9.72909       -10.63771
| 95>    H       -8.33624        11.15474        -9.59603
| 96>    H      -11.65934         9.68150        -8.81163
| 97>    H      -13.16276         8.59432        -7.20787
| 98>    H      -12.29296         7.22302        -5.37550
| 99>    H       -9.85733         6.89585        -5.09250
|100> *
|101>
|102>                          ****END OF INPUT****

CARTESIAN COORDINATES (ANGSTROEM)
---------------------------------
  C      2.646930   21.635240   -3.563990
  C      2.711500   21.884960   -2.226400
  C      2.558500   20.702080   -1.478370
  C      2.379090   19.576980   -2.289280
  S      2.399010   19.965530   -3.950860
  C      2.225870   18.431270   -1.453570
  C      2.315930   18.846710   -0.115450
  C      2.524460   20.286590   -0.086270
  C      2.649160   21.081730    1.016470
  C      2.596330   20.569670    2.329540
  N      2.555000   20.170530    3.403800
  C      2.836630   22.476060    0.920080
  N      2.985700   23.611290    0.849350
  C      2.166880   17.789320    0.787250
  C      1.962910   16.597060    0.131780
  S      1.954990   16.757110   -1.608110
  C      1.721470   15.292930    0.685500
  N      1.743710   15.149950    2.013030
  C      1.484600   13.942460    2.478640
  C      1.188600   12.867420    1.654410
  C      1.194100   13.112090    0.275720
  N      1.473880   14.327310   -0.192360
  C      0.881060   12.080770   -0.690950
  C      0.925340   12.320630   -2.012890
  C      0.579390   11.379180   -3.030790
  C      0.737390   11.505750   -4.399120
  C      1.325090   12.683660   -5.088260
  O      0.844830   13.161360   -6.077800
  O      2.439520   13.199700   -4.540700
  C      0.162250   10.422880   -5.125770
  C     -0.398540    9.493210   -4.294070
  S     -0.261740    9.903960   -2.639040
  C      0.178490   10.286990   -6.577150
  C     -0.950050   10.012850   -7.281940
  C     -1.002680    9.865590   -8.679320
  C      0.208850   10.079930   -9.489450
  C      1.433520   10.336820   -8.984070
  S      1.765440   10.458410   -7.306840
  C     -0.218650    9.968700  -10.840310
  C     -1.587710    9.711030  -10.874690
  C     -2.071790    9.580100  -12.194980
  C     -1.079380    9.740700  -13.109010
  S      0.475300   10.053100  -12.412000
  C     -2.086610    9.627630   -9.525000
  C     -3.457610    9.367800   -9.214280
  C     -3.927430    8.829220   -8.072010
  C     -5.315720    8.611520   -7.733430
  C     -6.362320    9.179680   -8.461560
  C     -7.661100    8.938660   -8.052800
  C     -7.948080    8.132720   -6.924070
  C     -6.901480    7.570480   -6.201970
  C     -5.610610    7.817430   -6.607430
  C     -9.374030    8.109210   -6.797010
  C     -9.884480    8.903310   -7.855170
  N     -8.838030    9.395110   -8.597480
  C     -8.919020   10.242990   -9.751740
  C    -11.252330    9.082110   -8.010580
  C    -12.095050    8.467070   -7.104930
  C    -11.600240    7.686340   -6.062220
  C    -10.242730    7.500690   -5.899620
  H      2.730310   22.340050   -4.366970
  H      2.859940   22.863440   -1.807720
  H      2.195790   17.858930    1.858920
  H      1.511390   13.840860    3.556090
  H      0.964230   11.890950    2.051090
  H      0.600490   11.110450   -0.304570
  H      1.213480   13.315970   -2.328540
  H      2.745170   12.708690   -3.766320
  H     -0.877300    8.576390   -4.575390
  H     -1.874570    9.966060   -6.724380
  H      2.301700   10.479830   -9.608100
  H     -3.093540    9.376600  -12.460970
  H     -1.155850    9.694110  -14.177880
  H     -4.148900    9.603150  -10.013460
  H     -3.219810    8.479820   -7.332390
  H     -6.161510    9.808070   -9.314670
  H     -7.101590    6.956130   -5.336830
  H     -4.788310    7.387110   -6.053140
  H     -9.955310   10.518660   -9.930340
  H     -8.534510    9.729090  -10.637710
  H     -8.336240   11.154740   -9.596030
  H    -11.659340    9.681500   -8.811630
  H    -13.162760    8.594320   -7.207870
  H    -12.292960    7.223020   -5.375500
  H     -9.857330    6.895850   -5.092500

 Total Charge           Charge          ....    0
 Multiplicity           Mult            ....    1
 Number of Electrons    NEL             ....  444
 Basis Dimension        Dim             ....  985

ORBITAL ENERGIES
----------------

  NO   OCC          E(Eh)            E(eV)
   0   2.0000     -88.981034     -2421.2970
   1   2.0000     -88.979884     -2421.2657
   2   2.0000     -88.978188     -2421.2196
   3   2.0000     -88.962161     -2420.7835
   4   2.0000     -88.945062     -2420.3182
   5   2.0000     -19.266853      -524.2777
   6   2.0000     -19.202945      -522.5387
   7   2.0000     -14.442597      -393.0030
   8   2.0000     -14.421553      -392.4304
   9   2.0000     -14.420573      -392.4037
  10   2.0000     -14.419848      -392.3840
  11   2.0000     -14.415791      -392.2736
  12   2.0000     -10.409772      -283.2643
  13   2.0000     -10.357720      -281.8479
  14   2.0000     -10.354387      -281.7572
  15   2.0000     -10.342796      -281.4418
  16   2.0000     -10.340627      -281.3828
  17   2.0000     -10.330068      -281.0954
  18   2.0000     -10.329695      -281.0853
  19   2.0000     -10.323702      -280.9222
  20   2.0000     -10.322230      -280.8822
  21   2.0000     -10.321308      -280.8571
  22   2.0000     -10.321016      -280.8491
  23   2.0000     -10.314916      -280.6831
  24   2.0000     -10.314899      -280.6827
  25   2.0000     -10.310877      -280.5732
  26   2.0000     -10.307975      -280.4943
  27   2.0000     -10.307680      -280.4862
  28   2.0000     -10.306303      -280.4488
  29   2.0000     -10.305865      -280.4368
  30   2.0000     -10.305350      -280.4228
  31   2.0000     -10.304522      -280.4003
  32   2.0000     -10.297731      -280.2155
  33   2.0000     -10.295377      -280.1514
  34   2.0000     -10.293337      -280.0959
  35   2.0000     -10.293313      -280.0953
  36   2.0000     -10.292928      -280.0848
  37   2.0000     -10.292470      -280.0723
  38   2.0000     -10.291669      -280.0505
  39   2.0000     -10.291235      -280.0387
  40   2.0000     -10.285586      -279.8850
  41   2.0000     -10.284365      -279.8518
  42   2.0000     -10.281958      -279.7863
  43   2.0000     -10.272842      -279.5383
  44   2.0000     -10.269031      -279.4345
  45   2.0000     -10.266252      -279.3589
  46   2.0000     -10.264308      -279.3060
  47   2.0000     -10.262438      -279.2551
  48   2.0000     -10.260981      -279.2155
  49   2.0000     -10.260356      -279.1985
  50   2.0000     -10.259515      -279.1756
  51   2.0000     -10.259244      -279.1682
  52   2.0000     -10.259049      -279.1629
  53   2.0000     -10.258807      -279.1563
  54   2.0000     -10.258227      -279.1405
  55   2.0000     -10.258019      -279.1349
  56   2.0000     -10.255581      -279.0685
  57   2.0000     -10.255160      -279.0571
  58   2.0000     -10.252595      -278.9873
  59   2.0000     -10.250022      -278.9173
  60   2.0000      -8.076068      -219.7610
  61   2.0000      -8.074143      -219.7086
  62   2.0000      -8.073845      -219.7005
  63   2.0000      -8.057577      -219.2578
  64   2.0000      -8.040450      -218.7918
  65   2.0000      -6.045283      -164.5005
  66   2.0000      -6.043275      -164.4459
  67   2.0000      -6.043010      -164.4387
  68   2.0000      -6.040863      -164.3802
  69   2.0000      -6.039102      -164.3323
  70   2.0000      -6.038753      -164.3228
  71   2.0000      -6.038704      -164.3215
  72   2.0000      -6.036526      -164.2622
  73   2.0000      -6.036516      -164.2619
  74   2.0000      -6.027162      -164.0074
  75   2.0000      -6.022652      -163.8847
  76   2.0000      -6.019376      -163.7955
  77   2.0000      -6.009904      -163.5378
  78   2.0000      -6.005702      -163.4235
  79   2.0000      -6.002437      -163.3346
  80   2.0000      -1.188464       -32.3397
  81   2.0000      -1.102420       -29.9984
  82   2.0000      -1.094286       -29.7770
  83   2.0000      -1.073113       -29.2009
  84   2.0000      -1.034275       -28.1441
  85   2.0000      -1.012589       -27.5540
  86   2.0000      -1.010857       -27.5068
  87   2.0000      -0.998515       -27.1710
  88   2.0000      -0.993099       -27.0236
  89   2.0000      -0.991109       -26.9694
  90   2.0000      -0.986142       -26.8343
  91   2.0000      -0.958600       -26.0848
  92   2.0000      -0.948821       -25.8187
  93   2.0000      -0.937136       -25.5008
  94   2.0000      -0.930265       -25.3138
  95   2.0000      -0.924484       -25.1565
  96   2.0000      -0.914510       -24.8851
  97   2.0000      -0.903323       -24.5807
  98   2.0000      -0.889987       -24.2178
  99   2.0000      -0.883312       -24.0361
 100   2.0000      -0.877432       -23.8761
 101   2.0000      -0.860955       -23.4278
 102   2.0000      -0.855783       -23.2870
 103   2.0000      -0.852118       -23.1873
 104   2.0000      -0.843842       -22.9621
 105   2.0000      -0.830822       -22.6078
 106   2.0000      -0.829815       -22.5804
 107   2.0000      -0.828501       -22.5446
 108   2.0000      -0.821387       -22.3511
 109   2.0000      -0.803766       -21.8716
 110   2.0000      -0.795418       -21.6444
 111   2.0000      -0.789491       -21.4831
 112   2.0000      -0.772756       -21.0278
 113   2.0000      -0.769791       -20.9471
 114   2.0000      -0.765276       -20.8242
 115   2.0000      -0.751914       -20.4606
 116   2.0000      -0.748373       -20.3643
 117   2.0000      -0.725208       -19.7339
 118   2.0000      -0.722327       -19.6555
 119   2.0000      -0.712505       -19.3882
 120   2.0000      -0.705866       -19.2076
 121   2.0000      -0.694082       -18.8869
 122   2.0000      -0.692519       -18.8444
 123   2.0000      -0.685071       -18.6417
 124   2.0000      -0.684376       -18.6228
 125   2.0000      -0.681260       -18.5380
 126   2.0000      -0.668736       -18.1972
 127   2.0000      -0.658534       -17.9196
 128   2.0000      -0.652987       -17.7687
 129   2.0000      -0.651502       -17.7283
 130   2.0000      -0.643319       -17.5056
 131   2.0000      -0.637607       -17.3502
 132   2.0000      -0.627037       -17.0625
 133   2.0000      -0.620379       -16.8814
 134   2.0000      -0.615356       -16.7447
 135   2.0000      -0.608593       -16.5607
 136   2.0000      -0.604833       -16.4583
 137   2.0000      -0.598951       -16.2983
 138   2.0000      -0.596401       -16.2289
 139   2.0000      -0.593191       -16.1415
 140   2.0000      -0.586319       -15.9545
 141   2.0000      -0.571237       -15.5441
 142   2.0000      -0.570265       -15.5177
 143   2.0000      -0.562213       -15.2986
 144   2.0000      -0.560619       -15.2552
 145   2.0000      -0.552795       -15.0423
 146   2.0000      -0.549368       -14.9491
 147   2.0000      -0.544512       -14.8169
 148   2.0000      -0.543452       -14.7881
 149   2.0000      -0.541448       -14.7336
 150   2.0000      -0.537650       -14.6302
 151   2.0000      -0.535488       -14.5714
 152   2.0000      -0.531871       -14.4730
 153   2.0000      -0.529440       -14.4068
 154   2.0000      -0.528071       -14.3695
 155   2.0000      -0.526203       -14.3187
 156   2.0000      -0.522339       -14.2136
 157   2.0000      -0.514163       -13.9911
 158   2.0000      -0.512902       -13.9568
 159   2.0000      -0.509582       -13.8664
 160   2.0000      -0.506348       -13.7784
 161   2.0000      -0.503989       -13.7142
 162   2.0000      -0.500639       -13.6231
 163   2.0000      -0.496426       -13.5084
 164   2.0000      -0.494059       -13.4440
 165   2.0000      -0.493877       -13.4391
 166   2.0000      -0.490961       -13.3597
 167   2.0000      -0.485286       -13.2053
 168   2.0000      -0.484086       -13.1727
 169   2.0000      -0.482949       -13.1417
 170   2.0000      -0.477510       -12.9937
 171   2.0000      -0.476365       -12.9625
 172   2.0000      -0.472100       -12.8465
 173   2.0000      -0.470943       -12.8150
 174   2.0000      -0.469044       -12.7633
 175   2.0000      -0.465068       -12.6551
 176   2.0000      -0.461269       -12.5518
 177   2.0000      -0.459993       -12.5171
 178   2.0000      -0.452865       -12.3231
 179   2.0000      -0.449033       -12.2188
 180   2.0000      -0.448354       -12.2003
 181   2.0000      -0.447598       -12.1798
 182   2.0000      -0.442958       -12.0535
 183   2.0000      -0.440882       -11.9970
 184   2.0000      -0.438991       -11.9455
 185   2.0000      -0.436718       -11.8837
 186   2.0000      -0.434393       -11.8204
 187   2.0000      -0.432878       -11.7792
 188   2.0000      -0.431249       -11.7349
 189   2.0000      -0.430124       -11.7043
 190   2.0000      -0.430029       -11.7017
 191   2.0000      -0.425481       -11.5779
 192   2.0000      -0.421793       -11.4776
 193   2.0000      -0.417277       -11.3547
 194   2.0000      -0.408429       -11.1139
 195   2.0000      -0.407386       -11.0855
 196   2.0000      -0.405333       -11.0297
 197   2.0000      -0.403449       -10.9784
 198   2.0000      -0.401761       -10.9325
 199   2.0000      -0.399323       -10.8661
 200   2.0000      -0.394481       -10.7344
 201   2.0000      -0.389411       -10.5964
 202   2.0000      -0.388400       -10.5689
 203   2.0000      -0.387010       -10.5311
 204   2.0000      -0.382315       -10.4033
 205   2.0000      -0.372150       -10.1267
 206   2.0000      -0.362573        -9.8661
 207   2.0000      -0.354546        -9.6477
 208   2.0000      -0.345325        -9.3968
 209   2.0000      -0.337865        -9.1938
 210   2.0000      -0.335697        -9.1348
 211   2.0000      -0.334639        -9.1060
 212   2.0000      -0.330025        -8.9804
 213   2.0000      -0.316100        -8.6015
 214   2.0000      -0.313252        -8.5240
 215   2.0000      -0.311820        -8.4851
 216   2.0000      -0.296270        -8.0619
 217   2.0000      -0.271606        -7.3908
 218   2.0000      -0.267576        -7.2811
 219   2.0000      -0.261852        -7.1254
 220   2.0000      -0.254764        -6.9325
 221   2.0000      -0.219429        -5.9710
 222   0.0000      -0.093797        -2.5523
 223   0.0000      -0.067950        -1.8490
 224   0.0000      -0.042007        -1.1431
 225   0.0000      -0.032956        -0.8968
 226   0.0000      -0.010237        -0.2786

MULLIKEN ATOMIC CHARGES
-----------------------
   0 C :   -0.081755
   1 C :    0.035514
   2 C :   -0.028248
   3 C :   -0.120953
   4 S :    0.188571
   5 C :   -0.092847
   6 C :    0.000051
   7 C :    0.296086
   8 C :   -0.298847
   9 C :   -0.191567
  10 N :    0.175167
  11 C :   -0.191841
  12 N :    0.168234
  13 C :   -0.036555
  14 C :   -0.051266
  15 S :    0.226006
  16 C :   -0.053518
  17 N :   -0.062030
  18 C :    0.090427
  19 C :   -0.052991
  20 C :    0.063364
  21 N :   -0.088713
  22 C :   -0.016241
  23 C :   -0.010218
  24 C :   -0.108067
  25 C :   -0.007528
  26 C :    0.140824
  27 O :   -0.159701
  28 O :   -0.154696
  29 C :    0.089631
  30 C :   -0.091342
  31 S :    0.139986
  32 C :   -0.115834
  33 C :   -0.014710
  34 C :    0.028764
  35 C :    0.062753
  36 C :   -0.129536
  37 S :    0.139786
  38 C :   -0.109804
  39 C :    0.045514
  40 C :    0.010269
  41 C :   -0.075332
  42 S :    0.118760
  43 C :    0.078447
  44 C :   -0.007899
  45 C :   -0.031005
  46 C :    0.124104
  47 C :   -0.142335
  48 C :    0.163401
  49 C :    0.056932
  50 C :   -0.040805
  51 C :   -0.026396
  52 C :    0.057933
  53 C :    0.142303
  54 N :   -0.193062
  55 C :    0.134330
  56 C :   -0.084807
  57 C :    0.019463
  58 C :    0.022466
  59 C :   -0.048631
  60 H :    0.036441
  61 H :    0.010494
  62 H :    0.019316
  63 H :    0.013450
  64 H :   -0.005438
  65 H :   -0.009321
  66 H :    0.023876
  67 H :    0.185487
  68 H :    0.033308
  69 H :   -0.013407
  70 H :    0.031445
  71 H :   -0.023180
  72 H :    0.022472
  73 H :   -0.026636
  74 H :   -0.033467
  75 H :   -0.054323
  76 H :   -0.038636
  77 H :   -0.042806
  78 H :    0.032711
  79 H :    0.031943
  80 H :    0.035872
  81 H :   -0.046218
  82 H :   -0.019903
  83 H :   -0.026283
  84 H :   -0.037200
Sum of atomic charges:   -0.0000000

LOEWDIN ATOMIC CHARGES
----------------------
   0 C :   -0.176748
   1 C :   -0.035606
   2 C :   -0.072865
   3 C :   -0.187505
   4 S :    0.482979
   5 C :   -0.172232
   6 C :   -0.079583
   7 C :    0.083052
   8 C :   -0.106547
   9 C :   -0.018308
  10 N :   -0.033828
  11 C :   -0.016458
  12 N :   -0.037852
  13 C :    0.000399
  14 C :   -0.194679
  15 S :    0.509160
  16 C :    0.018318
  17 N :   -0.090269
  18 C :    0.059636
  19 C :   -0.071811
  20 C :    0.037048
  21 N :   -0.109092
  22 C :   -0.037061
  23 C :   -0.018492
  24 C :   -0.167782
  25 C :   -0.101942
  26 C :    0.067005
  27 O :   -0.141732
  28 O :   -0.024437
  29 C :   -0.061999
  30 C :   -0.163312
  31 S :    0.462180
  32 C :   -0.168378
  33 C :   -0.017770
  34 C :   -0.028227
  35 C :   -0.046253
  36 C :   -0.140157
  37 S :    0.453152
  38 C :   -0.205545
  39 C :   -0.042332
  40 C :   -0.065868
  41 C :   -0.170948
  42 S :    0.413691
  43 C :   -0.050851
  44 C :   -0.019928
  45 C :   -0.028868
  46 C :   -0.020131
  47 C :   -0.056207
  48 C :    0.031436
  49 C :   -0.043871
  50 C :   -0.013395
  51 C :   -0.044124
  52 C :   -0.045917
  53 C :    0.031747
  54 N :    0.009363
  55 C :    0.036475
  56 C :   -0.064570
  57 C :   -0.021874
  58 C :   -0.050669
  59 C :   -0.014048
  60 H :    0.027525
  61 H :    0.041968
  62 H :    0.046301
  63 H :    0.029988
  64 H :    0.033922
  65 H :    0.024799
  66 H :    0.035565
  67 H :    0.092884
  68 H :    0.029983
  69 H :    0.037879
  70 H :    0.034536
  71 H :    0.027855
  72 H :    0.021162
  73 H :    0.023947
  74 H :    0.021502
  75 H :    0.021283
  76 H :    0.026346
  77 H :    0.020008
  78 H :    0.033347
  79 H :    0.026781
  80 H :    0.028843
  81 H :    0.022461
  82 H :    0.026118
  83 H :    0.023760
  84 H :    0.025667

  Mayer bond orders larger than 0.100000
B(  0-C ,  1-C ) :   1.5457 B(  0-C ,  4-S ) :   1.1558 B(  0-C , 60-H ) :   0.9643
B(  1-C ,  2-C ) :   1.2777 B(  1-C , 61-H ) :   0.9964 B(  2-C ,  3-C ) :   1.4633
B(  2-C ,  7-C ) :   1.0149 B(  3-C ,  4-S ) :   1.1369 B(  3-C ,  5-C ) :   1.1797
B(  5-C ,  6-C ) :   1.4464 B(  5-C , 15-S ) :   1.1423 B(  6-C ,  7-C ) :   0.9985
B(  6-C , 13-C ) :   1.2557 B(  7-C ,  8-C ) :   1.7076 B(  8-C ,  9-C ) :   1.1329
B(  8-C , 11-C ) :   1.1312 B(  9-C , 10-N ) :   3.0001 B( 11-C , 12-N ) :   3.0004
B( 13-C , 14-C ) :   1.4943 B( 13-C , 62-H ) :   1.0077 B( 14-C , 15-S ) :   1.1077
B( 14-C , 16-C ) :   1.0101 B( 16-C , 17-N ) :   1.5845 B( 16-C , 21-N ) :   1.5865
B( 17-N , 18-C ) :   1.5449 B( 18-C , 19-C ) :   1.3620 B( 18-C , 63-H ) :   0.9799
B( 19-C , 20-C ) :   1.3376 B( 19-C , 64-H ) :   0.9763 B( 20-C , 21-N ) :   1.5088
B( 20-C , 22-C ) :   1.0711 B( 22-C , 23-C ) :   1.7284 B( 22-C , 65-H ) :   0.9779
B( 23-C , 24-C ) :   1.0933 B( 23-C , 66-H ) :   0.9527 B( 24-C , 25-C ) :   1.4864
B( 24-C , 31-S ) :   1.1496 B( 25-C , 26-C ) :   0.8967 B( 25-C , 29-C ) :   1.2691
B( 26-C , 27-O ) :   2.1854 B( 26-C , 28-O ) :   1.2155 B( 28-O , 67-H ) :   0.9490
B( 29-C , 30-C ) :   1.5787 B( 29-C , 32-C ) :   0.9712 B( 30-C , 31-S ) :   1.1559
B( 30-C , 68-H ) :   0.9680 B( 32-C , 33-C ) :   1.6314 B( 32-C , 37-S ) :   1.0555
B( 33-C , 34-C ) :   1.1768 B( 33-C , 69-H ) :   0.9698 B( 34-C , 35-C ) :   1.0507
B( 34-C , 43-C ) :   1.4513 B( 35-C , 36-C ) :   1.6159 B( 35-C , 38-C ) :   1.1791
B( 36-C , 37-S ) :   1.1383 B( 36-C , 70-H ) :   0.9413 B( 38-C , 39-C ) :   1.4473
B( 38-C , 42-S ) :   1.0697 B( 39-C , 40-C ) :   1.2204 B( 39-C , 43-C ) :   1.1003
B( 40-C , 41-C ) :   1.5812 B( 40-C , 71-H ) :   0.9975 B( 41-C , 42-S ) :   1.1547
B( 41-C , 72-H ) :   0.9669 B( 43-C , 44-C ) :   1.1050 B( 44-C , 45-C ) :   1.6888
B( 44-C , 73-H ) :   0.9554 B( 45-C , 46-C ) :   1.0665 B( 45-C , 74-H ) :   0.9819
B( 46-C , 47-C ) :   1.3312 B( 46-C , 51-C ) :   1.3030 B( 47-C , 48-C ) :   1.3087
B( 47-C , 75-H ) :   1.0002 B( 48-C , 49-C ) :   1.2922 B( 48-C , 54-N ) :   1.1258
B( 49-C , 50-C ) :   1.3288 B( 49-C , 52-C ) :   1.0904 B( 50-C , 51-C ) :   1.4050
B( 50-C , 76-H ) :   0.9959 B( 51-C , 77-H ) :   0.9917 B( 52-C , 53-C ) :   1.2935
B( 52-C , 59-C ) :   1.3419 B( 53-C , 54-N ) :   1.1155 B( 53-C , 56-C ) :   1.3125
B( 54-N , 55-C ) :   0.9859 B( 55-C , 78-H ) :   0.9703 B( 55-C , 79-H ) :   0.9700
B( 55-C , 80-H ) :   0.9679 B( 56-C , 57-C ) :   1.4060 B( 56-C , 81-H ) :   1.0020
B( 57-C , 58-C ) :   1.3527 B( 57-C , 82-H ) :   0.9837 B( 58-C , 59-C ) :   1.4064
B( 58-C , 83-H ) :   0.9860 B( 59-C , 84-H ) :   0.9967

-----------------------------------------------------------------------------
         ABSORPTION SPECTRUM VIA TRANSITION ELECTRIC DIPOLE MOMENTS
-----------------------------------------------------------------------------
State   Energy  Wavelength   fosc         T2         TX        TY        TZ
        (cm-1)    (nm)                  (au**2)     (au)      (au)      (au)
-----------------------------------------------------------------------------
   0   16549.3    604.3   0.035033416   0.69691   0.14676   0.74500  -0.34692
   1   19160.8    521.9   0.007305372   0.12552  -0.29154   0.11217  -0.16715
   2   19588.6    510.5   0.002641322   0.04439   0.18159  -0.02783   0.10317
   3   21500.7    465.1   0.392224851   6.00562   2.08085   0.69707   1.09077
   4   26153.6    382.4   0.716246652   9.01586  -2.79565  -0.96122  -0.52558
   5   27835.0    359.3   0.052974191   0.62654  -0.11089   0.12667   0.77343
   6   28791.2    347.3   0.001353370   0.01548  -0.03315  -0.11780  -0.02233
   7   29016.1    344.6   0.029331272   0.33279  -0.15234  -0.53393  -0.15653
   8   29625.5    337.5   0.254198860   2.82477  -0.71439  -1.32619  -0.74542
   9   30622.7    326.6   0.572062468   6.15001  -1.83241   1.14589   1.21622
  10   30802.5    324.6   0.119664037   1.27895  -0.49213   0.27346   0.98080
  11   31064.0    321.9   0.577602064   6.12135  -0.81386  -1.99420  -1.21743
  12   31479.0    317.7   0.358680343   3.75113  -0.56080  -1.72659  -0.67492
  13   31570.0    316.8   0.004041894   0.04215  -0.01822  -0.03306   0.20180
  14   31610.4    316.4   0.113891915   1.18615   0.43071   0.96819  -0.25147
  15   31811.5    314.4   0.193944568   2.00710  -0.14714   0.49843   1.31796
  16   31881.3    313.7   0.064949433   0.67068  -0.32637  -0.41939  -0.62312
  17   32388.6    308.8   0.165953650   1.68682   1.06700   0.47626  -0.56702
  18   32957.9    303.4   0.090157136   0.90057   0.48821  -0.08563  -0.80925
  19   33083.0    302.3   0.101958233   1.01460  -0.42753  -0.70457  -0.57913
  20   33420.3    299.2   0.148521428   1.46303   0.49810   1.09120   0.15563
  21   34304.9    291.5   0.267582153   2.56789   0.94887   0.36529  -1.23859
  22   34522.3    289.7   0.006984287   0.06660   0.09013   0.23253   0.06642
  23   34675.8    288.4   0.722484166   6.85927  -0.19881   1.37725  -2.21877
  24   35775.8    279.5   0.003138880   0.02888  -0.11052  -0.03956   0.12290
  25   35968.5    278.0   0.321333461   2.94110   0.04535  -0.33783   1.68075
  26   37909.0    263.8   0.017702540   0.15373  -0.01349  -0.16515   0.35535
  27   38526.2    259.6   0.008831549   0.07547  -0.03982   0.15410  -0.22390
  28   38872.1    257.3   0.029332306   0.24842  -0.13892  -0.32968   0.34704
  29   39194.8    255.1   0.026863261   0.22563   0.03011   0.22682  -0.41627
  30   39441.6    253.5   0.326714867   2.72703   0.04105  -0.03928   1.65040
  31   39804.8    251.2   0.148091675   1.22482   0.17558   0.40272   1.01578
  32   40029.9    249.8   0.001782901   0.01466  -0.02245   0.02421   0.11650

FINAL SINGLE POINT ENERGY     -4255.795700230291

DIPOLE MOMENT
-------------
                                X             Y             Z
Electronic contribution:     59.26844      40.47086      26.19831
Nuclear contribution   :    -59.47867     -42.65698     -27.22153
                        -----------------------------------------
Total Dipole Moment    :     -0.21023      -2.18612      -1.02321
                        -----------------------------------------
Magnitude (a.u.)       :      2.42286
Magnitude (Debye)      :      6.15843

Rotational constants in cm-1:     0.001378     0.000397     0.000365
Rotational constants in MHz :    41.300415    11.910513    10.942570

                             ****ORCA TERMINATED NORMALLY****
TOTAL RUN TIME: 0 days 0 hours 6 minutes 30 seconds 640 msec
