                         Program Version 4.2.0 -  RELEASE  -
|  1> # ORCA input file
|  2> # SCF done       -218.851960601901          0.000681441177
|  3> ! CAM-B3LYP def2-SVP def2/J RIJCOSX Grid4 TightSCF
|  4> %maxcore 5000
|  5> %tddft
|  6>     Mode sTDDFT
|  7>     Ethresh 5.0
|  8>     maxcore 5000
|  9> end
| 10>
| 11> %pal
| 12>   nprocs 6
| 13>   end
| 14> * xyz 0 1
| 15>    C       -8.69350         1.03466        -3.89639
| 16>    C       -9.87284         0.99661        -4.58577
| 17>    F      -10.24991         2.04203        -5.33357
| 18>    C      -10.70664        -0.13779        -4.51912
| 19>    F      -11.85846        -0.14625        -5.20364
| 20>    C      -10.34875        -1.21932        -3.76400
| 21>    C       -9.14056        -1.20985        -3.04046
| 22>    C       -8.29662        -0.06332        -3.10646
| 23>    C       -7.08250        -0.02876        -2.38380
| 24>    C       -6.72218        -1.10817        -1.61954
| 25>    C       -7.56875        -2.25106        -1.56442
| 26>    C       -8.74907        -2.31096        -2.24698
| 27>    C       -6.96585        -3.26514        -0.67989
| 28>    O       -7.47308        -4.29902        -0.30313
| 29>    C       -5.65987        -2.69553        -0.25570
| 30>    C       -5.55884        -1.34244        -0.76967
| 31>    C       -4.56796        -0.43305        -0.50457
| 32>    C       -3.49398        -0.65013         0.38224
| 33>    N       -2.61584        -0.75946         1.11520
| 34>    C       -4.51405         0.86507        -1.05445
| 35>    N       -4.41268         1.93149        -1.46717
| 36>    C       -4.78371        -3.34294         0.55601
| 37>    C       -4.86966        -4.75964         0.81997
| 38>    C       -4.72975        -5.41248         2.04125
| 39>    O       -4.54811        -4.81332         3.23947
| 40>    C       -4.50448        -3.41567         3.40771
| 41>    C       -4.83607        -6.84494         2.15919
| 42>    O       -4.76849        -7.45524         3.37047
| 43>    C       -5.45200        -6.93053         4.49661
| 44>    C       -4.93413        -7.69025         1.05129
| 45>    C       -5.01060        -7.03439        -0.20926
| 46>    C       -5.03515        -5.60339        -0.31057
| 47>    N       -5.11681        -5.29721        -1.58858
| 48>    O       -5.15828        -6.45114        -2.24924
| 49>    N       -5.09300        -7.51069        -1.43521
| 50>    C       -4.98283        -9.11893         1.10915
| 51>    N       -5.03199        -9.85295        -0.05604
| 52>    C       -5.07222       -11.16937         0.26222
| 53>    C       -5.10121       -12.45532        -0.26106
| 54>    C       -5.12320       -13.32651         0.84072
| 55>    N       -5.10698       -12.58752         2.00713
| 56>    C       -5.05829       -11.27013         1.68228
| 57>    C       -4.99275        -9.98913         2.21124
| 58>    C       -5.15120       -14.73966         0.80551
| 59>    C       -5.33997       -15.53940         1.88889
| 60>    C       -5.32075       -16.96150         1.86549
| 61>    C       -5.65441       -17.70645         3.00928
| 62>    O       -6.03116       -16.95289         4.07438
| 63>    C       -5.83272       -17.38661         5.40698
| 64>    C       -5.64910       -19.13386         3.02008
| 65>    O       -6.07608       -19.71516         4.16952
| 66>    C       -5.41692       -20.85861         4.69197
| 67>    C       -5.23112       -19.88731         1.91629
| 68>    C       -4.80353       -19.14729         0.78392
| 69>    C       -4.89943       -17.71232         0.73563
| 70>    N       -4.50534       -17.33730        -0.46261
| 71>    O       -4.18861       -18.45082        -1.12376
| 72>    N       -4.36410       -19.55383        -0.38966
| 73>    C       -5.36000       -21.30905         1.83795
| 74>    C       -4.62569       -22.18126         1.09591
| 75>    C       -5.16876       -23.53159         0.79409
| 76>    O       -6.13545       -24.05420         1.30158
| 77>    C       -4.29794       -24.06974        -0.27156
| 78>    C       -4.42050       -25.23098        -0.97792
| 79>    C       -3.46523       -25.53257        -1.97515
| 80>    C       -2.40226       -24.61684        -2.22592
| 81>    C       -1.45602       -24.92266        -3.22460
| 82>    C       -1.55712       -26.08435        -3.93725
| 83>    C       -2.60737       -26.98967        -3.68727
| 84>    C       -3.54261       -26.72054        -2.72759
| 85>    F       -2.68206       -28.12207        -4.40122
| 86>    F       -0.65392       -26.37519        -4.88374
| 87>    C       -2.29792       -23.42389        -1.47449
| 88>    C       -3.22853       -23.15830        -0.50630
| 89>    C       -3.34868       -22.04937         0.43323
| 90>    C       -2.34005       -21.18898         0.78334
| 91>    C       -2.42571       -20.32837         1.89239
| 92>    N       -2.46014       -19.65973         2.82640
| 93>    C       -1.08378       -21.14072         0.14783
| 94>    N       -0.04739       -21.05516        -0.33807
| 95>    H       -8.06725         1.91094        -3.95832
| 96>    H      -10.99758        -2.08017        -3.72344
| 97>    H       -6.46786         0.85415        -2.45273
| 98>    H       -9.37405        -3.18870        -2.18406
| 99>    H       -3.93539        -2.80596         0.95091
|100>    H       -4.65079        -3.25269         4.47617
|101>    H       -5.30294        -2.91674         2.85226
|102>    H       -3.53476        -3.00412         3.11882
|103>    H       -6.36219        -6.40309         4.20831
|104>    H       -4.81108        -6.26702         5.07960
|105>    H       -5.71797        -7.79744         5.10380
|106>    H       -5.04740        -9.42602        -0.97149
|107>    H       -5.11510       -12.75932        -1.28792
|108>    H       -5.07568       -12.97970         2.93141
|109>    H       -4.94548        -9.69894         3.23815
|110>    H       -5.01875       -15.19558        -0.16441
|111>    H       -5.54621       -15.10907         2.85806
|112>    H       -5.87177       -16.47569         6.00585
|113>    H       -4.85701       -17.85969         5.53409
|114>    H       -6.62123       -18.06703         5.73241
|115>    H       -5.23614       -20.65618         5.75077
|116>    H       -4.46440       -21.03742         4.19231
|117>    H       -6.05344       -21.74084         4.60746
|118>    H       -6.21902       -21.74385         2.33753
|119>    H       -5.23385       -25.91234        -0.77941
|120>    H       -0.64439       -24.24128        -3.42652
|121>    H       -4.34078       -27.42394        -2.54892
|122>    H       -1.48954       -22.74302        -1.68807
|123> *
|124>
|125>                          ****END OF INPUT****

CARTESIAN COORDINATES (ANGSTROEM)
---------------------------------
  C     -8.693500    1.034660   -3.896390
  C     -9.872840    0.996610   -4.585770
  F    -10.249910    2.042030   -5.333570
  C    -10.706640   -0.137790   -4.519120
  F    -11.858460   -0.146250   -5.203640
  C    -10.348750   -1.219320   -3.764000
  C     -9.140560   -1.209850   -3.040460
  C     -8.296620   -0.063320   -3.106460
  C     -7.082500   -0.028760   -2.383800
  C     -6.722180   -1.108170   -1.619540
  C     -7.568750   -2.251060   -1.564420
  C     -8.749070   -2.310960   -2.246980
  C     -6.965850   -3.265140   -0.679890
  O     -7.473080   -4.299020   -0.303130
  C     -5.659870   -2.695530   -0.255700
  C     -5.558840   -1.342440   -0.769670
  C     -4.567960   -0.433050   -0.504570
  C     -3.493980   -0.650130    0.382240
  N     -2.615840   -0.759460    1.115200
  C     -4.514050    0.865070   -1.054450
  N     -4.412680    1.931490   -1.467170
  C     -4.783710   -3.342940    0.556010
  C     -4.869660   -4.759640    0.819970
  C     -4.729750   -5.412480    2.041250
  O     -4.548110   -4.813320    3.239470
  C     -4.504480   -3.415670    3.407710
  C     -4.836070   -6.844940    2.159190
  O     -4.768490   -7.455240    3.370470
  C     -5.452000   -6.930530    4.496610
  C     -4.934130   -7.690250    1.051290
  C     -5.010600   -7.034390   -0.209260
  C     -5.035150   -5.603390   -0.310570
  N     -5.116810   -5.297210   -1.588580
  O     -5.158280   -6.451140   -2.249240
  N     -5.093000   -7.510690   -1.435210
  C     -4.982830   -9.118930    1.109150
  N     -5.031990   -9.852950   -0.056040
  C     -5.072220  -11.169370    0.262220
  C     -5.101210  -12.455320   -0.261060
  C     -5.123200  -13.326510    0.840720
  N     -5.106980  -12.587520    2.007130
  C     -5.058290  -11.270130    1.682280
  C     -4.992750   -9.989130    2.211240
  C     -5.151200  -14.739660    0.805510
  C     -5.339970  -15.539400    1.888890
  C     -5.320750  -16.961500    1.865490
  C     -5.654410  -17.706450    3.009280
  O     -6.031160  -16.952890    4.074380
  C     -5.832720  -17.386610    5.406980
  C     -5.649100  -19.133860    3.020080
  O     -6.076080  -19.715160    4.169520
  C     -5.416920  -20.858610    4.691970
  C     -5.231120  -19.887310    1.916290
  C     -4.803530  -19.147290    0.783920
  C     -4.899430  -17.712320    0.735630
  N     -4.505340  -17.337300   -0.462610
  O     -4.188610  -18.450820   -1.123760
  N     -4.364100  -19.553830   -0.389660
  C     -5.360000  -21.309050    1.837950
  C     -4.625690  -22.181260    1.095910
  C     -5.168760  -23.531590    0.794090
  O     -6.135450  -24.054200    1.301580
  C     -4.297940  -24.069740   -0.271560
  C     -4.420500  -25.230980   -0.977920
  C     -3.465230  -25.532570   -1.975150
  C     -2.402260  -24.616840   -2.225920
  C     -1.456020  -24.922660   -3.224600
  C     -1.557120  -26.084350   -3.937250
  C     -2.607370  -26.989670   -3.687270
  C     -3.542610  -26.720540   -2.727590
  F     -2.682060  -28.122070   -4.401220
  F     -0.653920  -26.375190   -4.883740
  C     -2.297920  -23.423890   -1.474490
  C     -3.228530  -23.158300   -0.506300
  C     -3.348680  -22.049370    0.433230
  C     -2.340050  -21.188980    0.783340
  C     -2.425710  -20.328370    1.892390
  N     -2.460140  -19.659730    2.826400
  C     -1.083780  -21.140720    0.147830
  N     -0.047390  -21.055160   -0.338070
  H     -8.067250    1.910940   -3.958320
  H    -10.997580   -2.080170   -3.723440
  H     -6.467860    0.854150   -2.452730
  H     -9.374050   -3.188700   -2.184060
  H     -3.935390   -2.805960    0.950910
  H     -4.650790   -3.252690    4.476170
  H     -5.302940   -2.916740    2.852260
  H     -3.534760   -3.004120    3.118820
  H     -6.362190   -6.403090    4.208310
  H     -4.811080   -6.267020    5.079600
  H     -5.717970   -7.797440    5.103800
  H     -5.047400   -9.426020   -0.971490
  H     -5.115100  -12.759320   -1.287920
  H     -5.075680  -12.979700    2.931410
  H     -4.945480   -9.698940    3.238150
  H     -5.018750  -15.195580   -0.164410
  H     -5.546210  -15.109070    2.858060
  H     -5.871770  -16.475690    6.005850
  H     -4.857010  -17.859690    5.534090
  H     -6.621230  -18.067030    5.732410
  H     -5.236140  -20.656180    5.750770
  H     -4.464400  -21.037420    4.192310
  H     -6.053440  -21.740840    4.607460
  H     -6.219020  -21.743850    2.337530
  H     -5.233850  -25.912340   -0.779410
  H     -0.644390  -24.241280   -3.426520
  H     -4.340780  -27.423940   -2.548920
  H     -1.489540  -22.743020   -1.688070

 Total Charge           Charge          ....    0
 Multiplicity           Mult            ....    1
 Number of Electrons    NEL             ....  546
 Basis Dimension        Dim             .... 1260

ORBITAL ENERGIES
----------------

  NO   OCC          E(Eh)            E(eV)
   0   2.0000     -24.800771      -674.8633
   1   2.0000     -24.799658      -674.8330
   2   2.0000     -24.793957      -674.6779
   3   2.0000     -24.793205      -674.6574
   4   2.0000     -19.351794      -526.5891
   5   2.0000     -19.346056      -526.4329
   6   2.0000     -19.281564      -524.6780
   7   2.0000     -19.271020      -524.3911
   8   2.0000     -19.256952      -524.0083
   9   2.0000     -19.255397      -523.9660
  10   2.0000     -19.219679      -522.9941
  11   2.0000     -19.213175      -522.8171
  12   2.0000     -14.484408      -394.1408
  13   2.0000     -14.477319      -393.9479
  14   2.0000     -14.476645      -393.9295
  15   2.0000     -14.472484      -393.8163
  16   2.0000     -14.455236      -393.3470
  17   2.0000     -14.447975      -393.1494
  18   2.0000     -14.427108      -392.5816
  19   2.0000     -14.421622      -392.4323
  20   2.0000     -14.414993      -392.2519
  21   2.0000     -14.409901      -392.1133
  22   2.0000     -10.384319      -282.5717
  23   2.0000     -10.383427      -282.5474
  24   2.0000     -10.380208      -282.4598
  25   2.0000     -10.376663      -282.3633
  26   2.0000     -10.376208      -282.3510
  27   2.0000     -10.373618      -282.2805
  28   2.0000     -10.370713      -282.2014
  29   2.0000     -10.363697      -282.0105
  30   2.0000     -10.359911      -281.9075
  31   2.0000     -10.354679      -281.7651
  32   2.0000     -10.349859      -281.6340
  33   2.0000     -10.348737      -281.6034
  34   2.0000     -10.346099      -281.5317
  35   2.0000     -10.336635      -281.2741
  36   2.0000     -10.335291      -281.2376
  37   2.0000     -10.334394      -281.2132
  38   2.0000     -10.331195      -281.1261
  39   2.0000     -10.330051      -281.0950
  40   2.0000     -10.329124      -281.0698
  41   2.0000     -10.328247      -281.0459
  42   2.0000     -10.327248      -281.0187
  43   2.0000     -10.325614      -280.9743
  44   2.0000     -10.324388      -280.9409
  45   2.0000     -10.323139      -280.9069
  46   2.0000     -10.322873      -280.8997
  47   2.0000     -10.317862      -280.7633
  48   2.0000     -10.315897      -280.7098
  49   2.0000     -10.313707      -280.6502
  50   2.0000     -10.313606      -280.6475
  51   2.0000     -10.313340      -280.6403
  52   2.0000     -10.312750      -280.6242
  53   2.0000     -10.311687      -280.5953
  54   2.0000     -10.311311      -280.5850
  55   2.0000     -10.309491      -280.5355
  56   2.0000     -10.306716      -280.4600
  57   2.0000     -10.306322      -280.4493
  58   2.0000     -10.305584      -280.4292
  59   2.0000     -10.305382      -280.4237
  60   2.0000     -10.305317      -280.4219
  61   2.0000     -10.304984      -280.4129
  62   2.0000     -10.304656      -280.4039
  63   2.0000     -10.303848      -280.3820
  64   2.0000     -10.303677      -280.3773
  65   2.0000     -10.303216      -280.3648
  66   2.0000     -10.301637      -280.3218
  67   2.0000     -10.298146      -280.2268
  68   2.0000     -10.296713      -280.1878
  69   2.0000     -10.296065      -280.1702
  70   2.0000     -10.295933      -280.1666
  71   2.0000     -10.295560      -280.1564
  72   2.0000     -10.293297      -280.0948
  73   2.0000     -10.293062      -280.0885
  74   2.0000     -10.292574      -280.0752
  75   2.0000     -10.288832      -279.9734
  76   2.0000     -10.282674      -279.8058
  77   2.0000     -10.274982      -279.5965
  78   2.0000     -10.266718      -279.3716
  79   2.0000     -10.263088      -279.2728
  80   2.0000      -1.323127       -36.0041
  81   2.0000      -1.316197       -35.8155
  82   2.0000      -1.308245       -35.5991
  83   2.0000      -1.305629       -35.5280
  84   2.0000      -1.301373       -35.4122
  85   2.0000      -1.299442       -35.3596
  86   2.0000      -1.191277       -32.4163
  87   2.0000      -1.180579       -32.1252
  88   2.0000      -1.154983       -31.4287
  89   2.0000      -1.151871       -31.3440
  90   2.0000      -1.135052       -30.8863
  91   2.0000      -1.127710       -30.6866
  92   2.0000      -1.088533       -29.6205
  93   2.0000      -1.053255       -28.6605
  94   2.0000      -1.026853       -27.9421
  95   2.0000      -1.018597       -27.7174
  96   2.0000      -1.012314       -27.5465
  97   2.0000      -1.009623       -27.4732
  98   2.0000      -1.005885       -27.3715
  99   2.0000      -1.002875       -27.2896
 100   2.0000      -1.001911       -27.2634
 101   2.0000      -1.000552       -27.2264
 102   2.0000      -0.997164       -27.1342
 103   2.0000      -0.990007       -26.9394
 104   2.0000      -0.984999       -26.8032
 105   2.0000      -0.975753       -26.5516
 106   2.0000      -0.937568       -25.5125
 107   2.0000      -0.928477       -25.2652
 108   2.0000      -0.922896       -25.1133
 109   2.0000      -0.917837       -24.9756
 110   2.0000      -0.916778       -24.9468
 111   2.0000      -0.913978       -24.8706
 112   2.0000      -0.898667       -24.4540
 113   2.0000      -0.895288       -24.3620
 114   2.0000      -0.894011       -24.3273
 115   2.0000      -0.887749       -24.1569
 116   2.0000      -0.881382       -23.9836
 117   2.0000      -0.876003       -23.8373
 118   2.0000      -0.862393       -23.4669
 119   2.0000      -0.860489       -23.4151
 120   2.0000      -0.844029       -22.9672
 121   2.0000      -0.842882       -22.9360
 122   2.0000      -0.836701       -22.7678
 123   2.0000      -0.835638       -22.7389
 124   2.0000      -0.826245       -22.4833
 125   2.0000      -0.814463       -22.1627
 126   2.0000      -0.806801       -21.9542
 127   2.0000      -0.801083       -21.7986
 128   2.0000      -0.791666       -21.5423
 129   2.0000      -0.775804       -21.1107
 130   2.0000      -0.771940       -21.0055
 131   2.0000      -0.761137       -20.7116
 132   2.0000      -0.753013       -20.4905
 133   2.0000      -0.745474       -20.2854
 134   2.0000      -0.741002       -20.1637
 135   2.0000      -0.735682       -20.0189
 136   2.0000      -0.729911       -19.8619
 137   2.0000      -0.725522       -19.7424
 138   2.0000      -0.721098       -19.6221
 139   2.0000      -0.718768       -19.5587
 140   2.0000      -0.712026       -19.3752
 141   2.0000      -0.705514       -19.1980
 142   2.0000      -0.699195       -19.0261
 143   2.0000      -0.690631       -18.7930
 144   2.0000      -0.688914       -18.7463
 145   2.0000      -0.687060       -18.6959
 146   2.0000      -0.679070       -18.4784
 147   2.0000      -0.677220       -18.4281
 148   2.0000      -0.664324       -18.0772
 149   2.0000      -0.662330       -18.0229
 150   2.0000      -0.659125       -17.9357
 151   2.0000      -0.652832       -17.7645
 152   2.0000      -0.650013       -17.6878
 153   2.0000      -0.647669       -17.6240
 154   2.0000      -0.645580       -17.5671
 155   2.0000      -0.644848       -17.5472
 156   2.0000      -0.642660       -17.4877
 157   2.0000      -0.637720       -17.3532
 158   2.0000      -0.635606       -17.2957
 159   2.0000      -0.630117       -17.1464
 160   2.0000      -0.621391       -16.9089
 161   2.0000      -0.616740       -16.7823
 162   2.0000      -0.612035       -16.6543
 163   2.0000      -0.609913       -16.5966
 164   2.0000      -0.607998       -16.5445
 165   2.0000      -0.602768       -16.4021
 166   2.0000      -0.601469       -16.3668
 167   2.0000      -0.595270       -16.1981
 168   2.0000      -0.587738       -15.9932
 169   2.0000      -0.586995       -15.9729
 170   2.0000      -0.585901       -15.9432
 171   2.0000      -0.585100       -15.9214
 172   2.0000      -0.583739       -15.8843
 173   2.0000      -0.580832       -15.8052
 174   2.0000      -0.579048       -15.7567
 175   2.0000      -0.577392       -15.7116
 176   2.0000      -0.572289       -15.5728
 177   2.0000      -0.570252       -15.5174
 178   2.0000      -0.564202       -15.3527
 179   2.0000      -0.559508       -15.2250
 180   2.0000      -0.557589       -15.1728
 181   2.0000      -0.556574       -15.1452
 182   2.0000      -0.552546       -15.0356
 183   2.0000      -0.551884       -15.0175
 184   2.0000      -0.549299       -14.9472
 185   2.0000      -0.549248       -14.9458
 186   2.0000      -0.545775       -14.8513
 187   2.0000      -0.542571       -14.7641
 188   2.0000      -0.542407       -14.7596
 189   2.0000      -0.541479       -14.7344
 190   2.0000      -0.537428       -14.6242
 191   2.0000      -0.534916       -14.5558
 192   2.0000      -0.533160       -14.5080
 193   2.0000      -0.532161       -14.4808
 194   2.0000      -0.531489       -14.4626
 195   2.0000      -0.529536       -14.4094
 196   2.0000      -0.527336       -14.3495
 197   2.0000      -0.526221       -14.3192
 198   2.0000      -0.523238       -14.2380
 199   2.0000      -0.520170       -14.1546
 200   2.0000      -0.517241       -14.0748
 201   2.0000      -0.516965       -14.0673
 202   2.0000      -0.515614       -14.0306
 203   2.0000      -0.511950       -13.9309
 204   2.0000      -0.508249       -13.8301
 205   2.0000      -0.505204       -13.7473
 206   2.0000      -0.504287       -13.7223
 207   2.0000      -0.503317       -13.6960
 208   2.0000      -0.498811       -13.5733
 209   2.0000      -0.497465       -13.5367
 210   2.0000      -0.495802       -13.4915
 211   2.0000      -0.491312       -13.3693
 212   2.0000      -0.487965       -13.2782
 213   2.0000      -0.487278       -13.2595
 214   2.0000      -0.482959       -13.1420
 215   2.0000      -0.480972       -13.0879
 216   2.0000      -0.478771       -13.0280
 217   2.0000      -0.474223       -12.9043
 218   2.0000      -0.472160       -12.8481
 219   2.0000      -0.469536       -12.7767
 220   2.0000      -0.466463       -12.6931
 221   2.0000      -0.463010       -12.5991
 222   2.0000      -0.460785       -12.5386
 223   2.0000      -0.459177       -12.4948
 224   2.0000      -0.457582       -12.4514
 225   2.0000      -0.452843       -12.3225
 226   2.0000      -0.452491       -12.3129
 227   2.0000      -0.451322       -12.2811
 228   2.0000      -0.450263       -12.2523
 229   2.0000      -0.448606       -12.2072
 230   2.0000      -0.445947       -12.1348
 231   2.0000      -0.442503       -12.0411
 232   2.0000      -0.440425       -11.9846
 233   2.0000      -0.438592       -11.9347
 234   2.0000      -0.438225       -11.9247
 235   2.0000      -0.437722       -11.9110
 236   2.0000      -0.433041       -11.7836
 237   2.0000      -0.431163       -11.7325
 238   2.0000      -0.428139       -11.6503
 239   2.0000      -0.425231       -11.5711
 240   2.0000      -0.423650       -11.5281
 241   2.0000      -0.422947       -11.5090
 242   2.0000      -0.419716       -11.4211
 243   2.0000      -0.417420       -11.3586
 244   2.0000      -0.416823       -11.3423
 245   2.0000      -0.412257       -11.2181
 246   2.0000      -0.411380       -11.1942
 247   2.0000      -0.405136       -11.0243
 248   2.0000      -0.403623       -10.9831
 249   2.0000      -0.401769       -10.9327
 250   2.0000      -0.394770       -10.7422
 251   2.0000      -0.394212       -10.7271
 252   2.0000      -0.388272       -10.5654
 253   2.0000      -0.385231       -10.4827
 254   2.0000      -0.383961       -10.4481
 255   2.0000      -0.381512       -10.3815
 256   2.0000      -0.377424       -10.2702
 257   2.0000      -0.372916       -10.1476
 258   2.0000      -0.354578        -9.6486
 259   2.0000      -0.345845        -9.4109
 260   2.0000      -0.344185        -9.3658
 261   2.0000      -0.340755        -9.2724
 262   2.0000      -0.331205        -9.0125
 263   2.0000      -0.323014        -8.7897
 264   2.0000      -0.319986        -8.7073
 265   2.0000      -0.312808        -8.5119
 266   2.0000      -0.310875        -8.4593
 267   2.0000      -0.307037        -8.3549
 268   2.0000      -0.300380        -8.1737
 269   2.0000      -0.293684        -7.9916
 270   2.0000      -0.286548        -7.7974
 271   2.0000      -0.276585        -7.5263
 272   2.0000      -0.222328        -6.0498
 273   0.0000      -0.104137        -2.8337
 274   0.0000      -0.094488        -2.5711
 275   0.0000      -0.065997        -1.7959
 276   0.0000      -0.058359        -1.5880
 277   0.0000      -0.052807        -1.4369

MULLIKEN ATOMIC CHARGES
-----------------------
   0 C :   -0.110147
   1 C :    0.244064
   2 F :   -0.170241
   3 C :    0.240797
   4 F :   -0.170676
   5 C :   -0.108359
   6 C :    0.120435
   7 C :    0.116400
   8 C :   -0.090283
   9 C :    0.056132
  10 C :    0.001642
  11 C :   -0.084001
  12 C :    0.150149
  13 O :   -0.141654
  14 C :   -0.067182
  15 C :    0.315374
  16 C :   -0.353182
  17 C :   -0.182944
  18 N :    0.143864
  19 C :   -0.181442
  20 N :    0.152416
  21 C :   -0.098695
  22 C :    0.013371
  23 C :    0.132010
  24 O :   -0.314396
  25 C :    0.166638
  26 C :    0.074221
  27 O :   -0.322587
  28 C :    0.211614
  29 C :    0.156128
  30 C :   -0.022300
  31 C :   -0.038696
  32 N :    0.038857
  33 O :   -0.101574
  34 N :   -0.005353
  35 C :   -0.055216
  36 N :   -0.034021
  37 C :    0.129849
  38 C :   -0.157672
  39 C :    0.084117
  40 N :   -0.031952
  41 C :    0.129879
  42 C :   -0.153474
  43 C :    0.063887
  44 C :   -0.083584
  45 C :    0.016360
  46 C :    0.138489
  47 O :   -0.322474
  48 C :    0.196076
  49 C :    0.147764
  50 O :   -0.325458
  51 C :    0.174652
  52 C :   -0.014470
  53 C :   -0.031622
  54 C :   -0.014512
  55 N :    0.038664
  56 O :   -0.098846
  57 N :    0.031834
  58 C :   -0.083634
  59 C :   -0.109895
  60 C :    0.134173
  61 O :   -0.144548
  62 C :    0.015510
  63 C :   -0.089155
  64 C :    0.114590
  65 C :    0.112871
  66 C :   -0.108400
  67 C :    0.242257
  68 C :    0.238178
  69 C :   -0.106040
  70 F :   -0.173907
  71 F :   -0.172961
  72 C :   -0.082329
  73 C :    0.033603
  74 C :    0.336728
  75 C :   -0.329449
  76 C :   -0.177573
  77 N :    0.127707
  78 C :   -0.183796
  79 N :    0.151304
  80 H :    0.008168
  81 H :    0.001059
  82 H :   -0.005180
  83 H :   -0.008874
  84 H :    0.034003
  85 H :    0.039939
  86 H :    0.052540
  87 H :    0.055913
  88 H :    0.019762
  89 H :    0.032414
  90 H :    0.027821
  91 H :    0.130018
  92 H :   -0.024922
  93 H :    0.125599
  94 H :   -0.040840
  95 H :    0.010788
  96 H :   -0.040801
  97 H :    0.025843
  98 H :    0.022769
  99 H :    0.037044
 100 H :    0.032682
 101 H :    0.061212
 102 H :    0.041971
 103 H :    0.025935
 104 H :   -0.011077
 105 H :    0.006004
 106 H :   -0.001227
 107 H :   -0.002466
Sum of atomic charges:   -0.0000000

LOEWDIN ATOMIC CHARGES
----------------------
   0 C :   -0.028845
   1 C :    0.067134
   2 F :   -0.048417
   3 C :    0.068943
   4 F :   -0.048692
   5 C :   -0.032863
   6 C :   -0.006985
   7 C :   -0.006361
   8 C :    0.018993
   9 C :   -0.022820
  10 C :   -0.048436
  11 C :    0.031344
  12 C :    0.084239
  13 O :   -0.137444
  14 C :   -0.084007
  15 C :    0.079701
  16 C :   -0.139124
  17 C :   -0.015062
  18 N :   -0.057650
  19 C :   -0.018185
  20 N :   -0.050029
  21 C :    0.070214
  22 C :   -0.101771
  23 C :    0.075882
  24 O :   -0.073765
  25 C :    0.085116
  26 C :    0.040494
  27 O :   -0.095663
  28 C :    0.082739
  29 C :   -0.038539
  30 C :   -0.039341
  31 C :   -0.035189
  32 N :   -0.027706
  33 O :    0.067496
  34 N :   -0.042559
  35 C :    0.006174
  36 N :    0.075055
  37 C :   -0.013799
  38 C :   -0.071552
  39 C :    0.000450
  40 N :    0.068303
  41 C :   -0.013676
  42 C :   -0.082337
  43 C :    0.007744
  44 C :   -0.053404
  45 C :   -0.022181
  46 C :    0.040285
  47 O :   -0.100270
  48 C :    0.080148
  49 C :    0.082872
  50 O :   -0.090235
  51 C :    0.086586
  52 C :   -0.100026
  53 C :   -0.046356
  54 C :   -0.044122
  55 N :   -0.020743
  56 O :    0.065344
  57 N :   -0.033021
  58 C :    0.065079
  59 C :   -0.090962
  60 C :    0.084415
  61 O :   -0.147098
  62 C :   -0.053313
  63 C :    0.028777
  64 C :   -0.010075
  65 C :   -0.005288
  66 C :   -0.029938
  67 C :    0.066418
  68 C :    0.065835
  69 C :   -0.033726
  70 F :   -0.051454
  71 F :   -0.050370
  72 C :    0.015781
  73 C :   -0.014697
  74 C :    0.078886
  75 C :   -0.138676
  76 C :   -0.008119
  77 N :   -0.071345
  78 C :   -0.017658
  79 N :   -0.054863
  80 H :    0.047914
  81 H :    0.045341
  82 H :    0.040056
  83 H :    0.040911
  84 H :    0.041013
  85 H :    0.032204
  86 H :    0.026571
  87 H :    0.027814
  88 H :    0.017214
  89 H :    0.016631
  90 H :    0.020303
  91 H :    0.073578
  92 H :    0.029658
  93 H :    0.087830
  94 H :    0.023502
  95 H :    0.038127
  96 H :    0.019791
  97 H :    0.021711
  98 H :    0.017496
  99 H :    0.017155
 100 H :    0.023844
 101 H :    0.029002
 102 H :    0.024141
 103 H :    0.044792
 104 H :    0.039638
 105 H :    0.047331
 106 H :    0.044213
 107 H :    0.040529

  Mayer bond orders larger than 0.100000
B(  0-C ,  1-C ) :   1.4423 B(  0-C ,  5-C ) :   0.1088 B(  0-C ,  7-C ) :   1.1874
B(  0-C , 80-H ) :   1.0066 B(  1-C ,  2-F ) :   1.1359 B(  1-C ,  3-C ) :   1.1895
B(  3-C ,  4-F ) :   1.1349 B(  3-C ,  5-C ) :   1.4435 B(  5-C ,  6-C ) :   1.1909
B(  5-C , 81-H ) :   1.0071 B(  6-C ,  7-C ) :   1.2541 B(  6-C , 11-C ) :   1.1893
B(  7-C ,  8-C ) :   1.2212 B(  8-C ,  9-C ) :   1.4416 B(  8-C , 82-H ) :   0.9891
B(  9-C , 10-C ) :   1.2205 B(  9-C , 15-C ) :   0.9948 B( 10-C , 11-C ) :   1.4737
B( 10-C , 12-C ) :   0.9422 B( 11-C , 83-H ) :   1.0169 B( 12-C , 13-O ) :   2.2374
B( 12-C , 14-C ) :   0.9218 B( 14-C , 15-C ) :   1.0584 B( 14-C , 21-C ) :   1.6865
B( 15-C , 16-C ) :   1.6375 B( 16-C , 17-C ) :   1.1526 B( 16-C , 19-C ) :   1.1420
B( 17-C , 18-N ) :   2.9570 B( 19-C , 20-N ) :   2.9640 B( 21-C , 22-C ) :   1.0400
B( 21-C , 84-H ) :   0.9265 B( 22-C , 23-C ) :   1.3585 B( 22-C , 29-C ) :   0.1028
B( 22-C , 31-C ) :   1.1484 B( 23-C , 24-O ) :   1.2098 B( 23-C , 26-C ) :   1.1146
B( 24-O , 25-C ) :   0.9244 B( 25-C , 85-H ) :   0.9702 B( 25-C , 86-H ) :   0.9559
B( 25-C , 87-H ) :   0.9725 B( 26-C , 27-O ) :   1.2033 B( 26-C , 29-C ) :   1.4857
B( 27-O , 28-C ) :   0.9208 B( 28-C , 88-H ) :   0.9732 B( 28-C , 89-H ) :   0.9760
B( 28-C , 90-H ) :   0.9759 B( 29-C , 30-C ) :   1.1019 B( 29-C , 35-C ) :   1.0718
B( 30-C , 31-C ) :   1.1537 B( 30-C , 34-N ) :   1.5674 B( 31-C , 32-N ) :   1.6160
B( 32-N , 33-O ) :   1.0585 B( 32-N , 34-N ) :   0.1699 B( 33-O , 34-N ) :   1.0584
B( 35-C , 36-N ) :   1.2523 B( 35-C , 42-C ) :   1.3706 B( 36-N , 37-C ) :   1.1768
B( 36-N , 91-H ) :   0.8914 B( 37-C , 38-C ) :   1.2520 B( 37-C , 41-C ) :   1.2825
B( 38-C , 39-C ) :   1.3347 B( 38-C , 92-H ) :   1.0456 B( 39-C , 40-N ) :   1.1926
B( 39-C , 43-C ) :   1.1659 B( 40-N , 41-C ) :   1.1670 B( 40-N , 93-H ) :   0.9307
B( 41-C , 42-C ) :   1.2298 B( 42-C , 94-H ) :   1.0398 B( 43-C , 44-C ) :   1.5375
B( 43-C , 95-H ) :   0.9458 B( 44-C , 45-C ) :   1.2263 B( 44-C , 96-H ) :   0.9568
B( 45-C , 46-C ) :   1.3993 B( 45-C , 52-C ) :   0.1126 B( 45-C , 54-C ) :   1.0999
B( 46-C , 47-O ) :   1.1937 B( 46-C , 49-C ) :   1.1604 B( 47-O , 48-C ) :   0.9278
B( 48-C , 97-H ) :   0.9766 B( 48-C , 98-H ) :   0.9740 B( 48-C , 99-H ) :   0.9745
B( 49-C , 50-O ) :   1.2062 B( 49-C , 52-C ) :   1.3340 B( 50-O , 51-C ) :   0.9080
B( 51-C ,100-H ) :   0.9706 B( 51-C ,101-H ) :   0.9566 B( 51-C ,102-H ) :   0.9790
B( 52-C , 53-C ) :   1.1385 B( 52-C , 58-C ) :   1.0669 B( 53-C , 54-C ) :   1.1477
B( 53-C , 57-N ) :   1.6096 B( 54-C , 55-N ) :   1.6070 B( 55-N , 56-O ) :   1.0558
B( 55-N , 57-N ) :   0.1684 B( 56-O , 57-N ) :   1.0446 B( 58-C , 59-C ) :   1.6387
B( 58-C ,103-H ) :   0.9452 B( 59-C , 60-C ) :   0.9424 B( 59-C , 74-C ) :   1.0506
B( 60-C , 61-O ) :   2.2716 B( 60-C , 62-C ) :   0.9144 B( 62-C , 63-C ) :   1.4707
B( 62-C , 73-C ) :   1.2195 B( 63-C , 64-C ) :   1.1935 B( 63-C ,104-H ) :   1.0166
B( 64-C , 65-C ) :   1.2576 B( 64-C , 69-C ) :   1.1922 B( 65-C , 66-C ) :   1.1914
B( 65-C , 72-C ) :   1.2099 B( 66-C , 67-C ) :   1.4397 B( 66-C , 69-C ) :   0.1089
B( 66-C ,105-H ) :   1.0072 B( 67-C , 68-C ) :   1.1920 B( 67-C , 71-F ) :   1.1330
B( 68-C , 69-C ) :   1.4430 B( 68-C , 70-F ) :   1.1316 B( 69-C ,106-H ) :   1.0068
B( 72-C , 73-C ) :   1.4610 B( 72-C ,107-H ) :   0.9935 B( 73-C , 74-C ) :   1.0044
B( 74-C , 75-C ) :   1.6299 B( 75-C , 76-C ) :   1.1788 B( 75-C , 78-C ) :   1.1414
B( 76-C , 77-N ) :   2.9420 B( 78-C , 79-N ) :   2.9816

-----------------------------------------------------------------------------
         ABSORPTION SPECTRUM VIA TRANSITION ELECTRIC DIPOLE MOMENTS
-----------------------------------------------------------------------------
State   Energy  Wavelength   fosc         T2         TX        TY        TZ
        (cm-1)    (nm)                  (au**2)     (au)      (au)      (au)
-----------------------------------------------------------------------------
   0   12022.4    831.8   1.800122151  49.29293   0.66292  -6.97692   0.41953
   1   15583.1    641.7   0.021997661   0.46473   0.20883   0.19535  -0.61883
   2   21055.8    474.9   0.111475962   1.74295   0.33265   1.26478  -0.18063
   3   22958.6    435.6   0.063579888   0.91169  -0.75463  -0.43597   0.39008
   4   23154.0    431.9   0.021234142   0.30191   0.03627   0.03626  -0.54707
   5   23950.5    417.5   0.022910036   0.31491  -0.32150   0.07839   0.45321
   6   25198.2    396.9   0.097696367   1.27639   0.48091  -1.02201   0.02488
   7   25773.2    388.0   0.040898818   0.52242  -0.47547   0.21587  -0.49974
   8   26058.5    383.8   0.009284976   0.11730   0.03413   0.29735   0.16650
   9   26318.6    380.0   0.165014290   2.06412  -0.05241  -1.28987  -0.63055
  10   27579.7    362.6   0.049202775   0.58732  -0.70221   0.02539  -0.30590
  11   28464.0    351.3   0.004079022   0.04718   0.16083  -0.12524  -0.07500
  12   28655.5    349.0   0.151124271   1.73621   0.55140  -0.57363  -1.05029
  13   28858.8    346.5   0.148253041   1.69122   0.78233  -0.68805   0.77831
  14   28921.5    345.8   0.128854805   1.46675   0.15895   0.10867  -1.19569
  15   29268.2    341.7   0.053878627   0.60603   0.70083  -0.32866   0.08283
  16   29547.1    338.4   0.050618371   0.56399   0.54115   0.52049  -0.01539
  17   29903.6    334.4   0.012234607   0.13469  -0.05374   0.31865   0.17397
  18   31444.3    318.0   0.442735536   4.63530   0.01283  -2.11457   0.40465
  19   31868.8    313.8   0.138171744   1.42734  -0.93171  -0.28242  -0.69246
  20   32530.1    307.4   0.006763385   0.06845  -0.23579   0.11200   0.01750
  21   32661.8    306.2   0.015402344   0.15525   0.30005   0.13278   0.21814
  22   33376.5    299.6   0.095228497   0.93929  -0.47979  -0.65060  -0.53461
  23   33417.7    299.2   0.193517338   1.90642   0.53428   0.99973   0.78836
  24   33527.1    298.3   0.097916422   0.96147  -0.93054   0.12915  -0.28085
  25   33919.3    294.8   0.155035167   1.50473   0.98676  -0.45145   0.57204
  26   34424.4    290.5   0.029335348   0.28054  -0.21141   0.13371   0.46688
  27   34588.0    289.1   0.354479952   3.37397   0.50184   1.54564   0.85622
  28   34943.1    286.2   0.152346621   1.43531  -0.24140   0.53527   1.04428
  29   35115.6    284.8   0.331435994   3.10724   1.35901   0.48051   1.01462
  30   35440.3    282.2   0.078530663   0.72949  -0.78505   0.09008  -0.32414
  31   35666.1    280.4   0.046031632   0.42489   0.00985   0.53912  -0.36625
  32   35930.2    278.3   0.218964368   2.00627  -0.33506  -0.58230  -1.24697
  33   36250.9    275.9   0.010555902   0.09586   0.02942  -0.15750   0.26494
  34   36863.2    271.3   0.140087995   1.25107  -0.35187   0.85513   0.62930
  35   37198.6    268.8   0.036801803   0.32570  -0.29789   0.32345  -0.36379
  36   37419.5    267.2   0.060733281   0.53432  -0.65963  -0.30675   0.07152
  37   37704.9    265.2   0.036733293   0.32073   0.42617  -0.20037   0.31459
  38   37765.4    264.8   0.001764109   0.01538  -0.11925   0.03397   0.00188
  39   38032.8    262.9   0.156300578   1.35294   0.97738  -0.03836   0.62943
  40   38413.0    260.3   0.003494587   0.02995   0.01338  -0.06512  -0.15978
  41   38568.4    259.3   0.003044814   0.02599  -0.07135  -0.14455  -0.00213
  42   38845.6    257.4   0.130934522   1.10965  -0.86061  -0.56065   0.23382
  43   39139.3    255.5   0.076645305   0.64469   0.20523  -0.72842  -0.26827
  44   39235.3    254.9   0.007288779   0.06116  -0.12376   0.21109  -0.03583
  45   39500.7    253.2   0.141893227   1.18259  -0.12703  -0.75913   0.76823
  46   39711.5    251.8   0.151157707   1.25311  -0.55409  -0.96950   0.07854
  47   39903.2    250.6   0.045190089   0.37283  -0.24892  -0.30666  -0.46565

FINAL SINGLE POINT ENERGY     -3770.798234158135

DIPOLE MOMENT
-------------
                                X             Y             Z
Electronic contribution:     -0.15276       0.92705     -62.03042
Nuclear contribution   :     -2.31453      -0.78296      65.16453
                        -----------------------------------------
Total Dipole Moment    :     -2.46729       0.14409       3.13411
                        -----------------------------------------
Magnitude (a.u.)       :      3.99136
Magnitude (Debye)      :     10.14523

Rotational constants in cm-1:     0.001623     0.000167     0.000161
Rotational constants in MHz :    48.657133     5.016809     4.819769

                             ****ORCA TERMINATED NORMALLY****
TOTAL RUN TIME: 0 days 0 hours 12 minutes 7 seconds 402 msec
