                         Program Version 4.2.0 -  RELEASE  -
|  1> # ORCA input file
|  2> # SCF done       -170.823663402602          0.000341419890
|  3> ! CAM-B3LYP def2-SVP def2/J RIJCOSX Grid4 TightSCF
|  4> %maxcore 5000
|  5> %tddft
|  6>     Mode sTDDFT
|  7>     Ethresh 5.0
|  8>     maxcore 5000
|  9> end
| 10>
| 11> %pal
| 12>   nprocs 6
| 13>   end
| 14> * xyz 0 1
| 15>    C       10.87922        -7.71370         4.69201
| 16>    C       10.54177        -6.58014         3.88827
| 17>    C        9.76886        -5.44072         4.16215
| 18>    O        9.10993        -5.11447         5.30470
| 19>    C        9.54864        -5.59210         6.56224
| 20>    C        9.03795        -4.62304         7.61893
| 21>    C        9.64194        -4.51204         3.13703
| 22>    C       10.21497        -4.63583         1.85382
| 23>    C       10.95850        -5.79098         1.56434
| 24>    C       11.10943        -6.70667         2.59240
| 25>    S       12.03747        -8.16961         2.42385
| 26>    C       11.65390        -8.61179         4.05029
| 27>    O       11.58996        -6.03168         0.37698
| 28>    C       10.79695        -5.99601        -0.80562
| 29>    C       11.52948        -5.24888        -1.90952
| 30>    C       10.00542        -3.47089         1.07838
| 31>    C        9.31263        -2.48514         1.72877
| 32>    S        8.82775        -2.98747         3.33950
| 33>    C        9.05199        -1.19158         1.20245
| 34>    S        9.50747        -0.86713        -0.43870
| 35>    C        9.09293         0.80234        -0.33261
| 36>    C        8.56003         1.09706         0.92352
| 37>    C        8.53953        -0.03686         1.80312
| 38>    C        8.05003         0.11931         3.11782
| 39>    C        7.58477         1.33798         3.51131
| 40>    F        7.11666         1.49711         4.76121
| 41>    C        7.55267         2.43989         2.62422
| 42>    F        7.02202         3.59924         3.04772
| 43>    C        8.02531         2.33047         1.35211
| 44>    C        9.38463         1.65975        -1.43296
| 45>    C        9.80834         2.93372        -1.31611
| 46>    C       10.13133         3.72700        -2.46372
| 47>    C       10.87301         4.84545        -2.47688
| 48>    C       11.51464         5.46123        -1.27586
| 49>    C       11.09027         5.57847        -3.77471
| 50>    N       12.48550         5.68855        -4.17227
| 51>    C       13.28495         4.62763        -4.46372
| 52>    C       13.19136         3.36401        -3.97252
| 53>    C       14.06501         2.34046        -4.38770
| 54>    C       14.14073         1.08240        -3.85151
| 55>    C       14.95911         0.02663        -4.32318
| 56>    C       14.89993        -1.10740        -3.57576
| 57>    C       14.05790        -1.00665        -2.44234
| 58>    S       13.27013         0.55622        -2.40780
| 59>    C       13.92434        -1.94990        -1.44020
| 60>    C       14.50418        -3.23795        -1.40744
| 61>    C       14.29837        -3.90870        -0.24224
| 62>    C       13.56123        -3.18196         0.72799
| 63>    S       13.07020        -1.63369         0.06174
| 64>    C       13.32845        -3.63266         2.00206
| 65>    C       12.70701        -2.96233         3.07037
| 66>    S       12.57165        -3.77157         4.62763
| 67>    C       11.79287        -2.44434         5.40312
| 68>    C       11.64088        -1.40510         4.51871
| 69>    C       12.15560        -1.70149         3.21494
| 70>    O       12.00216        -0.63856         2.39323
| 71>    C       11.40448         0.32138         3.14666
| 72>    N       11.14316         1.56020         2.54184
| 73>    O       10.56693         2.39390         3.22465
| 74>    O       11.49521         1.73547         1.38994
| 75>    C       11.15179        -0.07450         4.43578
| 76>    H       10.55161        -7.86262         5.70330
| 77>    H       10.64429        -5.64327         6.58366
| 78>    H        9.13349        -6.59183         6.74862
| 79>    H        9.43030        -3.62720         7.43320
| 80>    H        9.34729        -4.95407         8.60599
| 81>    H        7.95344        -4.57474         7.58028
| 82>    H       12.03524        -9.53644         4.43695
| 83>    H        9.82628        -5.53312        -0.60212
| 84>    H       10.62307        -7.03636        -1.11502
| 85>    H       11.67313        -4.20515        -1.64301
| 86>    H       10.95506        -5.30242        -2.83030
| 87>    H       12.50579        -5.69705        -2.07017
| 88>    H       10.40596        -3.32810         0.09155
| 89>    H        8.03338        -0.70465         3.81085
| 90>    H        7.97838         3.17327         0.68349
| 91>    H        9.35305         1.19878        -2.41289
| 92>    H        9.97213         3.35239        -0.33679
| 93>    H        9.76120         3.34406        -3.40833
| 94>    H       11.68384         4.72705        -0.49489
| 95>    H       10.88327         6.25567        -0.87487
| 96>    H       12.47031         5.90104        -1.55470
| 97>    H       10.71709         6.60175        -3.66250
| 98>    H       10.51184         5.08688        -4.57005
| 99>    H       12.70323         6.53643        -4.67199
|100>    H       14.11373         4.86714        -5.12059
|101>    H       12.43977         3.11083        -3.24277
|102>    H       14.73677         2.55494        -5.21066
|103>    H       15.56826         0.14412        -5.20268
|104>    H       15.46255        -1.99878        -3.78681
|105>    H       15.05551        -3.63550        -2.24063
|106>    H       14.66060        -4.89892        -0.03198
|107>    H       13.68836        -4.62765         2.22701
|108>    H       11.51735        -2.50808         6.43395
|109>    H       10.68824         0.51812         5.19651
|110> *
|111>
|112>                          ****END OF INPUT****

CARTESIAN COORDINATES (ANGSTROEM)
---------------------------------
  C     10.879220   -7.713700    4.692010
  C     10.541770   -6.580140    3.888270
  C      9.768860   -5.440720    4.162150
  O      9.109930   -5.114470    5.304700
  C      9.548640   -5.592100    6.562240
  C      9.037950   -4.623040    7.618930
  C      9.641940   -4.512040    3.137030
  C     10.214970   -4.635830    1.853820
  C     10.958500   -5.790980    1.564340
  C     11.109430   -6.706670    2.592400
  S     12.037470   -8.169610    2.423850
  C     11.653900   -8.611790    4.050290
  O     11.589960   -6.031680    0.376980
  C     10.796950   -5.996010   -0.805620
  C     11.529480   -5.248880   -1.909520
  C     10.005420   -3.470890    1.078380
  C      9.312630   -2.485140    1.728770
  S      8.827750   -2.987470    3.339500
  C      9.051990   -1.191580    1.202450
  S      9.507470   -0.867130   -0.438700
  C      9.092930    0.802340   -0.332610
  C      8.560030    1.097060    0.923520
  C      8.539530   -0.036860    1.803120
  C      8.050030    0.119310    3.117820
  C      7.584770    1.337980    3.511310
  F      7.116660    1.497110    4.761210
  C      7.552670    2.439890    2.624220
  F      7.022020    3.599240    3.047720
  C      8.025310    2.330470    1.352110
  C      9.384630    1.659750   -1.432960
  C      9.808340    2.933720   -1.316110
  C     10.131330    3.727000   -2.463720
  C     10.873010    4.845450   -2.476880
  C     11.514640    5.461230   -1.275860
  C     11.090270    5.578470   -3.774710
  N     12.485500    5.688550   -4.172270
  C     13.284950    4.627630   -4.463720
  C     13.191360    3.364010   -3.972520
  C     14.065010    2.340460   -4.387700
  C     14.140730    1.082400   -3.851510
  C     14.959110    0.026630   -4.323180
  C     14.899930   -1.107400   -3.575760
  C     14.057900   -1.006650   -2.442340
  S     13.270130    0.556220   -2.407800
  C     13.924340   -1.949900   -1.440200
  C     14.504180   -3.237950   -1.407440
  C     14.298370   -3.908700   -0.242240
  C     13.561230   -3.181960    0.727990
  S     13.070200   -1.633690    0.061740
  C     13.328450   -3.632660    2.002060
  C     12.707010   -2.962330    3.070370
  S     12.571650   -3.771570    4.627630
  C     11.792870   -2.444340    5.403120
  C     11.640880   -1.405100    4.518710
  C     12.155600   -1.701490    3.214940
  O     12.002160   -0.638560    2.393230
  C     11.404480    0.321380    3.146660
  N     11.143160    1.560200    2.541840
  O     10.566930    2.393900    3.224650
  O     11.495210    1.735470    1.389940
  C     11.151790   -0.074500    4.435780
  H     10.551610   -7.862620    5.703300
  H     10.644290   -5.643270    6.583660
  H      9.133490   -6.591830    6.748620
  H      9.430300   -3.627200    7.433200
  H      9.347290   -4.954070    8.605990
  H      7.953440   -4.574740    7.580280
  H     12.035240   -9.536440    4.436950
  H      9.826280   -5.533120   -0.602120
  H     10.623070   -7.036360   -1.115020
  H     11.673130   -4.205150   -1.643010
  H     10.955060   -5.302420   -2.830300
  H     12.505790   -5.697050   -2.070170
  H     10.405960   -3.328100    0.091550
  H      8.033380   -0.704650    3.810850
  H      7.978380    3.173270    0.683490
  H      9.353050    1.198780   -2.412890
  H      9.972130    3.352390   -0.336790
  H      9.761200    3.344060   -3.408330
  H     11.683840    4.727050   -0.494890
  H     10.883270    6.255670   -0.874870
  H     12.470310    5.901040   -1.554700
  H     10.717090    6.601750   -3.662500
  H     10.511840    5.086880   -4.570050
  H     12.703230    6.536430   -4.671990
  H     14.113730    4.867140   -5.120590
  H     12.439770    3.110830   -3.242770
  H     14.736770    2.554940   -5.210660
  H     15.568260    0.144120   -5.202680
  H     15.462550   -1.998780   -3.786810
  H     15.055510   -3.635500   -2.240630
  H     14.660600   -4.898920   -0.031980
  H     13.688360   -4.627650    2.227010
  H     11.517350   -2.508080    6.433950
  H     10.688240    0.518120    5.196510

 Total Charge           Charge          ....    0
 Multiplicity           Mult            ....    1
 Number of Electrons    NEL             ....  478
 Basis Dimension        Dim             .... 1048

ORBITAL ENERGIES
----------------

  NO   OCC          E(Eh)            E(eV)
   0   2.0000     -88.957425     -2420.6546
   1   2.0000     -88.952902     -2420.5315
   2   2.0000     -88.938386     -2420.1365
   3   2.0000     -88.935815     -2420.0666
   4   2.0000     -88.924230     -2419.7513
   5   2.0000     -88.922382     -2419.7010
   6   2.0000     -24.771111      -674.0562
   7   2.0000     -24.767133      -673.9479
   8   2.0000     -19.291041      -524.9359
   9   2.0000     -19.238983      -523.5193
  10   2.0000     -19.236185      -523.4432
  11   2.0000     -19.233608      -523.3731
  12   2.0000     -19.226707      -523.1853
  13   2.0000     -14.644675      -398.5019
  14   2.0000     -14.432135      -392.7184
  15   2.0000     -10.372767      -282.2574
  16   2.0000     -10.350380      -281.6482
  17   2.0000     -10.346418      -281.5403
  18   2.0000     -10.327244      -281.0186
  19   2.0000     -10.325968      -280.9839
  20   2.0000     -10.323517      -280.9172
  21   2.0000     -10.317524      -280.7541
  22   2.0000     -10.310398      -280.5602
  23   2.0000     -10.309885      -280.5462
  24   2.0000     -10.307061      -280.4694
  25   2.0000     -10.300473      -280.2901
  26   2.0000     -10.298431      -280.2346
  27   2.0000     -10.297431      -280.2073
  28   2.0000     -10.295010      -280.1415
  29   2.0000     -10.292897      -280.0840
  30   2.0000     -10.292778      -280.0807
  31   2.0000     -10.291272      -280.0398
  32   2.0000     -10.289297      -279.9860
  33   2.0000     -10.284538      -279.8565
  34   2.0000     -10.284409      -279.8530
  35   2.0000     -10.281784      -279.7816
  36   2.0000     -10.281003      -279.7603
  37   2.0000     -10.280748      -279.7534
  38   2.0000     -10.279811      -279.7279
  39   2.0000     -10.278747      -279.6989
  40   2.0000     -10.274057      -279.5713
  41   2.0000     -10.273903      -279.5671
  42   2.0000     -10.271370      -279.4982
  43   2.0000     -10.270463      -279.4735
  44   2.0000     -10.270159      -279.4652
  45   2.0000     -10.269556      -279.4488
  46   2.0000     -10.269112      -279.4367
  47   2.0000     -10.268825      -279.4289
  48   2.0000     -10.267987      -279.4061
  49   2.0000     -10.266285      -279.3598
  50   2.0000     -10.266155      -279.3563
  51   2.0000     -10.264285      -279.3054
  52   2.0000     -10.263672      -279.2887
  53   2.0000     -10.262327      -279.2521
  54   2.0000     -10.261002      -279.2161
  55   2.0000     -10.259556      -279.1767
  56   2.0000     -10.259370      -279.1717
  57   2.0000     -10.258651      -279.1521
  58   2.0000     -10.253140      -279.0021
  59   2.0000     -10.248166      -278.8668
  60   2.0000     -10.246203      -278.8134
  61   2.0000      -8.051135      -219.0825
  62   2.0000      -8.047756      -218.9906
  63   2.0000      -8.032496      -218.5753
  64   2.0000      -8.031442      -218.5466
  65   2.0000      -8.020074      -218.2373
  66   2.0000      -8.017792      -218.1752
  67   2.0000      -6.020582      -163.8284
  68   2.0000      -6.016743      -163.7239
  69   2.0000      -6.016230      -163.7099
  70   2.0000      -6.013494      -163.6355
  71   2.0000      -6.012600      -163.6112
  72   2.0000      -6.010601      -163.5568
  73   2.0000      -6.002298      -163.3308
  74   2.0000      -6.001130      -163.2990
  75   2.0000      -5.998134      -163.2175
  76   2.0000      -5.996874      -163.1832
  77   2.0000      -5.993779      -163.0990
  78   2.0000      -5.992872      -163.0743
  79   2.0000      -5.989852      -162.9922
  80   2.0000      -5.987537      -162.9292
  81   2.0000      -5.985867      -162.8837
  82   2.0000      -5.983492      -162.8191
  83   2.0000      -5.980934      -162.7495
  84   2.0000      -5.978650      -162.6873
  85   2.0000      -1.314872       -35.7795
  86   2.0000      -1.290836       -35.1254
  87   2.0000      -1.275626       -34.7116
  88   2.0000      -1.211891       -32.9772
  89   2.0000      -1.143578       -31.1184
  90   2.0000      -1.129763       -30.7424
  91   2.0000      -1.129344       -30.7310
  92   2.0000      -1.027821       -27.9684
  93   2.0000      -0.992754       -27.0142
  94   2.0000      -0.980543       -26.6819
  95   2.0000      -0.976170       -26.5629
  96   2.0000      -0.970914       -26.4199
  97   2.0000      -0.959715       -26.1152
  98   2.0000      -0.950388       -25.8614
  99   2.0000      -0.926132       -25.2013
 100   2.0000      -0.922196       -25.0942
 101   2.0000      -0.910260       -24.7694
 102   2.0000      -0.896400       -24.3923
 103   2.0000      -0.885870       -24.1057
 104   2.0000      -0.879965       -23.9451
 105   2.0000      -0.872566       -23.7437
 106   2.0000      -0.870623       -23.6908
 107   2.0000      -0.857857       -23.3435
 108   2.0000      -0.845428       -23.0053
 109   2.0000      -0.840383       -22.8680
 110   2.0000      -0.831439       -22.6246
 111   2.0000      -0.826885       -22.5007
 112   2.0000      -0.821037       -22.3416
 113   2.0000      -0.819000       -22.2861
 114   2.0000      -0.813710       -22.1422
 115   2.0000      -0.809916       -22.0389
 116   2.0000      -0.803853       -21.8740
 117   2.0000      -0.797650       -21.7052
 118   2.0000      -0.783386       -21.3170
 119   2.0000      -0.779463       -21.2103
 120   2.0000      -0.771133       -20.9836
 121   2.0000      -0.760901       -20.7052
 122   2.0000      -0.752922       -20.4881
 123   2.0000      -0.743309       -20.2265
 124   2.0000      -0.722186       -19.6517
 125   2.0000      -0.717769       -19.5315
 126   2.0000      -0.709412       -19.3041
 127   2.0000      -0.697026       -18.9670
 128   2.0000      -0.693673       -18.8758
 129   2.0000      -0.691149       -18.8071
 130   2.0000      -0.687371       -18.7043
 131   2.0000      -0.672517       -18.3001
 132   2.0000      -0.657352       -17.8875
 133   2.0000      -0.656327       -17.8596
 134   2.0000      -0.650362       -17.6972
 135   2.0000      -0.644660       -17.5421
 136   2.0000      -0.641124       -17.4459
 137   2.0000      -0.638953       -17.3868
 138   2.0000      -0.634321       -17.2608
 139   2.0000      -0.632200       -17.2030
 140   2.0000      -0.629244       -17.1226
 141   2.0000      -0.619934       -16.8693
 142   2.0000      -0.617095       -16.7920
 143   2.0000      -0.610975       -16.6255
 144   2.0000      -0.610584       -16.6148
 145   2.0000      -0.603517       -16.4225
 146   2.0000      -0.599465       -16.3123
 147   2.0000      -0.598013       -16.2728
 148   2.0000      -0.595591       -16.2069
 149   2.0000      -0.592629       -16.1262
 150   2.0000      -0.586827       -15.9684
 151   2.0000      -0.581409       -15.8209
 152   2.0000      -0.578547       -15.7431
 153   2.0000      -0.577725       -15.7207
 154   2.0000      -0.572388       -15.5755
 155   2.0000      -0.568802       -15.4779
 156   2.0000      -0.559509       -15.2250
 157   2.0000      -0.556755       -15.1501
 158   2.0000      -0.553748       -15.0682
 159   2.0000      -0.551988       -15.0204
 160   2.0000      -0.548995       -14.9389
 161   2.0000      -0.536924       -14.6104
 162   2.0000      -0.536041       -14.5864
 163   2.0000      -0.531665       -14.4674
 164   2.0000      -0.525125       -14.2894
 165   2.0000      -0.522586       -14.2203
 166   2.0000      -0.521737       -14.1972
 167   2.0000      -0.518278       -14.1031
 168   2.0000      -0.517520       -14.0824
 169   2.0000      -0.512302       -13.9405
 170   2.0000      -0.510850       -13.9009
 171   2.0000      -0.507811       -13.8182
 172   2.0000      -0.502796       -13.6818
 173   2.0000      -0.499794       -13.6001
 174   2.0000      -0.496040       -13.4979
 175   2.0000      -0.490791       -13.3551
 176   2.0000      -0.489921       -13.3314
 177   2.0000      -0.485484       -13.2107
 178   2.0000      -0.483879       -13.1670
 179   2.0000      -0.481505       -13.1024
 180   2.0000      -0.478361       -13.0169
 181   2.0000      -0.476996       -12.9797
 182   2.0000      -0.474578       -12.9139
 183   2.0000      -0.471578       -12.8323
 184   2.0000      -0.467361       -12.7175
 185   2.0000      -0.464298       -12.6342
 186   2.0000      -0.463347       -12.6083
 187   2.0000      -0.461539       -12.5591
 188   2.0000      -0.459684       -12.5086
 189   2.0000      -0.455136       -12.3849
 190   2.0000      -0.452955       -12.3255
 191   2.0000      -0.451614       -12.2890
 192   2.0000      -0.450003       -12.2452
 193   2.0000      -0.449374       -12.2281
 194   2.0000      -0.446345       -12.1457
 195   2.0000      -0.443658       -12.0726
 196   2.0000      -0.442443       -12.0395
 197   2.0000      -0.440314       -11.9815
 198   2.0000      -0.438867       -11.9422
 199   2.0000      -0.436200       -11.8696
 200   2.0000      -0.429567       -11.6891
 201   2.0000      -0.428603       -11.6629
 202   2.0000      -0.424391       -11.5483
 203   2.0000      -0.419577       -11.4173
 204   2.0000      -0.417538       -11.3618
 205   2.0000      -0.414250       -11.2723
 206   2.0000      -0.412795       -11.2327
 207   2.0000      -0.411326       -11.1928
 208   2.0000      -0.409654       -11.1473
 209   2.0000      -0.404752       -11.0139
 210   2.0000      -0.403910       -10.9909
 211   2.0000      -0.400744       -10.9048
 212   2.0000      -0.399251       -10.8642
 213   2.0000      -0.396225       -10.7818
 214   2.0000      -0.392236       -10.6733
 215   2.0000      -0.386920       -10.5286
 216   2.0000      -0.384128       -10.4527
 217   2.0000      -0.378626       -10.3029
 218   2.0000      -0.374014       -10.1774
 219   2.0000      -0.371103       -10.0982
 220   2.0000      -0.366307        -9.9677
 221   2.0000      -0.364633        -9.9222
 222   2.0000      -0.360970        -9.8225
 223   2.0000      -0.349735        -9.5168
 224   2.0000      -0.339285        -9.2324
 225   2.0000      -0.335113        -9.1189
 226   2.0000      -0.324612        -8.8331
 227   2.0000      -0.316907        -8.6235
 228   2.0000      -0.310482        -8.4486
 229   2.0000      -0.305233        -8.3058
 230   2.0000      -0.301569        -8.2061
 231   2.0000      -0.296950        -8.0804
 232   2.0000      -0.293961        -7.9991
 233   2.0000      -0.286491        -7.7958
 234   2.0000      -0.279279        -7.5996
 235   2.0000      -0.248152        -6.7526
 236   2.0000      -0.236876        -6.4457
 237   2.0000      -0.214753        -5.8437
 238   2.0000      -0.184017        -5.0073
 239   0.0000      -0.061087        -1.6623
 240   0.0000      -0.048218        -1.3121
 241   0.0000      -0.043457        -1.1825
 242   0.0000       0.006287         0.1711
 243   0.0000       0.011129         0.3028

MULLIKEN ATOMIC CHARGES
-----------------------
   0 C :   -0.020859
   1 C :    0.026567
   2 C :    0.153567
   3 O :   -0.318479
   4 C :    0.139613
   5 C :    0.019429
   6 C :   -0.129234
   7 C :    0.133179
   8 C :    0.085337
   9 C :   -0.157568
  10 S :    0.110837
  11 C :   -0.040214
  12 O :   -0.339083
  13 C :    0.171902
  14 C :    0.008420
  15 C :   -0.130714
  16 C :   -0.012034
  17 S :    0.102612
  18 C :   -0.107735
  19 S :    0.172479
  20 C :   -0.099645
  21 C :    0.105541
  22 C :    0.070907
  23 C :   -0.132400
  24 C :    0.226790
  25 F :   -0.183533
  26 C :    0.246755
  27 F :   -0.184710
  28 C :   -0.118739
  29 C :    0.008175
  30 C :    0.001809
  31 C :    0.017862
  32 C :   -0.222163
  33 C :    0.100467
  34 C :    0.201289
  35 N :   -0.146961
  36 C :    0.042882
  37 C :   -0.038517
  38 C :   -0.007066
  39 C :   -0.042357
  40 C :    0.040358
  41 C :    0.012259
  42 C :   -0.044701
  43 S :    0.078237
  44 C :   -0.065890
  45 C :    0.022768
  46 C :    0.040015
  47 C :   -0.058200
  48 S :    0.090464
  49 C :    0.076592
  50 C :   -0.250897
  51 S :    0.136978
  52 C :   -0.154333
  53 C :    0.161569
  54 C :    0.208109
  55 O :   -0.200554
  56 C :    0.255858
  57 N :    0.269485
  58 O :   -0.251260
  59 O :   -0.226410
  60 C :   -0.077728
  61 H :   -0.032417
  62 H :    0.017166
  63 H :    0.024985
  64 H :    0.015109
  65 H :    0.014987
  66 H :    0.031165
  67 H :    0.018505
  68 H :    0.020178
  69 H :    0.006793
  70 H :    0.036380
  71 H :    0.012638
  72 H :    0.020197
  73 H :   -0.021598
  74 H :   -0.005225
  75 H :   -0.016043
  76 H :   -0.009308
  77 H :    0.012616
  78 H :   -0.023429
  79 H :    0.040711
  80 H :    0.023686
  81 H :    0.015895
  82 H :    0.009940
  83 H :    0.003974
  84 H :    0.121865
  85 H :   -0.003500
  86 H :    0.007894
  87 H :   -0.026211
  88 H :   -0.022302
  89 H :   -0.024360
  90 H :   -0.023282
  91 H :   -0.020386
  92 H :   -0.026325
  93 H :    0.016921
  94 H :    0.005656
Sum of atomic charges:   -0.0000000

LOEWDIN ATOMIC CHARGES
----------------------
   0 C :   -0.072160
   1 C :   -0.083854
   2 C :    0.019183
   3 O :   -0.109584
   4 C :    0.083329
   5 C :   -0.061218
   6 C :   -0.181017
   7 C :   -0.062260
   8 C :    0.011738
   9 C :   -0.176233
  10 S :    0.399400
  11 C :   -0.169306
  12 O :   -0.125983
  13 C :    0.088212
  14 C :   -0.064459
  15 C :   -0.075809
  16 C :   -0.165627
  17 S :    0.425720
  18 C :   -0.203460
  19 S :    0.506275
  20 C :   -0.171045
  21 C :   -0.055370
  22 C :   -0.057754
  23 C :   -0.060410
  24 C :    0.062899
  25 F :   -0.061070
  26 C :    0.058669
  27 F :   -0.060823
  28 C :   -0.035662
  29 C :   -0.040250
  30 C :   -0.016907
  31 C :   -0.044962
  32 C :   -0.037504
  33 C :   -0.051214
  34 C :    0.045764
  35 N :   -0.015953
  36 C :    0.040349
  37 C :   -0.118946
  38 C :   -0.031169
  39 C :   -0.177212
  40 C :   -0.027838
  41 C :   -0.054205
  42 C :   -0.167949
  43 S :    0.363816
  44 C :   -0.207061
  45 C :   -0.034968
  46 C :   -0.041921
  47 C :   -0.142022
  48 S :    0.388966
  49 C :   -0.096226
  50 C :   -0.188273
  51 S :    0.485117
  52 C :   -0.204215
  53 C :   -0.082467
  54 C :    0.005506
  55 O :    0.001025
  56 C :    0.021555
  57 N :    0.279967
  58 O :   -0.211449
  59 O :   -0.191632
  60 C :   -0.005322
  61 H :    0.025337
  62 H :    0.011112
  63 H :    0.013722
  64 H :    0.024552
  65 H :    0.029504
  66 H :    0.032463
  67 H :    0.022130
  68 H :    0.015620
  69 H :    0.014630
  70 H :    0.026089
  71 H :    0.029113
  72 H :    0.027148
  73 H :    0.017539
  74 H :    0.023203
  75 H :    0.039539
  76 H :    0.027641
  77 H :    0.028841
  78 H :    0.023698
  79 H :    0.037955
  80 H :    0.037456
  81 H :    0.031067
  82 H :    0.030772
  83 H :    0.018433
  84 H :    0.077174
  85 H :    0.024181
  86 H :    0.027624
  87 H :    0.027537
  88 H :    0.029434
  89 H :    0.027091
  90 H :    0.027059
  91 H :    0.029700
  92 H :    0.032897
  93 H :    0.020494
  94 H :    0.044528

  Mayer bond orders larger than 0.100000
B(  0-C ,  1-C ) :   1.1524 B(  0-C , 11-C ) :   1.6569 B(  0-C , 61-H ) :   0.9957
B(  1-C ,  2-C ) :   1.2396 B(  1-C ,  9-C ) :   1.3029 B(  2-C ,  3-O ) :   1.2322
B(  2-C ,  6-C ) :   1.3954 B(  3-O ,  4-C ) :   0.9328 B(  4-C ,  5-C ) :   1.1015
B(  4-C , 62-H ) :   0.9489 B(  4-C , 63-H ) :   0.9489 B(  5-C , 64-H ) :   0.9666
B(  5-C , 65-H ) :   0.9611 B(  5-C , 66-H ) :   0.9649 B(  6-C ,  7-C ) :   1.3324
B(  6-C , 17-S ) :   1.0273 B(  7-C ,  8-C ) :   1.2327 B(  7-C , 15-C ) :   1.1507
B(  8-C ,  9-C ) :   1.4471 B(  8-C , 12-O ) :   1.2037 B(  9-C , 10-S ) :   1.0511
B( 10-S , 11-C ) :   1.0969 B( 11-C , 67-H ) :   0.9646 B( 12-O , 13-C ) :   0.9231
B( 13-C , 14-C ) :   1.1201 B( 13-C , 68-H ) :   0.9473 B( 13-C , 69-H ) :   0.9510
B( 14-C , 70-H ) :   0.9628 B( 14-C , 71-H ) :   0.9564 B( 14-C , 72-H ) :   0.9597
B( 15-C , 16-C ) :   1.5411 B( 15-C , 73-H ) :   0.9936 B( 16-C , 17-S ) :   1.0731
B( 16-C , 18-C ) :   1.1582 B( 18-C , 19-S ) :   1.1719 B( 18-C , 20-C ) :   0.1136
B( 18-C , 22-C ) :   1.3694 B( 19-S , 20-C ) :   1.1718 B( 20-C , 21-C ) :   1.3804
B( 20-C , 29-C ) :   1.0787 B( 21-C , 22-C ) :   1.2050 B( 21-C , 28-C ) :   1.1557
B( 22-C , 23-C ) :   1.1427 B( 23-C , 24-C ) :   1.5244 B( 23-C , 28-C ) :   0.1129
B( 23-C , 74-H ) :   0.9792 B( 24-C , 25-F ) :   1.1281 B( 24-C , 26-C ) :   1.1475
B( 26-C , 27-F ) :   1.1183 B( 26-C , 28-C ) :   1.5057 B( 28-C , 75-H ) :   0.9982
B( 29-C , 30-C ) :   1.7216 B( 29-C , 76-H ) :   0.9614 B( 30-C , 31-C ) :   1.1068
B( 30-C , 77-H ) :   0.9668 B( 31-C , 32-C ) :   1.7666 B( 31-C , 78-H ) :   0.9665
B( 32-C , 33-C ) :   1.0780 B( 32-C , 34-C ) :   1.0386 B( 33-C , 79-H ) :   0.9494
B( 33-C , 80-H ) :   0.9469 B( 33-C , 81-H ) :   0.9447 B( 34-C , 35-N ) :   1.0159
B( 34-C , 82-H ) :   0.9340 B( 34-C , 83-H ) :   0.9385 B( 35-N , 36-C ) :   1.2086
B( 35-N , 84-H ) :   0.9375 B( 36-C , 37-C ) :   1.6384 B( 36-C , 85-H ) :   0.9645
B( 37-C , 38-C ) :   1.1586 B( 37-C , 86-H ) :   0.9666 B( 38-C , 39-C ) :   1.5876
B( 38-C , 87-H ) :   0.9776 B( 39-C , 40-C ) :   1.1410 B( 39-C , 43-S ) :   1.0061
B( 40-C , 41-C ) :   1.5907 B( 40-C , 88-H ) :   0.9974 B( 41-C , 42-C ) :   1.1830
B( 41-C , 89-H ) :   0.9934 B( 42-C , 43-S ) :   1.0563 B( 42-C , 44-C ) :   1.5057
B( 44-C , 45-C ) :   1.1859 B( 44-C , 48-S ) :   1.0144 B( 45-C , 46-C ) :   1.5758
B( 45-C , 90-H ) :   0.9931 B( 46-C , 47-C ) :   1.1410 B( 46-C , 91-H ) :   1.0016
B( 47-C , 48-S ) :   1.0468 B( 47-C , 49-C ) :   1.6027 B( 49-C , 50-C ) :   1.1525
B( 49-C , 92-H ) :   0.9284 B( 50-C , 51-S ) :   1.1488 B( 50-C , 52-C ) :   0.1069
B( 50-C , 54-C ) :   1.4303 B( 51-S , 52-C ) :   1.1706 B( 52-C , 53-C ) :   1.4229
B( 52-C , 93-H ) :   0.9718 B( 53-C , 54-C ) :   1.2338 B( 53-C , 60-C ) :   1.0542
B( 54-C , 55-O ) :   1.0758 B( 55-O , 56-C ) :   1.1152 B( 56-C , 57-N ) :   0.9214
B( 56-C , 60-C ) :   1.5589 B( 57-N , 58-O ) :   1.5172 B( 57-N , 59-O ) :   1.4929
B( 58-O , 59-O ) :   0.2649 B( 60-C , 94-H ) :   1.0291

-----------------------------------------------------------------------------
         ABSORPTION SPECTRUM VIA TRANSITION ELECTRIC DIPOLE MOMENTS
-----------------------------------------------------------------------------
State   Energy  Wavelength   fosc         T2         TX        TY        TZ
        (cm-1)    (nm)                  (au**2)     (au)      (au)      (au)
-----------------------------------------------------------------------------
   0   10862.2    920.6   0.096230798   2.91658  -0.26616  -0.80546   1.48222
   1   13881.0    720.4   0.036625256   0.86863   0.48727   0.19964  -0.76899
   2   14887.6    671.7   0.015964636   0.35303   0.11858   0.45790   0.35957
   3   16144.7    619.4   0.671674303  13.69631   0.40646   2.13513  -2.99538
   4   20258.1    493.6   0.066666008   1.08338   0.21710  -0.62368   0.80453
   5   21407.6    467.1   0.976876722  15.02269   0.14971  -3.46829   1.72372
   6   21953.6    455.5   0.112749422   1.69077   0.11447   0.93467  -0.89670
   7   24481.9    408.5   0.020778746   0.27942   0.08657   0.12277  -0.50680
   8   25002.9    400.0   0.062287000   0.82013   0.25362   0.60701  -0.62237
   9   25725.4    388.7   0.128915711   1.64975  -0.57961  -0.60104   0.97599
  10   26284.6    380.5   0.014968367   0.18748  -0.09420   0.03665   0.42102
  11   26877.5    372.1   0.019605412   0.24014   0.10384  -0.41475   0.23946
  12   28444.3    351.6   0.029179693   0.33772   0.23415  -0.52319   0.09574
  13   28983.2    345.0   0.337929235   3.83844  -0.69215   1.80917  -0.29370
  14   29213.5    342.3   0.053070717   0.59806   0.41236  -0.64825   0.08831
  15   30029.8    333.0   0.424549538   4.65426  -0.78992   1.69706   1.07252
  16   30874.9    323.9   0.005596055   0.05967   0.01232   0.24357  -0.01379
  17   31067.2    321.9   0.058633218   0.62132   0.52019   0.11528  -0.58089
  18   31812.3    314.3   0.084696961   0.87649  -0.05830   0.80466  -0.47500
  19   32202.3    310.5   0.113966246   1.16510   0.34214  -1.02360  -0.01722
  20   32825.5    304.6   0.013521415   0.13561  -0.14760   0.16139   0.29627
  21   32867.4    304.3   0.027020222   0.27064   0.29785  -0.35749  -0.23267
  22   32992.1    303.1   0.023773454   0.23722   0.15038   0.41234  -0.21116
  23   33644.6    297.2   0.127861201   1.25112   0.84526  -0.14824  -0.71741
  24   34000.8    294.1   0.001445338   0.01399   0.06018   0.06161   0.08110
  25   34312.8    291.4   0.274766615   2.63623   0.76466  -1.42250  -0.16738
  26   34325.1    291.3   0.001561261   0.01497   0.12192   0.01034  -0.00176
  27   34873.5    286.8   0.060754787   0.57354   0.18363   0.55175  -0.48517
  28   35034.6    285.4   0.011413843   0.10725   0.14360   0.29340   0.02339
  29   35542.7    281.4   0.174752243   1.61863  -0.17391   1.06619  -0.67203
  30   35643.4    280.6   0.257572164   2.37900   0.78514  -1.31506  -0.18213
  31   35999.9    277.8   0.095729075   0.87542   0.79573   0.00222  -0.49217
  32   36139.5    276.7   0.165940876   1.51163  -0.33487   1.17361  -0.14878
  33   36330.3    275.3   0.076833099   0.69623  -0.44971   0.67490   0.19625
  34   36838.3    271.5   0.048063211   0.42953   0.08463  -0.32273  -0.56410
  35   37150.6    269.2   0.041478162   0.36756  -0.32212   0.26038   0.44272
  36   37209.0    268.8   0.058456904   0.51721   0.39418   0.19939  -0.56751
  37   37299.9    268.1   0.040664836   0.35891   0.30845  -0.42762  -0.28446
  38   37799.8    264.6   0.126985819   1.10596  -0.03169  -0.98991   0.35361
  39   38281.9    261.2   0.008008490   0.06887   0.06807   0.11071  -0.22799
  40   38455.6    260.0   0.006283407   0.05379   0.08005  -0.15354  -0.15430
  41   38602.8    259.0   0.009561654   0.08154  -0.07037  -0.10831  -0.25468
  42   38884.3    257.2   0.086467511   0.73207  -0.19564  -0.39674   0.73239
  43   39143.2    255.5   0.010548188   0.08872   0.19290   0.17596  -0.14332
  44   39515.4    253.1   0.007288280   0.06072   0.12950  -0.07604   0.19537
  45   39713.1    251.8   0.069514048   0.57626  -0.17253  -0.55012   0.49381
  46   39808.6    251.2   0.038068959   0.31483   0.07434  -0.45326   0.32227
  47   39903.5    250.6   0.014870569   0.12269   0.06216   0.16654  -0.30180
  48   40043.8    249.7   0.012623064   0.10378  -0.15711   0.06417   0.27382

FINAL SINGLE POINT ENERGY     -4843.831350929183

DIPOLE MOMENT
-------------
                                X             Y             Z
Electronic contribution:    -16.04924      -2.87613      29.85661
Nuclear contribution   :     17.00192       2.93911     -31.15964
                        -----------------------------------------
Total Dipole Moment    :      0.95268       0.06299      -1.30303
                        -----------------------------------------
Magnitude (a.u.)       :      1.61539
Magnitude (Debye)      :      4.10599

Rotational constants in cm-1:     0.001917     0.000957     0.000727
Rotational constants in MHz :    57.475921    28.685454    21.785109

                             ****ORCA TERMINATED NORMALLY****
TOTAL RUN TIME: 0 days 0 hours 10 minutes 20 seconds 588 msec
