                         Program Version 4.2.0 -  RELEASE  -
|  1> # ORCA input file
|  2> # SCF done       -168.815779736265          0.000425263589
|  3> ! CAM-B3LYP def2-SVP def2/J RIJCOSX Grid4 TightSCF
|  4> %maxcore 5000
|  5> %tddft
|  6>     Mode sTDDFT
|  7>     Ethresh 5.0
|  8>     maxcore 5000
|  9> end
| 10>
| 11> %pal
| 12>   nprocs 6
| 13>   end
| 14> * xyz 0 1
| 15>    C       -4.70254         0.98560        -7.21230
| 16>    C       -3.35294         0.85077        -7.09827
| 17>    C       -2.84381         1.64887        -6.05519
| 18>    C       -3.84577         2.37656        -5.40171
| 19>    S       -5.39258         2.08315        -6.06017
| 20>    C       -3.24617         3.15114        -4.36853
| 21>    C       -1.86732         2.90575        -4.37416
| 22>    C       -1.56692         1.95522        -5.43926
| 23>    C       -0.33969         1.46859        -5.78358
| 24>    C        0.84176         1.84769        -5.11237
| 25>    N        1.81208         2.14672        -4.57909
| 26>    C       -0.16567         0.55308        -6.84259
| 27>    N       -0.01767        -0.19145        -7.70227
| 28>    C       -1.17694         3.62380        -3.39671
| 29>    C       -2.02509         4.41646        -2.64383
| 30>    S       -3.69980         4.26949        -3.16075
| 31>    C       -1.70738         5.29213        -1.57506
| 32>    C       -0.52207         5.42202        -0.86657
| 33>    C       -0.56975         6.43498         0.11618
| 34>    O        0.43527         6.80203         0.94968
| 35>    C        1.72866         6.33451         0.62623
| 36>    C        1.75960         4.83000         0.42747
| 37>    S        0.88253         4.39697        -1.11103
| 38>    C       -1.80158         7.07398         0.18217
| 39>    S       -2.90111         6.41729        -0.99115
| 40>    C       -2.18208         8.14153         1.03470
| 41>    C       -1.42354         8.75919         2.01275
| 42>    C       -2.11611         9.80456         2.62351
| 43>    C       -3.41283         9.98076         2.11261
| 44>    S       -3.78059         8.85677         0.87936
| 45>    C       -4.01815        11.07191         2.78301
| 46>    C       -3.10480        11.58875         3.71747
| 47>    C       -1.88092        10.80553         3.65252
| 48>    C       -0.74841        10.97262         4.39443
| 49>    C       -0.62787        11.97890         5.37603
| 50>    N       -0.51652        12.79120         6.17790
| 51>    C        0.38500        10.14884         4.23040
| 52>    N        1.31290         9.48686         4.10255
| 53>    C       -3.59775        12.69206         4.41435
| 54>    C       -4.88432        13.01958         4.02281
| 55>    S       -5.48827        11.93939         2.76919
| 56>    C       -5.71781        14.07323         4.47174
| 57>    C       -5.51112        15.00199         5.48197
| 58>    C       -6.56638        15.93253         5.60617
| 59>    O       -6.63661        16.96360         6.48529
| 60>    C       -5.43263        17.32799         7.12801
| 61>    C       -4.76558        16.14385         7.80373
| 62>    S       -4.10987        15.00518         6.54015
| 63>    C       -7.60395        15.70500         4.71145
| 64>    S       -7.25454        14.34015         3.69649
| 65>    C       -8.81044        16.43867         4.56979
| 66>    C       -9.22057        17.54719         5.28772
| 67>    C      -10.46531        18.00985         4.85853
| 68>    C      -11.00730        17.24910         3.81513
| 69>    S       -9.98405        15.96146         3.35323
| 70>    C      -12.26952        17.80533         3.46153
| 71>    C      -12.51659        18.91382         4.28075
| 72>    C      -11.39564        19.08521         5.18426
| 73>    C      -11.23149        20.04889         6.13676
| 74>    C      -12.19833        21.04948         6.36749
| 75>    N      -12.98124        21.86549         6.55881
| 76>    C      -10.08296        20.11351         6.95251
| 77>    N       -9.15166        20.17610         7.61934
| 78>    C      -13.75217        19.52779         3.99589
| 79>    C      -14.40419        18.88624         2.98827
| 80>    S      -13.53877        17.52154         2.35706
| 81>    H       -5.35502         0.50316        -7.91203
| 82>    H       -2.76111         0.21341        -7.72942
| 83>    H       -0.11402         3.59038        -3.25043
| 84>    H        2.34877         6.62665         1.47745
| 85>    H        2.09627         6.83801        -0.27814
| 86>    H        1.27798         4.31769         1.26085
| 87>    H        2.77800         4.46913         0.30501
| 88>    H       -0.42298         8.45205         2.24847
| 89>    H       -3.04877        13.23784         5.15788
| 90>    H       -5.72843        18.07937         7.86440
| 91>    H       -4.74195        17.78310         6.40513
| 92>    H       -5.47659        15.60111         8.42727
| 93>    H       -3.91083        16.45772         8.39815
| 94>    H       -8.63133        17.97755         6.07426
| 95>    H      -14.14001        20.39230         4.50291
| 96>    H      -15.35737        19.12738         2.56244
| 97> *
| 98>
| 99>                          ****END OF INPUT****

CARTESIAN COORDINATES (ANGSTROEM)
---------------------------------
  C     -4.702540    0.985600   -7.212300
  C     -3.352940    0.850770   -7.098270
  C     -2.843810    1.648870   -6.055190
  C     -3.845770    2.376560   -5.401710
  S     -5.392580    2.083150   -6.060170
  C     -3.246170    3.151140   -4.368530
  C     -1.867320    2.905750   -4.374160
  C     -1.566920    1.955220   -5.439260
  C     -0.339690    1.468590   -5.783580
  C      0.841760    1.847690   -5.112370
  N      1.812080    2.146720   -4.579090
  C     -0.165670    0.553080   -6.842590
  N     -0.017670   -0.191450   -7.702270
  C     -1.176940    3.623800   -3.396710
  C     -2.025090    4.416460   -2.643830
  S     -3.699800    4.269490   -3.160750
  C     -1.707380    5.292130   -1.575060
  C     -0.522070    5.422020   -0.866570
  C     -0.569750    6.434980    0.116180
  O      0.435270    6.802030    0.949680
  C      1.728660    6.334510    0.626230
  C      1.759600    4.830000    0.427470
  S      0.882530    4.396970   -1.111030
  C     -1.801580    7.073980    0.182170
  S     -2.901110    6.417290   -0.991150
  C     -2.182080    8.141530    1.034700
  C     -1.423540    8.759190    2.012750
  C     -2.116110    9.804560    2.623510
  C     -3.412830    9.980760    2.112610
  S     -3.780590    8.856770    0.879360
  C     -4.018150   11.071910    2.783010
  C     -3.104800   11.588750    3.717470
  C     -1.880920   10.805530    3.652520
  C     -0.748410   10.972620    4.394430
  C     -0.627870   11.978900    5.376030
  N     -0.516520   12.791200    6.177900
  C      0.385000   10.148840    4.230400
  N      1.312900    9.486860    4.102550
  C     -3.597750   12.692060    4.414350
  C     -4.884320   13.019580    4.022810
  S     -5.488270   11.939390    2.769190
  C     -5.717810   14.073230    4.471740
  C     -5.511120   15.001990    5.481970
  C     -6.566380   15.932530    5.606170
  O     -6.636610   16.963600    6.485290
  C     -5.432630   17.327990    7.128010
  C     -4.765580   16.143850    7.803730
  S     -4.109870   15.005180    6.540150
  C     -7.603950   15.705000    4.711450
  S     -7.254540   14.340150    3.696490
  C     -8.810440   16.438670    4.569790
  C     -9.220570   17.547190    5.287720
  C    -10.465310   18.009850    4.858530
  C    -11.007300   17.249100    3.815130
  S     -9.984050   15.961460    3.353230
  C    -12.269520   17.805330    3.461530
  C    -12.516590   18.913820    4.280750
  C    -11.395640   19.085210    5.184260
  C    -11.231490   20.048890    6.136760
  C    -12.198330   21.049480    6.367490
  N    -12.981240   21.865490    6.558810
  C    -10.082960   20.113510    6.952510
  N     -9.151660   20.176100    7.619340
  C    -13.752170   19.527790    3.995890
  C    -14.404190   18.886240    2.988270
  S    -13.538770   17.521540    2.357060
  H     -5.355020    0.503160   -7.912030
  H     -2.761110    0.213410   -7.729420
  H     -0.114020    3.590380   -3.250430
  H      2.348770    6.626650    1.477450
  H      2.096270    6.838010   -0.278140
  H      1.277980    4.317690    1.260850
  H      2.778000    4.469130    0.305010
  H     -0.422980    8.452050    2.248470
  H     -3.048770   13.237840    5.157880
  H     -5.728430   18.079370    7.864400
  H     -4.741950   17.783100    6.405130
  H     -5.476590   15.601110    8.427270
  H     -3.910830   16.457720    8.398150
  H     -8.631330   17.977550    6.074260
  H    -14.140010   20.392300    4.502910
  H    -15.357370   19.127380    2.562440

 Total Charge           Charge          ....    0
 Multiplicity           Mult            ....    1
 Number of Electrons    NEL             ....  522
 Basis Dimension        Dim             .... 1044

ORBITAL ENERGIES
----------------

  NO   OCC          E(Eh)            E(eV)
   0   2.0000     -88.985480     -2421.4180
   1   2.0000     -88.984185     -2421.3828
   2   2.0000     -88.983621     -2421.3674
   3   2.0000     -88.983106     -2421.3534
   4   2.0000     -88.980927     -2421.2941
   5   2.0000     -88.980575     -2421.2846
   6   2.0000     -88.968974     -2420.9689
   7   2.0000     -88.967111     -2420.9182
   8   2.0000     -88.944180     -2420.2942
   9   2.0000     -88.943055     -2420.2636
  10   2.0000     -19.266688      -524.2732
  11   2.0000     -19.264866      -524.2237
  12   2.0000     -14.426117      -392.5546
  13   2.0000     -14.425729      -392.5441
  14   2.0000     -14.425633      -392.5414
  15   2.0000     -14.425360      -392.5340
  16   2.0000     -14.423444      -392.4819
  17   2.0000     -14.422771      -392.4636
  18   2.0000     -10.359219      -281.8887
  19   2.0000     -10.358837      -281.8783
  20   2.0000     -10.355431      -281.7856
  21   2.0000     -10.351102      -281.6678
  22   2.0000     -10.349272      -281.6180
  23   2.0000     -10.346863      -281.5525
  24   2.0000     -10.346135      -281.5327
  25   2.0000     -10.343875      -281.4712
  26   2.0000     -10.343480      -281.4604
  27   2.0000     -10.342602      -281.4365
  28   2.0000     -10.326857      -281.0081
  29   2.0000     -10.326306      -280.9931
  30   2.0000     -10.326232      -280.9910
  31   2.0000     -10.326139      -280.9885
  32   2.0000     -10.325881      -280.9815
  33   2.0000     -10.325830      -280.9801
  34   2.0000     -10.325670      -280.9758
  35   2.0000     -10.325141      -280.9614
  36   2.0000     -10.324383      -280.9407
  37   2.0000     -10.323466      -280.9158
  38   2.0000     -10.323296      -280.9112
  39   2.0000     -10.323060      -280.9047
  40   2.0000     -10.322976      -280.9024
  41   2.0000     -10.322018      -280.8764
  42   2.0000     -10.321983      -280.8754
  43   2.0000     -10.320548      -280.8364
  44   2.0000     -10.319942      -280.8199
  45   2.0000     -10.319540      -280.8090
  46   2.0000     -10.316781      -280.7339
  47   2.0000     -10.315155      -280.6896
  48   2.0000     -10.314996      -280.6853
  49   2.0000     -10.314378      -280.6685
  50   2.0000     -10.313822      -280.6534
  51   2.0000     -10.312326      -280.6126
  52   2.0000     -10.308016      -280.4954
  53   2.0000     -10.304131      -280.3897
  54   2.0000     -10.297365      -280.2056
  55   2.0000     -10.295361      -280.1510
  56   2.0000     -10.294998      -280.1412
  57   2.0000     -10.294958      -280.1400
  58   2.0000     -10.294472      -280.1268
  59   2.0000     -10.294201      -280.1195
  60   2.0000     -10.293594      -280.1029
  61   2.0000     -10.291894      -280.0567
  62   2.0000     -10.290897      -280.0296
  63   2.0000     -10.290434      -280.0169
  64   2.0000     -10.287971      -279.9499
  65   2.0000     -10.285402      -279.8800
  66   2.0000      -8.080321      -219.8767
  67   2.0000      -8.079229      -219.8470
  68   2.0000      -8.078462      -219.8261
  69   2.0000      -8.077851      -219.8095
  70   2.0000      -8.075707      -219.7511
  71   2.0000      -8.075635      -219.7492
  72   2.0000      -8.064739      -219.4527
  73   2.0000      -8.062836      -219.4009
  74   2.0000      -8.039253      -218.7592
  75   2.0000      -8.038023      -218.7257
  76   2.0000      -6.049658      -164.6196
  77   2.0000      -6.048466      -164.5871
  78   2.0000      -6.047816      -164.5694
  79   2.0000      -6.047175      -164.5520
  80   2.0000      -6.045416      -164.5041
  81   2.0000      -6.045014      -164.4932
  82   2.0000      -6.044913      -164.4904
  83   2.0000      -6.044058      -164.4672
  84   2.0000      -6.043578      -164.4541
  85   2.0000      -6.042984      -164.4380
  86   2.0000      -6.042535      -164.4257
  87   2.0000      -6.041843      -164.4069
  88   2.0000      -6.040817      -164.3790
  89   2.0000      -6.040634      -164.3740
  90   2.0000      -6.040473      -164.3696
  91   2.0000      -6.040085      -164.3591
  92   2.0000      -6.038241      -164.3089
  93   2.0000      -6.037924      -164.3003
  94   2.0000      -6.034316      -164.2021
  95   2.0000      -6.032416      -164.1504
  96   2.0000      -6.030324      -164.0935
  97   2.0000      -6.028427      -164.0419
  98   2.0000      -6.026052      -163.9772
  99   2.0000      -6.024157      -163.9257
 100   2.0000      -6.009680      -163.5317
 101   2.0000      -6.008467      -163.4987
 102   2.0000      -6.005614      -163.4211
 103   2.0000      -6.004379      -163.3875
 104   2.0000      -5.998878      -163.2378
 105   2.0000      -5.997673      -163.2050
 106   2.0000      -1.174690       -31.9649
 107   2.0000      -1.172877       -31.9156
 108   2.0000      -1.039052       -28.2740
 109   2.0000      -1.038042       -28.2465
 110   2.0000      -1.034499       -28.1501
 111   2.0000      -1.017931       -27.6993
 112   2.0000      -1.017363       -27.6839
 113   2.0000      -1.014529       -27.6067
 114   2.0000      -1.009475       -27.4692
 115   2.0000      -1.004465       -27.3329
 116   2.0000      -1.003063       -27.2947
 117   2.0000      -1.003014       -27.2934
 118   2.0000      -1.000602       -27.2278
 119   2.0000      -0.990376       -26.9495
 120   2.0000      -0.984261       -26.7831
 121   2.0000      -0.977714       -26.6049
 122   2.0000      -0.953775       -25.9535
 123   2.0000      -0.950374       -25.8610
 124   2.0000      -0.947911       -25.7940
 125   2.0000      -0.929427       -25.2910
 126   2.0000      -0.927504       -25.2387
 127   2.0000      -0.909001       -24.7352
 128   2.0000      -0.904438       -24.6110
 129   2.0000      -0.899019       -24.4636
 130   2.0000      -0.872165       -23.7328
 131   2.0000      -0.870401       -23.6848
 132   2.0000      -0.866297       -23.5731
 133   2.0000      -0.865204       -23.5434
 134   2.0000      -0.859206       -23.3802
 135   2.0000      -0.853869       -23.2349
 136   2.0000      -0.847324       -23.0569
 137   2.0000      -0.845575       -23.0093
 138   2.0000      -0.842178       -22.9168
 139   2.0000      -0.839510       -22.8442
 140   2.0000      -0.807546       -21.9744
 141   2.0000      -0.789748       -21.4901
 142   2.0000      -0.777181       -21.1482
 143   2.0000      -0.775687       -21.1075
 144   2.0000      -0.772540       -21.0219
 145   2.0000      -0.769367       -20.9356
 146   2.0000      -0.769148       -20.9296
 147   2.0000      -0.765811       -20.8388
 148   2.0000      -0.744764       -20.2661
 149   2.0000      -0.738234       -20.0884
 150   2.0000      -0.731475       -19.9045
 151   2.0000      -0.708089       -19.2681
 152   2.0000      -0.698207       -18.9992
 153   2.0000      -0.695107       -18.9148
 154   2.0000      -0.691302       -18.8113
 155   2.0000      -0.678885       -18.4734
 156   2.0000      -0.677779       -18.4433
 157   2.0000      -0.674664       -18.3586
 158   2.0000      -0.668589       -18.1932
 159   2.0000      -0.656575       -17.8663
 160   2.0000      -0.648769       -17.6539
 161   2.0000      -0.646238       -17.5850
 162   2.0000      -0.643205       -17.5025
 163   2.0000      -0.639193       -17.3933
 164   2.0000      -0.627779       -17.0827
 165   2.0000      -0.625340       -17.0164
 166   2.0000      -0.617397       -16.8002
 167   2.0000      -0.616097       -16.7649
 168   2.0000      -0.615099       -16.7377
 169   2.0000      -0.610043       -16.6001
 170   2.0000      -0.607368       -16.5273
 171   2.0000      -0.605444       -16.4750
 172   2.0000      -0.590188       -16.0598
 173   2.0000      -0.580961       -15.8087
 174   2.0000      -0.576242       -15.6803
 175   2.0000      -0.571747       -15.5580
 176   2.0000      -0.568373       -15.4662
 177   2.0000      -0.566408       -15.4127
 178   2.0000      -0.560494       -15.2518
 179   2.0000      -0.552257       -15.0277
 180   2.0000      -0.542508       -14.7624
 181   2.0000      -0.541321       -14.7301
 182   2.0000      -0.540689       -14.7129
 183   2.0000      -0.538849       -14.6628
 184   2.0000      -0.536991       -14.6123
 185   2.0000      -0.527620       -14.3573
 186   2.0000      -0.523213       -14.2373
 187   2.0000      -0.521287       -14.1849
 188   2.0000      -0.513497       -13.9730
 189   2.0000      -0.509804       -13.8725
 190   2.0000      -0.509399       -13.8614
 191   2.0000      -0.507610       -13.8128
 192   2.0000      -0.506481       -13.7820
 193   2.0000      -0.502616       -13.6769
 194   2.0000      -0.499027       -13.5792
 195   2.0000      -0.496722       -13.5165
 196   2.0000      -0.494950       -13.4683
 197   2.0000      -0.494005       -13.4426
 198   2.0000      -0.491344       -13.3701
 199   2.0000      -0.490266       -13.3408
 200   2.0000      -0.486859       -13.2481
 201   2.0000      -0.484163       -13.1748
 202   2.0000      -0.482354       -13.1255
 203   2.0000      -0.478700       -13.0261
 204   2.0000      -0.474865       -12.9217
 205   2.0000      -0.471056       -12.8181
 206   2.0000      -0.469308       -12.7705
 207   2.0000      -0.468348       -12.7444
 208   2.0000      -0.465707       -12.6725
 209   2.0000      -0.463802       -12.6207
 210   2.0000      -0.461918       -12.5694
 211   2.0000      -0.458026       -12.4635
 212   2.0000      -0.457515       -12.4496
 213   2.0000      -0.455586       -12.3971
 214   2.0000      -0.455311       -12.3896
 215   2.0000      -0.453792       -12.3483
 216   2.0000      -0.452856       -12.3228
 217   2.0000      -0.451818       -12.2946
 218   2.0000      -0.451259       -12.2794
 219   2.0000      -0.448966       -12.2170
 220   2.0000      -0.445978       -12.1357
 221   2.0000      -0.442411       -12.0386
 222   2.0000      -0.441580       -12.0160
 223   2.0000      -0.438891       -11.9428
 224   2.0000      -0.436112       -11.8672
 225   2.0000      -0.436030       -11.8650
 226   2.0000      -0.435733       -11.8569
 227   2.0000      -0.434330       -11.8187
 228   2.0000      -0.433704       -11.8017
 229   2.0000      -0.432841       -11.7782
 230   2.0000      -0.430823       -11.7233
 231   2.0000      -0.427603       -11.6357
 232   2.0000      -0.424628       -11.5547
 233   2.0000      -0.423403       -11.5214
 234   2.0000      -0.421972       -11.4824
 235   2.0000      -0.420291       -11.4367
 236   2.0000      -0.417523       -11.3614
 237   2.0000      -0.414051       -11.2669
 238   2.0000      -0.411009       -11.1841
 239   2.0000      -0.405545       -11.0355
 240   2.0000      -0.402287       -10.9468
 241   2.0000      -0.393047       -10.6954
 242   2.0000      -0.391144       -10.6436
 243   2.0000      -0.387735       -10.5508
 244   2.0000      -0.382167       -10.3993
 245   2.0000      -0.363395        -9.8885
 246   2.0000      -0.359350        -9.7784
 247   2.0000      -0.357453        -9.7268
 248   2.0000      -0.342291        -9.3142
 249   2.0000      -0.341718        -9.2986
 250   2.0000      -0.338660        -9.2154
 251   2.0000      -0.329120        -8.9558
 252   2.0000      -0.318273        -8.6607
 253   2.0000      -0.316084        -8.6011
 254   2.0000      -0.313429        -8.5288
 255   2.0000      -0.303624        -8.2620
 256   2.0000      -0.291030        -7.9193
 257   2.0000      -0.285428        -7.7669
 258   2.0000      -0.273834        -7.4514
 259   2.0000      -0.247566        -6.7366
 260   2.0000      -0.223705        -6.0873
 261   0.0000      -0.102205        -2.7811
 262   0.0000      -0.097070        -2.6414
 263   0.0000      -0.093866        -2.5542
 264   0.0000      -0.050253        -1.3675
 265   0.0000      -0.035137        -0.9561

MULLIKEN ATOMIC CHARGES
-----------------------
   0 C :   -0.085452
   1 C :    0.039364
   2 C :   -0.036254
   3 C :   -0.118345
   4 S :    0.177478
   5 C :   -0.099120
   6 C :    0.001038
   7 C :    0.303470
   8 C :   -0.301875
   9 C :   -0.186337
  10 N :    0.172469
  11 C :   -0.192714
  12 N :    0.172015
  13 C :   -0.058727
  14 C :   -0.072385
  15 S :    0.174145
  16 C :   -0.110375
  17 C :   -0.047999
  18 C :    0.159454
  19 O :   -0.308008
  20 C :    0.220717
  21 C :   -0.084497
  22 S :    0.013428
  23 C :   -0.098208
  24 S :    0.123235
  25 C :   -0.058234
  26 C :   -0.066881
  27 C :    0.018594
  28 C :   -0.101078
  29 S :    0.171436
  30 C :   -0.098207
  31 C :   -0.000140
  32 C :    0.308608
  33 C :   -0.305681
  34 C :   -0.186378
  35 N :    0.171637
  36 C :   -0.187812
  37 N :    0.167081
  38 C :   -0.064504
  39 C :   -0.068464
  40 S :    0.170869
  41 C :   -0.104058
  42 C :   -0.050487
  43 C :    0.152464
  44 O :   -0.305944
  45 C :    0.218971
  46 C :   -0.083381
  47 S :    0.011525
  48 C :   -0.096164
  49 S :    0.118042
  50 C :   -0.058146
  51 C :   -0.065711
  52 C :    0.018604
  53 C :   -0.102693
  54 S :    0.169392
  55 C :   -0.117521
  56 C :   -0.033745
  57 C :    0.299377
  58 C :   -0.303412
  59 C :   -0.192312
  60 N :    0.169202
  61 C :   -0.184121
  62 N :    0.165177
  63 C :    0.036370
  64 C :   -0.084518
  65 S :    0.174182
  66 H :    0.035118
  67 H :    0.011758
  68 H :    0.024425
  69 H :    0.047022
  70 H :    0.037038
  71 H :    0.076159
  72 H :    0.069009
  73 H :    0.012204
  74 H :    0.022917
  75 H :    0.047238
  76 H :    0.037823
  77 H :    0.077245
  78 H :    0.068978
  79 H :    0.012541
  80 H :    0.009669
  81 H :    0.032402
Sum of atomic charges:    0.0000000

LOEWDIN ATOMIC CHARGES
----------------------
   0 C :   -0.180455
   1 C :   -0.033982
   2 C :   -0.079541
   3 C :   -0.182116
   4 S :    0.474153
   5 C :   -0.184380
   6 C :   -0.069256
   7 C :    0.084471
   8 C :   -0.104597
   9 C :   -0.017173
  10 N :   -0.034665
  11 C :   -0.016458
  12 N :   -0.035472
  13 C :   -0.039712
  14 C :   -0.179953
  15 S :    0.462631
  16 C :   -0.208578
  17 C :   -0.213820
  18 C :    0.005030
  19 O :   -0.087628
  20 C :    0.073775
  21 C :   -0.139047
  22 S :    0.322061
  23 C :   -0.218764
  24 S :    0.415153
  25 C :   -0.174119
  26 C :   -0.031506
  27 C :   -0.070410
  28 C :   -0.186847
  29 S :    0.458572
  30 C :   -0.179002
  31 C :   -0.073665
  32 C :    0.085990
  33 C :   -0.104682
  34 C :   -0.017064
  35 N :   -0.034995
  36 C :   -0.013704
  37 N :   -0.039717
  38 C :   -0.039070
  39 C :   -0.181052
  40 S :    0.459401
  41 C :   -0.207390
  42 C :   -0.215016
  43 C :    0.004280
  44 O :   -0.087759
  45 C :    0.073494
  46 C :   -0.138921
  47 S :    0.322201
  48 C :   -0.219211
  49 S :    0.413398
  50 C :   -0.174154
  51 C :   -0.032734
  52 C :   -0.069514
  53 C :   -0.189862
  54 S :    0.458777
  55 C :   -0.179366
  56 C :   -0.082898
  57 C :    0.086462
  58 C :   -0.108013
  59 C :   -0.016652
  60 N :   -0.037790
  61 C :   -0.013931
  62 N :   -0.041722
  63 C :   -0.034084
  64 C :   -0.183135
  65 S :    0.471462
  66 H :    0.026967
  67 H :    0.042274
  68 H :    0.027691
  69 H :    0.036791
  70 H :    0.021881
  71 H :    0.033251
  72 H :    0.040738
  73 H :    0.037781
  74 H :    0.026803
  75 H :    0.036865
  76 H :    0.021902
  77 H :    0.033398
  78 H :    0.040655
  79 H :    0.037638
  80 H :    0.041717
  81 H :    0.025918

  Mayer bond orders larger than 0.100000
B(  0-C ,  1-C ) :   1.5511 B(  0-C ,  4-S ) :   1.1455 B(  0-C , 66-H ) :   0.9644
B(  1-C ,  2-C ) :   1.2756 B(  1-C , 67-H ) :   0.9957 B(  2-C ,  3-C ) :   1.4570
B(  2-C ,  7-C ) :   1.0170 B(  3-C ,  4-S ) :   1.1370 B(  3-C ,  5-C ) :   1.1836
B(  5-C ,  6-C ) :   1.4626 B(  5-C , 15-S ) :   1.1179 B(  6-C ,  7-C ) :   0.9947
B(  6-C , 13-C ) :   1.2998 B(  7-C ,  8-C ) :   1.7065 B(  8-C ,  9-C ) :   1.1367
B(  8-C , 11-C ) :   1.1316 B(  9-C , 10-N ) :   2.9861 B( 11-C , 12-N ) :   3.0030
B( 13-C , 14-C ) :   1.4763 B( 13-C , 68-H ) :   0.9750 B( 14-C , 15-S ) :   1.0968
B( 14-C , 16-C ) :   1.1490 B( 16-C , 17-C ) :   1.5756 B( 16-C , 23-C ) :   0.1359
B( 16-C , 24-S ) :   1.1031 B( 17-C , 18-C ) :   1.2370 B( 17-C , 22-S ) :   1.0008
B( 18-C , 19-O ) :   1.1500 B( 18-C , 23-C ) :   1.5386 B( 19-O , 20-C ) :   0.9459
B( 20-C , 21-C ) :   1.0437 B( 20-C , 69-H ) :   0.9514 B( 20-C , 70-H ) :   0.9527
B( 21-C , 22-S ) :   1.0027 B( 21-C , 71-H ) :   0.9427 B( 21-C , 72-H ) :   0.9478
B( 23-C , 24-S ) :   1.0904 B( 23-C , 25-C ) :   1.1345 B( 25-C , 26-C ) :   1.4838
B( 25-C , 29-S ) :   1.0899 B( 26-C , 27-C ) :   1.2557 B( 26-C , 73-H ) :   0.9950
B( 27-C , 28-C ) :   1.4434 B( 27-C , 32-C ) :   0.9930 B( 28-C , 29-S ) :   1.1131
B( 28-C , 30-C ) :   1.1923 B( 30-C , 31-C ) :   1.4450 B( 30-C , 40-S ) :   1.1192
B( 31-C , 32-C ) :   0.9961 B( 31-C , 38-C ) :   1.2991 B( 32-C , 33-C ) :   1.7083
B( 33-C , 34-C ) :   1.1339 B( 33-C , 36-C ) :   1.1375 B( 34-C , 35-N ) :   2.9882
B( 36-C , 37-N ) :   2.9912 B( 38-C , 39-C ) :   1.4722 B( 38-C , 74-H ) :   0.9758
B( 39-C , 40-S ) :   1.0870 B( 39-C , 41-C ) :   1.1610 B( 41-C , 42-C ) :   1.5725
B( 41-C , 48-C ) :   0.1355 B( 41-C , 49-S ) :   1.1017 B( 42-C , 43-C ) :   1.2375
B( 42-C , 47-S ) :   1.0017 B( 43-C , 44-O ) :   1.1546 B( 43-C , 48-C ) :   1.5410
B( 44-O , 45-C ) :   0.9456 B( 45-C , 46-C ) :   1.0440 B( 45-C , 75-H ) :   0.9512
B( 45-C , 76-H ) :   0.9524 B( 46-C , 47-S ) :   1.0025 B( 46-C , 77-H ) :   0.9431
B( 46-C , 78-H ) :   0.9477 B( 48-C , 49-S ) :   1.0900 B( 48-C , 50-C ) :   1.1317
B( 50-C , 51-C ) :   1.4868 B( 50-C , 54-S ) :   1.0949 B( 51-C , 52-C ) :   1.2500
B( 51-C , 79-H ) :   0.9969 B( 52-C , 53-C ) :   1.4640 B( 52-C , 57-C ) :   0.9935
B( 53-C , 54-S ) :   1.1143 B( 53-C , 55-C ) :   1.1833 B( 55-C , 56-C ) :   1.4554
B( 55-C , 65-S ) :   1.1386 B( 56-C , 57-C ) :   1.0194 B( 56-C , 63-C ) :   1.2717
B( 57-C , 58-C ) :   1.7052 B( 58-C , 59-C ) :   1.1301 B( 58-C , 61-C ) :   1.1362
B( 59-C , 60-N ) :   3.0031 B( 61-C , 62-N ) :   2.9904 B( 63-C , 64-C ) :   1.5543
B( 63-C , 80-H ) :   0.9966 B( 64-C , 65-S ) :   1.1418 B( 64-C , 81-H ) :   0.9643

-----------------------------------------------------------------------------
         ABSORPTION SPECTRUM VIA TRANSITION ELECTRIC DIPOLE MOMENTS
-----------------------------------------------------------------------------
State   Energy  Wavelength   fosc         T2         TX        TY        TZ
        (cm-1)    (nm)                  (au**2)     (au)      (au)      (au)
-----------------------------------------------------------------------------
   0    9735.7   1027.1   0.224450149   7.58977  -1.15294   2.13085   1.31149
   1   12349.3    809.8   0.102680406   2.73729  -1.25151   1.07171   0.14981
   2   12558.5    796.3   0.095564654   2.50515   0.69186   0.78815   1.18545
   3   18493.2    540.7   0.018252431   0.32493   0.45067  -0.03030   0.34771
   4   20447.1    489.1   0.623431430  10.03767   1.28357  -2.43680  -1.56592
   5   21283.2    469.9   0.228659316   3.53694   1.13934  -1.37951  -0.57947
   6   22687.3    440.8   1.063508931  15.43238   1.67268  -3.02426  -1.86772
   7   24311.5    411.3   0.254952795   3.45242  -0.25793   1.37047   1.22788
   8   24722.9    404.5   0.097067996   1.29256   0.94845  -0.62670  -0.01554
   9   25177.0    397.2   0.055015864   0.71938  -0.48762   0.63841   0.27211
  10   26305.9    380.1   0.435169378   5.44604  -1.84963  -0.10948  -1.41877
  11   26545.3    376.7   0.010297813   0.12771   0.29879   0.00361   0.19601
  12   26840.1    372.6   0.019835366   0.24329  -0.19953  -0.22991  -0.38810
  13   26945.3    371.1   0.309436021   3.78063   1.52928   0.04974   1.19978
  14   27308.9    366.2   0.017099747   0.20614  -0.22230  -0.18172  -0.35171
  15   30425.1    328.7   0.069870786   0.75603   0.59296   0.12791   0.62295
  16   31549.5    317.0   0.133524173   1.39329   0.53732  -0.80896  -0.67094
  17   31623.4    316.2   0.114082425   1.18764   0.41082  -0.68092  -0.74513
  18   31737.3    315.1   0.368841193   3.82600   0.91509  -1.40283  -1.01028
  19   31932.2    313.2   0.110098297   1.13508  -0.50112  -0.34418  -0.87493
  20   32111.6    311.4   0.964358616   9.88671  -2.80787  -0.59064  -1.28596
  21   32387.5    308.8   0.166760714   1.69509   0.45798  -0.71824  -0.98461
  22   32620.0    306.6   0.008946447   0.09029  -0.21309  -0.08605  -0.19359
  23   32656.5    306.2   0.011810279   0.11906  -0.33797   0.05454   0.04315
  24   33221.1    301.0   0.123535096   1.22420   0.54608  -0.84093  -0.46780
  25   33551.1    298.1   0.213928249   2.09912   0.42797  -1.05978  -0.89041
  26   33870.6    295.2   0.149172655   1.44991  -1.04214   0.57357  -0.18671
  27   33948.6    294.6   0.064320329   0.62374   0.36473   0.36805   0.59603
  28   34715.5    288.1   0.075715381   0.71802  -0.24140  -0.57585  -0.57283
  29   34844.3    287.0   0.130584124   1.23377   1.04861  -0.16501   0.32705
  30   35076.7    285.1   0.177034949   1.66156  -1.14499  -0.03851  -0.59083
  31   35719.2    280.0   0.023070266   0.21263   0.10753   0.29936   0.33385
  32   36175.6    276.4   0.007408373   0.06742  -0.18227   0.01721  -0.18412
  33   36860.5    271.3   0.152823088   1.36491  -0.12080  -0.69106  -0.93421
  34   36888.1    271.1   0.010487102   0.09359   0.00811  -0.18179  -0.24592
  35   37192.3    268.9   0.021059486   0.18641  -0.40646   0.13101  -0.06355
  36   37437.7    267.1   0.036916672   0.32463   0.54447  -0.16743   0.01243
  37   37990.7    263.2   0.171669766   1.48762   1.01035   0.03642   0.68227
  38   38135.8    262.2   0.148365941   1.28079   0.96003  -0.03663   0.59815
  39   38286.1    261.2   0.048567510   0.41762  -0.55233  -0.07942  -0.32595
  40   39140.3    255.5   0.172232534   1.44866  -1.09258  -0.01756  -0.50460
  41   39574.4    252.7   0.027262770   0.22679  -0.46577  -0.03521  -0.09280
  42   40003.5    250.0   0.006874436   0.05657  -0.09520  -0.10673  -0.19005
  43   40148.1    249.1   0.003927854   0.03221   0.11920  -0.11910  -0.06175

FINAL SINGLE POINT ENERGY     -6295.287723498720

DIPOLE MOMENT
-------------
                                X             Y             Z
Electronic contribution:    -16.48730      -6.12132     -13.85755
Nuclear contribution   :     14.67107       5.19710      12.92961
                        -----------------------------------------
Total Dipole Moment    :     -1.81623      -0.92422      -0.92794
                        -----------------------------------------
Magnitude (a.u.)       :      2.23918
Magnitude (Debye)      :      5.69155

Rotational constants in cm-1:     0.001549     0.000245     0.000212
Rotational constants in MHz :    46.438761     7.337580     6.361129

                             ****ORCA TERMINATED NORMALLY****
TOTAL RUN TIME: 0 days 0 hours 18 minutes 19 seconds 728 msec
