                         Program Version 4.2.0 -  RELEASE  -
|  1> # ORCA input file
|  2> # SCF done       -210.982953167322          0.000630994286
|  3> ! CAM-B3LYP def2-SVP def2/J RIJCOSX Grid4 TightSCF
|  4> %maxcore 5000
|  5> %tddft
|  6>     Mode sTDDFT
|  7>     Ethresh 5.0
|  8>     maxcore 5000
|  9> end
| 10>
| 11> %pal
| 12>   nprocs 6
| 13>   end
| 14> * xyz 0 1
| 15>    C       -0.21793        -2.20547         0.40984
| 16>    C        0.96478        -1.62066         0.74637
| 17>    C        0.85087        -0.21735         0.77523
| 18>    C       -0.43799         0.22161         0.45563
| 19>    S       -1.49793        -1.07284         0.12306
| 20>    C       -0.46259         1.64793         0.50807
| 21>    C        0.81748         2.09444         0.85905
| 22>    C        1.68412         0.94019         1.04791
| 23>    C        2.99587         0.95150         1.42574
| 24>    C        3.68117         2.15315         1.69873
| 25>    N        4.23125         3.13260         1.93140
| 26>    C        3.74580        -0.23206         1.58424
| 27>    N        4.36164        -1.19080         1.71363
| 28>    C        0.90505         3.48902         0.91835
| 29>    C       -0.30152         4.09214         0.62766
| 30>    S       -1.55659         2.92896         0.24144
| 31>    C       -0.57130         5.50005         0.51546
| 32>    C        0.08930         6.50289         1.21725
| 33>    O        0.88177         6.25719         2.30120
| 34>    C        0.42860         5.33969         3.27767
| 35>    C       -0.05342         7.88852         0.86985
| 36>    O        0.63766         8.86633         1.49521
| 37>    C        1.95481         8.67235         1.97420
| 38>    C       -0.96934         8.33442        -0.08294
| 39>    C       -1.75435         7.33319        -0.71061
| 40>    C       -1.54007         5.94035        -0.42125
| 41>    N       -2.37089         5.24576        -1.16924
| 42>    O       -3.06426         6.13548        -1.87828
| 43>    N       -2.70771         7.39442        -1.61863
| 44>    C       -1.11834         9.71703        -0.42644
| 45>    C       -2.00758        10.23312        -1.32917
| 46>    C       -1.89050        11.62934        -1.50618
| 47>    C       -2.66437        12.46428        -2.34026
| 48>    C       -3.66421        11.90848        -3.22908
| 49>    C       -3.57232        10.78137        -3.99417
| 50>    C       -4.74330        10.53507        -4.74276
| 51>    C       -5.73493        11.45372        -4.55875
| 52>    S       -5.21690        12.67012        -3.43971
| 53>    C       -7.08743        11.49760        -5.17019
| 54>   Cl       -4.88943         9.18149        -5.79718
| 55>    C       -2.39849        13.82568        -2.27690
| 56>    C       -1.38533        14.38050        -1.45190
| 57>    C       -0.61869        13.54542        -0.61194
| 58>    C       -0.88348        12.18218        -0.67561
| 59>    S       -0.10089        10.95131         0.27611
| 60>    C        0.37132        14.10017         0.28791
| 61>    C        0.27425        15.23355         1.04350
| 62>    C        1.43137        15.47727         1.81451
| 63>    C        2.41912        14.54944         1.65749
| 64>    S        1.91253        13.32758         0.53850
| 65>    C        3.75413        14.49500         2.30532
| 66>   Cl        1.56739        16.83959         2.86025
| 67>    C       -1.25860        15.77423        -1.64598
| 68>    C       -2.14832        16.28040        -2.55396
| 69>    S       -3.19375        15.05193        -3.22959
| 70>    C       -2.29771        17.62464        -2.97035
| 71>    C       -3.22608        18.12832        -3.86175
| 72>    C       -3.11657        19.53520        -4.06095
| 73>    S       -4.32294        20.05988        -5.18529
| 74>    C       -4.86789        18.34996        -5.28786
| 75>    N       -4.21623        17.52525        -4.56957
| 76>    C       -6.00239        18.00256        -6.16486
| 77>    C       -2.11089        20.13396        -3.33785
| 78>    S       -1.28350        18.91621        -2.38066
| 79>    C       -1.71847        21.49230        -3.29554
| 80>    C       -0.68044        22.04524        -2.56676
| 81>    C       -0.58178        23.42149        -2.76889
| 82>    C       -1.54925        23.91677        -3.65271
| 83>    S       -2.58438        22.69144        -4.24305
| 84>    C       -1.36207        25.32153        -3.78477
| 85>    C       -0.27859        25.70664        -2.98561
| 86>    C        0.25256        24.53291        -2.32176
| 87>    C        1.31142        24.46914        -1.46360
| 88>    C        2.05305        25.61191        -1.09846
| 89>    N        2.65913        26.53656        -0.79341
| 90>    C        1.73991        23.25613        -0.88535
| 91>    N        2.09834        22.27198        -0.41821
| 92>    C       -0.02232        27.09015        -3.05787
| 93>    C       -0.89779        27.71381        -3.89224
| 94>    S       -2.05614        26.64214        -4.61342
| 95>    H       -0.42808        -3.25131         0.30845
| 96>    H        1.86403        -2.16953         0.95835
| 97>    H        1.80830         4.04240         1.10337
| 98>    H       -0.65334         5.20222         3.22786
| 99>    H        0.69784         5.76894         4.24383
|100>    H        0.91839         4.36851         3.17135
|101>    H        2.42588         9.65413         1.91401
|102>    H        2.50738         7.96021         1.36078
|103>    H        1.95112         8.33029         3.01039
|104>    H       -2.73512         9.62015        -1.82563
|105>    H       -2.69459        10.16594        -4.05795
|106>    H       -7.19811        10.67492        -5.87219
|107>    H       -7.23939        12.43856        -5.69741
|108>    H       -7.85771        11.41411        -4.40400
|109>    H       -0.60219        15.85286         1.08943
|110>    H        3.93263        15.41686         2.85323
|111>    H        4.53734        14.36517         1.56027
|112>    H        3.80936        13.65740         3.00084
|113>    H       -0.52151        16.38799        -1.16101
|114>    H       -5.78422        18.28533        -7.19392
|115>    H       -6.89731        18.53967        -5.85267
|116>    H       -6.18196        16.93239        -6.10962
|117>    H       -0.04369        21.45706        -1.93087
|118>    H        0.76126        27.59827        -2.52617
|119>    H       -0.94352        28.75540        -4.13931
|120> *
|121>
|122>                          ****END OF INPUT****

CARTESIAN COORDINATES (ANGSTROEM)
---------------------------------
  C     -0.217930   -2.205470    0.409840
  C      0.964780   -1.620660    0.746370
  C      0.850870   -0.217350    0.775230
  C     -0.437990    0.221610    0.455630
  S     -1.497930   -1.072840    0.123060
  C     -0.462590    1.647930    0.508070
  C      0.817480    2.094440    0.859050
  C      1.684120    0.940190    1.047910
  C      2.995870    0.951500    1.425740
  C      3.681170    2.153150    1.698730
  N      4.231250    3.132600    1.931400
  C      3.745800   -0.232060    1.584240
  N      4.361640   -1.190800    1.713630
  C      0.905050    3.489020    0.918350
  C     -0.301520    4.092140    0.627660
  S     -1.556590    2.928960    0.241440
  C     -0.571300    5.500050    0.515460
  C      0.089300    6.502890    1.217250
  O      0.881770    6.257190    2.301200
  C      0.428600    5.339690    3.277670
  C     -0.053420    7.888520    0.869850
  O      0.637660    8.866330    1.495210
  C      1.954810    8.672350    1.974200
  C     -0.969340    8.334420   -0.082940
  C     -1.754350    7.333190   -0.710610
  C     -1.540070    5.940350   -0.421250
  N     -2.370890    5.245760   -1.169240
  O     -3.064260    6.135480   -1.878280
  N     -2.707710    7.394420   -1.618630
  C     -1.118340    9.717030   -0.426440
  C     -2.007580   10.233120   -1.329170
  C     -1.890500   11.629340   -1.506180
  C     -2.664370   12.464280   -2.340260
  C     -3.664210   11.908480   -3.229080
  C     -3.572320   10.781370   -3.994170
  C     -4.743300   10.535070   -4.742760
  C     -5.734930   11.453720   -4.558750
  S     -5.216900   12.670120   -3.439710
  C     -7.087430   11.497600   -5.170190
  Cl    -4.889430    9.181490   -5.797180
  C     -2.398490   13.825680   -2.276900
  C     -1.385330   14.380500   -1.451900
  C     -0.618690   13.545420   -0.611940
  C     -0.883480   12.182180   -0.675610
  S     -0.100890   10.951310    0.276110
  C      0.371320   14.100170    0.287910
  C      0.274250   15.233550    1.043500
  C      1.431370   15.477270    1.814510
  C      2.419120   14.549440    1.657490
  S      1.912530   13.327580    0.538500
  C      3.754130   14.495000    2.305320
  Cl     1.567390   16.839590    2.860250
  C     -1.258600   15.774230   -1.645980
  C     -2.148320   16.280400   -2.553960
  S     -3.193750   15.051930   -3.229590
  C     -2.297710   17.624640   -2.970350
  C     -3.226080   18.128320   -3.861750
  C     -3.116570   19.535200   -4.060950
  S     -4.322940   20.059880   -5.185290
  C     -4.867890   18.349960   -5.287860
  N     -4.216230   17.525250   -4.569570
  C     -6.002390   18.002560   -6.164860
  C     -2.110890   20.133960   -3.337850
  S     -1.283500   18.916210   -2.380660
  C     -1.718470   21.492300   -3.295540
  C     -0.680440   22.045240   -2.566760
  C     -0.581780   23.421490   -2.768890
  C     -1.549250   23.916770   -3.652710
  S     -2.584380   22.691440   -4.243050
  C     -1.362070   25.321530   -3.784770
  C     -0.278590   25.706640   -2.985610
  C      0.252560   24.532910   -2.321760
  C      1.311420   24.469140   -1.463600
  C      2.053050   25.611910   -1.098460
  N      2.659130   26.536560   -0.793410
  C      1.739910   23.256130   -0.885350
  N      2.098340   22.271980   -0.418210
  C     -0.022320   27.090150   -3.057870
  C     -0.897790   27.713810   -3.892240
  S     -2.056140   26.642140   -4.613420
  H     -0.428080   -3.251310    0.308450
  H      1.864030   -2.169530    0.958350
  H      1.808300    4.042400    1.103370
  H     -0.653340    5.202220    3.227860
  H      0.697840    5.768940    4.243830
  H      0.918390    4.368510    3.171350
  H      2.425880    9.654130    1.914010
  H      2.507380    7.960210    1.360780
  H      1.951120    8.330290    3.010390
  H     -2.735120    9.620150   -1.825630
  H     -2.694590   10.165940   -4.057950
  H     -7.198110   10.674920   -5.872190
  H     -7.239390   12.438560   -5.697410
  H     -7.857710   11.414110   -4.404000
  H     -0.602190   15.852860    1.089430
  H      3.932630   15.416860    2.853230
  H      4.537340   14.365170    1.560270
  H      3.809360   13.657400    3.000840
  H     -0.521510   16.387990   -1.161010
  H     -5.784220   18.285330   -7.193920
  H     -6.897310   18.539670   -5.852670
  H     -6.181960   16.932390   -6.109620
  H     -0.043690   21.457060   -1.930870
  H      0.761260   27.598270   -2.526170
  H     -0.943520   28.755400   -4.139310

 Total Charge           Charge          ....    0
 Multiplicity           Mult            ....    1
 Number of Electrons    NEL             ....  640
 Basis Dimension        Dim             .... 1293

ORBITAL ENERGIES
----------------

  NO   OCC          E(Eh)            E(eV)
   0   2.0000    -101.575666     -2764.0144
   1   2.0000    -101.573841     -2763.9647
   2   2.0000     -88.985553     -2421.4200
   3   2.0000     -88.985413     -2421.4162
   4   2.0000     -88.985187     -2421.4100
   5   2.0000     -88.981753     -2421.3166
   6   2.0000     -88.967890     -2420.9394
   7   2.0000     -88.961481     -2420.7650
   8   2.0000     -88.949567     -2420.4408
   9   2.0000     -88.946891     -2420.3680
  10   2.0000     -88.940562     -2420.1957
  11   2.0000     -88.939459     -2420.1657
  12   2.0000     -19.351199      -526.5729
  13   2.0000     -19.268839      -524.3318
  14   2.0000     -19.264385      -524.2106
  15   2.0000     -14.480089      -394.0233
  16   2.0000     -14.477977      -393.9658
  17   2.0000     -14.429013      -392.6334
  18   2.0000     -14.426881      -392.5754
  19   2.0000     -14.423657      -392.4877
  20   2.0000     -14.423423      -392.4813
  21   2.0000     -14.417261      -392.3136
  22   2.0000     -10.369080      -282.1570
  23   2.0000     -10.363581      -282.0074
  24   2.0000     -10.360211      -281.9157
  25   2.0000     -10.356968      -281.8274
  26   2.0000     -10.351172      -281.6697
  27   2.0000     -10.349167      -281.6152
  28   2.0000     -10.344774      -281.4956
  29   2.0000     -10.334578      -281.2182
  30   2.0000     -10.329938      -281.0919
  31   2.0000     -10.328857      -281.0625
  32   2.0000     -10.327554      -281.0270
  33   2.0000     -10.327517      -281.0260
  34   2.0000     -10.326994      -281.0118
  35   2.0000     -10.326302      -280.9930
  36   2.0000     -10.325834      -280.9802
  37   2.0000     -10.324256      -280.9373
  38   2.0000     -10.324147      -280.9343
  39   2.0000     -10.323904      -280.9277
  40   2.0000     -10.323876      -280.9270
  41   2.0000     -10.323696      -280.9221
  42   2.0000     -10.322092      -280.8784
  43   2.0000     -10.320696      -280.8404
  44   2.0000     -10.315682      -280.7040
  45   2.0000     -10.314372      -280.6683
  46   2.0000     -10.311001      -280.5766
  47   2.0000     -10.310246      -280.5561
  48   2.0000     -10.309890      -280.5464
  49   2.0000     -10.308705      -280.5141
  50   2.0000     -10.308052      -280.4963
  51   2.0000     -10.306684      -280.4591
  52   2.0000     -10.305384      -280.4237
  53   2.0000     -10.305272      -280.4207
  54   2.0000     -10.300182      -280.2822
  55   2.0000     -10.299011      -280.2503
  56   2.0000     -10.297903      -280.2202
  57   2.0000     -10.297510      -280.2095
  58   2.0000     -10.297153      -280.1998
  59   2.0000     -10.296395      -280.1792
  60   2.0000     -10.295686      -280.1599
  61   2.0000     -10.295237      -280.1477
  62   2.0000     -10.295236      -280.1476
  63   2.0000     -10.293622      -280.1037
  64   2.0000     -10.293298      -280.0949
  65   2.0000     -10.293139      -280.0906
  66   2.0000     -10.292099      -280.0623
  67   2.0000     -10.291712      -280.0517
  68   2.0000     -10.289358      -279.9877
  69   2.0000     -10.286825      -279.9187
  70   2.0000     -10.286699      -279.9153
  71   2.0000     -10.285198      -279.8745
  72   2.0000     -10.279360      -279.7156
  73   2.0000     -10.275404      -279.6080
  74   2.0000     -10.270395      -279.4717
  75   2.0000     -10.270229      -279.4671
  76   2.0000     -10.269809      -279.4557
  77   2.0000     -10.269215      -279.4395
  78   2.0000     -10.267645      -279.3968
  79   2.0000     -10.261616      -279.2328
  80   2.0000      -9.530430      -259.3362
  81   2.0000      -9.528630      -259.2872
  82   2.0000      -8.080591      -219.8841
  83   2.0000      -8.079543      -219.8555
  84   2.0000      -8.079410      -219.8519
  85   2.0000      -8.076786      -219.7805
  86   2.0000      -8.062367      -219.3882
  87   2.0000      -8.057456      -219.2545
  88   2.0000      -8.045240      -218.9221
  89   2.0000      -8.042646      -218.8515
  90   2.0000      -8.035404      -218.6545
  91   2.0000      -8.033572      -218.6046
  92   2.0000      -7.300647      -198.6607
  93   2.0000      -7.298836      -198.6114
  94   2.0000      -7.290521      -198.3852
  95   2.0000      -7.290433      -198.3828
  96   2.0000      -7.288711      -198.3359
  97   2.0000      -7.288657      -198.3344
  98   2.0000      -6.049830      -164.6242
  99   2.0000      -6.048839      -164.5973
 100   2.0000      -6.048681      -164.5930
 101   2.0000      -6.046041      -164.5211
 102   2.0000      -6.045383      -164.5032
 103   2.0000      -6.044709      -164.4849
 104   2.0000      -6.044266      -164.4728
 105   2.0000      -6.043221      -164.4444
 106   2.0000      -6.041941      -164.4096
 107   2.0000      -6.041816      -164.4062
 108   2.0000      -6.041609      -164.4005
 109   2.0000      -6.039380      -164.3399
 110   2.0000      -6.031934      -164.1373
 111   2.0000      -6.027848      -164.0261
 112   2.0000      -6.027108      -164.0059
 113   2.0000      -6.023997      -163.9213
 114   2.0000      -6.023029      -163.8949
 115   2.0000      -6.018607      -163.7746
 116   2.0000      -6.014543      -163.6640
 117   2.0000      -6.011955      -163.5936
 118   2.0000      -6.010345      -163.5498
 119   2.0000      -6.007742      -163.4790
 120   2.0000      -6.007339      -163.4680
 121   2.0000      -6.005204      -163.4099
 122   2.0000      -6.004728      -163.3970
 123   2.0000      -6.003347      -163.3594
 124   2.0000      -6.000829      -163.2909
 125   2.0000      -5.998939      -163.2394
 126   2.0000      -5.996577      -163.1751
 127   2.0000      -5.994954      -163.1310
 128   2.0000      -1.305133       -35.5145
 129   2.0000      -1.182830       -32.1864
 130   2.0000      -1.158675       -31.5291
 131   2.0000      -1.074852       -29.2482
 132   2.0000      -1.040513       -28.3138
 133   2.0000      -1.036531       -28.2054
 134   2.0000      -1.019977       -27.7550
 135   2.0000      -1.015179       -27.6244
 136   2.0000      -1.013617       -27.5819
 137   2.0000      -1.007226       -27.4080
 138   2.0000      -1.005475       -27.3604
 139   2.0000      -1.001633       -27.2558
 140   2.0000      -1.001091       -27.2411
 141   2.0000      -0.995929       -27.1006
 142   2.0000      -0.992428       -27.0053
 143   2.0000      -0.987944       -26.8833
 144   2.0000      -0.985399       -26.8141
 145   2.0000      -0.978050       -26.6141
 146   2.0000      -0.965168       -26.2636
 147   2.0000      -0.953436       -25.9443
 148   2.0000      -0.948912       -25.8212
 149   2.0000      -0.935337       -25.4518
 150   2.0000      -0.932014       -25.3614
 151   2.0000      -0.920472       -25.0473
 152   2.0000      -0.916993       -24.9526
 153   2.0000      -0.909610       -24.7517
 154   2.0000      -0.900150       -24.4943
 155   2.0000      -0.895043       -24.3554
 156   2.0000      -0.888891       -24.1879
 157   2.0000      -0.879373       -23.9290
 158   2.0000      -0.869412       -23.6579
 159   2.0000      -0.862122       -23.4595
 160   2.0000      -0.859981       -23.4013
 161   2.0000      -0.851685       -23.1755
 162   2.0000      -0.849265       -23.1097
 163   2.0000      -0.845799       -23.0153
 164   2.0000      -0.842132       -22.9156
 165   2.0000      -0.839392       -22.8410
 166   2.0000      -0.831863       -22.6361
 167   2.0000      -0.829669       -22.5764
 168   2.0000      -0.814152       -22.1542
 169   2.0000      -0.805815       -21.9273
 170   2.0000      -0.798505       -21.7284
 171   2.0000      -0.798337       -21.7239
 172   2.0000      -0.793801       -21.6004
 173   2.0000      -0.788097       -21.4452
 174   2.0000      -0.782096       -21.2819
 175   2.0000      -0.776778       -21.1372
 176   2.0000      -0.771731       -20.9999
 177   2.0000      -0.770986       -20.9796
 178   2.0000      -0.764995       -20.8166
 179   2.0000      -0.744245       -20.2519
 180   2.0000      -0.737999       -20.0820
 181   2.0000      -0.735134       -20.0040
 182   2.0000      -0.724732       -19.7210
 183   2.0000      -0.713673       -19.4200
 184   2.0000      -0.701068       -19.0770
 185   2.0000      -0.700507       -19.0618
 186   2.0000      -0.695944       -18.9376
 187   2.0000      -0.684684       -18.6312
 188   2.0000      -0.681398       -18.5418
 189   2.0000      -0.674029       -18.3413
 190   2.0000      -0.671223       -18.2649
 191   2.0000      -0.664755       -18.0889
 192   2.0000      -0.658061       -17.9068
 193   2.0000      -0.655232       -17.8298
 194   2.0000      -0.645685       -17.5700
 195   2.0000      -0.640443       -17.4273
 196   2.0000      -0.636491       -17.3198
 197   2.0000      -0.635471       -17.2920
 198   2.0000      -0.630171       -17.1478
 199   2.0000      -0.627154       -17.0657
 200   2.0000      -0.620525       -16.8853
 201   2.0000      -0.618499       -16.8302
 202   2.0000      -0.616060       -16.7639
 203   2.0000      -0.614173       -16.7125
 204   2.0000      -0.611829       -16.6487
 205   2.0000      -0.607662       -16.5353
 206   2.0000      -0.605780       -16.4841
 207   2.0000      -0.603286       -16.4163
 208   2.0000      -0.598022       -16.2730
 209   2.0000      -0.594598       -16.1798
 210   2.0000      -0.582748       -15.8574
 211   2.0000      -0.582313       -15.8455
 212   2.0000      -0.573715       -15.6116
 213   2.0000      -0.571815       -15.5599
 214   2.0000      -0.567978       -15.4555
 215   2.0000      -0.566894       -15.4260
 216   2.0000      -0.564796       -15.3689
 217   2.0000      -0.554188       -15.0802
 218   2.0000      -0.553062       -15.0496
 219   2.0000      -0.546100       -14.8601
 220   2.0000      -0.545365       -14.8401
 221   2.0000      -0.543217       -14.7817
 222   2.0000      -0.538337       -14.6489
 223   2.0000      -0.537683       -14.6311
 224   2.0000      -0.533765       -14.5245
 225   2.0000      -0.532238       -14.4829
 226   2.0000      -0.527526       -14.3547
 227   2.0000      -0.523172       -14.2362
 228   2.0000      -0.519854       -14.1460
 229   2.0000      -0.513587       -13.9754
 230   2.0000      -0.513480       -13.9725
 231   2.0000      -0.512358       -13.9420
 232   2.0000      -0.511256       -13.9120
 233   2.0000      -0.510278       -13.8854
 234   2.0000      -0.509690       -13.8694
 235   2.0000      -0.504659       -13.7325
 236   2.0000      -0.501671       -13.6511
 237   2.0000      -0.501498       -13.6465
 238   2.0000      -0.498860       -13.5747
 239   2.0000      -0.496152       -13.5010
 240   2.0000      -0.495574       -13.4852
 241   2.0000      -0.494040       -13.4435
 242   2.0000      -0.492266       -13.3953
 243   2.0000      -0.488823       -13.3015
 244   2.0000      -0.488117       -13.2823
 245   2.0000      -0.485910       -13.2223
 246   2.0000      -0.484744       -13.1905
 247   2.0000      -0.481796       -13.1103
 248   2.0000      -0.477007       -12.9800
 249   2.0000      -0.476060       -12.9542
 250   2.0000      -0.474212       -12.9040
 251   2.0000      -0.471591       -12.8327
 252   2.0000      -0.468668       -12.7531
 253   2.0000      -0.467722       -12.7274
 254   2.0000      -0.465086       -12.6556
 255   2.0000      -0.464026       -12.6268
 256   2.0000      -0.463756       -12.6194
 257   2.0000      -0.460052       -12.5187
 258   2.0000      -0.457560       -12.4508
 259   2.0000      -0.456620       -12.4253
 260   2.0000      -0.455622       -12.3981
 261   2.0000      -0.454970       -12.3804
 262   2.0000      -0.454441       -12.3660
 263   2.0000      -0.451729       -12.2922
 264   2.0000      -0.450432       -12.2569
 265   2.0000      -0.448638       -12.2081
 266   2.0000      -0.447024       -12.1641
 267   2.0000      -0.441157       -12.0045
 268   2.0000      -0.440733       -11.9930
 269   2.0000      -0.439351       -11.9553
 270   2.0000      -0.438546       -11.9334
 271   2.0000      -0.437945       -11.9171
 272   2.0000      -0.436659       -11.8821
 273   2.0000      -0.435054       -11.8384
 274   2.0000      -0.434465       -11.8224
 275   2.0000      -0.434029       -11.8105
 276   2.0000      -0.433188       -11.7876
 277   2.0000      -0.432457       -11.7678
 278   2.0000      -0.430857       -11.7242
 279   2.0000      -0.430120       -11.7042
 280   2.0000      -0.424666       -11.5558
 281   2.0000      -0.422369       -11.4932
 282   2.0000      -0.420332       -11.4378
 283   2.0000      -0.416764       -11.3407
 284   2.0000      -0.414843       -11.2884
 285   2.0000      -0.413013       -11.2387
 286   2.0000      -0.408892       -11.1265
 287   2.0000      -0.407392       -11.0857
 288   2.0000      -0.406878       -11.0717
 289   2.0000      -0.402541       -10.9537
 290   2.0000      -0.401103       -10.9146
 291   2.0000      -0.397339       -10.8122
 292   2.0000      -0.394056       -10.7228
 293   2.0000      -0.391416       -10.6510
 294   2.0000      -0.387003       -10.5309
 295   2.0000      -0.375048       -10.2056
 296   2.0000      -0.372032       -10.1235
 297   2.0000      -0.370535       -10.0828
 298   2.0000      -0.368655       -10.0316
 299   2.0000      -0.365511        -9.9461
 300   2.0000      -0.364755        -9.9255
 301   2.0000      -0.362901        -9.8750
 302   2.0000      -0.349637        -9.5141
 303   2.0000      -0.341477        -9.2921
 304   2.0000      -0.341237        -9.2855
 305   2.0000      -0.327523        -8.9124
 306   2.0000      -0.326198        -8.8763
 307   2.0000      -0.320765        -8.7285
 308   2.0000      -0.316983        -8.6255
 309   2.0000      -0.315210        -8.5773
 310   2.0000      -0.310749        -8.4559
 311   2.0000      -0.307913        -8.3787
 312   2.0000      -0.305163        -8.3039
 313   2.0000      -0.297394        -8.0925
 314   2.0000      -0.289912        -7.8889
 315   2.0000      -0.283796        -7.7225
 316   2.0000      -0.281330        -7.6554
 317   2.0000      -0.257046        -6.9946
 318   2.0000      -0.244859        -6.6629
 319   2.0000      -0.223624        -6.0851
 320   0.0000      -0.099767        -2.7148
 321   0.0000      -0.096269        -2.6196
 322   0.0000      -0.073306        -1.9948
 323   0.0000      -0.051259        -1.3948
 324   0.0000      -0.016389        -0.4460

MULLIKEN ATOMIC CHARGES
-----------------------
   0 C :   -0.082698
   1 C :    0.035753
   2 C :   -0.031449
   3 C :   -0.123337
   4 S :    0.185075
   5 C :   -0.087803
   6 C :   -0.001557
   7 C :    0.301601
   8 C :   -0.303404
   9 C :   -0.189188
  10 N :    0.165897
  11 C :   -0.191545
  12 N :    0.172178
  13 C :   -0.046468
  14 C :   -0.182443
  15 S :    0.233103
  16 C :    0.115381
  17 C :    0.032681
  18 O :   -0.337960
  19 C :    0.190380
  20 C :    0.105417
  21 O :   -0.325534
  22 C :    0.208951
  23 C :    0.114047
  24 C :   -0.037831
  25 C :   -0.086137
  26 N :    0.026532
  27 O :   -0.093742
  28 N :    0.040261
  29 C :   -0.101180
  30 C :   -0.104629
  31 C :    0.102776
  32 C :    0.137995
  33 C :   -0.210309
  34 C :    0.045176
  35 C :    0.081211
  36 C :   -0.266654
  37 S :    0.141188
  38 C :    0.125101
  39 Cl:   -0.092320
  40 C :   -0.149696
  41 C :    0.101613
  42 C :    0.131908
  43 C :   -0.126654
  44 S :    0.126040
  45 C :   -0.203847
  46 C :    0.027113
  47 C :    0.083478
  48 C :   -0.266906
  49 S :    0.137571
  50 C :    0.123894
  51 Cl:   -0.089595
  52 C :   -0.110144
  53 C :   -0.034215
  54 S :    0.151200
  55 C :   -0.114481
  56 C :    0.074429
  57 C :   -0.022915
  58 S :    0.074920
  59 C :   -0.188714
  60 N :   -0.024810
  61 C :    0.119375
  62 C :   -0.158654
  63 S :    0.157649
  64 C :   -0.054202
  65 C :   -0.074132
  66 C :    0.021879
  67 C :   -0.107899
  68 S :    0.178557
  69 C :   -0.112815
  70 C :   -0.032834
  71 C :    0.297726
  72 C :   -0.298084
  73 C :   -0.191793
  74 N :    0.170694
  75 C :   -0.188879
  76 N :    0.174516
  77 C :    0.035148
  78 C :   -0.084248
  79 S :    0.175094
  80 H :    0.036445
  81 H :    0.011382
  82 H :    0.017210
  83 H :    0.036202
  84 H :    0.037244
  85 H :    0.042330
  86 H :    0.034176
  87 H :    0.030146
  88 H :    0.031682
  89 H :    0.002851
  90 H :   -0.010331
  91 H :    0.022186
  92 H :    0.027371
  93 H :    0.033854
  94 H :   -0.011286
  95 H :    0.024847
  96 H :    0.029924
  97 H :    0.033412
  98 H :   -0.010833
  99 H :    0.042429
 100 H :    0.042089
 101 H :    0.047202
 102 H :    0.012205
 103 H :    0.010927
 104 H :    0.034535
Sum of atomic charges:   -0.0000000

LOEWDIN ATOMIC CHARGES
----------------------
   0 C :   -0.178162
   1 C :   -0.034578
   2 C :   -0.077562
   3 C :   -0.183765
   4 S :    0.480392
   5 C :   -0.182249
   6 C :   -0.079598
   7 C :    0.085193
   8 C :   -0.109957
   9 C :   -0.015695
  10 N :   -0.041189
  11 C :   -0.017901
  12 N :   -0.035480
  13 C :   -0.028213
  14 C :   -0.171837
  15 S :    0.517375
  16 C :   -0.088465
  17 C :    0.043574
  18 O :   -0.098913
  19 C :    0.086334
  20 C :    0.050616
  21 O :   -0.093337
  22 C :    0.085038
  23 C :   -0.065779
  24 C :   -0.042453
  25 C :   -0.057158
  26 N :   -0.046053
  27 O :    0.070467
  28 N :   -0.023391
  29 C :   -0.156361
  30 C :   -0.049042
  31 C :   -0.037779
  32 C :   -0.055095
  33 C :   -0.172246
  34 C :   -0.063563
  35 C :   -0.176856
  36 C :   -0.201487
  37 S :    0.434512
  38 C :   -0.061668
  39 Cl:    0.126065
  40 C :   -0.154027
  41 C :   -0.034613
  42 C :   -0.059254
  43 C :   -0.157993
  44 S :    0.419282
  45 C :   -0.170083
  46 C :   -0.070417
  47 C :   -0.177961
  48 C :   -0.201456
  49 S :    0.431876
  50 C :   -0.061475
  51 Cl:    0.127153
  52 C :   -0.060746
  53 C :   -0.167490
  54 S :    0.424940
  55 C :   -0.184865
  56 C :   -0.068161
  57 C :   -0.210472
  58 S :    0.341726
  59 C :   -0.085218
  60 N :   -0.093918
  61 C :   -0.065960
  62 C :   -0.208311
  63 S :    0.457096
  64 C :   -0.177009
  65 C :   -0.040111
  66 C :   -0.065709
  67 C :   -0.190175
  68 S :    0.469491
  69 C :   -0.180004
  70 C :   -0.081866
  71 C :    0.084397
  72 C :   -0.104855
  73 C :   -0.016507
  74 N :   -0.035461
  75 C :   -0.017199
  76 N :   -0.034325
  77 C :   -0.033968
  78 C :   -0.181812
  79 S :    0.472129
  80 H :    0.027574
  81 H :    0.042348
  82 H :    0.039982
  83 H :    0.023214
  84 H :    0.026495
  85 H :    0.020214
  86 H :    0.023096
  87 H :    0.020941
  88 H :    0.019649
  89 H :    0.029657
  90 H :    0.034925
  91 H :    0.032794
  92 H :    0.036041
  93 H :    0.038247
  94 H :    0.033324
  95 H :    0.034218
  96 H :    0.037107
  97 H :    0.037790
  98 H :    0.026990
  99 H :    0.045025
 100 H :    0.045071
 101 H :    0.049745
 102 H :    0.036435
 103 H :    0.042109
 104 H :    0.026608

  Mayer bond orders larger than 0.100000
B(  0-C ,  1-C ) :   1.5490 B(  0-C ,  4-S ) :   1.1509 B(  0-C , 80-H ) :   0.9649
B(  1-C ,  2-C ) :   1.2755 B(  1-C , 81-H ) :   0.9962 B(  2-C ,  3-C ) :   1.4607
B(  2-C ,  7-C ) :   1.0152 B(  3-C ,  4-S ) :   1.1401 B(  3-C ,  5-C ) :   1.1749
B(  5-C ,  6-C ) :   1.4526 B(  5-C , 15-S ) :   1.1303 B(  6-C ,  7-C ) :   0.9957
B(  6-C , 13-C ) :   1.2817 B(  7-C ,  8-C ) :   1.7037 B(  8-C ,  9-C ) :   1.1382
B(  8-C , 11-C ) :   1.1300 B(  9-C , 10-N ) :   2.9850 B( 11-C , 12-N ) :   3.0031
B( 13-C , 14-C ) :   1.4707 B( 13-C , 82-H ) :   0.9949 B( 14-C , 15-S ) :   1.1272
B( 14-C , 16-C ) :   1.0479 B( 16-C , 17-C ) :   1.4233 B( 16-C , 23-C ) :   0.1051
B( 16-C , 25-C ) :   1.1287 B( 17-C , 18-O ) :   1.1748 B( 17-C , 20-C ) :   1.1213
B( 18-O , 19-C ) :   0.9251 B( 19-C , 83-H ) :   0.9647 B( 19-C , 84-H ) :   0.9769
B( 19-C , 85-H ) :   0.9655 B( 20-C , 21-O ) :   1.1910 B( 20-C , 23-C ) :   1.4612
B( 21-O , 22-C ) :   0.9079 B( 22-C , 86-H ) :   0.9738 B( 22-C , 87-H ) :   0.9743
B( 22-C , 88-H ) :   0.9788 B( 23-C , 24-C ) :   1.1427 B( 23-C , 29-C ) :   1.1369
B( 24-C , 25-C ) :   1.1363 B( 24-C , 28-N ) :   1.6060 B( 25-C , 26-N ) :   1.6082
B( 26-N , 27-O ) :   1.0613 B( 26-N , 28-N ) :   0.1732 B( 27-O , 28-N ) :   1.0516
B( 29-C , 30-C ) :   1.5664 B( 29-C , 44-S ) :   1.0599 B( 30-C , 31-C ) :   1.1587
B( 30-C , 89-H ) :   0.9785 B( 31-C , 32-C ) :   1.3128 B( 31-C , 43-C ) :   1.2736
B( 32-C , 33-C ) :   0.9823 B( 32-C , 40-C ) :   1.4055 B( 33-C , 34-C ) :   1.5495
B( 33-C , 37-S ) :   1.1344 B( 34-C , 35-C ) :   1.2197 B( 34-C , 90-H ) :   1.0068
B( 35-C , 36-C ) :   1.6006 B( 35-C , 39-Cl) :   1.0029 B( 36-C , 37-S ) :   1.1262
B( 36-C , 38-C ) :   1.0839 B( 38-C , 91-H ) :   0.9443 B( 38-C , 92-H ) :   0.9480
B( 38-C , 93-H ) :   0.9491 B( 40-C , 41-C ) :   1.2630 B( 40-C , 54-S ) :   1.0357
B( 41-C , 42-C ) :   1.3178 B( 41-C , 52-C ) :   1.1879 B( 42-C , 43-C ) :   1.3915
B( 42-C , 45-C ) :   0.9860 B( 43-C , 44-S ) :   1.0278 B( 45-C , 46-C ) :   1.5464
B( 45-C , 49-S ) :   1.1368 B( 46-C , 47-C ) :   1.2162 B( 46-C , 94-H ) :   1.0080
B( 47-C , 48-C ) :   1.6027 B( 47-C , 51-Cl) :   1.0062 B( 48-C , 49-S ) :   1.1245
B( 48-C , 50-C ) :   1.0836 B( 50-C , 95-H ) :   0.9444 B( 50-C , 96-H ) :   0.9485
B( 50-C , 97-H ) :   0.9489 B( 52-C , 53-C ) :   1.5189 B( 52-C , 98-H ) :   0.9929
B( 53-C , 54-S ) :   1.0777 B( 53-C , 55-C ) :   1.1858 B( 55-C , 56-C ) :   1.4552
B( 55-C , 62-C ) :   0.1115 B( 55-C , 63-S ) :   1.1153 B( 56-C , 57-C ) :   1.2271
B( 56-C , 60-N ) :   1.2667 B( 57-C , 58-S ) :   1.0360 B( 57-C , 62-C ) :   1.5362
B( 58-S , 59-C ) :   1.0277 B( 58-S , 60-N ) :   0.1005 B( 59-C , 60-N ) :   1.8319
B( 59-C , 61-C ) :   1.0673 B( 61-C , 99-H ) :   0.9448 B( 61-C ,100-H ) :   0.9445
B( 61-C ,101-H ) :   0.9488 B( 62-C , 63-S ) :   1.1125 B( 62-C , 64-C ) :   1.1816
B( 64-C , 65-C ) :   1.4473 B( 64-C , 68-S ) :   1.1071 B( 65-C , 66-C ) :   1.2949
B( 65-C ,102-H ) :   0.9930 B( 66-C , 67-C ) :   1.4597 B( 66-C , 71-C ) :   0.9876
B( 67-C , 68-S ) :   1.1172 B( 67-C , 69-C ) :   1.1832 B( 69-C , 70-C ) :   1.4532
B( 69-C , 79-S ) :   1.1387 B( 70-C , 71-C ) :   1.0209 B( 70-C , 77-C ) :   1.2729
B( 71-C , 72-C ) :   1.7103 B( 72-C , 73-C ) :   1.1313 B( 72-C , 75-C ) :   1.1322
B( 73-C , 74-N ) :   3.0019 B( 75-C , 76-N ) :   2.9939 B( 77-C , 78-C ) :   1.5549
B( 77-C ,103-H ) :   0.9962 B( 78-C , 79-S ) :   1.1415 B( 78-C ,104-H ) :   0.9639

-----------------------------------------------------------------------------
         ABSORPTION SPECTRUM VIA TRANSITION ELECTRIC DIPOLE MOMENTS
-----------------------------------------------------------------------------
State   Energy  Wavelength   fosc         T2         TX        TY        TZ
        (cm-1)    (nm)                  (au**2)     (au)      (au)      (au)
-----------------------------------------------------------------------------
   0   12386.4    807.3   0.182398120   4.84786  -0.21189  -2.17828   0.24097
   1   14542.8    687.6   0.177646547   4.02147   0.32871  -1.94490   0.36166
   2   17796.4    561.9   0.789979451  14.61369   1.02983  -3.40818   1.39192
   3   19741.9    506.5   0.140559747   2.34394  -0.35538   1.39369  -0.52466
   4   20302.8    492.5   0.277241313   4.49551  -0.34924   2.03669  -0.47480
   5   22187.4    450.7   0.972277330  14.42642   0.27263   3.76501  -0.42044
   6   22973.2    435.3   0.028383577   0.40674  -0.18084  -0.23510  -0.56460
   7   24644.0    405.8   0.146721712   1.96001   0.18321   1.38765   0.02930
   8   24878.5    402.0   0.081901973   1.08379  -0.71939   0.68270  -0.31652
   9   25681.5    389.4   0.040427023   0.51823  -0.58314  -0.25348  -0.33754
  10   26617.2    375.7   0.003992485   0.04938   0.17215   0.13370  -0.04324
  11   28094.1    355.9   0.050611399   0.59307   0.35482   0.65313   0.20148
  12   28294.8    353.4   0.339754330   3.95307  -1.09095  -1.44094  -0.82861
  13   28899.2    346.0   0.150585438   1.71543  -1.01619  -0.42169  -0.71061
  14   30023.6    333.1   0.008956020   0.09820   0.12221   0.00332  -0.28854
  15   30269.0    330.4   0.007040192   0.07657   0.07032  -0.23704  -0.12424
  16   30762.2    325.1   0.051534786   0.55152   0.51950  -0.35424   0.39517
  17   31235.3    320.2   0.564156332   5.94606   2.32393  -0.44759   0.58744
  18   31489.7    317.6   0.193283685   2.02070  -0.99535   0.18161  -0.99849
  19   31665.7    315.8   0.412888298   4.29259   1.38354  -0.85893   1.28087
  20   31792.0    314.5   0.366455388   3.79471  -1.64328  -0.74797  -0.73135
  21   32153.3    311.0   0.022040389   0.22567   0.10794  -0.44206   0.13639
  22   32474.7    307.9   0.088825713   0.90047  -0.70408  -0.34136  -0.53685
  23   32759.3    305.3   0.039212944   0.39407  -0.08614  -0.62038   0.04216
  24   33213.6    301.1   0.091432388   0.90627   0.06391   0.94833  -0.05355
  25   33259.2    300.7   0.064739796   0.64082   0.30172  -0.64441   0.36677
  26   33377.2    299.6   0.091652345   0.90400   0.13524   0.92746   0.15978
  27   33723.0    296.5   0.025347215   0.24745  -0.35416  -0.27233  -0.21875
  28   33851.6    295.4   0.219076190   2.13055   0.10861   1.45032  -0.12383
  29   33972.7    294.4   0.006907962   0.06694   0.09674   0.23920  -0.01918
  30   34041.6    293.8   0.079519210   0.76902  -0.58156   0.44388  -0.48350
  31   34240.8    292.0   0.015508378   0.14911  -0.04872   0.38288  -0.01155
  32   34601.3    289.0   0.057758412   0.54954   0.16367  -0.68980   0.21662
  33   34934.9    286.2   0.233864322   2.20384  -0.76912  -1.15498  -0.52756
  34   35122.0    284.7   0.022602309   0.21186   0.11211  -0.44044  -0.07281
  35   35641.0    280.6   0.045659427   0.42175  -0.33391  -0.43265  -0.35081
  36   36128.2    276.8   0.016635065   0.15158  -0.10266  -0.29508  -0.23232
  37   36402.2    274.7   0.031247655   0.28260   0.38737  -0.20873   0.29828
  38   36531.9    273.7   0.032028223   0.28863  -0.49968  -0.04656  -0.19177
  39   36673.6    272.7   0.014210793   0.12757  -0.33899   0.11231  -0.00642
  40   36947.3    270.7   0.066993031   0.59693   0.42454   0.38872   0.51536
  41   37122.2    269.4   0.021281902   0.18874   0.16178   0.14311   0.37694
  42   37287.9    268.2   0.020069182   0.17719   0.23817  -0.21166   0.27507
  43   37381.0    267.5   0.067465826   0.59417  -0.53437  -0.46298  -0.30703
  44   37585.9    266.1   0.062613192   0.54842  -0.50482  -0.50420  -0.19841
  45   37956.8    263.5   0.030132341   0.26135  -0.22918  -0.43224  -0.14830
  46   38097.4    262.5   0.073600205   0.63600  -0.41599  -0.60658  -0.30825
  47   38290.4    261.2   0.014313581   0.12306   0.14836  -0.15183   0.27929
  48   38639.4    258.8   0.006034389   0.05141   0.10081  -0.20213   0.01984
  49   38971.6    256.6   0.045299664   0.38267  -0.26636   0.38777  -0.40169
  50   39098.1    255.8   0.032594240   0.27445  -0.16055   0.48990  -0.09313
  51   39290.3    254.5   0.076430724   0.64041   0.72762   0.02816   0.33195
  52   39558.1    252.8   0.070844304   0.58958   0.40753  -0.63418   0.14600
  53   39568.1    252.7   0.071970733   0.59881   0.65432   0.20329   0.35965
  54   39881.4    250.7   0.002447151   0.02020  -0.06427  -0.06532  -0.10864
  55   40267.5    248.3   0.042888159   0.35064  -0.36256  -0.30437  -0.35573

FINAL SINGLE POINT ENERGY     -7731.227756842062

DIPOLE MOMENT
-------------
                                X             Y             Z
Electronic contribution:     -5.61603      17.40203     -11.49316
Nuclear contribution   :      2.92862     -17.75778      10.76746
                        -----------------------------------------
Total Dipole Moment    :     -2.68742      -0.35575      -0.72570
                        -----------------------------------------
Magnitude (a.u.)       :      2.80632
Magnitude (Debye)      :      7.13309

Rotational constants in cm-1:     0.001306     0.000194     0.000172
Rotational constants in MHz :    39.163430     5.816891     5.144478

                             ****ORCA TERMINATED NORMALLY****
TOTAL RUN TIME: 0 days 0 hours 11 minutes 7 seconds 144 msec
