                         Program Version 4.2.0 -  RELEASE  -
|  1> # ORCA input file
|  2> # SCF done       -180.612211003576          0.000612997698
|  3> ! CAM-B3LYP def2-SVP def2/J RIJCOSX Grid4 TightSCF
|  4> %maxcore 5000
|  5> %tddft
|  6>     Mode sTDDFT
|  7>     Ethresh 5.0
|  8>     maxcore 5000
|  9> end
| 10>
| 11> %pal
| 12>   nprocs 6
| 13>   end
| 14> * xyz 0 1
| 15>    C       -6.69627         0.87902         8.02117
| 16>    C       -7.68571         0.80501         8.96127
| 17>    F       -7.79394         1.75387         9.90221
| 18>    C       -8.60168        -0.26487         8.95487
| 19>    F       -9.56262        -0.31384         9.88959
| 20>    C       -8.51643        -1.24622         8.00736
| 21>    C       -7.50859        -1.19757         7.02530
| 22>    C       -6.58076        -0.11696         7.03113
| 23>    C       -5.55837        -0.04784         6.05575
| 24>    C       -5.46754        -1.02844         5.10453
| 25>    C       -6.40036        -2.10250         5.10651
| 26>    C       -7.39665        -2.19770         6.03327
| 27>    C       -6.08527        -3.01368         3.98906
| 28>    O       -6.69474        -4.03112         3.70097
| 29>    C       -4.91343        -2.44959         3.32211
| 30>    C       -4.53702        -1.22604         3.99208
| 31>    C       -3.51082        -0.37306         3.66745
| 32>    C       -3.21582         0.80913         4.37662
| 33>    N       -2.91971         1.78290         4.90886
| 34>    C       -2.60872        -0.52778         2.59474
| 35>    N       -1.83346        -0.56330         1.74723
| 36>    C       -4.26559        -3.00965         2.24127
| 37>    C       -4.55598        -4.16656         1.52458
| 38>    C       -3.74075        -4.57331         0.43159
| 39>    O       -2.67378        -3.82808         0.11497
| 40>    C       -1.88413        -4.23288        -0.98301
| 41>    C       -4.18382        -5.73270        -0.18180
| 42>    C       -5.33689        -6.23908         0.41343
| 43>    S       -5.87903        -5.28294         1.75621
| 44>    C       -6.03768        -7.38904         0.01679
| 45>    C       -7.21480        -7.88043         0.60809
| 46>    O       -7.71681        -7.21252         1.65796
| 47>    C       -8.89462        -7.69921         2.26087
| 48>    C       -7.69896        -9.02540        -0.01255
| 49>    C       -6.91605        -9.45206        -1.08583
| 50>    S       -5.54887        -8.39298        -1.31390
| 51>    C       -7.17884       -10.56604        -1.88910
| 52>    C       -6.43149       -11.04735        -2.93915
| 53>    C       -6.75817       -12.17439        -3.73153
| 54>    C       -5.84843       -12.45691        -4.70602
| 55>    C       -4.75077       -11.57009        -4.73070
| 56>    S       -4.91817       -10.35535        -3.48489
| 57>    C       -3.65295       -11.60214        -5.57592
| 58>    C       -3.39388       -12.51411        -6.62065
| 59>    C       -2.20850       -12.30018        -7.26188
| 60>    C       -1.46909       -11.20748        -6.75231
| 61>    S       -2.34277       -10.45381        -5.43952
| 62>    C       -0.22991       -10.72597        -7.13711
| 63>    C        0.52539       -11.29166        -8.15972
| 64>    C        1.77919       -10.86033        -8.54741
| 65>    C        2.58985       -11.42763        -9.59420
| 66>    C        2.27027       -12.48567       -10.41575
| 67>    C        3.11557       -12.98790       -11.42439
| 68>    N        3.75323       -13.44496       -12.26361
| 69>    C        1.06925       -13.21945       -10.37823
| 70>    N        0.12053       -13.86844       -10.40964
| 71>    C        3.84320       -10.67697        -9.64327
| 72>    C        3.80488        -9.66648        -8.65215
| 73>    C        2.51525        -9.73815        -7.93265
| 74>    O        2.15995        -9.01231        -7.02461
| 75>    C        4.84250        -8.79267        -8.44306
| 76>    C        5.97704        -8.92095        -9.25232
| 77>    C        6.00642        -9.93199       -10.24039
| 78>    C        4.95486       -10.81653       -10.45165
| 79>    S        7.50117        -9.91570       -11.12726
| 80>    C        8.05786        -8.56878       -10.17021
| 81>    C        7.17254        -8.15127        -9.23485
| 82>   Br        9.75664        -7.84203       -10.49526
| 83>    H       -6.00276         1.70517         8.04029
| 84>    H       -9.22572        -2.05900         8.01609
| 85>    H       -4.87245         0.78266         6.09063
| 86>    H       -8.09028        -3.02446         6.01102
| 87>    H       -3.38843        -2.49495         1.86777
| 88>    H       -2.46918        -4.24732        -1.90685
| 89>    H       -1.44672        -5.22074        -0.81323
| 90>    H       -1.09299        -3.49011        -1.06210
| 91>    H       -3.71773        -6.21208        -1.02399
| 92>    H       -9.10519        -7.01244         3.07785
| 93>    H       -8.74931        -8.70881         2.65668
| 94>    H       -9.73075        -7.69952         1.55521
| 95>    H       -8.58683        -9.55366         0.28351
| 96>    H       -8.08247       -11.11347        -1.65177
| 97>    H       -7.65565       -12.74050        -3.55546
| 98>    H       -5.93632       -13.27624        -5.39591
| 99>    H       -4.08043       -13.30140        -6.87458
|100>    H       -1.85605       -12.90237        -8.07985
|101>    H        0.17361        -9.87506        -6.60823
|102>    H        0.10296       -12.13560        -8.68435
|103>    H        4.78255        -8.03405        -7.67848
|104>    H        5.02813       -11.56987       -11.21784
|105>    H        7.35297        -7.33513        -8.55931
|106> *
|107>
|108>                          ****END OF INPUT****

CARTESIAN COORDINATES (ANGSTROEM)
---------------------------------
  C     -6.696270    0.879020    8.021170
  C     -7.685710    0.805010    8.961270
  F     -7.793940    1.753870    9.902210
  C     -8.601680   -0.264870    8.954870
  F     -9.562620   -0.313840    9.889590
  C     -8.516430   -1.246220    8.007360
  C     -7.508590   -1.197570    7.025300
  C     -6.580760   -0.116960    7.031130
  C     -5.558370   -0.047840    6.055750
  C     -5.467540   -1.028440    5.104530
  C     -6.400360   -2.102500    5.106510
  C     -7.396650   -2.197700    6.033270
  C     -6.085270   -3.013680    3.989060
  O     -6.694740   -4.031120    3.700970
  C     -4.913430   -2.449590    3.322110
  C     -4.537020   -1.226040    3.992080
  C     -3.510820   -0.373060    3.667450
  C     -3.215820    0.809130    4.376620
  N     -2.919710    1.782900    4.908860
  C     -2.608720   -0.527780    2.594740
  N     -1.833460   -0.563300    1.747230
  C     -4.265590   -3.009650    2.241270
  C     -4.555980   -4.166560    1.524580
  C     -3.740750   -4.573310    0.431590
  O     -2.673780   -3.828080    0.114970
  C     -1.884130   -4.232880   -0.983010
  C     -4.183820   -5.732700   -0.181800
  C     -5.336890   -6.239080    0.413430
  S     -5.879030   -5.282940    1.756210
  C     -6.037680   -7.389040    0.016790
  C     -7.214800   -7.880430    0.608090
  O     -7.716810   -7.212520    1.657960
  C     -8.894620   -7.699210    2.260870
  C     -7.698960   -9.025400   -0.012550
  C     -6.916050   -9.452060   -1.085830
  S     -5.548870   -8.392980   -1.313900
  C     -7.178840  -10.566040   -1.889100
  C     -6.431490  -11.047350   -2.939150
  C     -6.758170  -12.174390   -3.731530
  C     -5.848430  -12.456910   -4.706020
  C     -4.750770  -11.570090   -4.730700
  S     -4.918170  -10.355350   -3.484890
  C     -3.652950  -11.602140   -5.575920
  C     -3.393880  -12.514110   -6.620650
  C     -2.208500  -12.300180   -7.261880
  C     -1.469090  -11.207480   -6.752310
  S     -2.342770  -10.453810   -5.439520
  C     -0.229910  -10.725970   -7.137110
  C      0.525390  -11.291660   -8.159720
  C      1.779190  -10.860330   -8.547410
  C      2.589850  -11.427630   -9.594200
  C      2.270270  -12.485670  -10.415750
  C      3.115570  -12.987900  -11.424390
  N      3.753230  -13.444960  -12.263610
  C      1.069250  -13.219450  -10.378230
  N      0.120530  -13.868440  -10.409640
  C      3.843200  -10.676970   -9.643270
  C      3.804880   -9.666480   -8.652150
  C      2.515250   -9.738150   -7.932650
  O      2.159950   -9.012310   -7.024610
  C      4.842500   -8.792670   -8.443060
  C      5.977040   -8.920950   -9.252320
  C      6.006420   -9.931990  -10.240390
  C      4.954860  -10.816530  -10.451650
  S      7.501170   -9.915700  -11.127260
  C      8.057860   -8.568780  -10.170210
  C      7.172540   -8.151270   -9.234850
  Br     9.756640   -7.842030  -10.495260
  H     -6.002760    1.705170    8.040290
  H     -9.225720   -2.059000    8.016090
  H     -4.872450    0.782660    6.090630
  H     -8.090280   -3.024460    6.011020
  H     -3.388430   -2.494950    1.867770
  H     -2.469180   -4.247320   -1.906850
  H     -1.446720   -5.220740   -0.813230
  H     -1.092990   -3.490110   -1.062100
  H     -3.717730   -6.212080   -1.023990
  H     -9.105190   -7.012440    3.077850
  H     -8.749310   -8.708810    2.656680
  H     -9.730750   -7.699520    1.555210
  H     -8.586830   -9.553660    0.283510
  H     -8.082470  -11.113470   -1.651770
  H     -7.655650  -12.740500   -3.555460
  H     -5.936320  -13.276240   -5.395910
  H     -4.080430  -13.301400   -6.874580
  H     -1.856050  -12.902370   -8.079850
  H      0.173610   -9.875060   -6.608230
  H      0.102960  -12.135600   -8.684350
  H      4.782550   -8.034050   -7.678480
  H      5.028130  -11.569870  -11.217840
  H      7.352970   -7.335130   -8.559310

 Total Charge           Charge          ....    0
 Multiplicity           Mult            ....    1
 Number of Electrons    NEL             ....  528
 Basis Dimension        Dim             .... 1105

ORBITAL ENERGIES
----------------

  NO   OCC          E(Eh)            E(eV)
   0   2.0000    -482.880786    -13139.8542
   1   2.0000     -88.982194     -2421.3286
   2   2.0000     -88.975754     -2421.1534
   3   2.0000     -88.969334     -2420.9787
   4   2.0000     -88.969175     -2420.9743
   5   2.0000     -88.959023     -2420.6981
   6   2.0000     -62.558483     -1702.3029
   7   2.0000     -56.392429     -1534.5160
   8   2.0000     -56.389722     -1534.4424
   9   2.0000     -56.389688     -1534.4414
  10   2.0000     -24.791638      -674.6148
  11   2.0000     -24.790132      -674.5738
  12   2.0000     -19.276497      -524.5401
  13   2.0000     -19.267846      -524.3047
  14   2.0000     -19.208214      -522.6821
  15   2.0000     -19.207301      -522.6572
  16   2.0000     -14.410891      -392.1403
  17   2.0000     -14.405200      -391.9854
  18   2.0000     -14.402358      -391.9081
  19   2.0000     -14.400671      -391.8622
  20   2.0000     -10.373618      -282.2805
  21   2.0000     -10.372556      -282.2516
  22   2.0000     -10.362280      -281.9720
  23   2.0000     -10.357609      -281.8449
  24   2.0000     -10.357188      -281.8334
  25   2.0000     -10.356893      -281.8254
  26   2.0000     -10.353043      -281.7206
  27   2.0000     -10.344033      -281.4754
  28   2.0000     -10.343224      -281.4534
  29   2.0000     -10.336519      -281.2710
  30   2.0000     -10.335718      -281.2492
  31   2.0000     -10.335326      -281.2385
  32   2.0000     -10.333701      -281.1943
  33   2.0000     -10.333332      -281.1843
  34   2.0000     -10.332024      -281.1487
  35   2.0000     -10.330068      -281.0955
  36   2.0000     -10.327467      -281.0247
  37   2.0000     -10.324656      -280.9482
  38   2.0000     -10.324485      -280.9435
  39   2.0000     -10.320833      -280.8441
  40   2.0000     -10.318357      -280.7768
  41   2.0000     -10.318108      -280.7700
  42   2.0000     -10.315190      -280.6906
  43   2.0000     -10.313979      -280.6576
  44   2.0000     -10.312894      -280.6281
  45   2.0000     -10.311474      -280.5895
  46   2.0000     -10.309322      -280.5309
  47   2.0000     -10.307309      -280.4761
  48   2.0000     -10.306378      -280.4508
  49   2.0000     -10.305844      -280.4363
  50   2.0000     -10.305032      -280.4142
  51   2.0000     -10.302200      -280.3371
  52   2.0000     -10.301480      -280.3175
  53   2.0000     -10.301142      -280.3083
  54   2.0000     -10.300885      -280.3013
  55   2.0000     -10.300517      -280.2913
  56   2.0000     -10.299936      -280.2755
  57   2.0000     -10.299407      -280.2611
  58   2.0000     -10.297803      -280.2175
  59   2.0000     -10.295987      -280.1680
  60   2.0000     -10.293918      -280.1117
  61   2.0000     -10.293493      -280.1002
  62   2.0000     -10.292937      -280.0851
  63   2.0000     -10.292516      -280.0736
  64   2.0000     -10.291251      -280.0392
  65   2.0000     -10.291063      -280.0341
  66   2.0000     -10.285444      -279.8812
  67   2.0000     -10.285404      -279.8801
  68   2.0000     -10.284279      -279.8495
  69   2.0000     -10.283760      -279.8353
  70   2.0000     -10.282708      -279.8067
  71   2.0000     -10.278988      -279.7055
  72   2.0000      -8.787895      -239.1308
  73   2.0000      -8.077020      -219.7869
  74   2.0000      -8.071826      -219.6456
  75   2.0000      -8.065688      -219.4785
  76   2.0000      -8.065382      -219.4702
  77   2.0000      -8.051696      -219.0978
  78   2.0000      -6.624162      -180.2526
  79   2.0000      -6.609650      -179.8577
  80   2.0000      -6.609451      -179.8523
  81   2.0000      -6.046394      -164.5307
  82   2.0000      -6.042399      -164.4220
  83   2.0000      -6.041555      -164.3991
  84   2.0000      -6.038881      -164.3263
  85   2.0000      -6.037390      -164.2857
  86   2.0000      -6.035335      -164.2298
  87   2.0000      -6.035071      -164.2226
  88   2.0000      -6.032851      -164.1622
  89   2.0000      -6.031189      -164.1170
  90   2.0000      -6.030803      -164.1065
  91   2.0000      -6.026812      -163.9979
  92   2.0000      -6.026585      -163.9917
  93   2.0000      -6.021374      -163.8499
  94   2.0000      -6.016663      -163.7217
  95   2.0000      -6.013436      -163.6339
  96   2.0000      -2.740051       -74.5606
  97   2.0000      -2.735941       -74.4487
  98   2.0000      -2.735833       -74.4458
  99   2.0000      -2.724280       -74.1314
 100   2.0000      -2.724269       -74.1311
 101   2.0000      -1.313356       -35.7382
 102   2.0000      -1.298549       -35.3353
 103   2.0000      -1.184027       -32.2190
 104   2.0000      -1.174502       -31.9598
 105   2.0000      -1.123208       -30.5640
 106   2.0000      -1.120901       -30.5013
 107   2.0000      -1.023610       -27.8538
 108   2.0000      -1.015440       -27.6315
 109   2.0000      -1.011621       -27.5276
 110   2.0000      -1.006718       -27.3942
 111   2.0000      -1.006659       -27.3926
 112   2.0000      -0.998241       -27.1635
 113   2.0000      -0.993492       -27.0343
 114   2.0000      -0.987186       -26.8627
 115   2.0000      -0.984455       -26.7884
 116   2.0000      -0.981167       -26.6989
 117   2.0000      -0.980458       -26.6796
 118   2.0000      -0.970093       -26.3976
 119   2.0000      -0.937155       -25.5013
 120   2.0000      -0.925627       -25.1876
 121   2.0000      -0.920568       -25.0499
 122   2.0000      -0.909641       -24.7526
 123   2.0000      -0.900996       -24.5173
 124   2.0000      -0.895912       -24.3790
 125   2.0000      -0.886496       -24.1228
 126   2.0000      -0.881346       -23.9826
 127   2.0000      -0.878693       -23.9105
 128   2.0000      -0.876397       -23.8480
 129   2.0000      -0.870857       -23.6972
 130   2.0000      -0.862909       -23.4810
 131   2.0000      -0.861027       -23.4297
 132   2.0000      -0.851374       -23.1671
 133   2.0000      -0.847922       -23.0731
 134   2.0000      -0.835357       -22.7312
 135   2.0000      -0.831246       -22.6194
 136   2.0000      -0.826663       -22.4946
 137   2.0000      -0.822334       -22.3768
 138   2.0000      -0.809368       -22.0240
 139   2.0000      -0.796313       -21.6688
 140   2.0000      -0.792406       -21.5625
 141   2.0000      -0.776417       -21.1274
 142   2.0000      -0.756511       -20.5857
 143   2.0000      -0.754473       -20.5303
 144   2.0000      -0.749128       -20.3848
 145   2.0000      -0.739287       -20.1170
 146   2.0000      -0.725967       -19.7546
 147   2.0000      -0.713406       -19.4128
 148   2.0000      -0.707410       -19.2496
 149   2.0000      -0.703376       -19.1398
 150   2.0000      -0.695968       -18.9383
 151   2.0000      -0.687060       -18.6958
 152   2.0000      -0.682807       -18.5801
 153   2.0000      -0.678476       -18.4623
 154   2.0000      -0.668188       -18.1823
 155   2.0000      -0.664852       -18.0915
 156   2.0000      -0.659058       -17.9339
 157   2.0000      -0.654403       -17.8072
 158   2.0000      -0.650341       -17.6967
 159   2.0000      -0.648752       -17.6534
 160   2.0000      -0.644737       -17.5442
 161   2.0000      -0.639599       -17.4044
 162   2.0000      -0.635650       -17.2969
 163   2.0000      -0.634119       -17.2553
 164   2.0000      -0.630287       -17.1510
 165   2.0000      -0.619076       -16.8459
 166   2.0000      -0.615993       -16.7620
 167   2.0000      -0.614593       -16.7239
 168   2.0000      -0.605086       -16.4652
 169   2.0000      -0.600633       -16.3440
 170   2.0000      -0.595843       -16.2137
 171   2.0000      -0.586881       -15.9699
 172   2.0000      -0.584327       -15.9003
 173   2.0000      -0.581039       -15.8109
 174   2.0000      -0.578124       -15.7316
 175   2.0000      -0.577313       -15.7095
 176   2.0000      -0.570276       -15.5180
 177   2.0000      -0.569548       -15.4982
 178   2.0000      -0.563930       -15.3453
 179   2.0000      -0.559806       -15.2331
 180   2.0000      -0.557553       -15.1718
 181   2.0000      -0.552575       -15.0363
 182   2.0000      -0.545884       -14.8543
 183   2.0000      -0.540075       -14.6962
 184   2.0000      -0.539959       -14.6930
 185   2.0000      -0.537789       -14.6340
 186   2.0000      -0.532330       -14.4854
 187   2.0000      -0.532031       -14.4773
 188   2.0000      -0.529735       -14.4148
 189   2.0000      -0.528789       -14.3891
 190   2.0000      -0.526349       -14.3227
 191   2.0000      -0.525137       -14.2897
 192   2.0000      -0.524651       -14.2765
 193   2.0000      -0.521845       -14.2001
 194   2.0000      -0.519263       -14.1299
 195   2.0000      -0.517797       -14.0900
 196   2.0000      -0.512670       -13.9505
 197   2.0000      -0.510936       -13.9033
 198   2.0000      -0.509322       -13.8594
 199   2.0000      -0.507600       -13.8125
 200   2.0000      -0.502584       -13.6760
 201   2.0000      -0.502289       -13.6680
 202   2.0000      -0.502055       -13.6616
 203   2.0000      -0.498663       -13.5693
 204   2.0000      -0.493089       -13.4176
 205   2.0000      -0.492160       -13.3924
 206   2.0000      -0.486425       -13.2363
 207   2.0000      -0.486088       -13.2271
 208   2.0000      -0.485272       -13.2049
 209   2.0000      -0.482994       -13.1429
 210   2.0000      -0.482569       -13.1314
 211   2.0000      -0.479484       -13.0474
 212   2.0000      -0.473651       -12.8887
 213   2.0000      -0.470108       -12.7923
 214   2.0000      -0.466853       -12.7037
 215   2.0000      -0.460703       -12.5364
 216   2.0000      -0.457808       -12.4576
 217   2.0000      -0.455893       -12.4055
 218   2.0000      -0.453134       -12.3304
 219   2.0000      -0.450843       -12.2681
 220   2.0000      -0.448942       -12.2163
 221   2.0000      -0.445450       -12.1213
 222   2.0000      -0.444679       -12.1003
 223   2.0000      -0.440508       -11.9868
 224   2.0000      -0.439122       -11.9491
 225   2.0000      -0.437245       -11.8980
 226   2.0000      -0.436078       -11.8663
 227   2.0000      -0.435962       -11.8631
 228   2.0000      -0.432433       -11.7671
 229   2.0000      -0.431668       -11.7463
 230   2.0000      -0.425315       -11.5734
 231   2.0000      -0.424892       -11.5619
 232   2.0000      -0.421787       -11.4774
 233   2.0000      -0.420187       -11.4339
 234   2.0000      -0.419152       -11.4057
 235   2.0000      -0.418098       -11.3770
 236   2.0000      -0.416779       -11.3411
 237   2.0000      -0.414425       -11.2771
 238   2.0000      -0.413608       -11.2549
 239   2.0000      -0.405837       -11.0434
 240   2.0000      -0.400505       -10.8983
 241   2.0000      -0.400177       -10.8894
 242   2.0000      -0.396788       -10.7971
 243   2.0000      -0.388571       -10.5735
 244   2.0000      -0.384778       -10.4704
 245   2.0000      -0.379794       -10.3347
 246   2.0000      -0.377043       -10.2599
 247   2.0000      -0.370232       -10.0745
 248   2.0000      -0.364878        -9.9288
 249   2.0000      -0.362200        -9.8560
 250   2.0000      -0.352721        -9.5980
 251   2.0000      -0.348038        -9.4706
 252   2.0000      -0.336860        -9.1664
 253   2.0000      -0.327596        -8.9143
 254   2.0000      -0.324077        -8.8186
 255   2.0000      -0.320465        -8.7203
 256   2.0000      -0.313927        -8.5424
 257   2.0000      -0.309200        -8.4137
 258   2.0000      -0.308755        -8.4016
 259   2.0000      -0.299803        -8.1581
 260   2.0000      -0.290437        -7.9032
 261   2.0000      -0.286795        -7.8041
 262   2.0000      -0.258825        -7.0430
 263   2.0000      -0.228558        -6.2194
 264   0.0000      -0.122703        -3.3389
 265   0.0000      -0.082169        -2.2359
 266   0.0000      -0.064496        -1.7550
 267   0.0000      -0.051452        -1.4001
 268   0.0000      -0.045812        -1.2466

MULLIKEN ATOMIC CHARGES
-----------------------
   0 C :   -0.109092
   1 C :    0.239408
   2 F :   -0.175312
   3 C :    0.234961
   4 F :   -0.177146
   5 C :   -0.107517
   6 C :    0.119407
   7 C :    0.112907
   8 C :   -0.089127
   9 C :    0.043868
  10 C :    0.004560
  11 C :   -0.091722
  12 C :    0.158454
  13 O :   -0.192416
  14 C :   -0.108485
  15 C :    0.337359
  16 C :   -0.367388
  17 C :   -0.189619
  18 N :    0.136601
  19 C :   -0.195328
  20 N :    0.141997
  21 C :   -0.028659
  22 C :   -0.140612
  23 C :    0.286988
  24 O :   -0.283658
  25 C :    0.172541
  26 C :   -0.145522
  27 C :   -0.000984
  28 S :    0.216928
  29 C :   -0.109880
  30 C :    0.256603
  31 O :   -0.301582
  32 C :    0.172778
  33 C :   -0.101528
  34 C :   -0.029009
  35 S :    0.124003
  36 C :    0.011121
  37 C :   -0.038806
  38 C :    0.045405
  39 C :    0.027871
  40 C :   -0.019895
  41 S :    0.086482
  42 C :   -0.059315
  43 C :    0.033895
  44 C :    0.019984
  45 C :   -0.028427
  46 S :    0.129335
  47 C :    0.025719
  48 C :   -0.030667
  49 C :   -0.085148
  50 C :    0.326534
  51 C :   -0.360750
  52 C :   -0.187483
  53 N :    0.139749
  54 C :   -0.190785
  55 N :    0.131080
  56 C :    0.016289
  57 C :   -0.010010
  58 C :    0.138935
  59 O :   -0.163709
  60 C :   -0.078203
  61 C :    0.119836
  62 C :   -0.090775
  63 C :   -0.028498
  64 S :    0.181959
  65 C :   -0.122417
  66 C :    0.035281
  67 Br:    0.018574
  68 H :    0.006644
  69 H :   -0.005323
  70 H :   -0.007423
  71 H :   -0.019519
  72 H :    0.023064
  73 H :    0.029802
  74 H :    0.029474
  75 H :    0.060387
  76 H :   -0.016498
  77 H :    0.059254
  78 H :    0.029205
  79 H :    0.029868
  80 H :   -0.018816
  81 H :   -0.004700
  82 H :   -0.002000
  83 H :   -0.001915
  84 H :   -0.001706
  85 H :    0.020018
  86 H :    0.012690
  87 H :   -0.005029
  88 H :   -0.012776
  89 H :   -0.007764
  90 H :   -0.004874
Sum of atomic charges:   -0.0000000

LOEWDIN ATOMIC CHARGES
----------------------
   0 C :   -0.029698
   1 C :    0.063620
   2 F :   -0.052430
   3 C :    0.064712
   4 F :   -0.053792
   5 C :   -0.036357
   6 C :   -0.010834
   7 C :   -0.008284
   8 C :    0.013913
   9 C :   -0.019553
  10 C :   -0.048570
  11 C :    0.021356
  12 C :    0.080839
  13 O :   -0.182121
  14 C :   -0.128801
  15 C :    0.076153
  16 C :   -0.155278
  17 C :   -0.017680
  18 N :   -0.068603
  19 C :   -0.022992
  20 N :   -0.061507
  21 C :    0.061148
  22 C :   -0.226909
  23 C :    0.063497
  24 O :   -0.070735
  25 C :    0.085468
  26 C :   -0.124192
  27 C :   -0.149233
  28 S :    0.526403
  29 C :   -0.220013
  30 C :    0.030187
  31 O :   -0.082923
  32 C :    0.084542
  33 C :   -0.088573
  34 C :   -0.156666
  35 S :    0.444888
  36 C :   -0.053200
  37 C :   -0.155242
  38 C :   -0.015422
  39 C :   -0.035615
  40 C :   -0.153800
  41 S :    0.387795
  42 C :   -0.186346
  43 C :   -0.006905
  44 C :   -0.035954
  45 C :   -0.106353
  46 S :    0.408224
  47 C :   -0.064230
  48 C :    0.056011
  49 C :   -0.104789
  50 C :    0.075393
  51 C :   -0.155787
  52 C :   -0.019389
  53 N :   -0.064303
  54 C :   -0.015981
  55 N :   -0.072714
  56 C :   -0.019419
  57 C :   -0.048999
  58 C :    0.082192
  59 O :   -0.156113
  60 C :    0.018406
  61 C :   -0.034394
  62 C :   -0.145264
  63 C :   -0.012086
  64 S :    0.429514
  65 C :   -0.273239
  66 C :   -0.070825
  67 Br:    0.132992
  68 H :    0.047196
  69 H :    0.042416
  70 H :    0.039412
  71 H :    0.036133
  72 H :    0.049953
  73 H :    0.019722
  74 H :    0.019572
  75 H :    0.038520
  76 H :    0.023883
  77 H :    0.038494
  78 H :    0.019081
  79 H :    0.019042
  80 H :    0.032212
  81 H :    0.044076
  82 H :    0.038049
  83 H :    0.036488
  84 H :    0.037538
  85 H :    0.043400
  86 H :    0.034552
  87 H :    0.036902
  88 H :    0.039587
  89 H :    0.040519
  90 H :    0.038118

  Mayer bond orders larger than 0.100000
B(  0-C ,  1-C ) :   1.4377 B(  0-C ,  5-C ) :   0.1086 B(  0-C ,  7-C ) :   1.1936
B(  0-C , 68-H ) :   1.0067 B(  1-C ,  2-F ) :   1.1301 B(  1-C ,  3-C ) :   1.1956
B(  3-C ,  4-F ) :   1.1280 B(  3-C ,  5-C ) :   1.4417 B(  5-C ,  6-C ) :   1.1939
B(  5-C , 69-H ) :   1.0064 B(  6-C ,  7-C ) :   1.2608 B(  6-C , 11-C ) :   1.1829
B(  7-C ,  8-C ) :   1.2070 B(  8-C ,  9-C ) :   1.4645 B(  8-C , 70-H ) :   0.9886
B(  9-C , 10-C ) :   1.2243 B(  9-C , 15-C ) :   0.9721 B( 10-C , 11-C ) :   1.4757
B( 10-C , 12-C ) :   0.9502 B( 11-C , 71-H ) :   1.0157 B( 12-C , 13-O ) :   2.1253
B( 12-C , 14-C ) :   0.9994 B( 14-C , 15-C ) :   1.1149 B( 14-C , 21-C ) :   1.4036
B( 15-C , 16-C ) :   1.5928 B( 16-C , 17-C ) :   1.1558 B( 16-C , 19-C ) :   1.1482
B( 17-C , 18-N ) :   2.9546 B( 19-C , 20-N ) :   2.9603 B( 21-C , 22-C ) :   1.3682
B( 21-C , 72-H ) :   0.9294 B( 22-C , 23-C ) :   1.2768 B( 22-C , 28-S ) :   1.0315
B( 23-C , 24-O ) :   1.2074 B( 23-C , 26-C ) :   1.3079 B( 24-O , 25-C ) :   0.9403
B( 25-C , 73-H ) :   0.9709 B( 25-C , 74-H ) :   0.9712 B( 25-C , 75-H ) :   0.9790
B( 26-C , 27-C ) :   1.3213 B( 26-C , 76-H ) :   1.0041 B( 27-C , 28-S ) :   1.1351
B( 27-C , 29-C ) :   1.2540 B( 29-C , 30-C ) :   1.3658 B( 29-C , 35-S ) :   1.1030
B( 30-C , 31-O ) :   1.1819 B( 30-C , 33-C ) :   1.2558 B( 31-O , 32-C ) :   0.9403
B( 32-C , 77-H ) :   0.9792 B( 32-C , 78-H ) :   0.9717 B( 32-C , 79-H ) :   0.9716
B( 33-C , 34-C ) :   1.3631 B( 33-C , 80-H ) :   1.0128 B( 34-C , 35-S ) :   1.1092
B( 34-C , 36-C ) :   1.2206 B( 36-C , 37-C ) :   1.5335 B( 36-C , 81-H ) :   0.9699
B( 37-C , 38-C ) :   1.1544 B( 37-C , 41-S ) :   1.0378 B( 38-C , 39-C ) :   1.5757
B( 38-C , 82-H ) :   1.0006 B( 39-C , 40-C ) :   1.2003 B( 39-C , 83-H ) :   0.9936
B( 40-C , 41-S ) :   1.0646 B( 40-C , 42-C ) :   1.4716 B( 42-C , 43-C ) :   1.2079
B( 42-C , 46-S ) :   1.0490 B( 43-C , 44-C ) :   1.5656 B( 43-C , 84-H ) :   0.9946
B( 44-C , 45-C ) :   1.1845 B( 44-C , 85-H ) :   0.9899 B( 45-C , 46-S ) :   1.0903
B( 45-C , 47-C ) :   1.3979 B( 47-C , 48-C ) :   1.2887 B( 47-C , 86-H ) :   0.9649
B( 48-C , 49-C ) :   1.4812 B( 48-C , 87-H ) :   0.9475 B( 49-C , 50-C ) :   1.1093
B( 49-C , 58-C ) :   0.9602 B( 50-C , 51-C ) :   1.5840 B( 50-C , 56-C ) :   0.9936
B( 51-C , 52-C ) :   1.1498 B( 51-C , 54-C ) :   1.1543 B( 52-C , 53-N ) :   2.9613
B( 54-C , 55-N ) :   2.9718 B( 56-C , 57-C ) :   1.2758 B( 56-C , 63-C ) :   1.4161
B( 57-C , 58-C ) :   0.9365 B( 57-C , 60-C ) :   1.4292 B( 58-C , 59-O ) :   2.1881
B( 60-C , 61-C ) :   1.2398 B( 60-C , 88-H ) :   1.0172 B( 61-C , 62-C ) :   1.3119
B( 61-C , 66-C ) :   1.1612 B( 62-C , 63-C ) :   1.3228 B( 62-C , 64-S ) :   1.0837
B( 63-C , 89-H ) :   0.9803 B( 64-S , 65-C ) :   1.0860 B( 65-C , 66-C ) :   1.6185
B( 65-C , 67-Br) :   1.0157 B( 66-C , 90-H ) :   1.0013

-----------------------------------------------------------------------------
         ABSORPTION SPECTRUM VIA TRANSITION ELECTRIC DIPOLE MOMENTS
-----------------------------------------------------------------------------
State   Energy  Wavelength   fosc         T2         TX        TY        TZ
        (cm-1)    (nm)                  (au**2)     (au)      (au)      (au)
-----------------------------------------------------------------------------
   0   10288.4    972.0   1.752303565  56.07074  -3.88883   3.25287   5.51059
   1   17652.2    566.5   0.497609596   9.28039   2.43127   1.83044  -0.13717
   2   18683.4    535.2   0.675916481  11.91001   2.01323   2.66679   0.86323
   3   22362.3    447.2   0.073787177   1.08627   0.08401  -0.80705  -0.65412
   4   23890.9    418.6   0.072709653   1.00193  -0.63173  -0.74480  -0.21933
   5   24231.2    412.7   0.004408713   0.05990   0.18980   0.06166  -0.14167
   6   24896.0    401.7   0.028054203   0.37097  -0.26253  -0.39609  -0.38101
   7   25762.6    388.2   0.313456285   4.00556  -1.78117  -0.81934   0.40210
   8   26320.5    379.9   0.000129575   0.00162   0.03524   0.01638  -0.01051
   9   26834.0    372.7   0.022761234   0.27924   0.24194   0.43803   0.16983
  10   27086.3    369.2   0.104056870   1.26473   0.71604  -0.13362  -0.85684
  11   27617.9    362.1   0.004729151   0.05637   0.19828   0.12377  -0.04168
  12   27995.4    357.2   0.001945848   0.02288   0.08421  -0.12081  -0.03459
  13   28064.0    356.3   0.089274922   1.04726   0.69874   0.70659   0.24445
  14   29291.9    341.4   0.058801253   0.66087   0.44174  -0.30136  -0.61230
  15   29682.8    336.9   0.015943217   0.17683  -0.32030  -0.26000   0.08144
  16   30581.3    327.0   0.172188415   1.85363   0.89121   0.99056   0.27959
  17   30852.4    324.1   0.016948839   0.18085  -0.38470  -0.18122   0.00411
  18   31416.3    318.3   0.010489015   0.10991  -0.20674   0.01858   0.25851
  19   32001.7    312.5   0.625884475   6.43868   2.22456   1.18336  -0.29944
  20   32476.2    307.9   0.035720528   0.36210  -0.16685   0.22199   0.53383
  21   32497.2    307.7   0.000127820   0.00129  -0.02016  -0.01396   0.02634
  22   32553.7    307.2   0.174309768   1.76277   0.63277  -0.35064  -1.11330
  23   32800.9    304.9   0.024913983   0.25005  -0.26514   0.10188   0.41156
  24   33132.5    301.8   0.030915047   0.30718   0.43428   0.31463  -0.13995
  25   33249.5    300.8   0.103760260   1.02736  -0.70041  -0.73177  -0.03604
  26   33620.2    297.4   0.000225240   0.00221   0.04341  -0.01433  -0.01076
  27   33899.6    295.0   0.003500696   0.03400   0.13078   0.02729  -0.12708
  28   34114.1    293.1   0.163380030   1.57667  -0.92547  -0.08010   0.84485
  29   34743.3    287.8   0.003149044   0.02984  -0.10424   0.01132   0.13728
  30   34908.7    286.5   0.023995777   0.22630  -0.18375   0.12467   0.42070
  31   35170.7    284.3   0.035113173   0.32867  -0.30994  -0.42596  -0.22621
  32   35625.3    280.7   0.006067316   0.05607   0.02288   0.16358   0.16966
  33   36023.3    277.6   0.109401582   0.99981   0.29915  -0.49643  -0.81478
  34   36632.3    273.0   0.232634513   2.09067   1.01212  -0.03022  -1.03217
  35   36836.3    271.5   0.485947452   4.34299  -1.65789  -0.80839   0.97001
  36   37647.9    265.6   0.136680944   1.19521   0.43034  -0.54953  -0.84144
  37   37905.7    263.8   0.158233916   1.37426  -0.49791  -0.89668  -0.56773
  38   38453.0    260.1   0.015557378   0.13319   0.07819   0.26948   0.23336
  39   39015.5    256.3   0.021827028   0.18418   0.24572   0.33370   0.11156
  40   39265.3    254.7   0.020658583   0.17321   0.22576  -0.22342  -0.26893
  41   39465.8    253.4   0.091260001   0.76126   0.08346   0.67920   0.54128
  42   39932.1    250.4   0.000220203   0.00182  -0.01423  -0.03992  -0.00440
  43   39961.3    250.2   0.171757602   1.41499  -0.26275  -0.93427  -0.68782
  44   40059.9    249.6   0.001949308   0.01602  -0.06470   0.00661   0.10858

FINAL SINGLE POINT ENERGY     -7275.788499459639

DIPOLE MOMENT
-------------
                                X             Y             Z
Electronic contribution:    132.86555      12.23696     -70.58207
Nuclear contribution   :   -136.63817     -15.09852      71.38961
                        -----------------------------------------
Total Dipole Moment    :     -3.77263      -2.86156       0.80755
                        -----------------------------------------
Magnitude (a.u.)       :      4.80347
Magnitude (Debye)      :     12.20946

Rotational constants in cm-1:     0.001107     0.000201     0.000171
Rotational constants in MHz :    33.182272     6.036213     5.119207

                             ****ORCA TERMINATED NORMALLY****
TOTAL RUN TIME: 0 days 0 hours 9 minutes 18 seconds 317 msec
