                         Program Version 4.2.0 -  RELEASE  -
|  1> # ORCA input file
|  2> # SCF done       -218.561757716945          0.000705839318
|  3> ! CAM-B3LYP def2-SVP def2/J RIJCOSX Grid4 TightSCF
|  4> %maxcore 5000
|  5> %tddft
|  6>     Mode sTDDFT
|  7>     Ethresh 5.0
|  8>     maxcore 5000
|  9> end
| 10>
| 11> %pal
| 12>   nprocs 6
| 13>   end
| 14> * xyz 0 1
| 15>    C        5.97888        -2.49018         2.54384
| 16>    C        5.84146        -2.29484         1.20432
| 17>    C        5.39483        -0.98934         0.91941
| 18>    C        5.20528        -0.22376         2.07606
| 19>    S        5.57153        -1.09737         3.49516
| 20>    C        4.75550         1.07474         1.69649
| 21>    C        4.66685         1.11677         0.30013
| 22>    C        5.06373        -0.17926        -0.23603
| 23>    C        5.10691        -0.54137        -1.55214
| 24>    C        4.75350         0.35203        -2.58367
| 25>    N        4.46724         1.08032        -3.42290
| 26>    C        5.50387        -1.82844        -1.96844
| 27>    N        5.82526        -2.87376        -2.31400
| 28>    C        4.23105         2.35259        -0.18164
| 29>    C        3.98659         3.24954         0.84040
| 30>    S        4.30096         2.55501         2.41862
| 31>    C        3.52546         4.59246         0.71558
| 32>    C        3.27983         5.25883        -0.45349
| 33>    C        2.81107         6.58656        -0.27280
| 34>    C        2.70999         6.89921         1.10792
| 35>    S        3.19761         5.57445         2.12508
| 36>    C        2.26851         8.10117         1.64623
| 37>    O        2.27384         8.12510         3.00519
| 38>    C        1.98558         9.30128         3.72148
| 39>    C        1.87815         9.09601         0.73143
| 40>    C        1.99534         8.78902        -0.64750
| 41>    C        2.44467         7.58975        -1.18677
| 42>    O        2.44912         7.57195        -2.54622
| 43>    C        2.90329         6.45639        -3.27037
| 44>    S        1.48143        10.09579        -1.66678
| 45>    C        1.10504        11.06465        -0.25748
| 46>    C        1.34635        10.40499         0.90897
| 47>    C        0.48482        12.34676        -0.45415
| 48>    S       -0.84576        12.37354        -1.55650
| 49>    C       -1.20400        14.03554        -1.24639
| 50>    C       -0.29875        14.55842        -0.31332
| 51>    C        0.69532        13.60410         0.10769
| 52>    C        1.75718        14.06219         0.94256
| 53>    C        2.97176        13.24545         1.26147
| 54>    F        3.39054        12.46467         0.25625
| 55>    F        4.02719        14.01851         1.57543
| 56>    F        2.81193        12.43353         2.33402
| 57>    C        1.72125        15.34195         1.43077
| 58>    C        0.69134        16.23428         1.11140
| 59>    C       -0.29764        15.87905         0.22551
| 60>    O       -1.28784        16.70643        -0.17744
| 61>    C       -1.33188        18.01994         0.33408
| 62>    C       -2.26642        14.67700        -1.93163
| 63>    C       -3.07938        14.03843        -2.80716
| 64>    C       -4.11078        14.65428        -3.56549
| 65>    C       -4.48412        15.96681        -3.65758
| 66>    C       -5.53589        16.20442        -4.57045
| 67>    C       -5.99893        15.01803        -5.19890
| 68>    S       -5.08439        13.64289        -4.61481
| 69>    C       -7.01633        15.05059        -6.13827
| 70>    O       -7.58173        14.02267        -6.82273
| 71>    C       -7.16460        12.69880        -6.58809
| 72>    C       -7.54523        16.32054        -6.44695
| 73>    C       -7.08099        17.50822        -5.82376
| 74>    C       -6.07793        17.47362        -4.86995
| 75>    O       -5.52587        18.50149        -4.17307
| 76>    C       -5.94920        19.82378        -4.40743
| 77>    S       -7.94790        18.89588        -6.46443
| 78>    C       -8.88718        17.87915        -7.53805
| 79>    C       -8.56047        16.56232        -7.40026
| 80>    C       -9.83740        18.46032        -8.42069
| 81>    C      -10.12708        19.79898        -8.58843
| 82>    C      -11.10587        20.00278        -9.56489
| 83>    C      -11.56181        18.80988       -10.13741
| 84>    S      -10.79076        17.43402        -9.48098
| 85>    C      -12.54565        19.12653       -11.11773
| 86>    C      -12.70316        20.51649       -11.16032
| 87>    C      -11.80804        21.11760       -10.19030
| 88>    C      -11.64662        22.44540        -9.91809
| 89>    C      -12.37730        23.44517       -10.59275
| 90>    N      -12.96753        24.26324       -11.13859
| 91>    C      -10.73682        22.90863        -8.94528
| 92>    N       -9.99938        23.29243        -8.15480
| 93>    C      -13.66192        20.91971       -12.11066
| 94>    C      -14.20102        19.84971       -12.75598
| 95>    S      -13.56233        18.32521       -12.22976
| 96>    H        6.29939        -3.37843         3.05008
| 97>    H        6.04895        -3.04754         0.46580
| 98>    H        4.09481         2.58765        -1.22045
| 99>    H        3.43548         4.78838        -1.40388
|100>    H        2.21308         9.06384         4.76040
|101>    H        0.92724         9.56730         3.64164
|102>    H        2.60943        10.13695         3.39766
|103>    H        2.83101         6.74900        -4.31750
|104>    H        2.26937         5.58116        -3.10077
|105>    H        3.94524         6.22068        -3.03622
|106>    H        1.10664        10.84493         1.85695
|107>    H        2.51767        15.69214         2.06885
|108>    H        0.72097        17.21743         1.54912
|109>    H       -2.20243        18.48331        -0.12744
|110>    H       -0.43474        18.58448         0.06444
|111>    H       -1.45492        18.02205         1.42078
|112>    H       -2.40111        15.72756        -1.73674
|113>    H       -2.94362        12.97660        -2.97250
|114>    H       -4.01984        16.76233        -3.10608
|115>    H       -7.79091        12.08303        -7.23226
|116>    H       -7.31907        12.40426        -5.54692
|117>    H       -6.11565        12.55036        -6.85695
|118>    H       -5.35117        20.43980        -3.73707
|119>    H       -7.00775        19.95890        -4.17143
|120>    H       -5.76379        20.13130        -5.43963
|121>    H       -9.01964        15.77293        -7.96703
|122>    H       -9.63901        20.57268        -8.02330
|123>    H      -13.93975        21.93865       -12.30900
|124>    H      -14.94867        19.85177       -13.52356
|125> *
|126>
|127>                          ****END OF INPUT****

CARTESIAN COORDINATES (ANGSTROEM)
---------------------------------
  C      5.978880   -2.490180    2.543840
  C      5.841460   -2.294840    1.204320
  C      5.394830   -0.989340    0.919410
  C      5.205280   -0.223760    2.076060
  S      5.571530   -1.097370    3.495160
  C      4.755500    1.074740    1.696490
  C      4.666850    1.116770    0.300130
  C      5.063730   -0.179260   -0.236030
  C      5.106910   -0.541370   -1.552140
  C      4.753500    0.352030   -2.583670
  N      4.467240    1.080320   -3.422900
  C      5.503870   -1.828440   -1.968440
  N      5.825260   -2.873760   -2.314000
  C      4.231050    2.352590   -0.181640
  C      3.986590    3.249540    0.840400
  S      4.300960    2.555010    2.418620
  C      3.525460    4.592460    0.715580
  C      3.279830    5.258830   -0.453490
  C      2.811070    6.586560   -0.272800
  C      2.709990    6.899210    1.107920
  S      3.197610    5.574450    2.125080
  C      2.268510    8.101170    1.646230
  O      2.273840    8.125100    3.005190
  C      1.985580    9.301280    3.721480
  C      1.878150    9.096010    0.731430
  C      1.995340    8.789020   -0.647500
  C      2.444670    7.589750   -1.186770
  O      2.449120    7.571950   -2.546220
  C      2.903290    6.456390   -3.270370
  S      1.481430   10.095790   -1.666780
  C      1.105040   11.064650   -0.257480
  C      1.346350   10.404990    0.908970
  C      0.484820   12.346760   -0.454150
  S     -0.845760   12.373540   -1.556500
  C     -1.204000   14.035540   -1.246390
  C     -0.298750   14.558420   -0.313320
  C      0.695320   13.604100    0.107690
  C      1.757180   14.062190    0.942560
  C      2.971760   13.245450    1.261470
  F      3.390540   12.464670    0.256250
  F      4.027190   14.018510    1.575430
  F      2.811930   12.433530    2.334020
  C      1.721250   15.341950    1.430770
  C      0.691340   16.234280    1.111400
  C     -0.297640   15.879050    0.225510
  O     -1.287840   16.706430   -0.177440
  C     -1.331880   18.019940    0.334080
  C     -2.266420   14.677000   -1.931630
  C     -3.079380   14.038430   -2.807160
  C     -4.110780   14.654280   -3.565490
  C     -4.484120   15.966810   -3.657580
  C     -5.535890   16.204420   -4.570450
  C     -5.998930   15.018030   -5.198900
  S     -5.084390   13.642890   -4.614810
  C     -7.016330   15.050590   -6.138270
  O     -7.581730   14.022670   -6.822730
  C     -7.164600   12.698800   -6.588090
  C     -7.545230   16.320540   -6.446950
  C     -7.080990   17.508220   -5.823760
  C     -6.077930   17.473620   -4.869950
  O     -5.525870   18.501490   -4.173070
  C     -5.949200   19.823780   -4.407430
  S     -7.947900   18.895880   -6.464430
  C     -8.887180   17.879150   -7.538050
  C     -8.560470   16.562320   -7.400260
  C     -9.837400   18.460320   -8.420690
  C    -10.127080   19.798980   -8.588430
  C    -11.105870   20.002780   -9.564890
  C    -11.561810   18.809880  -10.137410
  S    -10.790760   17.434020   -9.480980
  C    -12.545650   19.126530  -11.117730
  C    -12.703160   20.516490  -11.160320
  C    -11.808040   21.117600  -10.190300
  C    -11.646620   22.445400   -9.918090
  C    -12.377300   23.445170  -10.592750
  N    -12.967530   24.263240  -11.138590
  C    -10.736820   22.908630   -8.945280
  N     -9.999380   23.292430   -8.154800
  C    -13.661920   20.919710  -12.110660
  C    -14.201020   19.849710  -12.755980
  S    -13.562330   18.325210  -12.229760
  H      6.299390   -3.378430    3.050080
  H      6.048950   -3.047540    0.465800
  H      4.094810    2.587650   -1.220450
  H      3.435480    4.788380   -1.403880
  H      2.213080    9.063840    4.760400
  H      0.927240    9.567300    3.641640
  H      2.609430   10.136950    3.397660
  H      2.831010    6.749000   -4.317500
  H      2.269370    5.581160   -3.100770
  H      3.945240    6.220680   -3.036220
  H      1.106640   10.844930    1.856950
  H      2.517670   15.692140    2.068850
  H      0.720970   17.217430    1.549120
  H     -2.202430   18.483310   -0.127440
  H     -0.434740   18.584480    0.064440
  H     -1.454920   18.022050    1.420780
  H     -2.401110   15.727560   -1.736740
  H     -2.943620   12.976600   -2.972500
  H     -4.019840   16.762330   -3.106080
  H     -7.790910   12.083030   -7.232260
  H     -7.319070   12.404260   -5.546920
  H     -6.115650   12.550360   -6.856950
  H     -5.351170   20.439800   -3.737070
  H     -7.007750   19.958900   -4.171430
  H     -5.763790   20.131300   -5.439630
  H     -9.019640   15.772930   -7.967030
  H     -9.639010   20.572680   -8.023300
  H    -13.939750   21.938650  -12.309000
  H    -14.948670   19.851770  -13.523560

 Total Charge           Charge          ....    0
 Multiplicity           Mult            ....    1
 Number of Electrons    NEL             ....  628
 Basis Dimension        Dim             .... 1315

ORBITAL ENERGIES
----------------

  NO   OCC          E(Eh)            E(eV)
   0   2.0000     -88.982581     -2421.3391
   1   2.0000     -88.982413     -2421.3346
   2   2.0000     -88.981071     -2421.2980
   3   2.0000     -88.980220     -2421.2749
   4   2.0000     -88.964132     -2420.8371
   5   2.0000     -88.951140     -2420.4836
   6   2.0000     -88.946296     -2420.3518
   7   2.0000     -88.943198     -2420.2675
   8   2.0000     -88.937774     -2420.1199
   9   2.0000     -24.788891      -674.5400
  10   2.0000     -24.788194      -674.5210
  11   2.0000     -24.787726      -674.5083
  12   2.0000     -19.266686      -524.2732
  13   2.0000     -19.247307      -523.7458
  14   2.0000     -19.246857      -523.7336
  15   2.0000     -19.243568      -523.6441
  16   2.0000     -19.242159      -523.6058
  17   2.0000     -14.424515      -392.5110
  18   2.0000     -14.424148      -392.5010
  19   2.0000     -14.424034      -392.4979
  20   2.0000     -14.422538      -392.4572
  21   2.0000     -10.508215      -285.9431
  22   2.0000     -10.357137      -281.8320
  23   2.0000     -10.355398      -281.7847
  24   2.0000     -10.353262      -281.7266
  25   2.0000     -10.345214      -281.5076
  26   2.0000     -10.343889      -281.4715
  27   2.0000     -10.336930      -281.2822
  28   2.0000     -10.335413      -281.2409
  29   2.0000     -10.334927      -281.2277
  30   2.0000     -10.329958      -281.0925
  31   2.0000     -10.329689      -281.0851
  32   2.0000     -10.325294      -280.9655
  33   2.0000     -10.325233      -280.9639
  34   2.0000     -10.324616      -280.9471
  35   2.0000     -10.324103      -280.9331
  36   2.0000     -10.323214      -280.9089
  37   2.0000     -10.323010      -280.9034
  38   2.0000     -10.322988      -280.9028
  39   2.0000     -10.322920      -280.9009
  40   2.0000     -10.322832      -280.8985
  41   2.0000     -10.320629      -280.8386
  42   2.0000     -10.319623      -280.8112
  43   2.0000     -10.319088      -280.7967
  44   2.0000     -10.317196      -280.7452
  45   2.0000     -10.316995      -280.7397
  46   2.0000     -10.308584      -280.5108
  47   2.0000     -10.308508      -280.5088
  48   2.0000     -10.308277      -280.5025
  49   2.0000     -10.306206      -280.4461
  50   2.0000     -10.304986      -280.4129
  51   2.0000     -10.303928      -280.3841
  52   2.0000     -10.301994      -280.3315
  53   2.0000     -10.300098      -280.2799
  54   2.0000     -10.298890      -280.2470
  55   2.0000     -10.298790      -280.2443
  56   2.0000     -10.296679      -280.1869
  57   2.0000     -10.294738      -280.1341
  58   2.0000     -10.292930      -280.0849
  59   2.0000     -10.292723      -280.0792
  60   2.0000     -10.292509      -280.0734
  61   2.0000     -10.292375      -280.0698
  62   2.0000     -10.290706      -280.0243
  63   2.0000     -10.290338      -280.0143
  64   2.0000     -10.290333      -280.0142
  65   2.0000     -10.290032      -280.0060
  66   2.0000     -10.289378      -279.9882
  67   2.0000     -10.288561      -279.9660
  68   2.0000     -10.288539      -279.9654
  69   2.0000     -10.285650      -279.8868
  70   2.0000     -10.282325      -279.7963
  71   2.0000     -10.281447      -279.7724
  72   2.0000     -10.279812      -279.7279
  73   2.0000     -10.278888      -279.7028
  74   2.0000     -10.278224      -279.6847
  75   2.0000     -10.277776      -279.6725
  76   2.0000     -10.274624      -279.5867
  77   2.0000     -10.274600      -279.5861
  78   2.0000     -10.274480      -279.5828
  79   2.0000     -10.267826      -279.4017
  80   2.0000     -10.267556      -279.3944
  81   2.0000      -8.077503      -219.8000
  82   2.0000      -8.076851      -219.7823
  83   2.0000      -8.075568      -219.7474
  84   2.0000      -8.075278      -219.7395
  85   2.0000      -8.059513      -219.3105
  86   2.0000      -8.045816      -218.9378
  87   2.0000      -8.041472      -218.8196
  88   2.0000      -8.038599      -218.7414
  89   2.0000      -8.033267      -218.5963
  90   2.0000      -6.046715      -164.5395
  91   2.0000      -6.046111      -164.5231
  92   2.0000      -6.044839      -164.4884
  93   2.0000      -6.044523      -164.4798
  94   2.0000      -6.042344      -164.4206
  95   2.0000      -6.041985      -164.4108
  96   2.0000      -6.040582      -164.3726
  97   2.0000      -6.040167      -164.3613
  98   2.0000      -6.040114      -164.3598
  99   2.0000      -6.039196      -164.3349
 100   2.0000      -6.038013      -164.3027
 101   2.0000      -6.037873      -164.2989
 102   2.0000      -6.028394      -164.0409
 103   2.0000      -6.024301      -163.9296
 104   2.0000      -6.022380      -163.8773
 105   2.0000      -6.015789      -163.6979
 106   2.0000      -6.011494      -163.5811
 107   2.0000      -6.011312      -163.5761
 108   2.0000      -6.008343      -163.4953
 109   2.0000      -6.007011      -163.4591
 110   2.0000      -6.006786      -163.4530
 111   2.0000      -6.004196      -163.3825
 112   2.0000      -6.002883      -163.3467
 113   2.0000      -6.002676      -163.3411
 114   2.0000      -5.999767      -163.2620
 115   2.0000      -5.998772      -163.2349
 116   2.0000      -5.994598      -163.1213
 117   2.0000      -1.378529       -37.5117
 118   2.0000      -1.280442       -34.8426
 119   2.0000      -1.278210       -34.7819
 120   2.0000      -1.171011       -31.8648
 121   2.0000      -1.152002       -31.3476
 122   2.0000      -1.150688       -31.3118
 123   2.0000      -1.147373       -31.2216
 124   2.0000      -1.145343       -31.1664
 125   2.0000      -1.036449       -28.2032
 126   2.0000      -1.034692       -28.1554
 127   2.0000      -1.015605       -27.6360
 128   2.0000      -1.014562       -27.6076
 129   2.0000      -1.003387       -27.3035
 130   2.0000      -1.001826       -27.2611
 131   2.0000      -1.001009       -27.2389
 132   2.0000      -0.996222       -27.1086
 133   2.0000      -0.993215       -27.0267
 134   2.0000      -0.985973       -26.8297
 135   2.0000      -0.981935       -26.7198
 136   2.0000      -0.971381       -26.4326
 137   2.0000      -0.966755       -26.3067
 138   2.0000      -0.949286       -25.8314
 139   2.0000      -0.947674       -25.7875
 140   2.0000      -0.942246       -25.6398
 141   2.0000      -0.917303       -24.9611
 142   2.0000      -0.910296       -24.7704
 143   2.0000      -0.900852       -24.5134
 144   2.0000      -0.894900       -24.3515
 145   2.0000      -0.883691       -24.0464
 146   2.0000      -0.875262       -23.8171
 147   2.0000      -0.871038       -23.7021
 148   2.0000      -0.869216       -23.6526
 149   2.0000      -0.858921       -23.3724
 150   2.0000      -0.857413       -23.3314
 151   2.0000      -0.847143       -23.0519
 152   2.0000      -0.845057       -22.9952
 153   2.0000      -0.842260       -22.9191
 154   2.0000      -0.836615       -22.7655
 155   2.0000      -0.836252       -22.7556
 156   2.0000      -0.833010       -22.6674
 157   2.0000      -0.822786       -22.3891
 158   2.0000      -0.811794       -22.0901
 159   2.0000      -0.807257       -21.9666
 160   2.0000      -0.804555       -21.8931
 161   2.0000      -0.802433       -21.8353
 162   2.0000      -0.797159       -21.6918
 163   2.0000      -0.787543       -21.4301
 164   2.0000      -0.777507       -21.1570
 165   2.0000      -0.770238       -20.9592
 166   2.0000      -0.768827       -20.9209
 167   2.0000      -0.767147       -20.8751
 168   2.0000      -0.760413       -20.6919
 169   2.0000      -0.742782       -20.2121
 170   2.0000      -0.736785       -20.0489
 171   2.0000      -0.735355       -20.0100
 172   2.0000      -0.722875       -19.6704
 173   2.0000      -0.709996       -19.3200
 174   2.0000      -0.703536       -19.1442
 175   2.0000      -0.696758       -18.9598
 176   2.0000      -0.695935       -18.9374
 177   2.0000      -0.693382       -18.8679
 178   2.0000      -0.678300       -18.4575
 179   2.0000      -0.676772       -18.4159
 180   2.0000      -0.673828       -18.3358
 181   2.0000      -0.669372       -18.2145
 182   2.0000      -0.665921       -18.1206
 183   2.0000      -0.664980       -18.0950
 184   2.0000      -0.662506       -18.0277
 185   2.0000      -0.659975       -17.9588
 186   2.0000      -0.657915       -17.9028
 187   2.0000      -0.650293       -17.6954
 188   2.0000      -0.647146       -17.6097
 189   2.0000      -0.635162       -17.2836
 190   2.0000      -0.630205       -17.1488
 191   2.0000      -0.627341       -17.0708
 192   2.0000      -0.625776       -17.0282
 193   2.0000      -0.622018       -16.9260
 194   2.0000      -0.615948       -16.7608
 195   2.0000      -0.615167       -16.7395
 196   2.0000      -0.609356       -16.5814
 197   2.0000      -0.607761       -16.5380
 198   2.0000      -0.605615       -16.4796
 199   2.0000      -0.599837       -16.3224
 200   2.0000      -0.598960       -16.2985
 201   2.0000      -0.591613       -16.0986
 202   2.0000      -0.588939       -16.0258
 203   2.0000      -0.583554       -15.8793
 204   2.0000      -0.579168       -15.7600
 205   2.0000      -0.574474       -15.6322
 206   2.0000      -0.570633       -15.5277
 207   2.0000      -0.561786       -15.2870
 208   2.0000      -0.560354       -15.2480
 209   2.0000      -0.557808       -15.1787
 210   2.0000      -0.555914       -15.1272
 211   2.0000      -0.553313       -15.0564
 212   2.0000      -0.552213       -15.0265
 213   2.0000      -0.548926       -14.9370
 214   2.0000      -0.544061       -14.8046
 215   2.0000      -0.541697       -14.7403
 216   2.0000      -0.540679       -14.7126
 217   2.0000      -0.540136       -14.6979
 218   2.0000      -0.539069       -14.6688
 219   2.0000      -0.538305       -14.6480
 220   2.0000      -0.537258       -14.6195
 221   2.0000      -0.533135       -14.5074
 222   2.0000      -0.529096       -14.3974
 223   2.0000      -0.525977       -14.3126
 224   2.0000      -0.525300       -14.2941
 225   2.0000      -0.518407       -14.1066
 226   2.0000      -0.517675       -14.0867
 227   2.0000      -0.509748       -13.8709
 228   2.0000      -0.507058       -13.7977
 229   2.0000      -0.506246       -13.7756
 230   2.0000      -0.503492       -13.7007
 231   2.0000      -0.501714       -13.6523
 232   2.0000      -0.500137       -13.6094
 233   2.0000      -0.499221       -13.5845
 234   2.0000      -0.496205       -13.5024
 235   2.0000      -0.495083       -13.4719
 236   2.0000      -0.492779       -13.4092
 237   2.0000      -0.491825       -13.3832
 238   2.0000      -0.491371       -13.3709
 239   2.0000      -0.488347       -13.2886
 240   2.0000      -0.487617       -13.2687
 241   2.0000      -0.486714       -13.2442
 242   2.0000      -0.485346       -13.2069
 243   2.0000      -0.483788       -13.1645
 244   2.0000      -0.480845       -13.0845
 245   2.0000      -0.477929       -13.0051
 246   2.0000      -0.477617       -12.9966
 247   2.0000      -0.474042       -12.8993
 248   2.0000      -0.472716       -12.8632
 249   2.0000      -0.466751       -12.7009
 250   2.0000      -0.465226       -12.6594
 251   2.0000      -0.463739       -12.6190
 252   2.0000      -0.463024       -12.5995
 253   2.0000      -0.460141       -12.5211
 254   2.0000      -0.457617       -12.4524
 255   2.0000      -0.456741       -12.4286
 256   2.0000      -0.455881       -12.4052
 257   2.0000      -0.455623       -12.3981
 258   2.0000      -0.453879       -12.3507
 259   2.0000      -0.452199       -12.3050
 260   2.0000      -0.451298       -12.2804
 261   2.0000      -0.450010       -12.2454
 262   2.0000      -0.446848       -12.1594
 263   2.0000      -0.444408       -12.0930
 264   2.0000      -0.443781       -12.0759
 265   2.0000      -0.440748       -11.9934
 266   2.0000      -0.438659       -11.9365
 267   2.0000      -0.436713       -11.8836
 268   2.0000      -0.435472       -11.8498
 269   2.0000      -0.434762       -11.8305
 270   2.0000      -0.433970       -11.8089
 271   2.0000      -0.432996       -11.7824
 272   2.0000      -0.432721       -11.7749
 273   2.0000      -0.431901       -11.7526
 274   2.0000      -0.431737       -11.7482
 275   2.0000      -0.430623       -11.7179
 276   2.0000      -0.429325       -11.6825
 277   2.0000      -0.426706       -11.6113
 278   2.0000      -0.421515       -11.4700
 279   2.0000      -0.420246       -11.4355
 280   2.0000      -0.418704       -11.3935
 281   2.0000      -0.416105       -11.3228
 282   2.0000      -0.414263       -11.2727
 283   2.0000      -0.411767       -11.2047
 284   2.0000      -0.408849       -11.1254
 285   2.0000      -0.404018       -10.9939
 286   2.0000      -0.402915       -10.9639
 287   2.0000      -0.402503       -10.9527
 288   2.0000      -0.398541       -10.8449
 289   2.0000      -0.397748       -10.8233
 290   2.0000      -0.394197       -10.7266
 291   2.0000      -0.388918       -10.5830
 292   2.0000      -0.381802       -10.3894
 293   2.0000      -0.373869       -10.1735
 294   2.0000      -0.369869       -10.0646
 295   2.0000      -0.350586        -9.5399
 296   2.0000      -0.341106        -9.2820
 297   2.0000      -0.340092        -9.2544
 298   2.0000      -0.338052        -9.1989
 299   2.0000      -0.336935        -9.1685
 300   2.0000      -0.328526        -8.9397
 301   2.0000      -0.326131        -8.8745
 302   2.0000      -0.322933        -8.7874
 303   2.0000      -0.319274        -8.6879
 304   2.0000      -0.313984        -8.5439
 305   2.0000      -0.313694        -8.5360
 306   2.0000      -0.313146        -8.5211
 307   2.0000      -0.300137        -8.1672
 308   2.0000      -0.292122        -7.9491
 309   2.0000      -0.261370        -7.1122
 310   2.0000      -0.255064        -6.9406
 311   2.0000      -0.245820        -6.6891
 312   2.0000      -0.226622        -6.1667
 313   2.0000      -0.215926        -5.8757
 314   0.0000      -0.096302        -2.6205
 315   0.0000      -0.094409        -2.5690
 316   0.0000      -0.064610        -1.7581
 317   0.0000      -0.032363        -0.8806
 318   0.0000      -0.026343        -0.7168

MULLIKEN ATOMIC CHARGES
-----------------------
   0 C :   -0.086608
   1 C :    0.040575
   2 C :   -0.038218
   3 C :   -0.118298
   4 S :    0.176146
   5 C :   -0.105571
   6 C :    0.014063
   7 C :    0.302012
   8 C :   -0.303732
   9 C :   -0.181473
  10 N :    0.156363
  11 C :   -0.189357
  12 N :    0.172405
  13 C :   -0.059709
  14 C :   -0.044589
  15 S :    0.193304
  16 C :   -0.005398
  17 C :   -0.124437
  18 C :    0.080715
  19 C :   -0.140884
  20 S :    0.133512
  21 C :    0.135001
  22 O :   -0.317196
  23 C :    0.179933
  24 C :    0.036966
  25 C :   -0.137536
  26 C :    0.132268
  27 O :   -0.313685
  28 C :    0.185470
  29 S :    0.145761
  30 C :   -0.099163
  31 C :   -0.017157
  32 C :   -0.180229
  33 S :    0.167209
  34 C :   -0.139262
  35 C :    0.072235
  36 C :    0.189376
  37 C :   -0.162437
  38 C :    0.521251
  39 F :   -0.150803
  40 F :   -0.164468
  41 F :   -0.173793
  42 C :    0.005918
  43 C :   -0.123640
  44 C :    0.217848
  45 O :   -0.310149
  46 C :    0.177888
  47 C :    0.012792
  48 C :    0.043663
  49 C :   -0.027176
  50 C :   -0.049197
  51 C :    0.048766
  52 C :   -0.112241
  53 S :    0.074843
  54 C :    0.101550
  55 O :   -0.313065
  56 C :    0.169453
  57 C :    0.056107
  58 C :   -0.107135
  59 C :    0.099452
  60 O :   -0.314017
  61 C :    0.169421
  62 S :    0.075064
  63 C :    0.001155
  64 C :   -0.074015
  65 C :   -0.046149
  66 C :   -0.062127
  67 C :    0.012996
  68 C :   -0.102063
  69 S :    0.183002
  70 C :   -0.117889
  71 C :   -0.035649
  72 C :    0.298035
  73 C :   -0.299457
  74 C :   -0.191791
  75 N :    0.174081
  76 C :   -0.186749
  77 N :    0.164839
  78 C :    0.040801
  79 C :   -0.086189
  80 S :    0.177261
  81 H :    0.033098
  82 H :    0.011104
  83 H :   -0.001309
  84 H :   -0.037951
  85 H :    0.032394
  86 H :    0.027964
  87 H :    0.034016
  88 H :    0.037423
  89 H :    0.032656
  90 H :    0.031487
  91 H :   -0.033151
  92 H :   -0.002206
  93 H :   -0.029487
  94 H :    0.042884
  95 H :    0.032522
  96 H :    0.032590
  97 H :    0.003204
  98 H :   -0.010452
  99 H :   -0.022845
 100 H :    0.037162
 101 H :    0.034932
 102 H :    0.035747
 103 H :    0.035394
 104 H :    0.036544
 105 H :    0.036889
 106 H :   -0.013037
 107 H :    0.010501
 108 H :    0.009806
 109 H :    0.035323
Sum of atomic charges:   -0.0000000

LOEWDIN ATOMIC CHARGES
----------------------
   0 C :   -0.182227
   1 C :   -0.034223
   2 C :   -0.082699
   3 C :   -0.178946
   4 S :    0.473940
   5 C :   -0.189862
   6 C :   -0.069423
   7 C :    0.086764
   8 C :   -0.109277
   9 C :   -0.013305
  10 N :   -0.043677
  11 C :   -0.017228
  12 N :   -0.037073
  13 C :   -0.031293
  14 C :   -0.175878
  15 S :    0.476353
  16 C :   -0.179164
  17 C :   -0.058338
  18 C :   -0.073467
  19 C :   -0.172183
  20 S :    0.401390
  21 C :    0.022578
  22 O :   -0.110029
  23 C :    0.078031
  24 C :   -0.072607
  25 C :   -0.173913
  26 C :    0.021778
  27 O :   -0.107875
  28 C :    0.079424
  29 S :    0.413038
  30 C :   -0.188849
  31 C :   -0.057166
  32 C :   -0.199177
  33 S :    0.496383
  34 C :   -0.163107
  35 C :   -0.061410
  36 C :   -0.033187
  37 C :   -0.107598
  38 C :    0.176123
  39 F :   -0.046797
  40 F :   -0.062516
  41 F :   -0.073568
  42 C :    0.013035
  43 C :   -0.102718
  44 C :    0.083555
  45 O :   -0.082662
  46 C :    0.081409
  47 C :   -0.030462
  48 C :   -0.050036
  49 C :   -0.156079
  50 C :   -0.043554
  51 C :   -0.056746
  52 C :   -0.186358
  53 S :    0.393251
  54 C :    0.025107
  55 O :   -0.104041
  56 C :    0.065824
  57 C :   -0.061724
  58 C :   -0.182931
  59 C :    0.023488
  60 O :   -0.105079
  61 C :    0.065522
  62 S :    0.397350
  63 C :   -0.177122
  64 C :   -0.048454
  65 C :   -0.173947
  66 C :   -0.038946
  67 C :   -0.071055
  68 C :   -0.183388
  69 S :    0.477496
  70 C :   -0.181830
  71 C :   -0.080030
  72 C :    0.085461
  73 C :   -0.106589
  74 C :   -0.016931
  75 N :   -0.036247
  76 C :   -0.015699
  77 N :   -0.038163
  78 C :   -0.034010
  79 C :   -0.181011
  80 S :    0.474195
  81 H :    0.026284
  82 H :    0.042025
  83 H :    0.036990
  84 H :    0.025467
  85 H :    0.028836
  86 H :    0.015543
  87 H :    0.017060
  88 H :    0.031391
  89 H :    0.017178
  90 H :    0.017650
  91 H :    0.022273
  92 H :    0.035367
  93 H :    0.029167
  94 H :    0.030962
  95 H :    0.020019
  96 H :    0.020026
  97 H :    0.032395
  98 H :    0.017763
  99 H :    0.029784
 100 H :    0.030045
 101 H :    0.013136
 102 H :    0.012574
 103 H :    0.029566
 104 H :    0.013134
 105 H :    0.013731
 106 H :    0.027603
 107 H :    0.035825
 108 H :    0.041826
 109 H :    0.026758

  Mayer bond orders larger than 0.100000
B(  0-C ,  1-C ) :   1.5528 B(  0-C ,  4-S ) :   1.1444 B(  0-C , 81-H ) :   0.9647
B(  1-C ,  2-C ) :   1.2731 B(  1-C , 82-H ) :   0.9956 B(  2-C ,  3-C ) :   1.4598
B(  2-C ,  7-C ) :   1.0193 B(  3-C ,  4-S ) :   1.1398 B(  3-C ,  5-C ) :   1.1794
B(  5-C ,  6-C ) :   1.4610 B(  5-C , 15-S ) :   1.1209 B(  6-C ,  7-C ) :   0.9938
B(  6-C , 13-C ) :   1.2806 B(  7-C ,  8-C ) :   1.7034 B(  8-C ,  9-C ) :   1.1364
B(  8-C , 11-C ) :   1.1294 B(  9-C , 10-N ) :   2.9810 B( 11-C , 12-N ) :   3.0043
B( 13-C , 14-C ) :   1.4967 B( 13-C , 83-H ) :   0.9938 B( 14-C , 15-S ) :   1.1098
B( 14-C , 16-C ) :   1.0979 B( 16-C , 17-C ) :   1.6088 B( 16-C , 20-S ) :   1.0539
B( 17-C , 18-C ) :   1.1403 B( 17-C , 84-H ) :   0.9961 B( 18-C , 19-C ) :   1.3275
B( 18-C , 26-C ) :   1.2113 B( 19-C , 20-S ) :   1.0364 B( 19-C , 21-C ) :   1.4141
B( 21-C , 22-O ) :   1.2561 B( 21-C , 24-C ) :   1.2047 B( 22-O , 23-C ) :   0.9471
B( 23-C , 85-H ) :   0.9744 B( 23-C , 86-H ) :   0.9688 B( 23-C , 87-H ) :   0.9658
B( 24-C , 25-C ) :   1.3335 B( 24-C , 31-C ) :   1.1649 B( 25-C , 26-C ) :   1.4049
B( 25-C , 29-S ) :   1.0415 B( 26-C , 27-O ) :   1.2556 B( 27-O , 28-C ) :   0.9514
B( 28-C , 88-H ) :   0.9737 B( 28-C , 89-H ) :   0.9681 B( 28-C , 90-H ) :   0.9682
B( 29-S , 30-C ) :   1.0672 B( 30-C , 31-C ) :   1.6301 B( 30-C , 32-C ) :   1.0128
B( 31-C , 91-H ) :   0.9878 B( 32-C , 33-S ) :   1.1714 B( 32-C , 34-C ) :   0.1184
B( 32-C , 36-C ) :   1.4550 B( 33-S , 34-C ) :   1.1468 B( 34-C , 35-C ) :   1.3597
B( 34-C , 47-C ) :   1.1763 B( 35-C , 36-C ) :   1.2036 B( 35-C , 44-C ) :   1.1706
B( 36-C , 37-C ) :   1.1733 B( 37-C , 38-C ) :   0.9632 B( 37-C , 42-C ) :   1.5627
B( 38-C , 39-F ) :   1.1535 B( 38-C , 40-F ) :   1.1530 B( 38-C , 41-F ) :   1.1148
B( 42-C , 43-C ) :   1.1899 B( 42-C , 92-H ) :   0.9879 B( 43-C , 44-C ) :   1.4373
B( 43-C , 93-H ) :   0.9950 B( 44-C , 45-O ) :   1.1797 B( 45-O , 46-C ) :   0.9472
B( 46-C , 94-H ) :   0.9783 B( 46-C , 95-H ) :   0.9701 B( 46-C , 96-H ) :   0.9697
B( 47-C , 48-C ) :   1.6574 B( 47-C , 97-H ) :   0.9646 B( 48-C , 49-C ) :   1.1164
B( 48-C , 98-H ) :   0.9545 B( 49-C , 50-C ) :   1.5379 B( 49-C , 53-S ) :   1.0517
B( 50-C , 51-C ) :   1.1899 B( 50-C , 99-H ) :   1.0035 B( 51-C , 52-C ) :   1.3157
B( 51-C , 59-C ) :   1.2895 B( 52-C , 53-S ) :   1.0114 B( 52-C , 54-C ) :   1.3663
B( 54-C , 55-O ) :   1.2182 B( 54-C , 57-C ) :   1.3045 B( 55-O , 56-C ) :   0.9481
B( 56-C ,100-H ) :   0.9761 B( 56-C ,101-H ) :   0.9680 B( 56-C ,102-H ) :   0.9677
B( 57-C , 58-C ) :   1.3120 B( 57-C , 64-C ) :   1.1839 B( 58-C , 59-C ) :   1.3785
B( 58-C , 62-S ) :   1.0004 B( 59-C , 60-O ) :   1.2102 B( 60-O , 61-C ) :   0.9486
B( 61-C ,103-H ) :   0.9759 B( 61-C ,104-H ) :   0.9672 B( 61-C ,105-H ) :   0.9678
B( 62-S , 63-C ) :   1.0539 B( 63-C , 64-C ) :   1.5420 B( 63-C , 65-C ) :   1.1535
B( 64-C ,106-H ) :   1.0007 B( 65-C , 66-C ) :   1.4757 B( 65-C , 69-S ) :   1.1069
B( 66-C , 67-C ) :   1.2797 B( 66-C ,107-H ) :   0.9906 B( 67-C , 68-C ) :   1.4694
B( 67-C , 72-C ) :   0.9945 B( 68-C , 69-S ) :   1.1208 B( 68-C , 70-C ) :   1.1791
B( 70-C , 71-C ) :   1.4610 B( 70-C , 80-S ) :   1.1373 B( 71-C , 72-C ) :   1.0173
B( 71-C , 78-C ) :   1.2765 B( 72-C , 73-C ) :   1.7074 B( 73-C , 74-C ) :   1.1306
B( 73-C , 76-C ) :   1.1333 B( 74-C , 75-N ) :   3.0037 B( 76-C , 77-N ) :   2.9905
B( 78-C , 79-C ) :   1.5493 B( 78-C ,108-H ) :   0.9963 B( 79-C , 80-S ) :   1.1460
B( 79-C ,109-H ) :   0.9649

-----------------------------------------------------------------------------
         ABSORPTION SPECTRUM VIA TRANSITION ELECTRIC DIPOLE MOMENTS
-----------------------------------------------------------------------------
State   Energy  Wavelength   fosc         T2         TX        TY        TZ
        (cm-1)    (nm)                  (au**2)     (au)      (au)      (au)
-----------------------------------------------------------------------------
   0   12253.5    816.1   0.152823651   4.10589   1.35603  -0.94585   1.17151
   1   12798.3    781.4   0.127852371   3.28876  -0.64763   1.65180  -0.37535
   2   17681.7    565.6   0.422832632   7.87265  -1.69775   1.82089  -1.29408
   3   17969.8    556.5   0.295060316   5.40558   1.56038  -1.34930   1.07247
   4   18554.1    539.0   0.919455731  16.31419   2.66994  -2.29755   1.97657
   5   20730.3    482.4   0.003470958   0.05512   0.04944  -0.12575   0.19200
   6   21178.6    472.2   0.019011229   0.29552   0.46603   0.04519   0.27622
   7   22176.2    450.9   0.027808183   0.41282  -0.54081  -0.10169  -0.33167
   8   23904.4    418.3   0.262929637   3.62107  -1.46808   0.91936  -0.78777
   9   25004.9    399.9   0.026279719   0.34600   0.40795  -0.42308  -0.02394
  10   25707.6    389.0   0.023406855   0.29975  -0.12115  -0.53245  -0.03964
  11   26158.3    382.3   0.160704254   2.02252  -1.07207   0.19191  -0.91453
  12   26538.3    376.8   0.760913914   9.43925   1.09382  -2.64233   1.12290
  13   28809.7    347.1   0.342922056   3.91861  -0.48131  -1.54529  -1.13975
  14   29201.1    342.5   0.199809819   2.25264   0.95133  -0.65219   0.96035
  15   29833.4    335.2   0.127559262   1.40762  -0.17303  -0.95104  -0.68789
  16   30051.7    332.8   0.392817230   4.30325   1.06200  -1.67507   0.60791
  17   30531.4    327.5   0.179661654   1.93724  -0.06786  -1.24280  -0.62296
  18   30680.2    325.9   0.094526845   1.01431  -0.60555   0.78390  -0.18200
  19   31056.8    322.0   0.020488832   0.21719  -0.25248   0.37960   0.09668
  20   31778.8    314.7   0.084472686   0.87509  -0.15862  -0.62864   0.67435
  21   31927.9    313.2   0.586122495   6.04356   0.76579   2.19975   0.78627
  22   32031.9    312.2   0.741716632   7.62308  -0.04262  -0.78328  -2.64721
  23   32770.6    305.2   0.121934727   1.22495   0.42247  -0.91735   0.45270
  24   33334.5    300.0   0.117455304   1.15999   0.23687  -1.04829   0.07048
  25   33620.6    297.4   0.384482988   3.76485   0.93613  -1.42043   0.93321
  26   33725.6    296.5   0.115791442   1.13030  -0.21275   1.01010  -0.25441
  27   34414.3    290.6   0.017123865   0.16381  -0.18928  -0.20768  -0.29129
  28   34603.1    289.0   0.108345584   1.03079  -0.44874   0.87938   0.23687
  29   34616.7    288.9   0.059135894   0.56239   0.32897  -0.09723   0.66687
  30   35042.0    285.4   0.014713768   0.13823   0.11733  -0.04583   0.34981
  31   35232.4    283.8   0.030755489   0.28738  -0.06636   0.50908   0.15431
  32   36158.4    276.6   0.148471491   1.35179   0.71012  -0.68626   0.61365
  33   36817.4    271.6   0.090511063   0.80933  -0.03689   0.89880   0.01105
  34   37118.8    269.4   0.142372165   1.26272   0.76856  -0.47478   0.66829
  35   37541.6    266.4   0.090611155   0.79459   0.50906   0.45607   0.57223
  36   37665.7    265.5   0.033133670   0.28960  -0.34895  -0.26375  -0.31349
  37   37868.7    264.1   0.018216891   0.15837   0.17414  -0.31493   0.16990
  38   38497.8    259.8   0.002702377   0.02311  -0.01958  -0.10736  -0.10583
  39   38741.7    258.1   0.009592986   0.08152  -0.17574  -0.20660  -0.08917
  40   38966.8    256.6   0.009965198   0.08419   0.22475   0.08299   0.16369
  41   39036.5    256.2   0.129615321   1.09310   0.53699   0.62865   0.63995
  42   39189.7    255.2   0.092232955   0.77480  -0.29145   0.13042  -0.82027
  43   39503.2    253.1   0.000438075   0.00365  -0.01185  -0.05118  -0.02985
  44   39885.5    250.7   0.012164613   0.10041   0.01001   0.14499  -0.28157
  45   40136.0    249.2   0.040020547   0.32826   0.08936   0.49579   0.27289

FINAL SINGLE POINT ENERGY     -6777.054745925646

DIPOLE MOMENT
-------------
                                X             Y             Z
Electronic contribution:     15.34141     -22.37110       2.24288
Nuclear contribution   :    -16.38221      22.50786      -0.65633
                        -----------------------------------------
Total Dipole Moment    :     -1.04080       0.13676       1.58655
                        -----------------------------------------
Magnitude (a.u.)       :      1.90239
Magnitude (Debye)      :      4.83550

Rotational constants in cm-1:     0.001168     0.000133     0.000121
Rotational constants in MHz :    35.021658     3.983911     3.633755

                             ****ORCA TERMINATED NORMALLY****
TOTAL RUN TIME: 0 days 0 hours 16 minutes 30 seconds 123 msec
