                         Program Version 4.2.0 -  RELEASE  -
|  1> # ORCA input file
|  2> # SCF done       -183.847171075126          0.000953426542
|  3> ! CAM-B3LYP def2-SVP def2/J RIJCOSX Grid4 TightSCF
|  4> %maxcore 5000
|  5> %tddft
|  6>     Mode sTDDFT
|  7>     Ethresh 5.0
|  8>     maxcore 5000
|  9> end
| 10>
| 11> %pal
| 12>   nprocs 6
| 13>   end
| 14> * xyz 0 1
| 15>    C        0.40850        -2.16708         2.53106
| 16>    C       -0.28222        -1.58070         3.54722
| 17>    C       -0.49408        -0.21073         3.29853
| 18>    C        0.05340         0.20148         2.07903
| 19>    S        0.81925        -1.07699         1.24750
| 20>    C       -0.19587         1.59593         1.91599
| 21>    C       -0.90221         2.05153         3.03605
| 22>    C       -1.11872         0.93146         3.94059
| 23>    C       -1.77733         0.95433         5.13685
| 24>    C       -2.35322         2.13294         5.65303
| 25>    N       -2.82674         3.09018         6.07216
| 26>    C       -1.92937        -0.19803         5.93455
| 27>    N       -2.06591        -1.13131         6.58730
| 28>    C       -1.18662         3.41832         2.97465
| 29>    C       -0.71556         3.99435         1.81230
| 30>    S        0.10677         2.83201         0.78034
| 31>    C       -0.77525         5.38517         1.48152
| 32>    C       -0.54040         6.03429         0.28871
| 33>    C       -0.20789         5.34703        -0.99072
| 34>    O        0.79336         5.56246        -1.61465
| 35>    O       -1.06484         4.36916        -1.36126
| 36>    C       -0.55976         7.45493         0.41736
| 37>    C       -0.83906         7.84808         1.69580
| 38>    S       -1.06383         6.53170         2.76759
| 39>    C       -0.33728         8.37220        -0.68991
| 40>    C        0.38857         9.54210        -0.54168
| 41>    C        0.63089        10.38825        -1.61078
| 42>    C        0.15659        10.12902        -2.90061
| 43>    C       -0.61978         8.94304        -3.06971
| 44>    N       -1.11539         8.63530        -4.26950
| 45>    C       -1.81784         7.53958        -4.41590
| 46>    C       -2.07537         6.69882        -3.32583
| 47>    N       -1.61710         6.96745        -2.12997
| 48>    C       -0.86509         8.07344        -1.96747
| 49>    C        0.48609        11.02965        -3.94679
| 50>    C        0.14711        11.08481        -5.27438
| 51>    C        0.63421        12.12415        -6.12260
| 52>    C        0.18981        12.07764        -7.40367
| 53>    C       -0.68994        10.99723        -7.64236
| 54>    S       -0.89818        10.02278        -6.18832
| 55>    C       -1.34066        10.68527        -8.81465
| 56>    C       -1.27892        11.36418       -10.05848
| 57>    C       -2.05724        10.82889       -11.03194
| 58>    C       -2.80333         9.68460       -10.62429
| 59>    S       -2.44593         9.33489        -8.92694
| 60>    C       -3.72884         8.94729       -11.29438
| 61>    C       -4.09282         9.04994       -12.68404
| 62>    C       -3.19150         9.41541       -13.69184
| 63>    C       -3.59303         9.49268       -15.00650
| 64>    C       -4.91244         9.21978       -15.37196
| 65>    C       -5.81396         8.84891       -14.37196
| 66>    C       -5.40677         8.73994       -13.06250
| 67>    C       -5.36134         9.35311       -16.76372
| 68>    C       -6.64197        10.05784       -16.94285
| 69>    C       -7.62203         9.56183       -17.80048
| 70>    C       -8.82690        10.22241       -17.94413
| 71>    C       -9.07458        11.38583       -17.23392
| 72>    C       -8.11263        11.87964       -16.36868
| 73>    C       -6.90846        11.21818       -16.21830
| 74>    C       -4.64937         8.86541       -17.80615
| 75>    C       -4.97948         9.18185       -19.20481
| 76>    C       -5.25680        10.49012       -19.59756
| 77>    C       -5.53755        10.78039       -20.91871
| 78>    C       -5.54679         9.77174       -21.86839
| 79>    C       -5.26223         8.47010       -21.49032
| 80>    C       -4.97306         8.17733       -20.17097
| 81>    C       -3.49403         7.97318       -17.61934
| 82>    C       -3.55346         6.90063       -16.73103
| 83>    C       -2.47248         6.05345       -16.58161
| 84>    C       -1.31618         6.26133       -17.31577
| 85>    C       -1.25132         7.31673       -18.21036
| 86>    C       -2.33334         8.16210       -18.36745
| 87>    H        0.71204        -3.19143         2.44809
| 88>    H       -0.61667        -2.10561         4.42330
| 89>    H       -1.71122         3.97680         3.72899
| 90>    H       -1.87978         4.39656        -0.84343
| 91>    H       -0.95262         8.84899         2.06187
| 92>    H        0.80241         9.78313         0.42650
| 93>    H        1.22139        11.27822        -1.44662
| 94>    H       -2.18827         7.33416        -5.41003
| 95>    H       -2.66313         5.79701        -3.42995
| 96>    H        1.13534        11.83980        -3.62938
| 97>    H        1.30325        12.87715        -5.74246
| 98>    H        0.46269        12.78699        -8.16543
| 99>    H       -0.66435        12.23723       -10.18995
|100>    H       -2.16143        11.24775       -12.01612
|101>    H       -4.28826         8.22273       -10.71638
|102>    H       -2.15706         9.59488       -13.44251
|103>    H       -2.88174         9.77730       -15.76801
|104>    H       -6.83743         8.62692       -14.63965
|105>    H       -6.11437         8.43907       -12.30316
|106>    H       -7.43813         8.64803       -18.34611
|107>    H       -9.57851         9.82614       -18.61120
|108>    H      -10.01585        11.90237       -17.35024
|109>    H       -8.30224        12.78329       -15.80763
|110>    H       -6.15744        11.60663       -15.54454
|111>    H       -5.23840        11.28093       -18.86199
|112>    H       -5.74698        11.79926       -21.21038
|113>    H       -5.76945        10.00043       -22.90014
|114>    H       -5.26335         7.68025       -22.22744
|115>    H       -4.75244         7.16079       -19.87669
|116>    H       -4.45880         6.72646       -16.16809
|117>    H       -2.53331         5.22410       -15.89210
|118>    H       -0.47138         5.59939       -17.19573
|119>    H       -0.35431         7.47999       -18.78993
|120>    H       -2.28129         8.98623       -19.06511
|121> *
|122>
|123>                          ****END OF INPUT****

CARTESIAN COORDINATES (ANGSTROEM)
---------------------------------
  C      0.408500   -2.167080    2.531060
  C     -0.282220   -1.580700    3.547220
  C     -0.494080   -0.210730    3.298530
  C      0.053400    0.201480    2.079030
  S      0.819250   -1.076990    1.247500
  C     -0.195870    1.595930    1.915990
  C     -0.902210    2.051530    3.036050
  C     -1.118720    0.931460    3.940590
  C     -1.777330    0.954330    5.136850
  C     -2.353220    2.132940    5.653030
  N     -2.826740    3.090180    6.072160
  C     -1.929370   -0.198030    5.934550
  N     -2.065910   -1.131310    6.587300
  C     -1.186620    3.418320    2.974650
  C     -0.715560    3.994350    1.812300
  S      0.106770    2.832010    0.780340
  C     -0.775250    5.385170    1.481520
  C     -0.540400    6.034290    0.288710
  C     -0.207890    5.347030   -0.990720
  O      0.793360    5.562460   -1.614650
  O     -1.064840    4.369160   -1.361260
  C     -0.559760    7.454930    0.417360
  C     -0.839060    7.848080    1.695800
  S     -1.063830    6.531700    2.767590
  C     -0.337280    8.372200   -0.689910
  C      0.388570    9.542100   -0.541680
  C      0.630890   10.388250   -1.610780
  C      0.156590   10.129020   -2.900610
  C     -0.619780    8.943040   -3.069710
  N     -1.115390    8.635300   -4.269500
  C     -1.817840    7.539580   -4.415900
  C     -2.075370    6.698820   -3.325830
  N     -1.617100    6.967450   -2.129970
  C     -0.865090    8.073440   -1.967470
  C      0.486090   11.029650   -3.946790
  C      0.147110   11.084810   -5.274380
  C      0.634210   12.124150   -6.122600
  C      0.189810   12.077640   -7.403670
  C     -0.689940   10.997230   -7.642360
  S     -0.898180   10.022780   -6.188320
  C     -1.340660   10.685270   -8.814650
  C     -1.278920   11.364180  -10.058480
  C     -2.057240   10.828890  -11.031940
  C     -2.803330    9.684600  -10.624290
  S     -2.445930    9.334890   -8.926940
  C     -3.728840    8.947290  -11.294380
  C     -4.092820    9.049940  -12.684040
  C     -3.191500    9.415410  -13.691840
  C     -3.593030    9.492680  -15.006500
  C     -4.912440    9.219780  -15.371960
  C     -5.813960    8.848910  -14.371960
  C     -5.406770    8.739940  -13.062500
  C     -5.361340    9.353110  -16.763720
  C     -6.641970   10.057840  -16.942850
  C     -7.622030    9.561830  -17.800480
  C     -8.826900   10.222410  -17.944130
  C     -9.074580   11.385830  -17.233920
  C     -8.112630   11.879640  -16.368680
  C     -6.908460   11.218180  -16.218300
  C     -4.649370    8.865410  -17.806150
  C     -4.979480    9.181850  -19.204810
  C     -5.256800   10.490120  -19.597560
  C     -5.537550   10.780390  -20.918710
  C     -5.546790    9.771740  -21.868390
  C     -5.262230    8.470100  -21.490320
  C     -4.973060    8.177330  -20.170970
  C     -3.494030    7.973180  -17.619340
  C     -3.553460    6.900630  -16.731030
  C     -2.472480    6.053450  -16.581610
  C     -1.316180    6.261330  -17.315770
  C     -1.251320    7.316730  -18.210360
  C     -2.333340    8.162100  -18.367450
  H      0.712040   -3.191430    2.448090
  H     -0.616670   -2.105610    4.423300
  H     -1.711220    3.976800    3.728990
  H     -1.879780    4.396560   -0.843430
  H     -0.952620    8.848990    2.061870
  H      0.802410    9.783130    0.426500
  H      1.221390   11.278220   -1.446620
  H     -2.188270    7.334160   -5.410030
  H     -2.663130    5.797010   -3.429950
  H      1.135340   11.839800   -3.629380
  H      1.303250   12.877150   -5.742460
  H      0.462690   12.786990   -8.165430
  H     -0.664350   12.237230  -10.189950
  H     -2.161430   11.247750  -12.016120
  H     -4.288260    8.222730  -10.716380
  H     -2.157060    9.594880  -13.442510
  H     -2.881740    9.777300  -15.768010
  H     -6.837430    8.626920  -14.639650
  H     -6.114370    8.439070  -12.303160
  H     -7.438130    8.648030  -18.346110
  H     -9.578510    9.826140  -18.611200
  H    -10.015850   11.902370  -17.350240
  H     -8.302240   12.783290  -15.807630
  H     -6.157440   11.606630  -15.544540
  H     -5.238400   11.280930  -18.861990
  H     -5.746980   11.799260  -21.210380
  H     -5.769450   10.000430  -22.900140
  H     -5.263350    7.680250  -22.227440
  H     -4.752440    7.160790  -19.876690
  H     -4.458800    6.726460  -16.168090
  H     -2.533310    5.224100  -15.892100
  H     -0.471380    5.599390  -17.195730
  H     -0.354310    7.479990  -18.789930
  H     -2.281290    8.986230  -19.065110

 Total Charge           Charge          ....    0
 Multiplicity           Mult            ....    1
 Number of Electrons    NEL             ....  524
 Basis Dimension        Dim             .... 1198

ORBITAL ENERGIES
----------------

  NO   OCC          E(Eh)            E(eV)
   0   2.0000     -88.984543     -2421.3925
   1   2.0000     -88.982876     -2421.3471
   2   2.0000     -88.964120     -2420.8368
   3   2.0000     -88.932315     -2419.9713
   4   2.0000     -88.932080     -2419.9649
   5   2.0000     -19.252169      -523.8781
   6   2.0000     -19.193042      -522.2692
   7   2.0000     -14.428126      -392.6093
   8   2.0000     -14.424769      -392.5179
   9   2.0000     -14.424226      -392.5032
  10   2.0000     -14.424159      -392.5013
  11   2.0000     -10.401275      -283.0331
  12   2.0000     -10.357411      -281.8395
  13   2.0000     -10.346020      -281.5295
  14   2.0000     -10.325385      -280.9680
  15   2.0000     -10.324746      -280.9506
  16   2.0000     -10.324586      -280.9463
  17   2.0000     -10.324348      -280.9398
  18   2.0000     -10.322887      -280.9000
  19   2.0000     -10.321157      -280.8529
  20   2.0000     -10.318858      -280.7904
  21   2.0000     -10.316659      -280.7306
  22   2.0000     -10.316074      -280.7146
  23   2.0000     -10.314861      -280.6816
  24   2.0000     -10.307025      -280.4684
  25   2.0000     -10.302378      -280.3420
  26   2.0000     -10.300973      -280.3037
  27   2.0000     -10.299582      -280.2659
  28   2.0000     -10.299165      -280.2545
  29   2.0000     -10.296407      -280.1795
  30   2.0000     -10.295317      -280.1498
  31   2.0000     -10.294170      -280.1186
  32   2.0000     -10.292948      -280.0853
  33   2.0000     -10.289832      -280.0006
  34   2.0000     -10.289554      -279.9930
  35   2.0000     -10.287777      -279.9446
  36   2.0000     -10.284679      -279.8603
  37   2.0000     -10.283341      -279.8239
  38   2.0000     -10.282090      -279.7899
  39   2.0000     -10.280574      -279.7487
  40   2.0000     -10.277476      -279.6643
  41   2.0000     -10.277009      -279.6516
  42   2.0000     -10.275573      -279.6126
  43   2.0000     -10.273387      -279.5531
  44   2.0000     -10.273231      -279.5488
  45   2.0000     -10.271692      -279.5070
  46   2.0000     -10.271088      -279.4905
  47   2.0000     -10.270153      -279.4651
  48   2.0000     -10.269453      -279.4460
  49   2.0000     -10.268837      -279.4293
  50   2.0000     -10.266911      -279.3768
  51   2.0000     -10.266740      -279.3722
  52   2.0000     -10.266539      -279.3667
  53   2.0000     -10.262998      -279.2704
  54   2.0000     -10.262593      -279.2593
  55   2.0000     -10.261786      -279.2374
  56   2.0000     -10.261602      -279.2324
  57   2.0000     -10.260436      -279.2007
  58   2.0000     -10.260231      -279.1951
  59   2.0000     -10.260129      -279.1923
  60   2.0000     -10.260015      -279.1892
  61   2.0000     -10.259843      -279.1845
  62   2.0000     -10.259739      -279.1817
  63   2.0000     -10.259264      -279.1688
  64   2.0000     -10.259239      -279.1681
  65   2.0000     -10.259118      -279.1648
  66   2.0000     -10.258963      -279.1606
  67   2.0000     -10.258832      -279.1570
  68   2.0000     -10.258583      -279.1502
  69   2.0000     -10.258263      -279.1415
  70   2.0000     -10.258249      -279.1411
  71   2.0000     -10.258115      -279.1375
  72   2.0000      -8.078535      -219.8281
  73   2.0000      -8.077862      -219.8098
  74   2.0000      -8.059879      -219.3205
  75   2.0000      -8.028573      -218.4686
  76   2.0000      -8.025385      -218.3818
  77   2.0000      -6.047785      -164.5686
  78   2.0000      -6.047101      -164.5500
  79   2.0000      -6.043489      -164.4517
  80   2.0000      -6.042665      -164.4293
  81   2.0000      -6.041003      -164.3840
  82   2.0000      -6.040493      -164.3702
  83   2.0000      -6.029276      -164.0649
  84   2.0000      -6.024900      -163.9459
  85   2.0000      -6.021971      -163.8662
  86   2.0000      -5.998396      -163.2247
  87   2.0000      -5.995606      -163.1487
  88   2.0000      -5.994385      -163.1155
  89   2.0000      -5.990936      -163.0217
  90   2.0000      -5.989269      -162.9763
  91   2.0000      -5.986250      -162.8942
  92   2.0000      -1.175778       -31.9945
  93   2.0000      -1.091811       -29.7097
  94   2.0000      -1.082565       -29.4581
  95   2.0000      -1.037720       -28.2378
  96   2.0000      -1.016145       -27.6507
  97   2.0000      -1.008548       -27.4440
  98   2.0000      -1.002141       -27.2696
  99   2.0000      -0.999634       -27.2014
 100   2.0000      -0.982829       -26.7441
 101   2.0000      -0.981650       -26.7121
 102   2.0000      -0.965720       -26.2786
 103   2.0000      -0.961456       -26.1625
 104   2.0000      -0.952815       -25.9274
 105   2.0000      -0.948549       -25.8113
 106   2.0000      -0.945078       -25.7169
 107   2.0000      -0.939318       -25.5601
 108   2.0000      -0.933880       -25.4122
 109   2.0000      -0.905879       -24.6502
 110   2.0000      -0.900896       -24.5146
 111   2.0000      -0.890947       -24.2439
 112   2.0000      -0.875930       -23.8353
 113   2.0000      -0.864033       -23.5115
 114   2.0000      -0.858756       -23.3680
 115   2.0000      -0.855185       -23.2708
 116   2.0000      -0.852188       -23.1892
 117   2.0000      -0.844636       -22.9837
 118   2.0000      -0.843595       -22.9554
 119   2.0000      -0.836654       -22.7665
 120   2.0000      -0.831069       -22.6145
 121   2.0000      -0.826522       -22.4908
 122   2.0000      -0.822871       -22.3915
 123   2.0000      -0.822488       -22.3810
 124   2.0000      -0.820728       -22.3332
 125   2.0000      -0.818281       -22.2666
 126   2.0000      -0.815536       -22.1919
 127   2.0000      -0.802908       -21.8482
 128   2.0000      -0.787355       -21.4250
 129   2.0000      -0.779263       -21.2048
 130   2.0000      -0.770499       -20.9663
 131   2.0000      -0.763703       -20.7814
 132   2.0000      -0.754584       -20.5333
 133   2.0000      -0.745819       -20.2948
 134   2.0000      -0.731107       -19.8944
 135   2.0000      -0.718565       -19.5531
 136   2.0000      -0.711326       -19.3562
 137   2.0000      -0.702217       -19.1083
 138   2.0000      -0.700705       -19.0671
 139   2.0000      -0.697258       -18.9733
 140   2.0000      -0.688031       -18.7223
 141   2.0000      -0.685184       -18.6448
 142   2.0000      -0.679511       -18.4904
 143   2.0000      -0.675478       -18.3807
 144   2.0000      -0.674538       -18.3551
 145   2.0000      -0.669650       -18.2221
 146   2.0000      -0.668647       -18.1948
 147   2.0000      -0.667844       -18.1730
 148   2.0000      -0.664735       -18.0884
 149   2.0000      -0.655091       -17.8259
 150   2.0000      -0.653186       -17.7741
 151   2.0000      -0.640554       -17.4304
 152   2.0000      -0.631951       -17.1963
 153   2.0000      -0.626012       -17.0347
 154   2.0000      -0.624622       -16.9968
 155   2.0000      -0.621658       -16.9162
 156   2.0000      -0.616689       -16.7810
 157   2.0000      -0.610569       -16.6144
 158   2.0000      -0.609989       -16.5986
 159   2.0000      -0.606888       -16.5143
 160   2.0000      -0.601962       -16.3802
 161   2.0000      -0.599768       -16.3205
 162   2.0000      -0.592814       -16.1313
 163   2.0000      -0.589936       -16.0530
 164   2.0000      -0.576901       -15.6983
 165   2.0000      -0.573016       -15.5926
 166   2.0000      -0.558806       -15.2059
 167   2.0000      -0.556183       -15.1345
 168   2.0000      -0.550137       -14.9700
 169   2.0000      -0.545551       -14.8452
 170   2.0000      -0.544308       -14.8114
 171   2.0000      -0.540606       -14.7106
 172   2.0000      -0.539842       -14.6898
 173   2.0000      -0.536783       -14.6066
 174   2.0000      -0.534792       -14.5524
 175   2.0000      -0.531785       -14.4706
 176   2.0000      -0.528736       -14.3876
 177   2.0000      -0.525102       -14.2887
 178   2.0000      -0.524392       -14.2694
 179   2.0000      -0.522155       -14.2086
 180   2.0000      -0.519863       -14.1462
 181   2.0000      -0.519368       -14.1327
 182   2.0000      -0.514463       -13.9993
 183   2.0000      -0.511804       -13.9269
 184   2.0000      -0.507790       -13.8177
 185   2.0000      -0.507075       -13.7982
 186   2.0000      -0.503303       -13.6956
 187   2.0000      -0.501221       -13.6389
 188   2.0000      -0.499710       -13.5978
 189   2.0000      -0.496964       -13.5231
 190   2.0000      -0.495010       -13.4699
 191   2.0000      -0.492695       -13.4069
 192   2.0000      -0.491892       -13.3851
 193   2.0000      -0.490591       -13.3497
 194   2.0000      -0.489421       -13.3178
 195   2.0000      -0.489396       -13.3171
 196   2.0000      -0.487294       -13.2600
 197   2.0000      -0.485484       -13.2107
 198   2.0000      -0.484167       -13.1749
 199   2.0000      -0.483220       -13.1491
 200   2.0000      -0.477139       -12.9836
 201   2.0000      -0.472998       -12.8709
 202   2.0000      -0.470426       -12.8009
 203   2.0000      -0.467526       -12.7220
 204   2.0000      -0.462132       -12.5753
 205   2.0000      -0.458373       -12.4730
 206   2.0000      -0.457171       -12.4403
 207   2.0000      -0.456146       -12.4124
 208   2.0000      -0.455466       -12.3938
 209   2.0000      -0.453459       -12.3393
 210   2.0000      -0.451868       -12.2960
 211   2.0000      -0.450606       -12.2616
 212   2.0000      -0.448054       -12.1922
 213   2.0000      -0.444297       -12.0899
 214   2.0000      -0.442040       -12.0285
 215   2.0000      -0.438573       -11.9342
 216   2.0000      -0.437818       -11.9136
 217   2.0000      -0.437190       -11.8966
 218   2.0000      -0.435353       -11.8466
 219   2.0000      -0.434797       -11.8314
 220   2.0000      -0.433513       -11.7965
 221   2.0000      -0.433255       -11.7895
 222   2.0000      -0.426531       -11.6065
 223   2.0000      -0.424935       -11.5631
 224   2.0000      -0.422753       -11.5037
 225   2.0000      -0.419679       -11.4200
 226   2.0000      -0.419036       -11.4026
 227   2.0000      -0.417345       -11.3565
 228   2.0000      -0.416716       -11.3394
 229   2.0000      -0.411722       -11.2035
 230   2.0000      -0.407640       -11.0924
 231   2.0000      -0.407253       -11.0819
 232   2.0000      -0.406180       -11.0527
 233   2.0000      -0.401919       -10.9368
 234   2.0000      -0.401084       -10.9141
 235   2.0000      -0.390472       -10.6253
 236   2.0000      -0.388195       -10.5633
 237   2.0000      -0.383311       -10.4304
 238   2.0000      -0.376217       -10.2374
 239   2.0000      -0.364346        -9.9144
 240   2.0000      -0.361670        -9.8415
 241   2.0000      -0.351805        -9.5731
 242   2.0000      -0.344675        -9.3791
 243   2.0000      -0.339234        -9.2310
 244   2.0000      -0.332210        -9.0399
 245   2.0000      -0.328160        -8.9297
 246   2.0000      -0.327067        -8.8999
 247   2.0000      -0.325412        -8.8549
 248   2.0000      -0.323936        -8.8147
 249   2.0000      -0.323702        -8.8084
 250   2.0000      -0.318445        -8.6653
 251   2.0000      -0.314621        -8.5613
 252   2.0000      -0.313815        -8.5393
 253   2.0000      -0.310284        -8.4432
 254   2.0000      -0.309197        -8.4137
 255   2.0000      -0.306314        -8.3352
 256   2.0000      -0.304946        -8.2980
 257   2.0000      -0.300380        -8.1737
 258   2.0000      -0.275163        -7.4876
 259   2.0000      -0.257702        -7.0124
 260   2.0000      -0.248201        -6.7539
 261   2.0000      -0.203681        -5.5424
 262   0.0000      -0.096383        -2.6227
 263   0.0000      -0.074127        -2.0171
 264   0.0000      -0.036293        -0.9876
 265   0.0000      -0.030353        -0.8260
 266   0.0000      -0.014113        -0.3840

MULLIKEN ATOMIC CHARGES
-----------------------
   0 C :   -0.081780
   1 C :    0.034213
   2 C :   -0.031608
   3 C :   -0.112750
   4 S :    0.184438
   5 C :   -0.097179
   6 C :    0.015014
   7 C :    0.299441
   8 C :   -0.301417
   9 C :   -0.187849
  10 N :    0.171113
  11 C :   -0.190266
  12 N :    0.169497
  13 C :   -0.051296
  14 C :   -0.108744
  15 S :    0.203161
  16 C :   -0.127363
  17 C :    0.006395
  18 C :    0.128127
  19 O :   -0.168944
  20 O :   -0.181146
  21 C :    0.091748
  22 C :   -0.125295
  23 S :    0.140782
  24 C :    0.065511
  25 C :   -0.032155
  26 C :   -0.046072
  27 C :    0.127377
  28 C :    0.009069
  29 N :   -0.079665
  30 C :    0.064115
  31 C :    0.074234
  32 N :   -0.072610
  33 C :   -0.000900
  34 C :   -0.105498
  35 C :    0.031776
  36 C :    0.017649
  37 C :    0.033943
  38 C :   -0.025784
  39 S :    0.097210
  40 C :   -0.058546
  41 C :    0.016852
  42 C :    0.031192
  43 C :   -0.049961
  44 S :    0.071601
  45 C :    0.010078
  46 C :    0.086968
  47 C :   -0.033659
  48 C :    0.049114
  49 C :   -0.042234
  50 C :    0.024330
  51 C :   -0.022575
  52 C :    0.051107
  53 C :   -0.042163
  54 C :    0.047830
  55 C :    0.011932
  56 C :    0.026750
  57 C :    0.016739
  58 C :    0.010028
  59 C :    0.053224
  60 C :   -0.046592
  61 C :    0.047795
  62 C :    0.012434
  63 C :    0.024789
  64 C :    0.015049
  65 C :    0.011788
  66 C :   -0.047003
  67 C :    0.045032
  68 C :    0.012566
  69 C :    0.024431
  70 C :    0.017332
  71 C :    0.010802
  72 H :    0.035206
  73 H :    0.011113
  74 H :    0.013100
  75 H :    0.188289
  76 H :    0.024182
  77 H :   -0.026174
  78 H :   -0.022967
  79 H :    0.008289
  80 H :    0.006122
  81 H :   -0.031363
  82 H :   -0.018012
  83 H :   -0.020724
  84 H :   -0.016312
  85 H :   -0.008884
  86 H :   -0.012502
  87 H :   -0.020525
  88 H :   -0.017662
  89 H :   -0.015387
  90 H :   -0.029802
  91 H :   -0.018452
  92 H :   -0.019233
  93 H :   -0.018926
  94 H :   -0.020084
  95 H :   -0.016589
  96 H :   -0.017061
  97 H :   -0.019939
  98 H :   -0.018386
  99 H :   -0.018212
 100 H :   -0.015271
 101 H :   -0.018339
 102 H :   -0.018027
 103 H :   -0.017068
 104 H :   -0.019553
 105 H :   -0.014371
Sum of atomic charges:   -0.0000000

LOEWDIN ATOMIC CHARGES
----------------------
   0 C :   -0.178792
   1 C :   -0.034886
   2 C :   -0.077663
   3 C :   -0.183546
   4 S :    0.479695
   5 C :   -0.182005
   6 C :   -0.075582
   7 C :    0.084639
   8 C :   -0.107367
   9 C :   -0.016476
  10 N :   -0.037228
  11 C :   -0.016981
  12 N :   -0.036196
  13 C :   -0.034434
  14 C :   -0.197627
  15 S :    0.509359
  16 C :   -0.184201
  17 C :   -0.102612
  18 C :    0.062574
  19 O :   -0.154425
  20 O :   -0.042391
  21 C :   -0.034827
  22 C :   -0.178222
  23 S :    0.456243
  24 C :   -0.031190
  25 C :   -0.001904
  26 C :   -0.020065
  27 C :   -0.017483
  28 C :    0.002879
  29 N :   -0.042269
  30 C :    0.011653
  31 C :    0.022698
  32 N :   -0.039480
  33 C :    0.008170
  34 C :   -0.070683
  35 C :   -0.128391
  36 C :   -0.038408
  37 C :   -0.029090
  38 C :   -0.198494
  39 S :    0.418846
  40 C :   -0.174380
  41 C :   -0.026584
  42 C :   -0.039026
  43 C :   -0.140556
  44 S :    0.355296
  45 C :   -0.051065
  46 C :   -0.027376
  47 C :   -0.023515
  48 C :   -0.006570
  49 C :   -0.024642
  50 C :   -0.014073
  51 C :   -0.019083
  52 C :   -0.014291
  53 C :   -0.024922
  54 C :   -0.009049
  55 C :   -0.025153
  56 C :   -0.026364
  57 C :   -0.026649
  58 C :   -0.018318
  59 C :   -0.011548
  60 C :   -0.025086
  61 C :   -0.009629
  62 C :   -0.025296
  63 C :   -0.026705
  64 C :   -0.026769
  65 C :   -0.017563
  66 C :   -0.025402
  67 C :   -0.010104
  68 C :   -0.025088
  69 C :   -0.026262
  70 C :   -0.026658
  71 C :   -0.017870
  72 H :    0.027223
  73 H :    0.042154
  74 H :    0.035593
  75 H :    0.091446
  76 H :    0.025805
  77 H :    0.031521
  78 H :    0.029461
  79 H :    0.023687
  80 H :    0.024607
  81 H :    0.032513
  82 H :    0.029722
  83 H :    0.027560
  84 H :    0.031252
  85 H :    0.032839
  86 H :    0.028577
  87 H :    0.027298
  88 H :    0.031685
  89 H :    0.030650
  90 H :    0.026261
  91 H :    0.030079
  92 H :    0.027175
  93 H :    0.025773
  94 H :    0.026531
  95 H :    0.028647
  96 H :    0.030029
  97 H :    0.026942
  98 H :    0.025807
  99 H :    0.026839
 100 H :    0.029193
 101 H :    0.029898
 102 H :    0.027483
 103 H :    0.026234
 104 H :    0.026685
 105 H :    0.029296

  Mayer bond orders larger than 0.100000
B(  0-C ,  1-C ) :   1.5499 B(  0-C ,  4-S ) :   1.1496 B(  0-C , 72-H ) :   0.9643
B(  1-C ,  2-C ) :   1.2765 B(  1-C , 73-H ) :   0.9960 B(  2-C ,  3-C ) :   1.4585
B(  2-C ,  7-C ) :   1.0146 B(  3-C ,  4-S ) :   1.1392 B(  3-C ,  5-C ) :   1.1714
B(  5-C ,  6-C ) :   1.4523 B(  5-C , 15-S ) :   1.1400 B(  6-C ,  7-C ) :   0.9943
B(  6-C , 13-C ) :   1.2862 B(  7-C ,  8-C ) :   1.7067 B(  8-C ,  9-C ) :   1.1331
B(  8-C , 11-C ) :   1.1320 B(  9-C , 10-N ) :   2.9926 B( 11-C , 12-N ) :   3.0010
B( 13-C , 14-C ) :   1.4658 B( 13-C , 74-H ) :   0.9920 B( 14-C , 15-S ) :   1.1253
B( 14-C , 16-C ) :   1.1037 B( 16-C , 17-C ) :   1.5359 B( 16-C , 23-S ) :   1.1571
B( 17-C , 18-C ) :   0.8819 B( 17-C , 21-C ) :   1.2792 B( 18-C , 19-O ) :   2.1987
B( 18-C , 20-O ) :   1.1699 B( 20-O , 75-H ) :   0.9470 B( 21-C , 22-C ) :   1.5690
B( 21-C , 24-C ) :   0.9670 B( 22-C , 23-S ) :   1.1378 B( 22-C , 76-H ) :   0.9670
B( 24-C , 25-C ) :   1.4295 B( 24-C , 27-C ) :   0.1136 B( 24-C , 33-C ) :   1.2630
B( 25-C , 26-C ) :   1.2660 B( 25-C , 77-H ) :   0.9992 B( 26-C , 27-C ) :   1.3598
B( 26-C , 78-H ) :   1.0008 B( 27-C , 28-C ) :   1.1732 B( 27-C , 34-C ) :   1.1456
B( 28-C , 29-N ) :   1.4453 B( 28-C , 33-C ) :   1.2271 B( 29-N , 30-C ) :   1.5522
B( 30-C , 31-C ) :   1.2721 B( 30-C , 79-H ) :   0.9654 B( 31-C , 32-N ) :   1.5939
B( 31-C , 80-H ) :   0.9719 B( 32-N , 33-C ) :   1.4284 B( 34-C , 35-C ) :   1.5604
B( 34-C , 81-H ) :   0.9589 B( 35-C , 36-C ) :   1.1271 B( 35-C , 39-S ) :   1.0556
B( 36-C , 37-C ) :   1.6011 B( 36-C , 82-H ) :   1.0008 B( 37-C , 38-C ) :   1.1734
B( 37-C , 83-H ) :   0.9918 B( 38-C , 39-S ) :   0.9769 B( 38-C , 40-C ) :   1.5335
B( 40-C , 41-C ) :   1.1726 B( 40-C , 44-S ) :   1.0459 B( 41-C , 42-C ) :   1.6240
B( 41-C , 84-H ) :   0.9933 B( 42-C , 43-C ) :   1.1240 B( 42-C , 85-H ) :   0.9864
B( 43-C , 44-S ) :   1.0219 B( 43-C , 45-C ) :   1.6507 B( 45-C , 46-C ) :   1.0813
B( 45-C , 86-H ) :   0.9542 B( 46-C , 47-C ) :   1.3317 B( 46-C , 51-C ) :   1.3264
B( 47-C , 48-C ) :   1.3943 B( 47-C , 87-H ) :   0.9910 B( 48-C , 49-C ) :   1.3681
B( 48-C , 88-H ) :   0.9887 B( 49-C , 50-C ) :   1.3653 B( 49-C , 52-C ) :   0.9808
B( 50-C , 51-C ) :   1.3869 B( 50-C , 89-H ) :   0.9920 B( 51-C , 90-H ) :   0.9978
B( 52-C , 53-C ) :   0.9764 B( 52-C , 59-C ) :   1.7958 B( 53-C , 54-C ) :   1.3847
B( 53-C , 58-C ) :   1.3866 B( 54-C , 55-C ) :   1.3887 B( 54-C , 91-H ) :   0.9906
B( 55-C , 56-C ) :   1.3764 B( 55-C , 92-H ) :   0.9920 B( 56-C , 57-C ) :   1.3842
B( 56-C , 93-H ) :   0.9935 B( 57-C , 58-C ) :   1.3804 B( 57-C , 94-H ) :   0.9911
B( 58-C , 95-H ) :   0.9925 B( 59-C , 60-C ) :   0.9776 B( 59-C , 66-C ) :   0.9785
B( 60-C , 61-C ) :   1.3844 B( 60-C , 65-C ) :   1.3867 B( 61-C , 62-C ) :   1.3891
B( 61-C , 96-H ) :   0.9910 B( 62-C , 63-C ) :   1.3768 B( 62-C , 97-H ) :   0.9920
B( 63-C , 64-C ) :   1.3829 B( 63-C , 98-H ) :   0.9937 B( 64-C , 65-C ) :   1.3807
B( 64-C , 99-H ) :   0.9917 B( 65-C ,100-H ) :   0.9928 B( 66-C , 67-C ) :   1.3844
B( 66-C , 71-C ) :   1.3856 B( 67-C , 68-C ) :   1.3899 B( 67-C ,101-H ) :   0.9898
B( 68-C , 69-C ) :   1.3792 B( 68-C ,102-H ) :   0.9915 B( 69-C , 70-C ) :   1.3824
B( 69-C ,103-H ) :   0.9929 B( 70-C , 71-C ) :   1.3822 B( 70-C ,104-H ) :   0.9904
B( 71-C ,105-H ) :   0.9927

-----------------------------------------------------------------------------
         ABSORPTION SPECTRUM VIA TRANSITION ELECTRIC DIPOLE MOMENTS
-----------------------------------------------------------------------------
State   Energy  Wavelength   fosc         T2         TX        TY        TZ
        (cm-1)    (nm)                  (au**2)     (au)      (au)      (au)
-----------------------------------------------------------------------------
   0   13911.3    718.8   1.197477353  28.33830  -1.37645   0.96391  -5.05119
   1   14412.5    693.8   0.168713600   3.85378  -0.44145  -0.60140  -1.81582
   2   15782.5    633.6   0.012607472   0.26298  -0.02501  -0.45632  -0.23266
   3   21237.7    470.9   0.517191252   8.01715  -1.32165  -0.83593  -2.36043
   4   25090.1    398.6   0.100930248   1.32432  -0.50413  -1.03354  -0.04441
   5   26150.2    382.4   0.041730059   0.52535   0.08248   0.68590   0.21929
   6   26846.5    372.5   0.003814557   0.04678  -0.00168  -0.21234   0.04108
   7   27143.9    368.4   0.102529737   1.24352   0.21736   0.88359   0.64463
   8   27604.0    362.3   0.013469890   0.16065  -0.25392   0.19503   0.24111
   9   28310.5    353.2   0.030806192   0.35823   0.07997   0.55113  -0.21929
  10   28994.3    344.9   0.030899738   0.35085  -0.57074   0.08013  -0.13667
  11   29322.4    341.0   0.121387199   1.36285   0.41591   1.08470  -0.11531
  12   29542.9    338.5   0.042027392   0.46833  -0.10572  -0.57007   0.36356
  13   30851.2    324.1   0.679410091   7.24996   1.17479   1.55736  -1.85592
  14   31325.3    319.2   0.058373749   0.61348   0.31785   0.15312  -0.69928
  15   31405.2    318.4   0.504397237   5.28745  -0.80965  -0.69349   2.03740
  16   32019.5    312.3   0.561287480   5.77093   0.82445  -2.19600  -0.51843
  17   33082.3    302.3   0.048051338   0.47817  -0.35275  -0.29604   0.51585
  18   33349.0    299.9   0.394033846   3.88979   0.28876  -1.94367   0.16896
  19   33982.9    294.3   0.021722495   0.21044  -0.40330   0.14903  -0.15992
  20   34471.2    290.1   0.052039372   0.49699   0.35921   0.00644  -0.60656
  21   34628.2    288.8   0.160624155   1.52706   0.96591  -0.49304  -0.59245
  22   34779.8    287.5   0.106943494   1.01229  -0.90420   0.06575   0.43633
  23   35134.0    284.6   0.009389226   0.08798  -0.00605  -0.23713   0.17808
  24   35462.0    282.0   0.021365255   0.19834   0.31389  -0.30503   0.08230
  25   35647.3    280.5   0.003904368   0.03606   0.06882  -0.05625   0.16780
  26   36269.1    275.7   0.142000490   1.28893  -0.51449  -0.19559  -0.99296
  27   36884.1    271.1   0.015992358   0.14274  -0.29519   0.06623   0.22632
  28   37142.2    269.2   0.013957178   0.12371  -0.35125  -0.01116  -0.01455
  29   37716.4    265.1   0.156125458   1.36276  -0.20985  -0.28410  -1.11266
  30   37804.8    264.5   0.120974922   1.05348  -0.64240  -0.56159  -0.57045
  31   38308.5    261.0   0.051536527   0.44289  -0.21200  -0.60853  -0.16623
  32   38596.0    259.1   0.019770147   0.16863  -0.00724   0.39788   0.10133
  33   38869.3    257.3   0.062564593   0.52990  -0.65633   0.28849   0.12615
  34   38966.2    256.6   0.063668481   0.53791  -0.58701  -0.23388  -0.37233
  35   39006.3    256.4   0.074166954   0.62597  -0.10081  -0.58101   0.52748
  36   39334.5    254.2   0.024850371   0.20799  -0.04153  -0.40220  -0.21094
  37   39392.8    253.9   0.006530536   0.05458   0.10108  -0.00787  -0.21047
  38   39669.9    252.1   0.000550657   0.00457  -0.01073   0.06667   0.00304
  39   39819.5    251.1   0.015041991   0.12436   0.02968  -0.29949   0.18380
  40   39999.8    250.0   0.014329020   0.11793   0.04438  -0.19226  -0.28106
  41   40242.6    248.5   0.006638370   0.05431   0.09790  -0.14807  -0.15099

FINAL SINGLE POINT ENERGY     -4701.206121249152

DIPOLE MOMENT
-------------
                                X             Y             Z
Electronic contribution:     31.22744     -47.11183     145.28157
Nuclear contribution   :    -31.06673      47.98753    -147.24176
                        -----------------------------------------
Total Dipole Moment    :      0.16072       0.87570      -1.96019
                        -----------------------------------------
Magnitude (a.u.)       :      2.15291
Magnitude (Debye)      :      5.47226

Rotational constants in cm-1:     0.001610     0.000193     0.000182
Rotational constants in MHz :    48.278993     5.776166     5.447706

                             ****ORCA TERMINATED NORMALLY****
TOTAL RUN TIME: 0 days 0 hours 10 minutes 51 seconds 112 msec
