                         Program Version 4.2.0 -  RELEASE  -
|  1> # ORCA input file
|  2> # SCF done       -160.351588983177          0.003143948998
|  3> ! CAM-B3LYP def2-SVP def2/J RIJCOSX Grid4 TightSCF
|  4> %maxcore 5000
|  5> %tddft
|  6>     Mode sTDDFT
|  7>     Ethresh 5.0
|  8>     maxcore 5000
|  9> end
| 10>
| 11> %pal
| 12>   nprocs 6
| 13>   end
| 14> * xyz 0 1
| 15>    C       -2.73177        -1.86449         2.05454
| 16>    C       -2.07291        -1.71138         0.87269
| 17>    C       -1.70693        -0.36826         0.66132
| 18>    C       -2.10784         0.46591         1.71039
| 19>    S       -2.92605        -0.38863         2.94058
| 20>    C       -1.69813         1.79879         1.41254
| 21>    C       -1.03982         1.79271         0.17735
| 22>    C       -1.03374         0.43355        -0.34505
| 23>    C       -0.52918         0.01163        -1.54169
| 24>    C        0.08141         0.88330        -2.46885
| 25>    N        0.58278         1.56406        -3.24419
| 26>    C       -0.59286        -1.33740        -1.95075
| 27>    N       -0.64025        -2.42971        -2.29536
| 28>    C       -0.58443         3.05622        -0.20719
| 29>    C       -0.90764         4.02432         0.71996
| 30>    S       -1.76843         3.35740         2.09902
| 31>    C       -0.63527         5.42630         0.66984
| 32>    C       -0.25298         6.17912        -0.41875
| 33>    C       -0.11905         5.61197        -1.78762
| 34>    O       -1.02690         5.14846        -2.41942
| 35>    O        1.13120         5.64427        -2.29037
| 36>    C       -0.02029         7.55472        -0.09708
| 37>    C       -0.22275         7.79605         1.23767
| 38>    S       -0.69518         6.40270         2.11074
| 39>    C        0.34407         8.57055        -1.06679
| 40>    C        0.03784         8.47086        -2.39131
| 41>    C        0.39417         9.40465        -3.37355
| 42>    C        0.97155        10.70715        -3.00257
| 43>    C        1.34254        11.02988        -1.74649
| 44>    S        1.20292         9.96230        -0.40301
| 45>    C        1.02874        11.44502        -4.21780
| 46>    C        0.55126        10.65721        -5.26651
| 47>    C        0.60189        11.32501        -6.50880
| 48>    C        1.10482        12.58002        -6.37600
| 49>    S        1.54013        12.99825        -4.75093
| 50>    C        0.18032         9.36445        -4.75312
| 51>    C       -0.26704         8.27026        -5.55162
| 52>    C       -0.06850         6.97746        -5.20960
| 53>    C       -0.50702         5.79748        -5.88049
| 54>    C       -1.38853         5.56463        -6.92364
| 55>    C       -2.17410         6.60451        -7.62871
| 56>    O       -1.72774         7.61954        -8.08632
| 57>    O       -3.49746         6.34343        -7.72088
| 58>    C       -1.54769         4.16966        -7.20061
| 59>    C       -0.81283         3.38634        -6.34591
| 60>    S        0.07569         4.29450        -5.21604
| 61>    C       -2.31278         3.63045        -8.30136
| 62>    C       -2.51842         4.18537        -9.54230
| 63>    C       -3.28325         3.34986       -10.36854
| 64>    C       -3.65873         2.15975        -9.74083
| 65>    S       -3.06084         2.04787        -8.14539
| 66>    C       -4.44974         1.39601       -10.65092
| 67>    C       -4.56978         2.11238       -11.84433
| 68>    C       -3.82842         3.35641       -11.71959
| 69>    C       -3.65070         4.31179       -12.67605
| 70>    C       -4.23874         4.21290       -13.95433
| 71>    N       -4.71673         4.14520       -14.99447
| 72>    C       -2.84616         5.45378       -12.47188
| 73>    N       -2.17583         6.37448       -12.33913
| 74>    C       -5.34112         1.43050       -12.80558
| 75>    C       -5.78224         0.23379       -12.32970
| 76>    S       -5.27317        -0.09807       -10.70659
| 77>    H       -3.12516        -2.76881         2.47375
| 78>    H       -1.86414        -2.52006         0.19526
| 79>    H       -0.04026         3.24657        -1.11205
| 80>    H        1.77104         6.04220        -1.68562
| 81>    H       -0.13435         8.73520         1.74652
| 82>    H       -0.57210         7.63800        -2.70790
| 83>    H        1.78234        11.98073        -1.49002
| 84>    H        0.28027        10.90245        -7.44311
| 85>    H        1.25630        13.31365        -7.14366
| 86>    H       -0.73242         8.52265        -6.49207
| 87>    H        0.53704         6.76249        -4.34014
| 88>    H       -3.73636         5.50746        -7.29971
| 89>    H       -0.74424         2.31610        -6.35280
| 90>    H       -2.11942         5.13959        -9.83590
| 91>    H       -5.56091         1.79935       -13.79058
| 92>    H       -6.38654        -0.49362       -12.83345
| 93> *
| 94>
| 95>                          ****END OF INPUT****

CARTESIAN COORDINATES (ANGSTROEM)
---------------------------------
  C     -2.731770   -1.864490    2.054540
  C     -2.072910   -1.711380    0.872690
  C     -1.706930   -0.368260    0.661320
  C     -2.107840    0.465910    1.710390
  S     -2.926050   -0.388630    2.940580
  C     -1.698130    1.798790    1.412540
  C     -1.039820    1.792710    0.177350
  C     -1.033740    0.433550   -0.345050
  C     -0.529180    0.011630   -1.541690
  C      0.081410    0.883300   -2.468850
  N      0.582780    1.564060   -3.244190
  C     -0.592860   -1.337400   -1.950750
  N     -0.640250   -2.429710   -2.295360
  C     -0.584430    3.056220   -0.207190
  C     -0.907640    4.024320    0.719960
  S     -1.768430    3.357400    2.099020
  C     -0.635270    5.426300    0.669840
  C     -0.252980    6.179120   -0.418750
  C     -0.119050    5.611970   -1.787620
  O     -1.026900    5.148460   -2.419420
  O      1.131200    5.644270   -2.290370
  C     -0.020290    7.554720   -0.097080
  C     -0.222750    7.796050    1.237670
  S     -0.695180    6.402700    2.110740
  C      0.344070    8.570550   -1.066790
  C      0.037840    8.470860   -2.391310
  C      0.394170    9.404650   -3.373550
  C      0.971550   10.707150   -3.002570
  C      1.342540   11.029880   -1.746490
  S      1.202920    9.962300   -0.403010
  C      1.028740   11.445020   -4.217800
  C      0.551260   10.657210   -5.266510
  C      0.601890   11.325010   -6.508800
  C      1.104820   12.580020   -6.376000
  S      1.540130   12.998250   -4.750930
  C      0.180320    9.364450   -4.753120
  C     -0.267040    8.270260   -5.551620
  C     -0.068500    6.977460   -5.209600
  C     -0.507020    5.797480   -5.880490
  C     -1.388530    5.564630   -6.923640
  C     -2.174100    6.604510   -7.628710
  O     -1.727740    7.619540   -8.086320
  O     -3.497460    6.343430   -7.720880
  C     -1.547690    4.169660   -7.200610
  C     -0.812830    3.386340   -6.345910
  S      0.075690    4.294500   -5.216040
  C     -2.312780    3.630450   -8.301360
  C     -2.518420    4.185370   -9.542300
  C     -3.283250    3.349860  -10.368540
  C     -3.658730    2.159750   -9.740830
  S     -3.060840    2.047870   -8.145390
  C     -4.449740    1.396010  -10.650920
  C     -4.569780    2.112380  -11.844330
  C     -3.828420    3.356410  -11.719590
  C     -3.650700    4.311790  -12.676050
  C     -4.238740    4.212900  -13.954330
  N     -4.716730    4.145200  -14.994470
  C     -2.846160    5.453780  -12.471880
  N     -2.175830    6.374480  -12.339130
  C     -5.341120    1.430500  -12.805580
  C     -5.782240    0.233790  -12.329700
  S     -5.273170   -0.098070  -10.706590
  H     -3.125160   -2.768810    2.473750
  H     -1.864140   -2.520060    0.195260
  H     -0.040260    3.246570   -1.112050
  H      1.771040    6.042200   -1.685620
  H     -0.134350    8.735200    1.746520
  H     -0.572100    7.638000   -2.707900
  H      1.782340   11.980730   -1.490020
  H      0.280270   10.902450   -7.443110
  H      1.256300   13.313650   -7.143660
  H     -0.732420    8.522650   -6.492070
  H      0.537040    6.762490   -4.340140
  H     -3.736360    5.507460   -7.299710
  H     -0.744240    2.316100   -6.352800
  H     -2.119420    5.139590   -9.835900
  H     -5.560910    1.799350  -13.790580
  H     -6.386540   -0.493620  -12.833450

 Total Charge           Charge          ....    0
 Multiplicity           Mult            ....    1
 Number of Electrons    NEL             ....  480
 Basis Dimension        Dim             ....  980

ORBITAL ENERGIES
----------------

  NO   OCC          E(Eh)            E(eV)
   0   2.0000     -88.995388     -2421.6876
   1   2.0000     -88.991668     -2421.5864
   2   2.0000     -88.982409     -2421.3344
   3   2.0000     -88.977088     -2421.1897
   4   2.0000     -88.976810     -2421.1821
   5   2.0000     -88.969260     -2420.9766
   6   2.0000     -88.948860     -2420.4215
   7   2.0000     -88.948359     -2420.4079
   8   2.0000     -19.278874      -524.6048
   9   2.0000     -19.245321      -523.6918
  10   2.0000     -19.218914      -522.9732
  11   2.0000     -19.190165      -522.1910
  12   2.0000     -14.434767      -392.7900
  13   2.0000     -14.432343      -392.7240
  14   2.0000     -14.417776      -392.3276
  15   2.0000     -14.414655      -392.2427
  16   2.0000     -10.422941      -283.6227
  17   2.0000     -10.393312      -282.8164
  18   2.0000     -10.367092      -282.1029
  19   2.0000     -10.354820      -281.7690
  20   2.0000     -10.350680      -281.6563
  21   2.0000     -10.337924      -281.3092
  22   2.0000     -10.337699      -281.3031
  23   2.0000     -10.336070      -281.2588
  24   2.0000     -10.335096      -281.2323
  25   2.0000     -10.333369      -281.1853
  26   2.0000     -10.332745      -281.1683
  27   2.0000     -10.332411      -281.1592
  28   2.0000     -10.321842      -280.8716
  29   2.0000     -10.318925      -280.7922
  30   2.0000     -10.318322      -280.7758
  31   2.0000     -10.317825      -280.7623
  32   2.0000     -10.317183      -280.7448
  33   2.0000     -10.315667      -280.7036
  34   2.0000     -10.314562      -280.6735
  35   2.0000     -10.314058      -280.6598
  36   2.0000     -10.313163      -280.6354
  37   2.0000     -10.311196      -280.5819
  38   2.0000     -10.307241      -280.4743
  39   2.0000     -10.305198      -280.4187
  40   2.0000     -10.304791      -280.4076
  41   2.0000     -10.303338      -280.3681
  42   2.0000     -10.301245      -280.3111
  43   2.0000     -10.301115      -280.3076
  44   2.0000     -10.301076      -280.3065
  45   2.0000     -10.292030      -280.0604
  46   2.0000     -10.290699      -280.0242
  47   2.0000     -10.288870      -279.9744
  48   2.0000     -10.288354      -279.9603
  49   2.0000     -10.288257      -279.9577
  50   2.0000     -10.287326      -279.9324
  51   2.0000     -10.287068      -279.9253
  52   2.0000     -10.286782      -279.9176
  53   2.0000     -10.285550      -279.8840
  54   2.0000     -10.278740      -279.6987
  55   2.0000     -10.277483      -279.6645
  56   2.0000     -10.274353      -279.5794
  57   2.0000     -10.266956      -279.3781
  58   2.0000     -10.266115      -279.3552
  59   2.0000     -10.263787      -279.2919
  60   2.0000     -10.263461      -279.2830
  61   2.0000     -10.261548      -279.2309
  62   2.0000      -8.090197      -220.1455
  63   2.0000      -8.086682      -220.0498
  64   2.0000      -8.078311      -219.8220
  65   2.0000      -8.071901      -219.6476
  66   2.0000      -8.071738      -219.6431
  67   2.0000      -8.064568      -219.4481
  68   2.0000      -8.044298      -218.8965
  69   2.0000      -8.043570      -218.8767
  70   2.0000      -6.059463      -164.8864
  71   2.0000      -6.055944      -164.7906
  72   2.0000      -6.055267      -164.7722
  73   2.0000      -6.052504      -164.6970
  74   2.0000      -6.051478      -164.6691
  75   2.0000      -6.049289      -164.6095
  76   2.0000      -6.047685      -164.5659
  77   2.0000      -6.043251      -164.4452
  78   2.0000      -6.041147      -164.3880
  79   2.0000      -6.040953      -164.3827
  80   2.0000      -6.040492      -164.3701
  81   2.0000      -6.036790      -164.2694
  82   2.0000      -6.036731      -164.2678
  83   2.0000      -6.034487      -164.2067
  84   2.0000      -6.034280      -164.2011
  85   2.0000      -6.034189      -164.1986
  86   2.0000      -6.029708      -164.0767
  87   2.0000      -6.026238      -163.9823
  88   2.0000      -6.013465      -163.6347
  89   2.0000      -6.013019      -163.6226
  90   2.0000      -6.008959      -163.5121
  91   2.0000      -6.008803      -163.5078
  92   2.0000      -6.006881      -163.4556
  93   2.0000      -6.005651      -163.4221
  94   2.0000      -1.201051       -32.6823
  95   2.0000      -1.169389       -31.8207
  96   2.0000      -1.115899       -30.3652
  97   2.0000      -1.085841       -29.5472
  98   2.0000      -1.047365       -28.5003
  99   2.0000      -1.030282       -28.0354
 100   2.0000      -1.025671       -27.9099
 101   2.0000      -1.017001       -27.6740
 102   2.0000      -1.010632       -27.5007
 103   2.0000      -1.008209       -27.4348
 104   2.0000      -0.998613       -27.1736
 105   2.0000      -0.993541       -27.0356
 106   2.0000      -0.993473       -27.0338
 107   2.0000      -0.989331       -26.9211
 108   2.0000      -0.974393       -26.5146
 109   2.0000      -0.964338       -26.2410
 110   2.0000      -0.958005       -26.0687
 111   2.0000      -0.942870       -25.6568
 112   2.0000      -0.921749       -25.0821
 113   2.0000      -0.913579       -24.8597
 114   2.0000      -0.899819       -24.4853
 115   2.0000      -0.896136       -24.3851
 116   2.0000      -0.878893       -23.9159
 117   2.0000      -0.874206       -23.7884
 118   2.0000      -0.860380       -23.4121
 119   2.0000      -0.857479       -23.3332
 120   2.0000      -0.857111       -23.3232
 121   2.0000      -0.848112       -23.0783
 122   2.0000      -0.841795       -22.9064
 123   2.0000      -0.840834       -22.8803
 124   2.0000      -0.836296       -22.7568
 125   2.0000      -0.814597       -22.1663
 126   2.0000      -0.804490       -21.8913
 127   2.0000      -0.786541       -21.4029
 128   2.0000      -0.781394       -21.2628
 129   2.0000      -0.777125       -21.1466
 130   2.0000      -0.765371       -20.8268
 131   2.0000      -0.756848       -20.5949
 132   2.0000      -0.742588       -20.2068
 133   2.0000      -0.728833       -19.8325
 134   2.0000      -0.722138       -19.6504
 135   2.0000      -0.707825       -19.2609
 136   2.0000      -0.703924       -19.1548
 137   2.0000      -0.700416       -19.0593
 138   2.0000      -0.697414       -18.9776
 139   2.0000      -0.690318       -18.7845
 140   2.0000      -0.688235       -18.7278
 141   2.0000      -0.684766       -18.6334
 142   2.0000      -0.673590       -18.3293
 143   2.0000      -0.667032       -18.1509
 144   2.0000      -0.660188       -17.9646
 145   2.0000      -0.655697       -17.8424
 146   2.0000      -0.643612       -17.5136
 147   2.0000      -0.640194       -17.4206
 148   2.0000      -0.638376       -17.3711
 149   2.0000      -0.630476       -17.1561
 150   2.0000      -0.622180       -16.9304
 151   2.0000      -0.618643       -16.8341
 152   2.0000      -0.616322       -16.7710
 153   2.0000      -0.609118       -16.5749
 154   2.0000      -0.602681       -16.3998
 155   2.0000      -0.599477       -16.3126
 156   2.0000      -0.578611       -15.7448
 157   2.0000      -0.575827       -15.6691
 158   2.0000      -0.571383       -15.5481
 159   2.0000      -0.564929       -15.3725
 160   2.0000      -0.559149       -15.2152
 161   2.0000      -0.553239       -15.0544
 162   2.0000      -0.550645       -14.9838
 163   2.0000      -0.549893       -14.9633
 164   2.0000      -0.547721       -14.9043
 165   2.0000      -0.533543       -14.5184
 166   2.0000      -0.532616       -14.4932
 167   2.0000      -0.530945       -14.4477
 168   2.0000      -0.528169       -14.3722
 169   2.0000      -0.525030       -14.2868
 170   2.0000      -0.521941       -14.2027
 171   2.0000      -0.517719       -14.0878
 172   2.0000      -0.515134       -14.0175
 173   2.0000      -0.512575       -13.9479
 174   2.0000      -0.509607       -13.8671
 175   2.0000      -0.506504       -13.7827
 176   2.0000      -0.505807       -13.7637
 177   2.0000      -0.499794       -13.6001
 178   2.0000      -0.498569       -13.5668
 179   2.0000      -0.496762       -13.5176
 180   2.0000      -0.493111       -13.4182
 181   2.0000      -0.489666       -13.3245
 182   2.0000      -0.486318       -13.2334
 183   2.0000      -0.484064       -13.1720
 184   2.0000      -0.483535       -13.1577
 185   2.0000      -0.481842       -13.1116
 186   2.0000      -0.478697       -13.0260
 187   2.0000      -0.473567       -12.8864
 188   2.0000      -0.471825       -12.8390
 189   2.0000      -0.467194       -12.7130
 190   2.0000      -0.465779       -12.6745
 191   2.0000      -0.463576       -12.6145
 192   2.0000      -0.460664       -12.5353
 193   2.0000      -0.458652       -12.4805
 194   2.0000      -0.457280       -12.4432
 195   2.0000      -0.453344       -12.3361
 196   2.0000      -0.452271       -12.3069
 197   2.0000      -0.451112       -12.2754
 198   2.0000      -0.448436       -12.2026
 199   2.0000      -0.448249       -12.1975
 200   2.0000      -0.443563       -12.0700
 201   2.0000      -0.443267       -12.0619
 202   2.0000      -0.442469       -12.0402
 203   2.0000      -0.441292       -12.0082
 204   2.0000      -0.438877       -11.9425
 205   2.0000      -0.436312       -11.8726
 206   2.0000      -0.429748       -11.6940
 207   2.0000      -0.428881       -11.6704
 208   2.0000      -0.427462       -11.6318
 209   2.0000      -0.426281       -11.5997
 210   2.0000      -0.425054       -11.5663
 211   2.0000      -0.424034       -11.5386
 212   2.0000      -0.419829       -11.4241
 213   2.0000      -0.417460       -11.3597
 214   2.0000      -0.412084       -11.2134
 215   2.0000      -0.411455       -11.1963
 216   2.0000      -0.410069       -11.1585
 217   2.0000      -0.404461       -11.0059
 218   2.0000      -0.401456       -10.9242
 219   2.0000      -0.398004       -10.8302
 220   2.0000      -0.393103       -10.6969
 221   2.0000      -0.383200       -10.4274
 222   2.0000      -0.379752       -10.3336
 223   2.0000      -0.373113       -10.1529
 224   2.0000      -0.368003       -10.0139
 225   2.0000      -0.354845        -9.6558
 226   2.0000      -0.350629        -9.5411
 227   2.0000      -0.341924        -9.3042
 228   2.0000      -0.338579        -9.2132
 229   2.0000      -0.334407        -9.0997
 230   2.0000      -0.332787        -9.0556
 231   2.0000      -0.325463        -8.8563
 232   2.0000      -0.322694        -8.7810
 233   2.0000      -0.313844        -8.5401
 234   2.0000      -0.308261        -8.3882
 235   2.0000      -0.292029        -7.9465
 236   2.0000      -0.274415        -7.4672
 237   2.0000      -0.266689        -7.2570
 238   2.0000      -0.255736        -6.9589
 239   2.0000      -0.225124        -6.1259
 240   0.0000      -0.105958        -2.8833
 241   0.0000      -0.088603        -2.4110
 242   0.0000      -0.054729        -1.4893
 243   0.0000      -0.042924        -1.1680
 244   0.0000      -0.017470        -0.4754

MULLIKEN ATOMIC CHARGES
-----------------------
   0 C :   -0.079289
   1 C :    0.035361
   2 C :   -0.031927
   3 C :   -0.119621
   4 S :    0.184619
   5 C :   -0.096257
   6 C :   -0.000307
   7 C :    0.310644
   8 C :   -0.308288
   9 C :   -0.182499
  10 N :    0.172968
  11 C :   -0.194688
  12 N :    0.175433
  13 C :   -0.039750
  14 C :   -0.086596
  15 S :    0.189043
  16 C :   -0.083897
  17 C :   -0.039194
  18 C :    0.124293
  19 O :   -0.173440
  20 O :   -0.164691
  21 C :    0.130493
  22 C :   -0.135453
  23 S :    0.150665
  24 C :   -0.132253
  25 C :   -0.070382
  26 C :    0.021184
  27 C :    0.075580
  28 C :   -0.135172
  29 S :    0.105576
  30 C :   -0.111925
  31 C :    0.051649
  32 C :    0.016823
  33 C :   -0.071268
  34 S :    0.121374
  35 C :    0.069390
  36 C :   -0.027022
  37 C :    0.022817
  38 C :   -0.134570
  39 C :   -0.011599
  40 C :    0.140533
  41 O :   -0.180629
  42 O :   -0.160572
  43 C :    0.096127
  44 C :   -0.134340
  45 S :    0.204989
  46 C :   -0.190520
  47 C :   -0.014246
  48 C :    0.002580
  49 C :   -0.105330
  50 S :    0.180745
  51 C :   -0.117897
  52 C :   -0.033328
  53 C :    0.303240
  54 C :   -0.301915
  55 C :   -0.192109
  56 N :    0.170053
  57 C :   -0.189582
  58 N :    0.181889
  59 C :    0.036916
  60 C :   -0.085442
  61 S :    0.173235
  62 H :    0.037224
  63 H :    0.013814
  64 H :    0.029429
  65 H :    0.198907
  66 H :    0.037179
  67 H :    0.021128
  68 H :    0.032803
  69 H :    0.000469
  70 H :    0.027398
  71 H :    0.013491
  72 H :   -0.012184
  73 H :    0.190332
  74 H :    0.024268
  75 H :    0.030777
  76 H :    0.009197
  77 H :    0.033543
Sum of atomic charges:   -0.0000000

LOEWDIN ATOMIC CHARGES
----------------------
   0 C :   -0.176337
   1 C :   -0.034045
   2 C :   -0.075536
   3 C :   -0.185099
   4 S :    0.480035
   5 C :   -0.177320
   6 C :   -0.071218
   7 C :    0.084671
   8 C :   -0.103735
   9 C :   -0.013367
  10 N :   -0.037602
  11 C :   -0.017378
  12 N :   -0.032978
  13 C :   -0.017698
  14 C :   -0.187495
  15 S :    0.474304
  16 C :   -0.168032
  17 C :   -0.109084
  18 C :    0.074400
  19 O :   -0.141153
  20 O :   -0.023069
  21 C :   -0.070585
  22 C :   -0.192567
  23 S :    0.454269
  24 C :   -0.192178
  25 C :   -0.021120
  26 C :   -0.033740
  27 C :   -0.045103
  28 C :   -0.143927
  29 S :    0.424592
  30 C :   -0.205080
  31 C :   -0.037544
  32 C :   -0.055734
  33 C :   -0.164895
  34 S :    0.415764
  35 C :   -0.035720
  36 C :   -0.003704
  37 C :   -0.057164
  38 C :   -0.136703
  39 C :   -0.121545
  40 C :    0.086361
  41 O :   -0.148316
  42 O :   -0.031374
  43 C :   -0.093060
  44 C :   -0.194104
  45 S :    0.522617
  46 C :   -0.178465
  47 C :   -0.029674
  48 C :   -0.071263
  49 C :   -0.185714
  50 S :    0.468875
  51 C :   -0.184301
  52 C :   -0.078190
  53 C :    0.082505
  54 C :   -0.102090
  55 C :   -0.015606
  56 N :   -0.037583
  57 C :   -0.020259
  58 N :   -0.025404
  59 C :   -0.035000
  60 C :   -0.182052
  61 S :    0.471074
  62 H :    0.028182
  63 H :    0.043177
  64 H :    0.041044
  65 H :    0.104091
  66 H :    0.024155
  67 H :    0.042798
  68 H :    0.034732
  69 H :    0.038241
  70 H :    0.023394
  71 H :    0.032893
  72 H :    0.021843
  73 H :    0.093124
  74 H :    0.021348
  75 H :    0.044765
  76 H :    0.041521
  77 H :    0.026139

  Mayer bond orders larger than 0.100000
B(  0-C ,  1-C ) :   1.5505 B(  0-C ,  4-S ) :   1.1518 B(  0-C , 62-H ) :   0.9640
B(  1-C ,  2-C ) :   1.2757 B(  1-C , 63-H ) :   0.9956 B(  2-C ,  3-C ) :   1.4623
B(  2-C ,  7-C ) :   1.0123 B(  3-C ,  4-S ) :   1.1375 B(  3-C ,  5-C ) :   1.1757
B(  5-C ,  6-C ) :   1.4617 B(  5-C , 15-S ) :   1.1320 B(  6-C ,  7-C ) :   0.9974
B(  6-C , 13-C ) :   1.2835 B(  7-C ,  8-C ) :   1.7022 B(  8-C ,  9-C ) :   1.1390
B(  8-C , 11-C ) :   1.1344 B(  9-C , 10-N ) :   2.9823 B( 11-C , 12-N ) :   3.0031
B( 13-C , 14-C ) :   1.5054 B( 13-C , 64-H ) :   0.9743 B( 14-C , 15-S ) :   1.1010
B( 14-C , 16-C ) :   1.1000 B( 16-C , 17-C ) :   1.5882 B( 16-C , 23-S ) :   1.1550
B( 17-C , 18-C ) :   0.8852 B( 17-C , 21-C ) :   1.2656 B( 18-C , 19-O ) :   2.1376
B( 18-C , 20-O ) :   1.1687 B( 20-O , 65-H ) :   0.9437 B( 21-C , 22-C ) :   1.5339
B( 21-C , 24-C ) :   1.0528 B( 22-C , 23-S ) :   1.1467 B( 22-C , 66-H ) :   0.9600
B( 24-C , 25-C ) :   1.5806 B( 24-C , 29-S ) :   1.0387 B( 25-C , 26-C ) :   1.1958
B( 25-C , 67-H ) :   0.9431 B( 26-C , 27-C ) :   1.0477 B( 26-C , 35-C ) :   1.4383
B( 27-C , 28-C ) :   1.6280 B( 27-C , 30-C ) :   1.1711 B( 28-C , 29-S ) :   1.1135
B( 28-C , 68-H ) :   0.9406 B( 30-C , 31-C ) :   1.4433 B( 30-C , 34-S ) :   1.0744
B( 31-C , 32-C ) :   1.2301 B( 31-C , 35-C ) :   1.0951 B( 32-C , 33-C ) :   1.5802
B( 32-C , 69-H ) :   0.9994 B( 33-C , 34-S ) :   1.1515 B( 33-C , 70-H ) :   0.9659
B( 35-C , 36-C ) :   1.1172 B( 36-C , 37-C ) :   1.6891 B( 36-C , 71-H ) :   0.9464
B( 37-C , 38-C ) :   1.1391 B( 37-C , 72-H ) :   0.9415 B( 38-C , 39-C ) :   1.4953
B( 38-C , 45-S ) :   1.1842 B( 39-C , 40-C ) :   0.8982 B( 39-C , 43-C ) :   1.2616
B( 40-C , 41-O ) :   2.0980 B( 40-C , 42-O ) :   1.2252 B( 42-O , 73-H ) :   0.9501
B( 43-C , 44-C ) :   1.5150 B( 43-C , 46-C ) :   1.0230 B( 44-C , 45-S ) :   1.1908
B( 44-C , 74-H ) :   0.9725 B( 46-C , 47-C ) :   1.5107 B( 46-C , 50-S ) :   1.1115
B( 47-C , 48-C ) :   1.2641 B( 47-C , 75-H ) :   0.9829 B( 48-C , 49-C ) :   1.4752
B( 48-C , 53-C ) :   0.9952 B( 49-C , 50-S ) :   1.1140 B( 49-C , 51-C ) :   1.1744
B( 51-C , 52-C ) :   1.4677 B( 51-C , 61-S ) :   1.1356 B( 52-C , 53-C ) :   1.0120
B( 52-C , 59-C ) :   1.2745 B( 53-C , 54-C ) :   1.7111 B( 54-C , 55-C ) :   1.1327
B( 54-C , 57-C ) :   1.1336 B( 55-C , 56-N ) :   3.0013 B( 57-C , 58-N ) :   2.9927
B( 59-C , 60-C ) :   1.5511 B( 59-C , 76-H ) :   0.9964 B( 60-C , 61-S ) :   1.1478
B( 60-C , 77-H ) :   0.9646

-----------------------------------------------------------------------------
         ABSORPTION SPECTRUM VIA TRANSITION ELECTRIC DIPOLE MOMENTS
-----------------------------------------------------------------------------
State   Energy  Wavelength   fosc         T2         TX        TY        TZ
        (cm-1)    (nm)                  (au**2)     (au)      (au)      (au)
-----------------------------------------------------------------------------
   0   13820.1    723.6   0.012003731   0.28594  -0.13368  -0.51479   0.05538
   1   15091.3    662.6   0.059084138   1.28890  -0.56134  -0.51280  -0.84311
   2   15577.6    641.9   0.037994957   0.80297  -0.22332  -0.81313   0.30318
   3   19555.0    511.4   0.001212054   0.02041   0.00730  -0.01464   0.14191
   4   20368.0    491.0   0.357513390   5.77855  -0.35460  -0.43471  -2.33748
   5   21546.2    464.1   0.000728872   0.01114   0.02830   0.01775   0.10010
   6   23878.9    418.8   0.032660769   0.45028   0.10643   0.52785   0.40041
   7   25106.9    398.3   0.243167863   3.18851   0.42210   0.40420   1.68729
   8   25567.2    391.1   0.003768758   0.04853  -0.08545  -0.13355  -0.15294
   9   28590.5    349.8   0.143046887   1.64715  -0.56453  -1.00834  -0.55830
  10   28968.6    345.2   0.103842185   1.18011  -0.43213  -0.91978  -0.38388
  11   29350.7    340.7   0.012603902   0.14137  -0.05423  -0.28318  -0.24132
  12   30591.1    326.9   0.112446639   1.21012  -0.27981  -0.90744  -0.55531
  13   30621.1    326.6   0.643272189   6.91592   0.74736   2.31242   1.00502
  14   30792.0    324.8   0.066652384   0.71261  -0.11497   0.62775   0.55256
  15   30909.8    323.5   0.397850661   4.23739  -0.02224  -2.05601  -0.09861
  16   31582.1    316.6   0.263217821   2.74378  -0.00288  -1.54696   0.59219
  17   31627.3    316.2   0.409947484   4.26719  -0.47127  -0.10565   2.00846
  18   31937.7    313.1   0.827796438   8.53289  -0.78606  -2.17839   1.78034
  19   32173.4    310.8   0.162884457   1.66670  -0.55674   0.48387   1.05953
  20   32349.1    309.1   0.003279714   0.03338  -0.00377   0.03291   0.17967
  21   32537.7    307.3   0.124119300   1.25582  -0.54569  -0.42106   0.88361
  22   32852.3    304.4   0.161969710   1.62309  -0.46980  -1.02685   0.58988
  23   33633.9    297.3   0.293430765   2.87213   0.24186   1.62593   0.41230
  24   33685.9    296.9   0.025559442   0.24979  -0.20602   0.45533  -0.00495
  25   34003.7    294.1   0.217229151   2.10314   0.71125  -0.33380   1.21895
  26   34353.7    291.1   0.040463589   0.38776   0.30646   0.29593  -0.45417
  27   34927.1    286.3   0.156300437   1.47324   0.52602   0.94766   0.54633
  28   34942.8    286.2   0.005996064   0.05649   0.10044  -0.03783  -0.21206
  29   35187.6    284.2   0.320364288   2.99730   0.70585   1.12393   1.11169
  30   35282.4    283.4   0.045540514   0.42493  -0.52605  -0.31571   0.22028
  31   36284.5    275.6   0.142442459   1.29239  -0.25754  -0.85134   0.70801
  32   37079.0    269.7   0.498713356   4.42790   1.25215   0.91022   1.42531
  33   38202.8    261.8   0.508501914   4.38201  -0.15204  -1.14865   1.74342
  34   38314.3    261.0   0.038805513   0.33343  -0.11354  -0.32416   0.46417
  35   38487.2    259.8   0.015461063   0.13225   0.16722   0.32118  -0.03360
  36   39446.9    253.5   0.037021352   0.30897  -0.21763  -0.43010   0.27680
  37   39604.2    252.5   0.010679822   0.08878   0.18775  -0.18851  -0.13413
  38   39758.7    251.5   0.343420992   2.84361   0.31928   0.94836  -1.35731
  39   39853.4    250.9   0.001692349   0.01398   0.04519   0.02038  -0.10734
  40   40088.4    249.4   0.118319091   0.97165   0.55229   0.79704   0.17705

FINAL SINGLE POINT ENERGY     -5463.993773848091

DIPOLE MOMENT
-------------
                                X             Y             Z
Electronic contribution:     -2.61107     -10.87773      12.34594
Nuclear contribution   :      2.50608       9.40798      -6.97700
                        -----------------------------------------
Total Dipole Moment    :     -0.10499      -1.46974       5.36894
                        -----------------------------------------
Magnitude (a.u.)       :      5.56746
Magnitude (Debye)      :     14.15137

Rotational constants in cm-1:     0.000995     0.000681     0.000421
Rotational constants in MHz :    29.816935    20.401577    12.628659

                             ****ORCA TERMINATED NORMALLY****
TOTAL RUN TIME: 0 days 0 hours 10 minutes 25 seconds 885 msec
