                         Program Version 4.2.0 -  RELEASE  -
|  1> # ORCA input file
|  2> # SCF done       -199.516130061538          0.000682035364
|  3> ! CAM-B3LYP def2-SVP def2/J RIJCOSX Grid4 TightSCF
|  4> %maxcore 5000
|  5> %tddft
|  6>     Mode sTDDFT
|  7>     Ethresh 5.0
|  8>     maxcore 5000
|  9> end
| 10>
| 11> %pal
| 12>   nprocs 6
| 13>   end
| 14> * xyz 0 1
| 15>    C       -1.03359        -2.69312        -2.48103
| 16>    C        0.01401        -2.37139        -1.67000
| 17>    C       -0.01351        -1.01010        -1.31787
| 18>    C       -1.10241        -0.33143        -1.88411
| 19>    S       -2.07732        -1.35898        -2.83748
| 20>    C       -1.05866         1.03147        -1.48101
| 21>    C        0.06998         1.20315        -0.65542
| 22>    C        0.76164        -0.07171        -0.52673
| 23>    C        1.89601        -0.32451         0.18801
| 24>    C        2.56356         0.67716         0.92419
| 25>    N        3.11667         1.48095         1.52653
| 26>    C        2.47932        -1.60786         0.24147
| 27>    N        2.95778        -2.64890         0.28736
| 28>    C        0.20903         2.50708        -0.20117
| 29>    C       -0.80435         3.33399        -0.67166
| 30>    S       -1.94419         2.47409        -1.69460
| 31>    C       -0.96711         4.71723        -0.39432
| 32>    C       -2.04759         5.46120        -0.92219
| 33>    C       -2.24608         6.85646        -0.64829
| 34>    N       -3.32117         7.48296        -1.17266
| 35>    C       -4.13553         6.82240        -1.92169
| 36>    C       -3.93191         5.44356        -2.21166
| 37>    N       -2.92236         4.80778        -1.71465
| 38>    F       -4.76997         4.76688        -2.99169
| 39>    F       -5.18920         7.45964        -2.41998
| 40>    C       -1.35205         7.57531         0.16735
| 41>    C       -0.26565         6.85153         0.69813
| 42>    C       -0.07255         5.44412         0.42428
| 43>    N        1.02047         4.97497         1.02903
| 44>    S        1.72517         6.16100         1.84308
| 45>    N        0.69895         7.33316         1.48479
| 46>    C       -1.52545         8.96837         0.46023
| 47>    O       -0.69672         9.54709         1.38187
| 48>    C       -1.09758        10.83042         1.44883
| 49>    C       -2.18412        10.98690         0.53415
| 50>    N       -2.40088         9.77586        -0.05583
| 51>    C       -2.83380        12.20012         0.36412
| 52>    C       -2.34969        13.23313         1.15136
| 53>    C       -1.26038        13.04701         2.05871
| 54>    C       -0.59932        11.84841         2.23784
| 55>    O       -1.04001        14.22676         2.67178
| 56>    C       -1.97675        15.07952         2.14271
| 57>    N       -2.75269        14.53395         1.25353
| 58>    C       -2.00488        16.41883         2.62510
| 59>    C       -2.90853        17.32805         2.19491
| 60>    C       -3.01087        18.67126         2.66521
| 61>    C       -4.02593        19.51701         2.16166
| 62>    C       -4.20395        20.86272         2.62292
| 63>    N       -5.19674        21.61907         2.10937
| 64>    C       -5.97486        21.12177         1.20532
| 65>    C       -5.79655        19.78758         0.74713
| 66>    N       -4.86094        19.03187         1.21470
| 67>    F       -6.59965        19.28291        -0.18503
| 68>    F       -6.94191        21.89513         0.72064
| 69>    C       -3.38048        21.44546         3.61183
| 70>    C       -2.34758        20.61331         4.10411
| 71>    C       -2.16783        19.25433         3.64007
| 72>    N       -1.13341        18.66958         4.25025
| 73>    S       -0.46518        19.69936         5.28009
| 74>    N       -1.43796        20.94296         5.02277
| 75>    C       -3.59255        22.77014         4.07798
| 76>    C       -2.86355        23.43410         5.05738
| 77>    C       -3.34482        24.71588         5.28602
| 78>    C       -4.44949        25.03626         4.47352
| 79>    S       -4.89312        23.75884         3.43256
| 80>    C       -4.85853        26.36011         4.79287
| 81>    C       -4.02052        26.86697         5.79669
| 82>    C       -3.04066        25.85364         6.14263
| 83>    C       -2.04663        25.94068         7.07329
| 84>    C       -1.84716        27.09936         7.85275
| 85>    N       -1.67985        28.03989         8.48717
| 86>    C       -1.15267        24.87839         7.32414
| 87>    N       -0.41673        24.02489         7.53632
| 88>    C       -4.36330        28.17834         6.17234
| 89>    C       -5.43333        28.63267         5.46041
| 90>    S       -6.05152        27.48616         4.31964
| 91>    H       -1.26404        -3.65157        -2.90173
| 92>    H        0.75869        -3.07619        -1.34820
| 93>    H        0.99094         2.87262         0.43851
| 94>    H       -3.65286        12.32626        -0.32072
| 95>    H        0.21846        11.71825         2.92492
| 96>    H       -1.26708        16.66963         3.37196
| 97>    H       -3.63079        17.03593         1.44651
| 98>    H       -2.03158        22.97472         5.55802
| 99>    H       -3.85557        28.75710         6.92208
|100>    H       -5.90956        29.58995         5.53482
|101> *
|102>
|103>                          ****END OF INPUT****

CARTESIAN COORDINATES (ANGSTROEM)
---------------------------------
  C     -1.033590   -2.693120   -2.481030
  C      0.014010   -2.371390   -1.670000
  C     -0.013510   -1.010100   -1.317870
  C     -1.102410   -0.331430   -1.884110
  S     -2.077320   -1.358980   -2.837480
  C     -1.058660    1.031470   -1.481010
  C      0.069980    1.203150   -0.655420
  C      0.761640   -0.071710   -0.526730
  C      1.896010   -0.324510    0.188010
  C      2.563560    0.677160    0.924190
  N      3.116670    1.480950    1.526530
  C      2.479320   -1.607860    0.241470
  N      2.957780   -2.648900    0.287360
  C      0.209030    2.507080   -0.201170
  C     -0.804350    3.333990   -0.671660
  S     -1.944190    2.474090   -1.694600
  C     -0.967110    4.717230   -0.394320
  C     -2.047590    5.461200   -0.922190
  C     -2.246080    6.856460   -0.648290
  N     -3.321170    7.482960   -1.172660
  C     -4.135530    6.822400   -1.921690
  C     -3.931910    5.443560   -2.211660
  N     -2.922360    4.807780   -1.714650
  F     -4.769970    4.766880   -2.991690
  F     -5.189200    7.459640   -2.419980
  C     -1.352050    7.575310    0.167350
  C     -0.265650    6.851530    0.698130
  C     -0.072550    5.444120    0.424280
  N      1.020470    4.974970    1.029030
  S      1.725170    6.161000    1.843080
  N      0.698950    7.333160    1.484790
  C     -1.525450    8.968370    0.460230
  O     -0.696720    9.547090    1.381870
  C     -1.097580   10.830420    1.448830
  C     -2.184120   10.986900    0.534150
  N     -2.400880    9.775860   -0.055830
  C     -2.833800   12.200120    0.364120
  C     -2.349690   13.233130    1.151360
  C     -1.260380   13.047010    2.058710
  C     -0.599320   11.848410    2.237840
  O     -1.040010   14.226760    2.671780
  C     -1.976750   15.079520    2.142710
  N     -2.752690   14.533950    1.253530
  C     -2.004880   16.418830    2.625100
  C     -2.908530   17.328050    2.194910
  C     -3.010870   18.671260    2.665210
  C     -4.025930   19.517010    2.161660
  C     -4.203950   20.862720    2.622920
  N     -5.196740   21.619070    2.109370
  C     -5.974860   21.121770    1.205320
  C     -5.796550   19.787580    0.747130
  N     -4.860940   19.031870    1.214700
  F     -6.599650   19.282910   -0.185030
  F     -6.941910   21.895130    0.720640
  C     -3.380480   21.445460    3.611830
  C     -2.347580   20.613310    4.104110
  C     -2.167830   19.254330    3.640070
  N     -1.133410   18.669580    4.250250
  S     -0.465180   19.699360    5.280090
  N     -1.437960   20.942960    5.022770
  C     -3.592550   22.770140    4.077980
  C     -2.863550   23.434100    5.057380
  C     -3.344820   24.715880    5.286020
  C     -4.449490   25.036260    4.473520
  S     -4.893120   23.758840    3.432560
  C     -4.858530   26.360110    4.792870
  C     -4.020520   26.866970    5.796690
  C     -3.040660   25.853640    6.142630
  C     -2.046630   25.940680    7.073290
  C     -1.847160   27.099360    7.852750
  N     -1.679850   28.039890    8.487170
  C     -1.152670   24.878390    7.324140
  N     -0.416730   24.024890    7.536320
  C     -4.363300   28.178340    6.172340
  C     -5.433330   28.632670    5.460410
  S     -6.051520   27.486160    4.319640
  H     -1.264040   -3.651570   -2.901730
  H      0.758690   -3.076190   -1.348200
  H      0.990940    2.872620    0.438510
  H     -3.652860   12.326260   -0.320720
  H      0.218460   11.718250    2.924920
  H     -1.267080   16.669630    3.371960
  H     -3.630790   17.035930    1.446510
  H     -2.031580   22.974720    5.558020
  H     -3.855570   28.757100    6.922080
  H     -5.909560   29.589950    5.534820

 Total Charge           Charge          ....    0
 Multiplicity           Mult            ....    1
 Number of Electrons    NEL             ....  556
 Basis Dimension        Dim             .... 1138

ORBITAL ENERGIES
----------------

  NO   OCC          E(Eh)            E(eV)
   0   2.0000     -89.042997     -2422.9831
   1   2.0000     -89.039585     -2422.8903
   2   2.0000     -88.985433     -2421.4167
   3   2.0000     -88.984577     -2421.3934
   4   2.0000     -88.980825     -2421.2913
   5   2.0000     -88.980013     -2421.2692
   6   2.0000     -24.821779      -675.4349
   7   2.0000     -24.819029      -675.3601
   8   2.0000     -24.815577      -675.2662
   9   2.0000     -24.810604      -675.1309
  10   2.0000     -19.289496      -524.8939
  11   2.0000     -19.287592      -524.8421
  12   2.0000     -14.461922      -393.5289
  13   2.0000     -14.459914      -393.4743
  14   2.0000     -14.455738      -393.3606
  15   2.0000     -14.452621      -393.2758
  16   2.0000     -14.450636      -393.2218
  17   2.0000     -14.448944      -393.1758
  18   2.0000     -14.446054      -393.0971
  19   2.0000     -14.444041      -393.0423
  20   2.0000     -14.424619      -392.5138
  21   2.0000     -14.424395      -392.5077
  22   2.0000     -14.423986      -392.4966
  23   2.0000     -14.423935      -392.4952
  24   2.0000     -14.398568      -391.8050
  25   2.0000     -14.397831      -391.7849
  26   2.0000     -10.436993      -284.0050
  27   2.0000     -10.433956      -283.9224
  28   2.0000     -10.432871      -283.8929
  29   2.0000     -10.428461      -283.7729
  30   2.0000     -10.367592      -282.1165
  31   2.0000     -10.360472      -281.9228
  32   2.0000     -10.357637      -281.8456
  33   2.0000     -10.357266      -281.8355
  34   2.0000     -10.348832      -281.6060
  35   2.0000     -10.347300      -281.5643
  36   2.0000     -10.346507      -281.5428
  37   2.0000     -10.345783      -281.5231
  38   2.0000     -10.345655      -281.5196
  39   2.0000     -10.345423      -281.5133
  40   2.0000     -10.341878      -281.4168
  41   2.0000     -10.340000      -281.3657
  42   2.0000     -10.339965      -281.3647
  43   2.0000     -10.339750      -281.3589
  44   2.0000     -10.334563      -281.2178
  45   2.0000     -10.333531      -281.1897
  46   2.0000     -10.325888      -280.9817
  47   2.0000     -10.325308      -280.9659
  48   2.0000     -10.325294      -280.9655
  49   2.0000     -10.325090      -280.9600
  50   2.0000     -10.324880      -280.9543
  51   2.0000     -10.324641      -280.9478
  52   2.0000     -10.324519      -280.9444
  53   2.0000     -10.322728      -280.8957
  54   2.0000     -10.321651      -280.8664
  55   2.0000     -10.320466      -280.8342
  56   2.0000     -10.318421      -280.7785
  57   2.0000     -10.318243      -280.7737
  58   2.0000     -10.311116      -280.5797
  59   2.0000     -10.310617      -280.5661
  60   2.0000     -10.310315      -280.5579
  61   2.0000     -10.307446      -280.4799
  62   2.0000     -10.298240      -280.2293
  63   2.0000     -10.298223      -280.2289
  64   2.0000     -10.297315      -280.2042
  65   2.0000     -10.296928      -280.1937
  66   2.0000     -10.295592      -280.1573
  67   2.0000     -10.295028      -280.1419
  68   2.0000     -10.293257      -280.0938
  69   2.0000     -10.292600      -280.0759
  70   2.0000     -10.292592      -280.0757
  71   2.0000     -10.291588      -280.0483
  72   2.0000     -10.285096      -279.8717
  73   2.0000     -10.284668      -279.8600
  74   2.0000     -10.279503      -279.7195
  75   2.0000     -10.273311      -279.5510
  76   2.0000      -8.134268      -221.3447
  77   2.0000      -8.130890      -221.2528
  78   2.0000      -8.080397      -219.8788
  79   2.0000      -8.079690      -219.8595
  80   2.0000      -8.073548      -219.6924
  81   2.0000      -8.072874      -219.6741
  82   2.0000      -6.105364      -166.1354
  83   2.0000      -6.101898      -166.0411
  84   2.0000      -6.097442      -165.9198
  85   2.0000      -6.097139      -165.9116
  86   2.0000      -6.094024      -165.8268
  87   2.0000      -6.093890      -165.8232
  88   2.0000      -6.049606      -164.6181
  89   2.0000      -6.048898      -164.5989
  90   2.0000      -6.045196      -164.4981
  91   2.0000      -6.044478      -164.4786
  92   2.0000      -6.043086      -164.4407
  93   2.0000      -6.043034      -164.4393
  94   2.0000      -6.042347      -164.4206
  95   2.0000      -6.042329      -164.4201
  96   2.0000      -6.038257      -164.3093
  97   2.0000      -6.037612      -164.2918
  98   2.0000      -6.036094      -164.2505
  99   2.0000      -6.035373      -164.2309
 100   2.0000      -1.347674       -36.6721
 101   2.0000      -1.344427       -36.5837
 102   2.0000      -1.332439       -36.2575
 103   2.0000      -1.328509       -36.1506
 104   2.0000      -1.220508       -33.2117
 105   2.0000      -1.217983       -33.1430
 106   2.0000      -1.140720       -31.0406
 107   2.0000      -1.137730       -30.9592
 108   2.0000      -1.117895       -30.4195
 109   2.0000      -1.114849       -30.3366
 110   2.0000      -1.044331       -28.4177
 111   2.0000      -1.041694       -28.3459
 112   2.0000      -1.036205       -28.1966
 113   2.0000      -1.036107       -28.1939
 114   2.0000      -1.015846       -27.6426
 115   2.0000      -1.015572       -27.6351
 116   2.0000      -1.014566       -27.6077
 117   2.0000      -1.009103       -27.4591
 118   2.0000      -1.001967       -27.2649
 119   2.0000      -1.001857       -27.2619
 120   2.0000      -0.997482       -27.1429
 121   2.0000      -0.995942       -27.1009
 122   2.0000      -0.988632       -26.9020
 123   2.0000      -0.987617       -26.8744
 124   2.0000      -0.972206       -26.4551
 125   2.0000      -0.971799       -26.4440
 126   2.0000      -0.950241       -25.8574
 127   2.0000      -0.948990       -25.8233
 128   2.0000      -0.945021       -25.7153
 129   2.0000      -0.912841       -24.8397
 130   2.0000      -0.907862       -24.7042
 131   2.0000      -0.897000       -24.4086
 132   2.0000      -0.886542       -24.1240
 133   2.0000      -0.885267       -24.0893
 134   2.0000      -0.883620       -24.0445
 135   2.0000      -0.869100       -23.6494
 136   2.0000      -0.858862       -23.3708
 137   2.0000      -0.856493       -23.3064
 138   2.0000      -0.846697       -23.0398
 139   2.0000      -0.845966       -23.0199
 140   2.0000      -0.840962       -22.8837
 141   2.0000      -0.832098       -22.6426
 142   2.0000      -0.817448       -22.2439
 143   2.0000      -0.811304       -22.0767
 144   2.0000      -0.802201       -21.8290
 145   2.0000      -0.793033       -21.5795
 146   2.0000      -0.781352       -21.2617
 147   2.0000      -0.772686       -21.0259
 148   2.0000      -0.769131       -20.9291
 149   2.0000      -0.762864       -20.7586
 150   2.0000      -0.759762       -20.6742
 151   2.0000      -0.753990       -20.5171
 152   2.0000      -0.744740       -20.2654
 153   2.0000      -0.730904       -19.8889
 154   2.0000      -0.718844       -19.5607
 155   2.0000      -0.713581       -19.4175
 156   2.0000      -0.699703       -19.0399
 157   2.0000      -0.697912       -18.9912
 158   2.0000      -0.697743       -18.9866
 159   2.0000      -0.693933       -18.8829
 160   2.0000      -0.686673       -18.6853
 161   2.0000      -0.683221       -18.5914
 162   2.0000      -0.680080       -18.5059
 163   2.0000      -0.676210       -18.4006
 164   2.0000      -0.674610       -18.3571
 165   2.0000      -0.673289       -18.3211
 166   2.0000      -0.667880       -18.1739
 167   2.0000      -0.661253       -17.9936
 168   2.0000      -0.654153       -17.8004
 169   2.0000      -0.650487       -17.7007
 170   2.0000      -0.644061       -17.5258
 171   2.0000      -0.640077       -17.4174
 172   2.0000      -0.635771       -17.3002
 173   2.0000      -0.631809       -17.1924
 174   2.0000      -0.627005       -17.0617
 175   2.0000      -0.625472       -17.0200
 176   2.0000      -0.622262       -16.9326
 177   2.0000      -0.619127       -16.8473
 178   2.0000      -0.618846       -16.8397
 179   2.0000      -0.617834       -16.8121
 180   2.0000      -0.611155       -16.6304
 181   2.0000      -0.607651       -16.5350
 182   2.0000      -0.605111       -16.4659
 183   2.0000      -0.593503       -16.1500
 184   2.0000      -0.587420       -15.9845
 185   2.0000      -0.577729       -15.7208
 186   2.0000      -0.574107       -15.6223
 187   2.0000      -0.570750       -15.5309
 188   2.0000      -0.570236       -15.5169
 189   2.0000      -0.567223       -15.4349
 190   2.0000      -0.565678       -15.3929
 191   2.0000      -0.564075       -15.3493
 192   2.0000      -0.560175       -15.2431
 193   2.0000      -0.555828       -15.1249
 194   2.0000      -0.554755       -15.0957
 195   2.0000      -0.552300       -15.0289
 196   2.0000      -0.545096       -14.8328
 197   2.0000      -0.540765       -14.7150
 198   2.0000      -0.539693       -14.6858
 199   2.0000      -0.539412       -14.6781
 200   2.0000      -0.536165       -14.5898
 201   2.0000      -0.535220       -14.5641
 202   2.0000      -0.533610       -14.5203
 203   2.0000      -0.524679       -14.2773
 204   2.0000      -0.523274       -14.2390
 205   2.0000      -0.520536       -14.1645
 206   2.0000      -0.519198       -14.1281
 207   2.0000      -0.516849       -14.0642
 208   2.0000      -0.515377       -14.0241
 209   2.0000      -0.512979       -13.9589
 210   2.0000      -0.509885       -13.8747
 211   2.0000      -0.506063       -13.7707
 212   2.0000      -0.497943       -13.5497
 213   2.0000      -0.497895       -13.5484
 214   2.0000      -0.496549       -13.5118
 215   2.0000      -0.489430       -13.3181
 216   2.0000      -0.489042       -13.3075
 217   2.0000      -0.484767       -13.1912
 218   2.0000      -0.484218       -13.1762
 219   2.0000      -0.482307       -13.1242
 220   2.0000      -0.482087       -13.1182
 221   2.0000      -0.480420       -13.0729
 222   2.0000      -0.479363       -13.0441
 223   2.0000      -0.473127       -12.8744
 224   2.0000      -0.470847       -12.8124
 225   2.0000      -0.468005       -12.7351
 226   2.0000      -0.465781       -12.6745
 227   2.0000      -0.458249       -12.4696
 228   2.0000      -0.457780       -12.4568
 229   2.0000      -0.456291       -12.4163
 230   2.0000      -0.455911       -12.4060
 231   2.0000      -0.454362       -12.3638
 232   2.0000      -0.453748       -12.3471
 233   2.0000      -0.452011       -12.2998
 234   2.0000      -0.450796       -12.2668
 235   2.0000      -0.442981       -12.0541
 236   2.0000      -0.442616       -12.0442
 237   2.0000      -0.437904       -11.9160
 238   2.0000      -0.437148       -11.8954
 239   2.0000      -0.435266       -11.8442
 240   2.0000      -0.434845       -11.8327
 241   2.0000      -0.433947       -11.8083
 242   2.0000      -0.433261       -11.7896
 243   2.0000      -0.433191       -11.7877
 244   2.0000      -0.431578       -11.7438
 245   2.0000      -0.424943       -11.5633
 246   2.0000      -0.421774       -11.4771
 247   2.0000      -0.421622       -11.4729
 248   2.0000      -0.418541       -11.3891
 249   2.0000      -0.411729       -11.2037
 250   2.0000      -0.410859       -11.1800
 251   2.0000      -0.407882       -11.0990
 252   2.0000      -0.403138       -10.9700
 253   2.0000      -0.402111       -10.9420
 254   2.0000      -0.401941       -10.9374
 255   2.0000      -0.398602       -10.8465
 256   2.0000      -0.396537       -10.7903
 257   2.0000      -0.376813       -10.2536
 258   2.0000      -0.372889       -10.1468
 259   2.0000      -0.372552       -10.1377
 260   2.0000      -0.370003       -10.0683
 261   2.0000      -0.367649       -10.0042
 262   2.0000      -0.367346        -9.9960
 263   2.0000      -0.360019        -9.7966
 264   2.0000      -0.358498        -9.7552
 265   2.0000      -0.344148        -9.3647
 266   2.0000      -0.341930        -9.3044
 267   2.0000      -0.340339        -9.2611
 268   2.0000      -0.340163        -9.2563
 269   2.0000      -0.337959        -9.1963
 270   2.0000      -0.325789        -8.8652
 271   2.0000      -0.315859        -8.5950
 272   2.0000      -0.314985        -8.5712
 273   2.0000      -0.311995        -8.4898
 274   2.0000      -0.291322        -7.9273
 275   2.0000      -0.282390        -7.6842
 276   2.0000      -0.251561        -6.8453
 277   2.0000      -0.239941        -6.5291
 278   0.0000      -0.117692        -3.2026
 279   0.0000      -0.113176        -3.0797
 280   0.0000      -0.092513        -2.5174
 281   0.0000      -0.091958        -2.5023
 282   0.0000      -0.034137        -0.9289

MULLIKEN ATOMIC CHARGES
-----------------------
   0 C :   -0.076156
   1 C :    0.030267
   2 C :   -0.025562
   3 C :   -0.124725
   4 S :    0.186385
   5 C :   -0.062787
   6 C :    0.028728
   7 C :    0.304948
   8 C :   -0.305210
   9 C :   -0.186839
  10 N :    0.172177
  11 C :   -0.193627
  12 N :    0.170387
  13 C :   -0.052949
  14 C :   -0.191285
  15 S :    0.206687
  16 C :    0.202634
  17 C :   -0.074026
  18 C :   -0.066848
  19 N :    0.084907
  20 C :    0.128710
  21 C :    0.144018
  22 N :   -0.054604
  23 F :   -0.137503
  24 F :   -0.136579
  25 C :    0.087444
  26 C :    0.029917
  27 C :   -0.035493
  28 N :   -0.286060
  29 S :    0.556780
  30 N :   -0.257717
  31 C :   -0.051852
  32 O :   -0.178213
  33 C :    0.226890
  34 C :    0.029111
  35 N :   -0.008074
  36 C :   -0.099732
  37 C :    0.028973
  38 C :    0.217392
  39 C :   -0.174835
  40 O :   -0.202967
  41 C :    0.118811
  42 N :   -0.045897
  43 C :   -0.001016
  44 C :   -0.061581
  45 C :    0.076105
  46 C :   -0.046314
  47 C :   -0.054963
  48 N :   -0.051523
  49 C :    0.147375
  50 C :    0.132463
  51 N :    0.022393
  52 F :   -0.137593
  53 F :   -0.137522
  54 C :    0.189769
  55 C :   -0.014763
  56 C :    0.023650
  57 N :   -0.294248
  58 S :    0.563531
  59 N :   -0.285402
  60 C :   -0.189924
  61 C :   -0.056698
  62 C :    0.031081
  63 C :   -0.065348
  64 S :    0.203074
  65 C :   -0.123672
  66 C :   -0.026659
  67 C :    0.305540
  68 C :   -0.303503
  69 C :   -0.193479
  70 N :    0.169783
  71 C :   -0.184182
  72 N :    0.166356
  73 C :    0.031127
  74 C :   -0.078820
  75 S :    0.184344
  76 H :    0.035771
  77 H :    0.012734
  78 H :    0.021631
  79 H :   -0.024093
  80 H :   -0.015902
  81 H :    0.017192
  82 H :    0.018122
  83 H :    0.021047
  84 H :    0.012736
  85 H :    0.035755
Sum of atomic charges:   -0.0000000

LOEWDIN ATOMIC CHARGES
----------------------
   0 C :   -0.174637
   1 C :   -0.035548
   2 C :   -0.070089
   3 C :   -0.186043
   4 S :    0.480614
   5 C :   -0.176179
   6 C :   -0.079173
   7 C :    0.082724
   8 C :   -0.106524
   9 C :   -0.016816
  10 N :   -0.035563
  11 C :   -0.017105
  12 N :   -0.037009
  13 C :   -0.004099
  14 C :   -0.175043
  15 S :    0.513513
  16 C :   -0.022082
  17 C :   -0.024362
  18 C :    0.006841
  19 N :   -0.009782
  20 C :    0.058421
  21 C :    0.061805
  22 N :   -0.062449
  23 F :   -0.027540
  24 F :   -0.025411
  25 C :   -0.064710
  26 C :   -0.038297
  27 C :   -0.045159
  28 N :   -0.278180
  29 S :    0.686088
  30 N :   -0.277768
  31 C :    0.062309
  32 O :    0.006055
  33 C :    0.036767
  34 C :   -0.038541
  35 N :   -0.081346
  36 C :   -0.018489
  37 C :   -0.036374
  38 C :    0.036653
  39 C :   -0.067221
  40 O :   -0.011697
  41 C :    0.060681
  42 N :   -0.102614
  43 C :   -0.035715
  44 C :    0.019252
  45 C :   -0.037160
  46 C :   -0.001814
  47 C :   -0.023839
  48 N :   -0.060468
  49 C :    0.062511
  50 C :    0.057190
  51 N :   -0.028772
  52 F :   -0.026960
  53 F :   -0.026690
  54 C :   -0.030552
  55 C :   -0.041570
  56 C :   -0.034598
  57 N :   -0.279893
  58 S :    0.685385
  59 N :   -0.272769
  60 C :   -0.173272
  61 C :   -0.007670
  62 C :   -0.078732
  63 C :   -0.178386
  64 S :    0.510886
  65 C :   -0.185144
  66 C :   -0.071300
  67 C :    0.083271
  68 C :   -0.107029
  69 C :   -0.017032
  70 N :   -0.037375
  71 C :   -0.016118
  72 N :   -0.037059
  73 C :   -0.035490
  74 C :   -0.175731
  75 S :    0.479433
  76 H :    0.027653
  77 H :    0.042786
  78 H :    0.037891
  79 H :    0.042382
  80 H :    0.042759
  81 H :    0.034595
  82 H :    0.041077
  83 H :    0.037211
  84 H :    0.042657
  85 H :    0.027577

  Mayer bond orders larger than 0.100000
B(  0-C ,  1-C ) :   1.5419 B(  0-C ,  4-S ) :   1.1552 B(  0-C , 76-H ) :   0.9637
B(  1-C ,  2-C ) :   1.2815 B(  1-C , 77-H ) :   0.9956 B(  2-C ,  3-C ) :   1.4472
B(  2-C ,  7-C ) :   1.0119 B(  3-C ,  4-S ) :   1.1331 B(  3-C ,  5-C ) :   1.1893
B(  5-C ,  6-C ) :   1.4138 B(  5-C , 15-S ) :   1.1043 B(  6-C ,  7-C ) :   0.9922
B(  6-C , 13-C ) :   1.2743 B(  7-C ,  8-C ) :   1.7054 B(  8-C ,  9-C ) :   1.1385
B(  8-C , 11-C ) :   1.1311 B(  9-C , 10-N ) :   2.9872 B( 11-C , 12-N ) :   3.0019
B( 13-C , 14-C ) :   1.4186 B( 13-C , 78-H ) :   0.9807 B( 14-C , 15-S ) :   1.0832
B( 14-C , 16-C ) :   1.1976 B( 16-C , 17-C ) :   1.2868 B( 16-C , 25-C ) :   0.1430
B( 16-C , 27-C ) :   1.1979 B( 17-C , 18-C ) :   1.1138 B( 17-C , 22-N ) :   1.3741
B( 18-C , 19-N ) :   1.4722 B( 18-C , 25-C ) :   1.3546 B( 19-N , 20-C ) :   1.7024
B( 20-C , 21-C ) :   1.0923 B( 20-C , 24-F ) :   1.1772 B( 21-C , 22-N ) :   1.6619
B( 21-C , 23-F ) :   1.1846 B( 25-C , 26-C ) :   1.2214 B( 25-C , 31-C ) :   0.9905
B( 26-C , 27-C ) :   1.1070 B( 26-C , 30-N ) :   1.5289 B( 27-C , 28-N ) :   1.5116
B( 28-N , 29-S ) :   1.2816 B( 28-N , 30-N ) :   0.1538 B( 29-S , 30-N ) :   1.2924
B( 31-C , 32-O ) :   1.1907 B( 31-C , 35-N ) :   1.7944 B( 32-O , 33-C ) :   1.1204
B( 33-C , 34-C ) :   1.2306 B( 33-C , 39-C ) :   1.3052 B( 34-C , 35-N ) :   1.2875
B( 34-C , 36-C ) :   1.2713 B( 36-C , 37-C ) :   1.2786 B( 36-C , 39-C ) :   0.1489
B( 36-C , 79-H ) :   1.0545 B( 37-C , 38-C ) :   1.2407 B( 37-C , 42-N ) :   1.2964
B( 38-C , 39-C ) :   1.3125 B( 38-C , 40-O ) :   1.1168 B( 39-C , 80-H ) :   1.0495
B( 40-O , 41-C ) :   1.1223 B( 41-C , 42-N ) :   1.7394 B( 41-C , 43-C ) :   1.0894
B( 43-C , 44-C ) :   1.6212 B( 43-C , 81-H ) :   0.9409 B( 44-C , 45-C ) :   1.1674
B( 44-C , 82-H ) :   0.9754 B( 45-C , 46-C ) :   1.2874 B( 45-C , 54-C ) :   0.1342
B( 45-C , 56-C ) :   1.1753 B( 46-C , 47-C ) :   1.1176 B( 46-C , 51-N ) :   1.4248
B( 47-C , 48-N ) :   1.3688 B( 47-C , 54-C ) :   1.2976 B( 48-N , 49-C ) :   1.6636
B( 49-C , 50-C ) :   1.0960 B( 49-C , 53-F ) :   1.1837 B( 50-C , 51-N ) :   1.6995
B( 50-C , 52-F ) :   1.1795 B( 54-C , 55-C ) :   1.1968 B( 54-C , 60-C ) :   1.1906
B( 55-C , 56-C ) :   1.1131 B( 55-C , 59-N ) :   1.5106 B( 56-C , 57-N ) :   1.4941
B( 57-N , 58-S ) :   1.2800 B( 57-N , 59-N ) :   0.1514 B( 58-S , 59-N ) :   1.2854
B( 60-C , 61-C ) :   1.4219 B( 60-C , 64-S ) :   1.0851 B( 61-C , 62-C ) :   1.2720
B( 61-C , 83-H ) :   0.9820 B( 62-C , 63-C ) :   1.4148 B( 62-C , 67-C ) :   0.9911
B( 63-C , 64-S ) :   1.1020 B( 63-C , 65-C ) :   1.1909 B( 65-C , 66-C ) :   1.4455
B( 65-C , 75-S ) :   1.1332 B( 66-C , 67-C ) :   1.0134 B( 66-C , 73-C ) :   1.2791
B( 67-C , 68-C ) :   1.7055 B( 68-C , 69-C ) :   1.1299 B( 68-C , 71-C ) :   1.1384
B( 69-C , 70-N ) :   3.0021 B( 71-C , 72-N ) :   2.9842 B( 73-C , 74-C ) :   1.5408
B( 73-C , 84-H ) :   0.9969 B( 74-C , 75-S ) :   1.1550 B( 74-C , 85-H ) :   0.9642

-----------------------------------------------------------------------------
         ABSORPTION SPECTRUM VIA TRANSITION ELECTRIC DIPOLE MOMENTS
-----------------------------------------------------------------------------
State   Energy  Wavelength   fosc         T2         TX        TY        TZ
        (cm-1)    (nm)                  (au**2)     (au)      (au)      (au)
-----------------------------------------------------------------------------
   0   11813.2    846.5   1.307981732  36.45107  -0.87702   5.76636   1.55918
   1   13154.9    760.2   0.153168340   3.83315  -0.23859   1.93516   0.17719
   2   15063.3    663.9   0.035904798   0.78471  -0.10357   0.84436   0.24707
   3   15645.1    639.2   0.057684583   1.21383   0.21066  -1.07400  -0.12639
   4   19032.8    525.4   0.004108490   0.07106  -0.17887   0.01137  -0.19734
   5   19633.5    509.3   0.008547535   0.14332   0.15704  -0.31546   0.13838
   6   22343.5    447.6   0.003993164   0.05884   0.03131  -0.20871  -0.11957
   7   22857.3    437.5   0.001212786   0.01747   0.03717   0.10463   0.07169
   8   25613.8    390.4   0.004050276   0.05206   0.08173  -0.20783  -0.04676
   9   25814.5    387.4   0.004821523   0.06149   0.15837   0.00137   0.19080
  10   25976.0    385.0   0.001304356   0.01653   0.07584  -0.00130   0.10382
  11   26905.6    371.7   0.000294038   0.00360   0.04201   0.02543   0.03445
  12   27202.8    367.6   0.268529160   3.24977   0.10796   1.61787   0.78780
  13   27369.2    365.4   0.157098542   1.88967  -0.54187   1.26227   0.05218
  14   27542.3    363.1   0.033511410   0.40056  -0.50308   0.26214  -0.28063
  15   27734.0    360.6   0.169391032   2.01073   0.43664  -1.34105  -0.14715
  16   28474.9    351.2   0.005198584   0.06010   0.02124  -0.23574  -0.06386
  17   28891.0    346.1   0.797940757   9.09251   0.30171  -2.87088  -0.87150
  18   29038.4    344.4   0.110171870   1.24903   0.22333  -1.07349  -0.21627
  19   29527.3    338.7   0.081867217   0.91277   0.16516  -0.93316  -0.12125
  20   30023.2    333.1   0.344203417   3.77427   0.21779  -1.84856  -0.55649
  21   30629.6    326.5   0.003853003   0.04141   0.00427   0.20269   0.01765
  22   30876.1    323.9   0.073191666   0.78040  -0.14635  -0.81022  -0.32019
  23   30924.3    323.4   0.358777740   3.81945  -1.60728   0.12977  -1.10421
  24   31209.5    320.4   0.001713257   0.01807   0.12995  -0.01020   0.03289
  25   31514.5    317.3   0.000614854   0.00642  -0.00557  -0.04601   0.06538
  26   32159.1    311.0   0.745579159   7.63247   2.16766  -0.94045   1.43152
  27   32343.8    309.2   0.005042737   0.05133  -0.15206  -0.05942  -0.15709
  28   32440.7    308.3   0.042232374   0.42858  -0.20341   0.62002  -0.05268
  29   33037.6    302.7   0.287666039   2.86652   1.23899  -0.45859   1.05883
  30   33248.0    300.8   0.413158592   4.09098  -0.60590  -1.66197  -0.98067
  31   33308.0    300.2   0.164912016   1.62997  -1.12419  -0.05009  -0.60304
  32   33938.3    294.7   0.000777973   0.00755   0.05312  -0.01373  -0.06735
  33   34251.7    292.0   0.001188858   0.01143  -0.08255  -0.03374  -0.05893
  34   34838.2    287.0   0.052954776   0.50041  -0.49780   0.42716  -0.26483
  35   35589.4    281.0   0.009330382   0.08631  -0.02518  -0.24938  -0.15325
  36   35740.4    279.8   0.093549050   0.86170   0.36203  -0.84650  -0.11865
  37   35787.3    279.4   0.370377519   3.40715  -0.11907  -1.60799  -0.89852
  38   35792.5    279.4   0.130406573   1.19945   0.13485   0.99625   0.43445
  39   35934.3    278.3   0.068772460   0.63006   0.31330   0.63944   0.35073
  40   36173.5    276.4   0.055266050   0.50297   0.57816  -0.05693   0.40676
  41   36327.5    275.3   0.120729513   1.09409   0.76469  -0.08317   0.70882
  42   36506.4    273.9   0.244724508   2.20691   1.15518  -0.26114   0.89682
  43   36834.9    271.5   0.001286415   0.01150   0.08054  -0.00032   0.07079
  44   37905.7    263.8   0.381623683   3.31441  -1.46015  -0.09467  -1.08324
  45   37980.9    263.3   0.071978642   0.62390  -0.64149  -0.00595  -0.46082
  46   38407.8    260.4   0.012858915   0.11022  -0.23829   0.17370  -0.15254
  47   38437.2    260.2   0.015911850   0.13628   0.25392  -0.21747   0.15658
  48   38504.3    259.7   0.026549285   0.22700  -0.09773   0.46631   0.00144
  49   38538.4    259.5   0.000762799   0.00652   0.03490  -0.05983  -0.04146
  50   38767.0    258.0   0.010285650   0.08735  -0.23444   0.12951  -0.12494
  51   38974.5    256.6   0.044270942   0.37395  -0.11248  -0.54510  -0.25330
  52   39296.6    254.5   0.239743645   2.00848  -1.10154   0.61346  -0.64712
  53   39538.0    252.9   0.093076016   0.77499   0.70103  -0.43495   0.30720
  54   39580.1    252.7   0.268152574   2.23039   1.17914   0.14884   0.90436
  55   39984.6    250.1   0.022714348   0.18702   0.42550   0.03107   0.07072
  56   40016.2    249.9   0.160322073   1.31896  -0.84677   0.04848  -0.77433

FINAL SINGLE POINT ENERGY     -5612.042200500745

DIPOLE MOMENT
-------------
                                X             Y             Z
Electronic contribution:    -17.64444      -3.41030     -16.56553
Nuclear contribution   :     15.83349       3.63257      15.32587
                        -----------------------------------------
Total Dipole Moment    :     -1.81095       0.22226      -1.23966
                        -----------------------------------------
Magnitude (a.u.)       :      2.20583
Magnitude (Debye)      :      5.60677

Rotational constants in cm-1:     0.002592     0.000149     0.000141
Rotational constants in MHz :    77.705926     4.474704     4.237849

                             ****ORCA TERMINATED NORMALLY****
TOTAL RUN TIME: 0 days 0 hours 9 minutes 5 seconds 801 msec
