                         Program Version 4.2.0 -  RELEASE  -
|  1> # ORCA input file
|  2> # SCF done       -195.201191893174          0.000550194917
|  3> ! CAM-B3LYP def2-SVP def2/J RIJCOSX Grid4 TightSCF
|  4> %maxcore 5000
|  5> %tddft
|  6>     Mode sTDDFT
|  7>     Ethresh 5.0
|  8>     maxcore 5000
|  9> end
| 10>
| 11> %pal
| 12>   nprocs 6
| 13>   end
| 14> * xyz 0 1
| 15>    C       -2.74728        -5.66574        13.72079
| 16>    C       -2.40162        -6.60169        14.65458
| 17>    F       -2.21104        -6.24139        15.93172
| 18>    C       -2.24159        -7.95309        14.28982
| 19>    F       -1.90138        -8.85029        15.22678
| 20>    C       -2.42969        -8.35024        12.99569
| 21>    C       -2.78570        -7.40955        12.00990
| 22>    C       -2.94910        -6.04276        12.37779
| 23>    C       -3.30951        -5.08133        11.40595
| 24>    C       -3.50399        -5.47630        10.10869
| 25>    C       -3.33260        -6.84167         9.74845
| 26>    C       -2.98014        -7.79093        10.66323
| 27>    C       -3.56743        -7.00433         8.29777
| 28>    O       -3.37450        -8.01184         7.65211
| 29>    C       -3.92922        -5.65278         7.80270
| 30>    C       -3.89231        -4.72890         8.91636
| 31>    C       -4.25697        -3.40751         8.88451
| 32>    C       -4.75029        -2.73256         7.74760
| 33>    N       -5.19019        -2.11937         6.88229
| 34>    C       -4.22379        -2.55319        10.00563
| 35>    N       -4.20755        -1.81123        10.88173
| 36>    C       -4.07154        -5.31768         6.48652
| 37>    C       -4.33558        -6.22003         5.42205
| 38>    C       -3.87562        -5.93484         4.11674
| 39>    C       -4.10520        -6.82570         3.02169
| 40>    N       -3.60854        -6.52894         1.80708
| 41>    C       -2.92941        -5.43682         1.64474
| 42>    C       -2.70254        -4.55525         2.73166
| 43>    N       -3.15638        -4.80827         3.91619
| 44>    F       -2.00486        -3.43668         2.55865
| 45>    F       -2.45456        -5.17609         0.42911
| 46>    C       -4.83738        -8.03410         3.15909
| 47>    C       -5.36418        -8.28284         4.45085
| 48>    C       -5.12488        -7.38434         5.55608
| 49>    N       -5.78051        -7.76638         6.65055
| 50>    S       -6.55926        -9.13250         6.34890
| 51>    N       -6.14804        -9.30043         4.80805
| 52>    C       -5.03637        -8.90135         2.06283
| 53>    C       -5.72916       -10.11230         2.06872
| 54>    C       -5.75840       -10.70278         0.81844
| 55>    C       -5.07783        -9.93822        -0.16377
| 56>    S       -4.40367        -8.50210         0.47016
| 57>    C       -5.18095       -10.61321        -1.39443
| 58>    C       -5.92040       -11.80181        -1.20852
| 59>    C       -6.30147       -11.89575         0.19188
| 60>    C       -7.01746       -12.89424         0.78576
| 61>    C       -7.49282       -14.01065         0.06610
| 62>    N       -7.88639       -14.92306        -0.50641
| 63>    C       -7.33385       -12.88103         2.16082
| 64>    N       -7.59917       -12.88465         3.27634
| 65>    C       -6.08529       -12.53118        -2.37830
| 66>    C       -5.48200       -11.92493        -3.47115
| 67>    S       -4.69339       -10.41036        -3.01721
| 68>    C       -5.43988       -12.35953        -4.82994
| 69>    C       -4.77520       -11.60203        -5.79514
| 70>    C       -4.73279       -11.96514        -7.12305
| 71>    C       -5.37926       -13.10361        -7.61694
| 72>    C       -6.01064       -13.94912        -6.64774
| 73>    N       -6.49120       -15.14294        -7.02767
| 74>    C       -7.04298       -15.91953        -6.13094
| 75>    C       -7.16515       -15.51456        -4.79395
| 76>    N       -6.66508       -14.37872        -4.38444
| 77>    C       -6.05253       -13.57581        -5.27103
| 78>    C       -5.28160       -13.36853        -9.01020
| 79>    C       -6.06705       -14.11460        -9.84845
| 80>    C       -7.33347       -14.73248        -9.67645
| 81>    C       -7.82484       -15.32523       -10.79527
| 82>    C       -6.98360       -15.21796       -11.93194
| 83>    S       -5.54670       -14.31005       -11.52045
| 84>    C       -7.20221       -15.71574       -13.19598
| 85>    C       -8.32295       -16.47347       -13.64256
| 86>    C       -8.26976       -16.82942       -14.94440
| 87>    C       -7.09425       -16.37857       -15.63413
| 88>    S       -6.06994       -15.47441       -14.50648
| 89>    C       -6.76901       -16.57766       -16.91840
| 90>    H       -2.86706        -4.63523        14.01676
| 91>    H       -2.30261        -9.38869        12.73260
| 92>    H       -3.41837        -4.05387        11.71350
| 93>    H       -2.85437        -8.82048        10.36427
| 94>    H       -3.93897        -4.28695         6.18301
| 95>    H       -6.17809       -10.50038         2.96485
| 96>    H       -6.61210       -13.46247        -2.47193
| 97>    H       -4.27913       -10.69198        -5.48917
| 98>    H       -4.20579       -11.32958        -7.81961
| 99>    H       -7.39554       -16.88226        -6.47532
|100>    H       -7.65816       -16.12149        -4.04723
|101>    H       -4.45472       -12.86040        -9.49413
|102>    H       -7.84613       -14.70328        -8.73470
|103>    H       -8.77355       -15.82962       -10.84055
|104>    H       -9.12862       -16.72659       -12.97678
|105>    H       -9.02186       -17.40073       -15.45877
|106>    H       -7.41957       -17.13375       -17.57016
|107>    H       -5.85765       -16.19195       -17.33728
|108> *
|109>
|110>                          ****END OF INPUT****

CARTESIAN COORDINATES (ANGSTROEM)
---------------------------------
  C     -2.747280   -5.665740   13.720790
  C     -2.401620   -6.601690   14.654580
  F     -2.211040   -6.241390   15.931720
  C     -2.241590   -7.953090   14.289820
  F     -1.901380   -8.850290   15.226780
  C     -2.429690   -8.350240   12.995690
  C     -2.785700   -7.409550   12.009900
  C     -2.949100   -6.042760   12.377790
  C     -3.309510   -5.081330   11.405950
  C     -3.503990   -5.476300   10.108690
  C     -3.332600   -6.841670    9.748450
  C     -2.980140   -7.790930   10.663230
  C     -3.567430   -7.004330    8.297770
  O     -3.374500   -8.011840    7.652110
  C     -3.929220   -5.652780    7.802700
  C     -3.892310   -4.728900    8.916360
  C     -4.256970   -3.407510    8.884510
  C     -4.750290   -2.732560    7.747600
  N     -5.190190   -2.119370    6.882290
  C     -4.223790   -2.553190   10.005630
  N     -4.207550   -1.811230   10.881730
  C     -4.071540   -5.317680    6.486520
  C     -4.335580   -6.220030    5.422050
  C     -3.875620   -5.934840    4.116740
  C     -4.105200   -6.825700    3.021690
  N     -3.608540   -6.528940    1.807080
  C     -2.929410   -5.436820    1.644740
  C     -2.702540   -4.555250    2.731660
  N     -3.156380   -4.808270    3.916190
  F     -2.004860   -3.436680    2.558650
  F     -2.454560   -5.176090    0.429110
  C     -4.837380   -8.034100    3.159090
  C     -5.364180   -8.282840    4.450850
  C     -5.124880   -7.384340    5.556080
  N     -5.780510   -7.766380    6.650550
  S     -6.559260   -9.132500    6.348900
  N     -6.148040   -9.300430    4.808050
  C     -5.036370   -8.901350    2.062830
  C     -5.729160  -10.112300    2.068720
  C     -5.758400  -10.702780    0.818440
  C     -5.077830   -9.938220   -0.163770
  S     -4.403670   -8.502100    0.470160
  C     -5.180950  -10.613210   -1.394430
  C     -5.920400  -11.801810   -1.208520
  C     -6.301470  -11.895750    0.191880
  C     -7.017460  -12.894240    0.785760
  C     -7.492820  -14.010650    0.066100
  N     -7.886390  -14.923060   -0.506410
  C     -7.333850  -12.881030    2.160820
  N     -7.599170  -12.884650    3.276340
  C     -6.085290  -12.531180   -2.378300
  C     -5.482000  -11.924930   -3.471150
  S     -4.693390  -10.410360   -3.017210
  C     -5.439880  -12.359530   -4.829940
  C     -4.775200  -11.602030   -5.795140
  C     -4.732790  -11.965140   -7.123050
  C     -5.379260  -13.103610   -7.616940
  C     -6.010640  -13.949120   -6.647740
  N     -6.491200  -15.142940   -7.027670
  C     -7.042980  -15.919530   -6.130940
  C     -7.165150  -15.514560   -4.793950
  N     -6.665080  -14.378720   -4.384440
  C     -6.052530  -13.575810   -5.271030
  C     -5.281600  -13.368530   -9.010200
  C     -6.067050  -14.114600   -9.848450
  C     -7.333470  -14.732480   -9.676450
  C     -7.824840  -15.325230  -10.795270
  C     -6.983600  -15.217960  -11.931940
  S     -5.546700  -14.310050  -11.520450
  C     -7.202210  -15.715740  -13.195980
  C     -8.322950  -16.473470  -13.642560
  C     -8.269760  -16.829420  -14.944400
  C     -7.094250  -16.378570  -15.634130
  S     -6.069940  -15.474410  -14.506480
  C     -6.769010  -16.577660  -16.918400
  H     -2.867060   -4.635230   14.016760
  H     -2.302610   -9.388690   12.732600
  H     -3.418370   -4.053870   11.713500
  H     -2.854370   -8.820480   10.364270
  H     -3.938970   -4.286950    6.183010
  H     -6.178090  -10.500380    2.964850
  H     -6.612100  -13.462470   -2.471930
  H     -4.279130  -10.691980   -5.489170
  H     -4.205790  -11.329580   -7.819610
  H     -7.395540  -16.882260   -6.475320
  H     -7.658160  -16.121490   -4.047230
  H     -4.454720  -12.860400   -9.494130
  H     -7.846130  -14.703280   -8.734700
  H     -8.773550  -15.829620  -10.840550
  H     -9.128620  -16.726590  -12.976780
  H     -9.021860  -17.400730  -15.458770
  H     -7.419570  -17.133750  -17.570160
  H     -5.857650  -16.191950  -17.337280

 Total Charge           Charge          ....    0
 Multiplicity           Mult            ....    1
 Number of Electrons    NEL             ....  542
 Basis Dimension        Dim             .... 1160

ORBITAL ENERGIES
----------------

  NO   OCC          E(Eh)            E(eV)
   0   2.0000     -89.038306     -2422.8555
   1   2.0000     -88.985843     -2421.4279
   2   2.0000     -88.985757     -2421.4256
   3   2.0000     -88.943205     -2420.2677
   4   2.0000     -88.942988     -2420.2617
   5   2.0000     -24.821739      -675.4339
   6   2.0000     -24.818335      -675.3412
   7   2.0000     -24.793967      -674.6782
   8   2.0000     -24.792567      -674.6400
   9   2.0000     -19.207998      -522.6762
  10   2.0000     -14.466166      -393.6444
  11   2.0000     -14.458192      -393.4274
  12   2.0000     -14.450002      -393.2045
  13   2.0000     -14.442857      -393.0101
  14   2.0000     -14.431501      -392.7011
  15   2.0000     -14.431197      -392.6928
  16   2.0000     -14.428058      -392.6074
  17   2.0000     -14.427399      -392.5895
  18   2.0000     -14.410030      -392.1169
  19   2.0000     -14.408436      -392.0735
  20   2.0000     -10.437057      -284.0068
  21   2.0000     -10.436661      -283.9960
  22   2.0000     -10.376616      -282.3621
  23   2.0000     -10.375680      -282.3366
  24   2.0000     -10.361844      -281.9601
  25   2.0000     -10.359620      -281.8996
  26   2.0000     -10.353102      -281.7222
  27   2.0000     -10.349336      -281.6197
  28   2.0000     -10.349261      -281.6177
  29   2.0000     -10.339989      -281.3654
  30   2.0000     -10.336729      -281.2767
  31   2.0000     -10.336305      -281.2652
  32   2.0000     -10.334072      -281.2044
  33   2.0000     -10.333441      -281.1872
  34   2.0000     -10.330949      -281.1194
  35   2.0000     -10.329637      -281.0837
  36   2.0000     -10.328549      -281.0541
  37   2.0000     -10.327640      -281.0294
  38   2.0000     -10.327307      -281.0203
  39   2.0000     -10.326750      -281.0052
  40   2.0000     -10.326202      -280.9903
  41   2.0000     -10.324958      -280.9564
  42   2.0000     -10.324517      -280.9444
  43   2.0000     -10.323700      -280.9221
  44   2.0000     -10.315679      -280.7039
  45   2.0000     -10.313878      -280.6549
  46   2.0000     -10.312980      -280.6305
  47   2.0000     -10.311286      -280.5844
  48   2.0000     -10.310928      -280.5746
  49   2.0000     -10.310597      -280.5656
  50   2.0000     -10.310583      -280.5652
  51   2.0000     -10.305038      -280.4143
  52   2.0000     -10.304628      -280.4032
  53   2.0000     -10.303472      -280.3717
  54   2.0000     -10.302744      -280.3519
  55   2.0000     -10.302501      -280.3453
  56   2.0000     -10.301595      -280.3206
  57   2.0000     -10.300822      -280.2996
  58   2.0000     -10.300360      -280.2870
  59   2.0000     -10.299769      -280.2710
  60   2.0000     -10.296268      -280.1757
  61   2.0000     -10.296225      -280.1745
  62   2.0000     -10.295811      -280.1633
  63   2.0000     -10.295462      -280.1538
  64   2.0000     -10.295150      -280.1453
  65   2.0000     -10.293932      -280.1121
  66   2.0000     -10.292015      -280.0600
  67   2.0000     -10.290568      -280.0206
  68   2.0000     -10.289951      -280.0038
  69   2.0000     -10.288616      -279.9675
  70   2.0000     -10.287611      -279.9401
  71   2.0000     -10.286560      -279.9115
  72   2.0000     -10.281027      -279.7610
  73   2.0000     -10.280962      -279.7592
  74   2.0000     -10.275369      -279.6070
  75   2.0000      -8.129521      -221.2155
  76   2.0000      -8.080208      -219.8736
  77   2.0000      -8.078489      -219.8269
  78   2.0000      -8.039891      -218.7766
  79   2.0000      -8.039720      -218.7719
  80   2.0000      -6.100599      -166.0057
  81   2.0000      -6.092713      -165.7911
  82   2.0000      -6.092409      -165.7829
  83   2.0000      -6.049410      -164.6128
  84   2.0000      -6.048003      -164.5745
  85   2.0000      -6.045301      -164.5010
  86   2.0000      -6.043233      -164.4447
  87   2.0000      -6.042648      -164.4288
  88   2.0000      -6.040954      -164.3827
  89   2.0000      -6.009678      -163.5316
  90   2.0000      -6.009524      -163.5275
  91   2.0000      -6.005702      -163.4235
  92   2.0000      -6.005640      -163.4218
  93   2.0000      -6.000563      -163.2836
  94   2.0000      -6.000259      -163.2754
  95   2.0000      -1.348406       -36.6920
  96   2.0000      -1.333979       -36.2994
  97   2.0000      -1.315769       -35.8039
  98   2.0000      -1.300918       -35.3998
  99   2.0000      -1.137200       -30.9448
 100   2.0000      -1.122480       -30.5442
 101   2.0000      -1.120850       -30.4999
 102   2.0000      -1.089739       -29.6533
 103   2.0000      -1.047692       -28.5091
 104   2.0000      -1.040554       -28.3149
 105   2.0000      -1.019223       -27.7345
 106   2.0000      -1.013158       -27.5694
 107   2.0000      -1.012655       -27.5557
 108   2.0000      -1.004963       -27.3464
 109   2.0000      -0.999014       -27.1846
 110   2.0000      -0.998144       -27.1609
 111   2.0000      -0.995125       -27.0787
 112   2.0000      -0.988956       -26.9109
 113   2.0000      -0.987636       -26.8749
 114   2.0000      -0.978531       -26.6272
 115   2.0000      -0.973901       -26.5012
 116   2.0000      -0.972166       -26.4540
 117   2.0000      -0.962909       -26.2021
 118   2.0000      -0.950972       -25.8773
 119   2.0000      -0.926670       -25.2160
 120   2.0000      -0.916268       -24.9329
 121   2.0000      -0.903960       -24.5980
 122   2.0000      -0.894153       -24.3311
 123   2.0000      -0.888451       -24.1760
 124   2.0000      -0.886882       -24.1333
 125   2.0000      -0.882581       -24.0162
 126   2.0000      -0.875227       -23.8161
 127   2.0000      -0.868726       -23.6392
 128   2.0000      -0.863481       -23.4965
 129   2.0000      -0.853323       -23.2201
 130   2.0000      -0.848903       -23.0998
 131   2.0000      -0.847725       -23.0678
 132   2.0000      -0.841793       -22.9063
 133   2.0000      -0.834618       -22.7111
 134   2.0000      -0.820669       -22.3315
 135   2.0000      -0.817353       -22.2413
 136   2.0000      -0.806457       -21.9448
 137   2.0000      -0.794601       -21.6222
 138   2.0000      -0.781345       -21.2615
 139   2.0000      -0.777221       -21.1492
 140   2.0000      -0.765146       -20.8207
 141   2.0000      -0.762747       -20.7554
 142   2.0000      -0.760173       -20.6854
 143   2.0000      -0.754531       -20.5318
 144   2.0000      -0.752923       -20.4881
 145   2.0000      -0.740558       -20.1516
 146   2.0000      -0.730859       -19.8877
 147   2.0000      -0.719796       -19.5866
 148   2.0000      -0.709872       -19.3166
 149   2.0000      -0.704287       -19.1646
 150   2.0000      -0.700266       -19.0552
 151   2.0000      -0.689207       -18.7543
 152   2.0000      -0.684190       -18.6177
 153   2.0000      -0.683142       -18.5892
 154   2.0000      -0.681461       -18.5435
 155   2.0000      -0.677585       -18.4380
 156   2.0000      -0.673368       -18.3233
 157   2.0000      -0.666226       -18.1289
 158   2.0000      -0.655622       -17.8404
 159   2.0000      -0.651888       -17.7388
 160   2.0000      -0.646089       -17.5810
 161   2.0000      -0.642757       -17.4903
 162   2.0000      -0.637819       -17.3559
 163   2.0000      -0.635914       -17.3041
 164   2.0000      -0.632842       -17.2205
 165   2.0000      -0.631058       -17.1720
 166   2.0000      -0.628991       -17.1157
 167   2.0000      -0.624503       -16.9936
 168   2.0000      -0.623748       -16.9730
 169   2.0000      -0.620101       -16.8738
 170   2.0000      -0.615346       -16.7444
 171   2.0000      -0.609335       -16.5808
 172   2.0000      -0.606966       -16.5164
 173   2.0000      -0.600889       -16.3510
 174   2.0000      -0.599610       -16.3162
 175   2.0000      -0.584798       -15.9132
 176   2.0000      -0.580576       -15.7983
 177   2.0000      -0.580464       -15.7952
 178   2.0000      -0.575226       -15.6527
 179   2.0000      -0.574269       -15.6267
 180   2.0000      -0.569895       -15.5076
 181   2.0000      -0.566086       -15.4040
 182   2.0000      -0.562814       -15.3150
 183   2.0000      -0.561552       -15.2806
 184   2.0000      -0.554132       -15.0787
 185   2.0000      -0.549515       -14.9531
 186   2.0000      -0.548450       -14.9241
 187   2.0000      -0.545483       -14.8433
 188   2.0000      -0.542347       -14.7580
 189   2.0000      -0.542210       -14.7543
 190   2.0000      -0.539144       -14.6709
 191   2.0000      -0.534545       -14.5457
 192   2.0000      -0.532575       -14.4921
 193   2.0000      -0.530101       -14.4248
 194   2.0000      -0.526216       -14.3191
 195   2.0000      -0.524786       -14.2802
 196   2.0000      -0.523884       -14.2556
 197   2.0000      -0.523372       -14.2417
 198   2.0000      -0.518858       -14.1188
 199   2.0000      -0.516812       -14.0632
 200   2.0000      -0.514356       -13.9963
 201   2.0000      -0.512820       -13.9545
 202   2.0000      -0.507284       -13.8039
 203   2.0000      -0.506755       -13.7895
 204   2.0000      -0.503055       -13.6888
 205   2.0000      -0.501478       -13.6459
 206   2.0000      -0.499393       -13.5892
 207   2.0000      -0.497497       -13.5376
 208   2.0000      -0.493430       -13.4269
 209   2.0000      -0.492998       -13.4152
 210   2.0000      -0.491166       -13.3653
 211   2.0000      -0.489622       -13.3233
 212   2.0000      -0.486983       -13.2515
 213   2.0000      -0.484433       -13.1821
 214   2.0000      -0.479318       -13.0429
 215   2.0000      -0.476997       -12.9798
 216   2.0000      -0.473154       -12.8752
 217   2.0000      -0.471036       -12.8176
 218   2.0000      -0.466736       -12.7005
 219   2.0000      -0.465855       -12.6766
 220   2.0000      -0.463796       -12.6205
 221   2.0000      -0.459936       -12.5155
 222   2.0000      -0.459415       -12.5013
 223   2.0000      -0.459209       -12.4957
 224   2.0000      -0.458172       -12.4675
 225   2.0000      -0.454810       -12.3760
 226   2.0000      -0.451955       -12.2983
 227   2.0000      -0.445530       -12.1235
 228   2.0000      -0.444168       -12.0864
 229   2.0000      -0.440888       -11.9972
 230   2.0000      -0.439287       -11.9536
 231   2.0000      -0.437908       -11.9161
 232   2.0000      -0.437556       -11.9065
 233   2.0000      -0.436230       -11.8704
 234   2.0000      -0.431772       -11.7491
 235   2.0000      -0.429668       -11.6919
 236   2.0000      -0.427591       -11.6353
 237   2.0000      -0.425900       -11.5893
 238   2.0000      -0.424646       -11.5552
 239   2.0000      -0.423572       -11.5260
 240   2.0000      -0.421724       -11.4757
 241   2.0000      -0.417645       -11.3647
 242   2.0000      -0.416590       -11.3360
 243   2.0000      -0.410109       -11.1596
 244   2.0000      -0.406146       -11.0518
 245   2.0000      -0.404824       -11.0158
 246   2.0000      -0.402153       -10.9431
 247   2.0000      -0.400849       -10.9076
 248   2.0000      -0.394526       -10.7356
 249   2.0000      -0.390875       -10.6362
 250   2.0000      -0.384945       -10.4749
 251   2.0000      -0.376859       -10.2548
 252   2.0000      -0.374785       -10.1984
 253   2.0000      -0.373185       -10.1549
 254   2.0000      -0.371045       -10.0967
 255   2.0000      -0.351063        -9.5529
 256   2.0000      -0.346492        -9.4285
 257   2.0000      -0.344991        -9.3877
 258   2.0000      -0.340729        -9.2717
 259   2.0000      -0.340372        -9.2620
 260   2.0000      -0.338744        -9.2177
 261   2.0000      -0.330199        -8.9852
 262   2.0000      -0.327424        -8.9097
 263   2.0000      -0.323889        -8.8135
 264   2.0000      -0.319001        -8.6804
 265   2.0000      -0.311824        -8.4852
 266   2.0000      -0.309260        -8.4154
 267   2.0000      -0.295972        -8.0538
 268   2.0000      -0.284172        -7.7327
 269   2.0000      -0.250029        -6.8036
 270   2.0000      -0.219039        -5.9603
 271   0.0000      -0.126778        -3.4498
 272   0.0000      -0.099491        -2.7073
 273   0.0000      -0.079623        -2.1667
 274   0.0000      -0.074647        -2.0312
 275   0.0000      -0.049513        -1.3473

MULLIKEN ATOMIC CHARGES
-----------------------
   0 C :   -0.110077
   1 C :    0.241214
   2 F :   -0.173189
   3 C :    0.238918
   4 F :   -0.173770
   5 C :   -0.106633
   6 C :    0.118608
   7 C :    0.114412
   8 C :   -0.088757
   9 C :    0.054636
  10 C :   -0.006646
  11 C :   -0.086972
  12 C :    0.158791
  13 O :   -0.151999
  14 C :   -0.068126
  15 C :    0.306972
  16 C :   -0.347602
  17 C :   -0.201198
  18 N :    0.163742
  19 C :   -0.183617
  20 N :    0.144587
  21 C :   -0.081631
  22 C :    0.061942
  23 C :   -0.031002
  24 C :   -0.059257
  25 N :   -0.053917
  26 C :    0.145098
  27 C :    0.143130
  28 N :    0.016360
  29 F :   -0.133524
  30 F :   -0.138407
  31 C :    0.195711
  32 C :    0.000005
  33 C :    0.026540
  34 N :   -0.276727
  35 S :    0.558572
  36 N :   -0.287429
  37 C :   -0.196278
  38 C :   -0.049207
  39 C :    0.030276
  40 C :   -0.051147
  41 S :    0.209859
  42 C :   -0.099567
  43 C :    0.046092
  44 C :    0.317944
  45 C :   -0.309005
  46 C :   -0.187529
  47 N :    0.171561
  48 C :   -0.191019
  49 N :    0.174806
  50 C :   -0.065103
  51 C :   -0.111007
  52 S :    0.156255
  53 C :    0.150429
  54 C :   -0.060808
  55 C :   -0.035331
  56 C :    0.114694
  57 C :   -0.049297
  58 N :   -0.037834
  59 C :    0.032865
  60 C :    0.042036
  61 N :   -0.031158
  62 C :   -0.030143
  63 C :   -0.037659
  64 C :   -0.038114
  65 C :    0.074603
  66 C :    0.010490
  67 C :   -0.048370
  68 S :    0.081077
  69 C :   -0.060230
  70 C :    0.028998
  71 C :    0.056512
  72 C :   -0.067116
  73 S :    0.084790
  74 C :   -0.025077
  75 H :    0.006685
  76 H :   -0.003158
  77 H :   -0.007426
  78 H :   -0.015045
  79 H :    0.043528
  80 H :    0.025267
  81 H :    0.021790
  82 H :   -0.006006
  83 H :   -0.017203
  84 H :    0.013988
  85 H :    0.025175
  86 H :   -0.012926
  87 H :   -0.016472
  88 H :   -0.016551
  89 H :   -0.010177
  90 H :   -0.008982
  91 H :    0.022333
  92 H :    0.024132
Sum of atomic charges:   -0.0000000

LOEWDIN ATOMIC CHARGES
----------------------
   0 C :   -0.029643
   1 C :    0.065235
   2 F :   -0.051100
   3 C :    0.066633
   4 F :   -0.051726
   5 C :   -0.034384
   6 C :   -0.008755
   7 C :   -0.007495
   8 C :    0.015770
   9 C :   -0.022053
  10 C :   -0.047797
  11 C :    0.025283
  12 C :    0.081664
  13 O :   -0.147879
  14 C :   -0.084940
  15 C :    0.074609
  16 C :   -0.137500
  17 C :   -0.023790
  18 N :   -0.050548
  19 C :   -0.016699
  20 N :   -0.056793
  21 C :    0.081727
  22 C :   -0.062064
  23 C :    0.017432
  24 C :   -0.030013
  25 N :   -0.057460
  26 C :    0.057238
  27 C :    0.066170
  28 N :   -0.035627
  29 F :   -0.023278
  30 F :   -0.028553
  31 C :   -0.005245
  32 C :   -0.046159
  33 C :   -0.024552
  34 N :   -0.271184
  35 S :    0.688805
  36 N :   -0.275480
  37 C :   -0.175996
  38 C :    0.009018
  39 C :   -0.078784
  40 C :   -0.161261
  41 S :    0.512844
  42 C :   -0.191619
  43 C :   -0.056338
  44 C :    0.080959
  45 C :   -0.102542
  46 C :   -0.014394
  47 N :   -0.036657
  48 C :   -0.017583
  49 N :   -0.032409
  50 C :   -0.026425
  51 C :   -0.138612
  52 S :    0.470683
  53 C :   -0.052680
  54 C :   -0.016011
  55 C :   -0.014366
  56 C :   -0.011615
  57 C :   -0.007861
  58 N :   -0.024324
  59 C :    0.002012
  60 C :    0.016439
  61 N :   -0.029162
  62 C :    0.003250
  63 C :   -0.071293
  64 C :   -0.117014
  65 C :   -0.030521
  66 C :   -0.026213
  67 C :   -0.185352
  68 S :    0.370765
  69 C :   -0.171972
  70 C :   -0.026812
  71 C :   -0.027211
  72 C :   -0.139834
  73 S :    0.356524
  74 C :   -0.070397
  75 H :    0.047314
  76 H :    0.043850
  77 H :    0.039380
  78 H :    0.038300
  79 H :    0.047213
  80 H :    0.040226
  81 H :    0.036911
  82 H :    0.022592
  83 H :    0.033115
  84 H :    0.026824
  85 H :    0.032271
  86 H :    0.030272
  87 H :    0.029141
  88 H :    0.031034
  89 H :    0.032832
  90 H :    0.034419
  91 H :    0.029741
  92 H :    0.027482

  Mayer bond orders larger than 0.100000
B(  0-C ,  1-C ) :   1.4410 B(  0-C ,  5-C ) :   0.1093 B(  0-C ,  7-C ) :   1.1868
B(  0-C , 75-H ) :   1.0071 B(  1-C ,  2-F ) :   1.1331 B(  1-C ,  3-C ) :   1.1929
B(  3-C ,  4-F ) :   1.1322 B(  3-C ,  5-C ) :   1.4427 B(  5-C ,  6-C ) :   1.1910
B(  5-C , 76-H ) :   1.0072 B(  6-C ,  7-C ) :   1.2609 B(  6-C , 11-C ) :   1.1857
B(  7-C ,  8-C ) :   1.2143 B(  8-C ,  9-C ) :   1.4487 B(  8-C , 77-H ) :   0.9904
B(  9-C , 10-C ) :   1.2247 B(  9-C , 15-C ) :   0.9839 B( 10-C , 11-C ) :   1.4766
B( 10-C , 12-C ) :   0.9379 B( 11-C , 78-H ) :   1.0163 B( 12-C , 13-O ) :   2.2271
B( 12-C , 14-C ) :   0.9500 B( 14-C , 15-C ) :   1.0758 B( 14-C , 21-C ) :   1.5617
B( 15-C , 16-C ) :   1.6353 B( 16-C , 17-C ) :   1.1447 B( 16-C , 19-C ) :   1.1466
B( 17-C , 18-N ) :   2.9895 B( 19-C , 20-N ) :   2.9629 B( 21-C , 22-C ) :   1.1960
B( 21-C , 79-H ) :   0.9306 B( 22-C , 23-C ) :   1.2712 B( 22-C , 31-C ) :   0.1187
B( 22-C , 33-C ) :   1.1863 B( 23-C , 24-C ) :   1.1384 B( 23-C , 28-N ) :   1.4371
B( 24-C , 25-N ) :   1.3889 B( 24-C , 31-C ) :   1.2480 B( 25-N , 26-C ) :   1.6384
B( 26-C , 27-C ) :   1.1131 B( 26-C , 30-F ) :   1.1842 B( 27-C , 28-N ) :   1.6800
B( 27-C , 29-F ) :   1.1854 B( 31-C , 32-C ) :   1.1855 B( 31-C , 37-C ) :   1.2545
B( 32-C , 33-C ) :   1.1159 B( 32-C , 36-N ) :   1.5106 B( 33-C , 34-N ) :   1.5043
B( 34-N , 35-S ) :   1.2848 B( 34-N , 36-N ) :   0.1488 B( 35-S , 36-N ) :   1.2854
B( 37-C , 38-C ) :   1.3731 B( 37-C , 41-S ) :   1.0632 B( 38-C , 39-C ) :   1.3109
B( 38-C , 80-H ) :   0.9806 B( 39-C , 40-C ) :   1.3591 B( 39-C , 44-C ) :   0.9857
B( 40-C , 41-S ) :   1.1068 B( 40-C , 42-C ) :   1.2232 B( 42-C , 43-C ) :   1.4056
B( 42-C , 52-S ) :   1.1092 B( 43-C , 44-C ) :   0.9947 B( 43-C , 50-C ) :   1.2419
B( 44-C , 45-C ) :   1.7076 B( 45-C , 46-C ) :   1.1391 B( 45-C , 48-C ) :   1.1390
B( 46-C , 47-N ) :   2.9903 B( 48-C , 49-N ) :   2.9891 B( 50-C , 51-C ) :   1.4527
B( 50-C , 81-H ) :   0.9798 B( 51-C , 52-S ) :   1.1004 B( 51-C , 53-C ) :   1.1329
B( 53-C , 54-C ) :   1.3568 B( 53-C , 56-C ) :   0.1096 B( 53-C , 62-C ) :   1.2182
B( 54-C , 55-C ) :   1.3182 B( 54-C , 82-H ) :   0.9859 B( 55-C , 56-C ) :   1.3565
B( 55-C , 83-H ) :   0.9974 B( 56-C , 57-C ) :   1.1766 B( 56-C , 63-C ) :   1.1741
B( 57-C , 58-N ) :   1.4781 B( 57-C , 62-C ) :   1.2219 B( 58-N , 59-C ) :   1.6213
B( 59-C , 60-C ) :   1.2379 B( 59-C , 84-H ) :   0.9753 B( 60-C , 61-N ) :   1.6249
B( 60-C , 85-H ) :   0.9755 B( 61-N , 62-C ) :   1.4806 B( 63-C , 64-C ) :   1.5754
B( 63-C , 86-H ) :   0.9416 B( 64-C , 65-C ) :   1.1514 B( 64-C , 68-S ) :   1.0501
B( 65-C , 66-C ) :   1.6169 B( 65-C , 87-H ) :   0.9807 B( 66-C , 67-C ) :   1.1694
B( 66-C , 88-H ) :   0.9925 B( 67-C , 68-S ) :   1.0393 B( 67-C , 69-C ) :   1.5478
B( 69-C , 70-C ) :   1.1517 B( 69-C , 73-S ) :   1.0506 B( 70-C , 71-C ) :   1.6635
B( 70-C , 89-H ) :   0.9916 B( 71-C , 72-C ) :   1.0785 B( 71-C , 90-H ) :   0.9929
B( 72-C , 73-S ) :   1.0068 B( 72-C , 74-C ) :   1.8655 B( 74-C , 91-H ) :   0.9509
B( 74-C , 92-H ) :   0.9417

-----------------------------------------------------------------------------
         ABSORPTION SPECTRUM VIA TRANSITION ELECTRIC DIPOLE MOMENTS
-----------------------------------------------------------------------------
State   Energy  Wavelength   fosc         T2         TX        TY        TZ
        (cm-1)    (nm)                  (au**2)     (au)      (au)      (au)
-----------------------------------------------------------------------------
   0    8896.6   1124.0   1.363647665  50.46065  -0.89374  -3.23188  -6.26233
   1   13121.9    762.1   0.259387474   6.50771   0.43902   1.35232   2.11807
   2   14181.7    705.1   0.028260085   0.65603  -0.10497  -0.34111   0.72709
   3   16746.1    597.2   0.781722563  15.36794   0.43392   1.11514   3.73311
   4   18859.9    530.2   0.000609277   0.01064   0.03900   0.03802  -0.08757
   5   21078.2    474.4   0.063111402   0.98571  -0.17489  -0.44088  -0.87221
   6   21538.2    464.3   0.232389367   3.55208   0.17353   0.70258   1.74022
   7   22964.6    435.5   0.464695424   6.66171   0.46184   0.97146   2.34620
   8   23578.8    424.1   0.026350479   0.36791  -0.08745   0.07446   0.59558
   9   23912.7    418.2   0.038034902   0.52364   0.23465  -0.10068   0.67708
  10   24814.1    403.0   0.003345665   0.04439   0.13482  -0.13663   0.08686
  11   25761.1    388.2   0.035564384   0.45449   0.34012   0.57768  -0.07142
  12   26074.2    383.5   0.012642254   0.15962   0.22069  -0.16976   0.28653
  13   26738.6    374.0   0.044958163   0.55354  -0.09983  -0.22341  -0.70261
  14   26933.3    371.3   0.014221160   0.17383  -0.00220  -0.02580  -0.41612
  15   27230.6    367.2   0.070626405   0.85386  -0.38764   0.64943  -0.53088
  16   27629.1    361.9   0.004811797   0.05733   0.04597  -0.21802   0.08769
  17   28630.9    349.3   0.140921589   1.62039  -0.25316  -0.37373   1.19022
  18   28993.9    344.9   0.003691794   0.04192   0.03001   0.20163   0.01905
  19   29607.1    337.8   0.113011440   1.25662   0.26202  -0.10770  -1.08460
  20   29932.2    334.1   0.144243261   1.58647   0.70805   0.71897  -0.75381
  21   30368.0    329.3   0.042073539   0.45611  -0.43890   0.12096   0.49885
  22   30531.0    327.5   0.056149839   0.60546   0.20771   0.49822   0.56044
  23   30675.7    326.0   0.045848883   0.49205   0.05482   0.01793   0.69909
  24   30924.7    323.4   0.046028217   0.49000  -0.64310  -0.25538   0.10585
  25   31124.3    321.3   0.020385456   0.21562   0.06028  -0.20881   0.41035
  26   31583.7    316.6   0.342546723   3.57053  -0.26110   1.03756  -1.55751
  27   31711.1    315.3   0.020400664   0.21179  -0.12864   0.20426  -0.39182
  28   32065.6    311.9   0.260302465   2.67248   0.87076   1.32075  -0.41215
  29   32115.5    311.4   0.150070506   1.53835  -0.61519  -1.07633   0.03748
  30   32443.4    308.2   0.046680742   0.47368  -0.49911   0.32463  -0.34524
  31   32576.9    307.0   0.019192476   0.19395  -0.00814  -0.34434   0.27444
  32   32713.8    305.7   0.034633966   0.34854   0.37340   0.38374   0.24870
  33   32819.4    304.7   0.061252305   0.61442   0.17826   0.37198  -0.66654
  34   33287.2    300.4   0.166087246   1.64261  -0.47030  -0.87590  -0.80884
  35   33386.2    299.5   0.011862953   0.11698   0.17887   0.07330  -0.28215
  36   33615.1    297.5   0.016218740   0.15884   0.32077   0.10221   0.21330
  37   33932.5    294.7   0.089293756   0.86633  -0.38917  -0.82799   0.17119
  38   34165.3    292.7   0.004763989   0.04591  -0.10492  -0.13321   0.13096
  39   34372.8    290.9   0.079550336   0.76191   0.20389   0.54632  -0.64952
  40   34823.6    287.2   0.092517154   0.87463   0.31654   0.12382   0.87126
  41   34989.2    285.8   0.017117396   0.16106   0.05614   0.17501   0.35676
  42   35229.9    283.8   0.061793600   0.57744  -0.16905  -0.45096   0.58779
  43   35475.6    281.9   0.129572458   1.20243   0.14862  -0.40920  -1.00643
  44   35846.2    279.0   0.359334292   3.30013   0.11932   1.54416  -0.94945
  45   35925.0    278.4   0.099215135   0.90919  -0.13859   0.88981  -0.31341
  46   36050.5    277.4   0.028308058   0.25851   0.45535   0.21153  -0.08013
  47   36240.7    275.9   0.197983870   1.79850  -0.66189   1.07874  -0.44354
  48   36541.4    273.7   0.073214992   0.65962   0.46986  -0.65336  -0.10937
  49   36809.7    271.7   0.037800784   0.33808  -0.15251  -0.51254  -0.22830
  50   37003.0    270.2   0.053197504   0.47329  -0.55528  -0.40611  -0.00511
  51   37468.5    266.9   0.080429381   0.70668  -0.23743  -0.80187   0.08554
  52   37808.4    264.5   0.051726200   0.45040  -0.51369  -0.39670   0.17072
  53   38108.5    262.4   0.048213043   0.41650  -0.04135  -0.21371   0.60756
  54   38523.9    259.6   0.094263009   0.80554   0.12617   0.35011   0.81673
  55   38715.1    258.3   0.054270029   0.46148  -0.04013  -0.39039  -0.55450
  56   38754.8    258.0   0.025935999   0.22032  -0.24753  -0.39746   0.03270
  57   38950.3    256.7   0.038668665   0.32683  -0.05595   0.06838   0.56482
  58   39003.1    256.4   0.013127330   0.11080   0.08744   0.27649  -0.16343
  59   39222.3    255.0   0.019330520   0.16225  -0.15676   0.10061  -0.35715
  60   39415.8    253.7   0.007707862   0.06438  -0.06514  -0.13039  -0.20769
  61   39539.6    252.9   0.016863363   0.14041   0.04472   0.24464   0.28029
  62   39722.4    251.7   0.069899098   0.57931   0.06714   0.07937   0.75399
  63   40019.3    249.9   0.004410265   0.03628   0.08568  -0.15404   0.07219
  64   40071.4    249.6   0.000580773   0.00477  -0.00257   0.05583   0.04059
  65   40188.6    248.8   0.012883384   0.10554  -0.16402   0.01517   0.28001

FINAL SINGLE POINT ENERGY     -5115.138039760564

DIPOLE MOMENT
-------------
                                X             Y             Z
Electronic contribution:     23.46199      52.47515      93.18140
Nuclear contribution   :    -23.76934     -55.31510     -97.48133
                        -----------------------------------------
Total Dipole Moment    :     -0.30735      -2.83995      -4.29993
                        -----------------------------------------
Magnitude (a.u.)       :      5.16229
Magnitude (Debye)      :     13.12149

Rotational constants in cm-1:     0.002509     0.000179     0.000171
Rotational constants in MHz :    75.208535     5.357794     5.111529

                             ****ORCA TERMINATED NORMALLY****
TOTAL RUN TIME: 0 days 0 hours 10 minutes 54 seconds 37 msec
