                         Program Version 4.2.0 -  RELEASE  -
|  1> # ORCA input file
|  2> # SCF done       -155.876357434664          0.000475967770
|  3> ! CAM-B3LYP def2-SVP def2/J RIJCOSX Grid4 TightSCF
|  4> %maxcore 5000
|  5> %tddft
|  6>     Mode sTDDFT
|  7>     Ethresh 5.0
|  8>     maxcore 5000
|  9> end
| 10>
| 11> %pal
| 12>   nprocs 6
| 13>   end
| 14> * xyz 0 1
| 15>    C       -3.19497        -2.47419        -1.71511
| 16>    C       -2.34830        -2.36383        -0.65283
| 17>    C       -2.09738        -1.01529        -0.33918
| 18>    C       -2.77435        -0.13294        -1.18958
| 19>    S       -3.70792        -0.95228        -2.36023
| 20>    C       -2.46663         1.20416        -0.80415
| 21>    C       -1.59065         1.15082         0.29573
| 22>    C       -1.33055        -0.24307         0.62345
| 23>    C       -0.53438        -0.71862         1.62406
| 24>    C        0.16411         0.13659         2.50267
| 25>    N        0.73528         0.82135         3.22354
| 26>    C       -0.35446        -2.09958         1.84966
| 27>    N       -0.20513        -3.22091         2.03731
| 28>    C       -1.22485         2.41503         0.75402
| 29>    C       -1.81897         3.41269         0.00583
| 30>    S       -2.84107         2.79715        -1.27641
| 31>    C       -1.69464         4.82394         0.15481
| 32>    N       -2.36155         5.59233        -0.69364
| 33>    N       -2.33203         6.88835        -0.64915
| 34>    C       -1.62067         7.57136         0.22842
| 35>    C       -0.84599         6.86536         1.19301
| 36>    C       -0.89274         5.43368         1.16064
| 37>    N       -0.14024         4.88252         2.10797
| 38>    S        0.56543         6.05193         2.95300
| 39>    N       -0.05068         7.31035         2.16445
| 40>    C       -1.68422         9.01834         0.15726
| 41>    C       -1.23199         9.86034         1.18029
| 42>    N       -1.29728        11.16922         1.08736
| 43>    C       -1.83856        11.68554        -0.01333
| 44>    N       -2.31289        10.97951        -1.03703
| 45>    C       -2.22375         9.67276        -0.96150
| 46>    C       -1.90684        13.14284        -0.08186
| 47>    N       -1.96680        13.72915        -1.25934
| 48>    N       -1.97244        15.01639        -1.40717
| 49>    C       -1.90439        15.86657        -0.39642
| 50>    C       -1.91111        15.35882         0.93242
| 51>    C       -1.90464        13.93448         1.09591
| 52>    N       -1.95380        13.58029         2.37754
| 53>    S       -1.99783        14.89936         3.27844
| 54>    N       -1.96594        15.99811         2.10028
| 55>    C       -1.90303        17.27115        -0.71770
| 56>    C       -1.39896        18.29516         0.00240
| 57>    C       -1.84630        19.69593        -0.29309
| 58>    O       -2.39235        20.08116        -1.29682
| 59>    C       -1.53639        20.45708         0.93088
| 60>    C       -1.87808        21.73983         1.25314
| 61>    C       -1.50817        22.25535         2.51503
| 62>    C       -0.79123        21.42541         3.42682
| 63>    C       -0.43882        21.94156         4.68921
| 64>    C       -0.78822        23.22331         5.01160
| 65>    C       -1.48978        24.05598         4.12823
| 66>    C       -1.84000        23.57136         2.89899
| 67>    F       -0.45485        23.71674         6.21681
| 68>    C       -0.44165        20.10474         3.06331
| 69>    C       -0.80330        19.62992         1.83118
| 70>    C       -0.56893        18.34012         1.19399
| 71>    C        0.40263        17.44546         1.54186
| 72>    C        0.72922        16.29804         0.78830
| 73>    N        1.04836        15.35588         0.21633
| 74>    C        1.21860        17.57831         2.68505
| 75>    N        1.88976        17.62339         3.61469
| 76>    H       -3.55892        -3.37322        -2.17105
| 77>    H       -1.93235        -3.20565        -0.13025
| 78>    H       -0.56835         2.62560         1.57879
| 79>    H       -0.80627         9.46367         2.09228
| 80>    H       -2.58980         9.10304        -1.80479
| 81>    H       -2.42151        17.52924        -1.63474
| 82>    H       -2.42818        22.35271         0.55495
| 83>    H        0.10474        21.33024         5.39250
| 84>    H       -1.73785        25.05872         4.43804
| 85>    H       -2.38072        24.19379         2.20217
| 86>    H        0.09216        19.49409         3.77412
| 87> *
| 88>
| 89>                          ****END OF INPUT****

CARTESIAN COORDINATES (ANGSTROEM)
---------------------------------
  C     -3.194970   -2.474190   -1.715110
  C     -2.348300   -2.363830   -0.652830
  C     -2.097380   -1.015290   -0.339180
  C     -2.774350   -0.132940   -1.189580
  S     -3.707920   -0.952280   -2.360230
  C     -2.466630    1.204160   -0.804150
  C     -1.590650    1.150820    0.295730
  C     -1.330550   -0.243070    0.623450
  C     -0.534380   -0.718620    1.624060
  C      0.164110    0.136590    2.502670
  N      0.735280    0.821350    3.223540
  C     -0.354460   -2.099580    1.849660
  N     -0.205130   -3.220910    2.037310
  C     -1.224850    2.415030    0.754020
  C     -1.818970    3.412690    0.005830
  S     -2.841070    2.797150   -1.276410
  C     -1.694640    4.823940    0.154810
  N     -2.361550    5.592330   -0.693640
  N     -2.332030    6.888350   -0.649150
  C     -1.620670    7.571360    0.228420
  C     -0.845990    6.865360    1.193010
  C     -0.892740    5.433680    1.160640
  N     -0.140240    4.882520    2.107970
  S      0.565430    6.051930    2.953000
  N     -0.050680    7.310350    2.164450
  C     -1.684220    9.018340    0.157260
  C     -1.231990    9.860340    1.180290
  N     -1.297280   11.169220    1.087360
  C     -1.838560   11.685540   -0.013330
  N     -2.312890   10.979510   -1.037030
  C     -2.223750    9.672760   -0.961500
  C     -1.906840   13.142840   -0.081860
  N     -1.966800   13.729150   -1.259340
  N     -1.972440   15.016390   -1.407170
  C     -1.904390   15.866570   -0.396420
  C     -1.911110   15.358820    0.932420
  C     -1.904640   13.934480    1.095910
  N     -1.953800   13.580290    2.377540
  S     -1.997830   14.899360    3.278440
  N     -1.965940   15.998110    2.100280
  C     -1.903030   17.271150   -0.717700
  C     -1.398960   18.295160    0.002400
  C     -1.846300   19.695930   -0.293090
  O     -2.392350   20.081160   -1.296820
  C     -1.536390   20.457080    0.930880
  C     -1.878080   21.739830    1.253140
  C     -1.508170   22.255350    2.515030
  C     -0.791230   21.425410    3.426820
  C     -0.438820   21.941560    4.689210
  C     -0.788220   23.223310    5.011600
  C     -1.489780   24.055980    4.128230
  C     -1.840000   23.571360    2.898990
  F     -0.454850   23.716740    6.216810
  C     -0.441650   20.104740    3.063310
  C     -0.803300   19.629920    1.831180
  C     -0.568930   18.340120    1.193990
  C      0.402630   17.445460    1.541860
  C      0.729220   16.298040    0.788300
  N      1.048360   15.355880    0.216330
  C      1.218600   17.578310    2.685050
  N      1.889760   17.623390    3.614690
  H     -3.558920   -3.373220   -2.171050
  H     -1.932350   -3.205650   -0.130250
  H     -0.568350    2.625600    1.578790
  H     -0.806270    9.463670    2.092280
  H     -2.589800    9.103040   -1.804790
  H     -2.421510   17.529240   -1.634740
  H     -2.428180   22.352710    0.554950
  H      0.104740   21.330240    5.392500
  H     -1.737850   25.058720    4.438040
  H     -2.380720   24.193790    2.202170
  H      0.092160   19.494090    3.774120

 Total Charge           Charge          ....    0
 Multiplicity           Mult            ....    1
 Number of Electrons    NEL             ....  436
 Basis Dimension        Dim             ....  925

ORBITAL ENERGIES
----------------

  NO   OCC          E(Eh)            E(eV)
   0   2.0000     -89.055918     -2423.3347
   1   2.0000     -89.045639     -2423.0550
   2   2.0000     -88.990645     -2421.5586
   3   2.0000     -88.989944     -2421.5395
   4   2.0000     -24.789748      -674.5633
   5   2.0000     -19.221455      -523.0424
   6   2.0000     -14.470770      -393.7697
   7   2.0000     -14.469491      -393.7349
   8   2.0000     -14.456853      -393.3910
   9   2.0000     -14.455860      -393.3639
  10   2.0000     -14.454866      -393.3369
  11   2.0000     -14.452666      -393.2770
  12   2.0000     -14.449269      -393.1846
  13   2.0000     -14.443048      -393.0153
  14   2.0000     -14.429561      -392.6483
  15   2.0000     -14.429456      -392.6455
  16   2.0000     -14.421971      -392.4418
  17   2.0000     -14.421689      -392.4341
  18   2.0000     -14.414146      -392.2289
  19   2.0000     -14.413015      -392.1981
  20   2.0000     -10.373724      -282.2834
  21   2.0000     -10.372382      -282.2469
  22   2.0000     -10.363630      -282.0087
  23   2.0000     -10.353535      -281.7340
  24   2.0000     -10.353194      -281.7247
  25   2.0000     -10.352150      -281.6963
  26   2.0000     -10.351709      -281.6843
  27   2.0000     -10.349672      -281.6289
  28   2.0000     -10.349219      -281.6166
  29   2.0000     -10.345666      -281.5199
  30   2.0000     -10.344928      -281.4998
  31   2.0000     -10.342060      -281.4218
  32   2.0000     -10.341434      -281.4047
  33   2.0000     -10.339927      -281.3637
  34   2.0000     -10.335792      -281.2512
  35   2.0000     -10.335481      -281.2427
  36   2.0000     -10.330908      -281.1183
  37   2.0000     -10.329978      -281.0930
  38   2.0000     -10.329876      -281.0902
  39   2.0000     -10.324013      -280.9307
  40   2.0000     -10.323074      -280.9051
  41   2.0000     -10.322663      -280.8939
  42   2.0000     -10.322459      -280.8884
  43   2.0000     -10.320992      -280.8485
  44   2.0000     -10.318096      -280.7697
  45   2.0000     -10.315995      -280.7125
  46   2.0000     -10.310830      -280.5719
  47   2.0000     -10.310796      -280.5710
  48   2.0000     -10.309151      -280.5263
  49   2.0000     -10.305802      -280.4351
  50   2.0000     -10.305046      -280.4146
  51   2.0000     -10.303765      -280.3797
  52   2.0000     -10.303741      -280.3790
  53   2.0000     -10.302859      -280.3551
  54   2.0000     -10.301767      -280.3253
  55   2.0000     -10.301575      -280.3201
  56   2.0000     -10.301498      -280.3180
  57   2.0000     -10.300228      -280.2834
  58   2.0000     -10.298386      -280.2333
  59   2.0000     -10.295199      -280.1466
  60   2.0000     -10.293033      -280.0877
  61   2.0000      -8.147370      -221.7012
  62   2.0000      -8.137048      -221.4203
  63   2.0000      -8.085552      -220.0191
  64   2.0000      -8.083697      -219.9686
  65   2.0000      -6.118511      -166.4932
  66   2.0000      -6.110577      -166.2773
  67   2.0000      -6.110066      -166.2634
  68   2.0000      -6.108063      -166.2088
  69   2.0000      -6.100231      -165.9957
  70   2.0000      -6.099984      -165.9890
  71   2.0000      -6.054813      -164.7598
  72   2.0000      -6.052930      -164.7086
  73   2.0000      -6.050318      -164.6375
  74   2.0000      -6.048629      -164.5916
  75   2.0000      -6.048232      -164.5808
  76   2.0000      -6.046303      -164.5283
  77   2.0000      -1.304969       -35.5100
  78   2.0000      -1.159125       -31.5414
  79   2.0000      -1.148716       -31.2582
  80   2.0000      -1.137413       -30.9506
  81   2.0000      -1.131617       -30.7929
  82   2.0000      -1.124009       -30.5858
  83   2.0000      -1.088970       -29.6324
  84   2.0000      -1.044629       -28.4258
  85   2.0000      -1.025491       -27.9050
  86   2.0000      -1.021630       -27.8000
  87   2.0000      -1.013595       -27.5813
  88   2.0000      -1.007036       -27.4028
  89   2.0000      -1.006006       -27.3748
  90   2.0000      -1.002172       -27.2705
  91   2.0000      -0.997551       -27.1447
  92   2.0000      -0.996309       -27.1110
  93   2.0000      -0.982776       -26.7427
  94   2.0000      -0.980404       -26.6781
  95   2.0000      -0.964126       -26.2352
  96   2.0000      -0.953423       -25.9440
  97   2.0000      -0.946670       -25.7602
  98   2.0000      -0.934794       -25.4370
  99   2.0000      -0.930711       -25.3259
 100   2.0000      -0.922703       -25.1080
 101   2.0000      -0.904996       -24.6262
 102   2.0000      -0.902025       -24.5453
 103   2.0000      -0.890771       -24.2391
 104   2.0000      -0.882672       -24.0187
 105   2.0000      -0.867436       -23.6041
 106   2.0000      -0.864915       -23.5355
 107   2.0000      -0.853440       -23.2233
 108   2.0000      -0.839254       -22.8373
 109   2.0000      -0.827559       -22.5190
 110   2.0000      -0.811550       -22.0834
 111   2.0000      -0.792106       -21.5543
 112   2.0000      -0.784262       -21.3408
 113   2.0000      -0.776686       -21.1347
 114   2.0000      -0.767758       -20.8918
 115   2.0000      -0.765974       -20.8432
 116   2.0000      -0.761724       -20.7276
 117   2.0000      -0.745530       -20.2869
 118   2.0000      -0.733535       -19.9605
 119   2.0000      -0.732019       -19.9193
 120   2.0000      -0.726790       -19.7770
 121   2.0000      -0.713541       -19.4164
 122   2.0000      -0.711329       -19.3562
 123   2.0000      -0.703129       -19.1331
 124   2.0000      -0.686321       -18.6757
 125   2.0000      -0.684654       -18.6304
 126   2.0000      -0.682833       -18.5808
 127   2.0000      -0.681168       -18.5355
 128   2.0000      -0.660693       -17.9784
 129   2.0000      -0.647394       -17.6165
 130   2.0000      -0.646405       -17.5896
 131   2.0000      -0.644935       -17.5496
 132   2.0000      -0.636630       -17.3236
 133   2.0000      -0.632064       -17.1993
 134   2.0000      -0.624398       -16.9907
 135   2.0000      -0.619316       -16.8524
 136   2.0000      -0.618313       -16.8251
 137   2.0000      -0.614954       -16.7338
 138   2.0000      -0.609859       -16.5951
 139   2.0000      -0.598919       -16.2974
 140   2.0000      -0.590800       -16.0765
 141   2.0000      -0.584525       -15.9057
 142   2.0000      -0.584188       -15.8966
 143   2.0000      -0.577777       -15.7221
 144   2.0000      -0.576121       -15.6771
 145   2.0000      -0.571723       -15.5574
 146   2.0000      -0.569779       -15.5045
 147   2.0000      -0.562324       -15.3016
 148   2.0000      -0.557326       -15.1656
 149   2.0000      -0.551565       -15.0088
 150   2.0000      -0.550281       -14.9739
 151   2.0000      -0.546722       -14.8771
 152   2.0000      -0.540658       -14.7121
 153   2.0000      -0.533710       -14.5230
 154   2.0000      -0.531799       -14.4710
 155   2.0000      -0.527914       -14.3653
 156   2.0000      -0.522825       -14.2268
 157   2.0000      -0.521140       -14.1809
 158   2.0000      -0.519095       -14.1253
 159   2.0000      -0.513901       -13.9840
 160   2.0000      -0.511281       -13.9127
 161   2.0000      -0.506047       -13.7702
 162   2.0000      -0.503601       -13.7037
 163   2.0000      -0.502529       -13.6745
 164   2.0000      -0.500711       -13.6250
 165   2.0000      -0.498496       -13.5648
 166   2.0000      -0.495393       -13.4803
 167   2.0000      -0.494487       -13.4557
 168   2.0000      -0.492652       -13.4057
 169   2.0000      -0.490367       -13.3436
 170   2.0000      -0.486470       -13.2375
 171   2.0000      -0.483002       -13.1431
 172   2.0000      -0.475094       -12.9280
 173   2.0000      -0.472529       -12.8582
 174   2.0000      -0.462362       -12.5815
 175   2.0000      -0.461119       -12.5477
 176   2.0000      -0.457393       -12.4463
 177   2.0000      -0.457325       -12.4444
 178   2.0000      -0.453463       -12.3394
 179   2.0000      -0.452910       -12.3243
 180   2.0000      -0.448571       -12.2062
 181   2.0000      -0.447240       -12.1700
 182   2.0000      -0.445069       -12.1109
 183   2.0000      -0.441833       -12.0229
 184   2.0000      -0.441299       -12.0084
 185   2.0000      -0.439768       -11.9667
 186   2.0000      -0.437729       -11.9112
 187   2.0000      -0.437143       -11.8953
 188   2.0000      -0.432925       -11.7805
 189   2.0000      -0.431875       -11.7519
 190   2.0000      -0.426181       -11.5970
 191   2.0000      -0.425056       -11.5664
 192   2.0000      -0.415344       -11.3021
 193   2.0000      -0.413205       -11.2439
 194   2.0000      -0.411596       -11.2001
 195   2.0000      -0.406609       -11.0644
 196   2.0000      -0.402419       -10.9504
 197   2.0000      -0.398044       -10.8313
 198   2.0000      -0.394510       -10.7352
 199   2.0000      -0.391467       -10.6524
 200   2.0000      -0.387504       -10.5445
 201   2.0000      -0.386751       -10.5240
 202   2.0000      -0.383596       -10.4382
 203   2.0000      -0.372380       -10.1330
 204   2.0000      -0.370435       -10.0800
 205   2.0000      -0.364800        -9.9267
 206   2.0000      -0.358489        -9.7550
 207   2.0000      -0.347486        -9.4556
 208   2.0000      -0.342121        -9.3096
 209   2.0000      -0.334517        -9.1027
 210   2.0000      -0.323922        -8.8144
 211   2.0000      -0.320889        -8.7318
 212   2.0000      -0.316018        -8.5993
 213   2.0000      -0.312561        -8.5052
 214   2.0000      -0.310578        -8.4513
 215   2.0000      -0.301417        -8.2020
 216   2.0000      -0.299256        -8.1432
 217   2.0000      -0.270632        -7.3643
 218   0.0000      -0.114338        -3.1113
 219   0.0000      -0.105182        -2.8621
 220   0.0000      -0.093879        -2.5546
 221   0.0000      -0.070715        -1.9243
 222   0.0000      -0.054972        -1.4959

MULLIKEN ATOMIC CHARGES
-----------------------
   0 C :   -0.076958
   1 C :    0.036117
   2 C :   -0.024551
   3 C :   -0.125928
   4 S :    0.190250
   5 C :   -0.082808
   6 C :    0.004148
   7 C :    0.300883
   8 C :   -0.301694
   9 C :   -0.187388
  10 N :    0.174671
  11 C :   -0.191649
  12 N :    0.172664
  13 C :   -0.047783
  14 C :   -0.140329
  15 S :    0.246062
  16 C :    0.026304
  17 N :   -0.064891
  18 N :   -0.038862
  19 C :   -0.009721
  20 C :    0.049487
  21 C :    0.019108
  22 N :   -0.248824
  23 S :    0.562416
  24 N :   -0.264498
  25 C :   -0.043477
  26 C :    0.036350
  27 N :   -0.019680
  28 C :   -0.167951
  29 N :    0.004282
  30 C :    0.047969
  31 C :    0.019054
  32 N :   -0.006781
  33 N :   -0.029956
  34 C :   -0.054124
  35 C :    0.018935
  36 C :    0.075849
  37 N :   -0.210394
  38 S :    0.541765
  39 N :   -0.272258
  40 C :    0.041075
  41 C :   -0.105156
  42 C :    0.134184
  43 O :   -0.127579
  44 C :    0.010851
  45 C :   -0.080063
  46 C :    0.100060
  47 C :    0.105042
  48 C :   -0.099586
  49 C :    0.304390
  50 C :   -0.028142
  51 C :   -0.009588
  52 F :   -0.187928
  53 C :   -0.090178
  54 C :    0.046626
  55 C :    0.314221
  56 C :   -0.320476
  57 C :   -0.196976
  58 N :    0.171641
  59 C :   -0.195107
  60 N :    0.162467
  61 H :    0.038101
  62 H :    0.013674
  63 H :    0.019419
  64 H :    0.016222
  65 H :    0.024266
  66 H :    0.036986
  67 H :   -0.008074
  68 H :   -0.001144
  69 H :    0.005320
  70 H :   -0.006193
  71 H :   -0.004165
Sum of atomic charges:   -0.0000000

LOEWDIN ATOMIC CHARGES
----------------------
   0 C :   -0.171896
   1 C :   -0.034750
   2 C :   -0.068456
   3 C :   -0.189233
   4 S :    0.484831
   5 C :   -0.165448
   6 C :   -0.079316
   7 C :    0.081700
   8 C :   -0.104015
   9 C :   -0.017011
  10 N :   -0.033874
  11 C :   -0.017189
  12 N :   -0.033818
  13 C :   -0.005223
  14 C :   -0.188495
  15 S :    0.521943
  16 C :   -0.016531
  17 N :   -0.072804
  18 N :   -0.034817
  19 C :   -0.012855
  20 C :   -0.052527
  21 C :   -0.055693
  22 N :   -0.260762
  23 S :    0.688579
  24 N :   -0.267722
  25 C :   -0.073766
  26 C :    0.057250
  27 N :   -0.058676
  28 C :    0.020837
  29 N :   -0.048939
  30 C :    0.077402
  31 C :    0.001785
  32 N :   -0.016222
  33 N :   -0.018910
  34 C :   -0.019132
  35 C :   -0.060923
  36 C :   -0.048965
  37 N :   -0.243572
  38 S :    0.679104
  39 N :   -0.282063
  40 C :    0.068829
  41 C :   -0.060625
  42 C :    0.086264
  43 O :   -0.127836
  44 C :   -0.060405
  45 C :    0.037501
  46 C :   -0.017773
  47 C :    0.004690
  48 C :   -0.042417
  49 C :    0.094243
  50 C :   -0.035175
  51 C :    0.005831
  52 F :   -0.062757
  53 C :    0.012236
  54 C :   -0.013931
  55 C :    0.077444
  56 C :   -0.127093
  57 C :   -0.022038
  58 N :   -0.040202
  59 C :   -0.019078
  60 N :   -0.048004
  61 H :    0.028779
  62 H :    0.043165
  63 H :    0.041006
  64 H :    0.025133
  65 H :    0.032365
  66 H :    0.057206
  67 H :    0.040926
  68 H :    0.043361
  69 H :    0.042683
  70 H :    0.036666
  71 H :    0.039181

  Mayer bond orders larger than 0.100000
B(  0-C ,  1-C ) :   1.5400 B(  0-C ,  4-S ) :   1.1602 B(  0-C , 61-H ) :   0.9647
B(  1-C ,  2-C ) :   1.2825 B(  1-C , 62-H ) :   0.9959 B(  2-C ,  3-C ) :   1.4586
B(  2-C ,  7-C ) :   1.0114 B(  3-C ,  4-S ) :   1.1333 B(  3-C ,  5-C ) :   1.1865
B(  5-C ,  6-C ) :   1.4361 B(  5-C , 15-S ) :   1.1410 B(  6-C ,  7-C ) :   0.9986
B(  6-C , 13-C ) :   1.2708 B(  7-C ,  8-C ) :   1.7094 B(  8-C ,  9-C ) :   1.1374
B(  8-C , 11-C ) :   1.1306 B(  9-C , 10-N ) :   2.9905 B( 11-C , 12-N ) :   3.0017
B( 13-C , 14-C ) :   1.4813 B( 13-C , 63-H ) :   0.9822 B( 14-C , 15-S ) :   1.0781
B( 14-C , 16-C ) :   1.1736 B( 16-C , 17-N ) :   1.7089 B( 16-C , 19-C ) :   0.1202
B( 16-C , 21-C ) :   1.1270 B( 17-N , 18-N ) :   1.2180 B( 18-N , 19-C ) :   1.7271
B( 19-C , 20-C ) :   1.1131 B( 19-C , 25-C ) :   1.0402 B( 20-C , 21-C ) :   1.1937
B( 20-C , 24-N ) :   1.5288 B( 21-C , 22-N ) :   1.5509 B( 22-N , 23-S ) :   1.2803
B( 22-N , 24-N ) :   0.1428 B( 23-S , 24-N ) :   1.2793 B( 25-C , 26-C ) :   1.3400
B( 25-C , 30-C ) :   1.3131 B( 26-C , 27-N ) :   1.5502 B( 26-C , 64-H ) :   0.9701
B( 27-N , 28-C ) :   1.6028 B( 28-C , 29-N ) :   1.6056 B( 28-C , 31-C ) :   0.9512
B( 29-N , 30-C ) :   1.5641 B( 30-C , 65-H ) :   0.9810 B( 31-C , 32-N ) :   1.7238
B( 31-C , 34-C ) :   0.1213 B( 31-C , 36-C ) :   1.1466 B( 32-N , 33-N ) :   1.2254
B( 33-N , 34-C ) :   1.6484 B( 34-C , 35-C ) :   1.1261 B( 34-C , 40-C ) :   1.0635
B( 35-C , 36-C ) :   1.2185 B( 35-C , 39-N ) :   1.5149 B( 36-C , 37-N ) :   1.5370
B( 37-N , 38-S ) :   1.3064 B( 37-N , 39-N ) :   0.1464 B( 38-S , 39-N ) :   1.2648
B( 40-C , 41-C ) :   1.7258 B( 40-C , 66-H ) :   0.9470 B( 41-C , 42-C ) :   0.9182
B( 41-C , 55-C ) :   1.0093 B( 42-C , 43-O ) :   2.2897 B( 42-C , 44-C ) :   0.9186
B( 44-C , 45-C ) :   1.4656 B( 44-C , 54-C ) :   1.2130 B( 45-C , 46-C ) :   1.1987
B( 45-C , 67-H ) :   1.0146 B( 46-C , 47-C ) :   1.2497 B( 46-C , 51-C ) :   1.2341
B( 47-C , 48-C ) :   1.2015 B( 47-C , 53-C ) :   1.2090 B( 48-C , 49-C ) :   1.4436
B( 48-C , 68-H ) :   1.0057 B( 49-C , 50-C ) :   1.2510 B( 49-C , 52-F ) :   1.0916
B( 50-C , 51-C ) :   1.4644 B( 50-C , 69-H ) :   0.9930 B( 51-C , 70-H ) :   0.9963
B( 53-C , 54-C ) :   1.4571 B( 53-C , 71-H ) :   0.9941 B( 54-C , 55-C ) :   1.0099
B( 55-C , 56-C ) :   1.6716 B( 56-C , 57-C ) :   1.1563 B( 56-C , 59-C ) :   1.1428
B( 57-C , 58-N ) :   2.9840 B( 59-C , 60-N ) :   2.9906

-----------------------------------------------------------------------------
         ABSORPTION SPECTRUM VIA TRANSITION ELECTRIC DIPOLE MOMENTS
-----------------------------------------------------------------------------
State   Energy  Wavelength   fosc         T2         TX        TY        TZ
        (cm-1)    (nm)                  (au**2)     (au)      (au)      (au)
-----------------------------------------------------------------------------
   0   15867.2    630.2   0.000577637   0.01198   0.06991   0.07736  -0.03335
   1   16216.0    616.7   0.152679367   3.09964  -0.24818  -1.71139  -0.33043
   2   19915.9    502.1   0.589152915   9.73877   0.24054   3.09546   0.31475
   3   20284.4    493.0   0.475504375   7.71734   0.24104   2.74541   0.34927
   4   23478.6    425.9   0.009600556   0.13462  -0.20289  -0.30297  -0.04079
   5   24187.2    413.4   0.095473808   1.29950   0.37301   1.07089   0.11638
   6   24833.1    402.7   0.182785119   2.42318   0.19861  -1.53001  -0.20691
   7   26583.6    376.2   0.013070490   0.16186   0.28002  -0.25470   0.13631
   8   27536.5    363.2   0.164725214   1.96937   0.03359   1.39500   0.14902
   9   27947.1    357.8   0.120024610   1.41387  -0.25246  -1.15342  -0.14060
  10   28208.7    354.5   0.011455559   0.13369  -0.00414   0.32010   0.17666
  11   28721.3    348.2   0.010500240   0.12036   0.03196   0.31230   0.14767
  12   29895.3    334.5   0.043133880   0.47500   0.49017  -0.37540   0.30627
  13   30022.0    333.1   0.028630483   0.31395  -0.34936   0.24478  -0.36330
  14   30527.3    327.6   0.165807583   1.78810  -0.74020   0.46852  -1.01030
  15   31252.0    320.0   0.000292035   0.00308  -0.03735  -0.03765  -0.01624
  16   31657.9    315.9   0.006809008   0.07081   0.02601   0.18638  -0.18813
  17   32336.1    309.3   0.215998383   2.19907  -0.92609   1.09437  -0.37918
  18   32505.6    307.6   0.131900836   1.33587   0.69162  -0.87709   0.29705
  19   32897.2    304.0   0.349778850   3.50034   0.50058   1.20399   1.34171
  20   33054.5    302.5   0.177014847   1.76301   0.75316  -0.44284   0.99983
  21   33331.9    300.0   0.204155452   2.01640  -0.41577   1.21843   0.59913
  22   33637.9    297.3   0.226127180   2.21309  -0.50426   1.30520  -0.50523
  23   33918.6    294.8   0.015389159   0.14937   0.30546   0.20816   0.11283
  24   34130.8    293.0   0.018202425   0.17557  -0.32958   0.02789  -0.25724
  25   34995.6    285.7   0.089869274   0.84542  -0.22474  -0.81351   0.36485
  26   35229.2    283.9   0.153122012   1.43090  -0.31556  -1.15367  -0.01903
  27   35294.0    283.3   0.006910254   0.06446  -0.00527   0.24865   0.05100
  28   35363.1    282.8   0.013642606   0.12701   0.06990   0.31319   0.15502
  29   35740.4    279.8   0.225623866   2.07826  -0.01327   1.39788   0.35215
  30   36176.6    276.4   0.111353726   1.01333  -0.17397   0.96226   0.23903
  31   36243.7    275.9   0.204126686   1.85414  -0.24754   1.19215   0.60962
  32   36472.4    274.2   0.005447002   0.04917   0.09805   0.19088   0.05584
  33   36894.9    271.0   0.129630814   1.15669   0.11913  -1.06225  -0.11882
  34   36933.2    270.8   0.220641561   1.96674  -0.58829   1.26411  -0.15054
  35   37064.6    269.8   0.056066807   0.49799   0.36516  -0.30236  -0.52271
  36   37227.3    268.6   0.151236535   1.33743  -0.36776   1.09490   0.05811
  37   37399.9    267.4   0.171478463   1.50944  -0.04604  -1.22340  -0.10298
  38   37619.5    265.8   0.042830972   0.37482  -0.25242  -0.33254   0.44779
  39   37752.9    264.9   0.033592742   0.29293  -0.18416  -0.35680  -0.36292
  40   37765.0    264.8   0.062815943   0.54759   0.57850   0.23860   0.39497
  41   38096.7    262.5   0.033567324   0.29007  -0.23557  -0.28594  -0.39092
  42   38356.7    260.7   0.003880477   0.03331   0.10675  -0.13739  -0.05507
  43   38479.5    259.9   0.033875095   0.28982   0.39779  -0.35708   0.06386
  44   38594.1    259.1   0.016019459   0.13665   0.03211  -0.35146  -0.10997
  45   38846.0    257.4   0.007777135   0.06591  -0.12035   0.17145  -0.14843
  46   39103.8    255.7   0.083031564   0.69904  -0.47346   0.29085  -0.62472
  47   39143.2    255.5   0.004947586   0.04161   0.00657  -0.20213   0.02668
  48   39388.0    253.9   0.038309739   0.32020   0.19817   0.15760   0.50605
  49   39637.1    252.3   0.017705747   0.14706   0.06913   0.27297  -0.26032
  50   39709.9    251.8   0.008314135   0.06893  -0.15331   0.16818  -0.13091
  51   40054.3    249.7   0.038454377   0.31606   0.36513  -0.34257   0.25571

FINAL SINGLE POINT ENERGY     -4099.524938488313

DIPOLE MOMENT
-------------
                                X             Y             Z
Electronic contribution:      2.31044     -14.72864       3.11240
Nuclear contribution   :     -4.04928      14.74717      -2.14782
                        -----------------------------------------
Total Dipole Moment    :     -1.73884       0.01852       0.96458
                        -----------------------------------------
Magnitude (a.u.)       :      1.98854
Magnitude (Debye)      :      5.05448

Rotational constants in cm-1:     0.004542     0.000279     0.000267
Rotational constants in MHz :   136.177298     8.350264     8.006684

                             ****ORCA TERMINATED NORMALLY****
TOTAL RUN TIME: 0 days 0 hours 8 minutes 22 seconds 220 msec
