                         Program Version 4.2.0 -  RELEASE  -
|  1> # ORCA input file
|  2> # SCF done       -175.969732877196          0.000431568777
|  3> ! CAM-B3LYP def2-SVP def2/J RIJCOSX Grid4 TightSCF
|  4> %maxcore 5000
|  5> %tddft
|  6>     Mode sTDDFT
|  7>     Ethresh 5.0
|  8>     maxcore 5000
|  9> end
| 10>
| 11> %pal
| 12>   nprocs 6
| 13>   end
| 14> * xyz 0 1
| 15>    C       -1.09549         2.07905         1.51427
| 16>    C        0.25460         2.28964         1.51576
| 17>    F        0.74312         3.52565         1.67348
| 18>    C        1.14963         1.21228         1.35101
| 19>    F        2.46724         1.44938         1.35532
| 20>    C        0.68127        -0.06104         1.18707
| 21>    C       -0.70512        -0.31052         1.17933
| 22>    C       -1.61120         0.77748         1.34691
| 23>    C       -3.00563         0.55138         1.34202
| 24>    C       -3.48139        -0.72423         1.17572
| 25>    C       -2.56941        -1.80309         1.00413
| 26>    C       -1.21675        -1.61451         1.00297
| 27>    C       -3.31438        -3.06163         0.81825
| 28>    O       -2.85021        -4.15042         0.57464
| 29>    C       -4.75887        -2.67832         0.87539
| 30>    C       -4.84199        -1.24556         1.12851
| 31>    C       -5.98411        -0.52805         1.35082
| 32>    C       -7.28988        -1.06624         1.35083
| 33>    N       -8.37583        -1.43662         1.37332
| 34>    C       -6.00730         0.85677         1.62718
| 35>    N       -6.08859         1.98005         1.84606
| 36>    C       -5.77118        -3.51799         0.56481
| 37>    C       -5.62558        -4.95278         0.42374
| 38>    C       -6.19418        -5.62121        -0.66060
| 39>    C       -6.01823        -6.97706        -0.82035
| 40>    F       -6.57706        -7.54866        -1.90335
| 41>    C       -5.31048        -7.76052         0.10319
| 42>    C       -4.80650        -7.09562         1.22633
| 43>    C       -4.95135        -5.73549         1.36896
| 44>    F       -4.48797        -5.16011         2.48871
| 45>    C       -5.10811        -9.17948        -0.06464
| 46>    C       -5.20574        -9.94426        -1.20442
| 47>    C       -4.90351       -11.29282        -0.99931
| 48>    C       -4.58456       -11.59161         0.30555
| 49>    S       -4.64765       -10.16209         1.29246
| 50>    C       -4.25233       -12.86509         0.89405
| 51>    C       -4.32644       -13.05394         2.27766
| 52>    C       -4.06086       -14.27980         2.83969
| 53>    F       -4.14524       -14.39050         4.18049
| 54>    C       -3.67329       -15.39220         2.08160
| 55>    C       -3.53082       -15.18568         0.70633
| 56>    C       -3.83606       -13.97190         0.13771
| 57>    F       -3.68740       -13.85895        -1.19390
| 58>    C       -3.35517       -16.68086         2.64531
| 59>    C       -3.87132       -17.31871         3.71874
| 60>    C       -3.11941       -18.48053         4.29057
| 61>    O       -2.20768       -19.07184         3.76510
| 62>    C       -3.69765       -18.69369         5.62964
| 63>    C       -3.28681       -19.54661         6.61416
| 64>    C       -3.98290       -19.56249         7.84288
| 65>    C       -5.09118       -18.68529         8.03057
| 66>    C       -5.77655       -18.70122         9.26235
| 67>    C       -5.38249       -19.54917        10.25884
| 68>    C       -4.28699       -20.41705        10.07159
| 69>    C       -3.60118       -20.42472         8.88957
| 70>    F       -3.92278       -21.23602        11.06632
| 71>    F       -6.03507       -19.56427        11.42737
| 72>    C       -5.49661       -17.81699         6.99207
| 73>    C       -4.81415       -17.82648         5.80430
| 74>    C       -5.02417       -17.07729         4.56973
| 75>    C       -6.18747       -16.45679         4.20957
| 76>    C       -6.43486       -15.93112         2.92513
| 77>    N       -6.68853       -15.51637         1.88566
| 78>    C       -7.30895       -16.33720         5.05877
| 79>    N       -8.24440       -16.20977         5.71025
| 80>    H       -1.76607         2.91433         1.64277
| 81>    H        1.37864        -0.87446         1.06182
| 82>    H       -3.66462         1.39574         1.46390
| 83>    H       -0.54818        -2.45139         0.87006
| 84>    H       -6.76246        -3.12743         0.37354
| 85>    H       -6.74791        -5.07339        -1.40725
| 86>    H       -4.27685        -7.64673         1.98794
| 87>    H       -5.47116        -9.54758        -2.16632
| 88>    H       -4.93806       -12.02331        -1.78549
| 89>    H       -4.61808       -12.23751         2.92020
| 90>    H       -3.21391       -15.99642         0.06917
| 91>    H       -2.53824       -17.20576         2.15768
| 92>    H       -2.44150       -20.19924         6.45741
| 93>    H       -6.61876       -18.04601         9.42101
| 94>    H       -2.76517       -21.09445         8.76218
| 95>    H       -6.33066       -17.15577         7.16438
| 96> *
| 97>
| 98>                          ****END OF INPUT****

CARTESIAN COORDINATES (ANGSTROEM)
---------------------------------
  C     -1.095490    2.079050    1.514270
  C      0.254600    2.289640    1.515760
  F      0.743120    3.525650    1.673480
  C      1.149630    1.212280    1.351010
  F      2.467240    1.449380    1.355320
  C      0.681270   -0.061040    1.187070
  C     -0.705120   -0.310520    1.179330
  C     -1.611200    0.777480    1.346910
  C     -3.005630    0.551380    1.342020
  C     -3.481390   -0.724230    1.175720
  C     -2.569410   -1.803090    1.004130
  C     -1.216750   -1.614510    1.002970
  C     -3.314380   -3.061630    0.818250
  O     -2.850210   -4.150420    0.574640
  C     -4.758870   -2.678320    0.875390
  C     -4.841990   -1.245560    1.128510
  C     -5.984110   -0.528050    1.350820
  C     -7.289880   -1.066240    1.350830
  N     -8.375830   -1.436620    1.373320
  C     -6.007300    0.856770    1.627180
  N     -6.088590    1.980050    1.846060
  C     -5.771180   -3.517990    0.564810
  C     -5.625580   -4.952780    0.423740
  C     -6.194180   -5.621210   -0.660600
  C     -6.018230   -6.977060   -0.820350
  F     -6.577060   -7.548660   -1.903350
  C     -5.310480   -7.760520    0.103190
  C     -4.806500   -7.095620    1.226330
  C     -4.951350   -5.735490    1.368960
  F     -4.487970   -5.160110    2.488710
  C     -5.108110   -9.179480   -0.064640
  C     -5.205740   -9.944260   -1.204420
  C     -4.903510  -11.292820   -0.999310
  C     -4.584560  -11.591610    0.305550
  S     -4.647650  -10.162090    1.292460
  C     -4.252330  -12.865090    0.894050
  C     -4.326440  -13.053940    2.277660
  C     -4.060860  -14.279800    2.839690
  F     -4.145240  -14.390500    4.180490
  C     -3.673290  -15.392200    2.081600
  C     -3.530820  -15.185680    0.706330
  C     -3.836060  -13.971900    0.137710
  F     -3.687400  -13.858950   -1.193900
  C     -3.355170  -16.680860    2.645310
  C     -3.871320  -17.318710    3.718740
  C     -3.119410  -18.480530    4.290570
  O     -2.207680  -19.071840    3.765100
  C     -3.697650  -18.693690    5.629640
  C     -3.286810  -19.546610    6.614160
  C     -3.982900  -19.562490    7.842880
  C     -5.091180  -18.685290    8.030570
  C     -5.776550  -18.701220    9.262350
  C     -5.382490  -19.549170   10.258840
  C     -4.286990  -20.417050   10.071590
  C     -3.601180  -20.424720    8.889570
  F     -3.922780  -21.236020   11.066320
  F     -6.035070  -19.564270   11.427370
  C     -5.496610  -17.816990    6.992070
  C     -4.814150  -17.826480    5.804300
  C     -5.024170  -17.077290    4.569730
  C     -6.187470  -16.456790    4.209570
  C     -6.434860  -15.931120    2.925130
  N     -6.688530  -15.516370    1.885660
  C     -7.308950  -16.337200    5.058770
  N     -8.244400  -16.209770    5.710250
  H     -1.766070    2.914330    1.642770
  H      1.378640   -0.874460    1.061820
  H     -3.664620    1.395740    1.463900
  H     -0.548180   -2.451390    0.870060
  H     -6.762460   -3.127430    0.373540
  H     -6.747910   -5.073390   -1.407250
  H     -4.276850   -7.646730    1.987940
  H     -5.471160   -9.547580   -2.166320
  H     -4.938060  -12.023310   -1.785490
  H     -4.618080  -12.237510    2.920200
  H     -3.213910  -15.996420    0.069170
  H     -2.538240  -17.205760    2.157680
  H     -2.441500  -20.199240    6.457410
  H     -6.618760  -18.046010    9.421010
  H     -2.765170  -21.094450    8.762180
  H     -6.330660  -17.155770    7.164380

 Total Charge           Charge          ....    0
 Multiplicity           Mult            ....    1
 Number of Electrons    NEL             ....  448
 Basis Dimension        Dim             ....  994

ORBITAL ENERGIES
----------------

  NO   OCC          E(Eh)            E(eV)
   0   2.0000     -88.969541     -2420.9843
   1   2.0000     -24.803835      -674.9467
   2   2.0000     -24.803752      -674.9444
   3   2.0000     -24.802858      -674.9201
   4   2.0000     -24.801889      -674.8937
   5   2.0000     -24.801200      -674.8750
   6   2.0000     -24.795952      -674.7321
   7   2.0000     -24.794575      -674.6947
   8   2.0000     -24.792708      -674.6439
   9   2.0000     -19.226072      -523.1680
  10   2.0000     -19.224288      -523.1195
  11   2.0000     -14.425215      -392.5301
  12   2.0000     -14.424969      -392.5234
  13   2.0000     -14.422605      -392.4590
  14   2.0000     -14.422233      -392.4489
  15   2.0000     -10.387566      -282.6600
  16   2.0000     -10.386800      -282.6392
  17   2.0000     -10.385287      -282.5980
  18   2.0000     -10.384914      -282.5879
  19   2.0000     -10.378769      -282.4207
  20   2.0000     -10.376905      -282.3699
  21   2.0000     -10.374610      -282.3075
  22   2.0000     -10.374586      -282.3068
  23   2.0000     -10.374162      -282.2953
  24   2.0000     -10.372165      -282.2410
  25   2.0000     -10.354378      -281.7569
  26   2.0000     -10.351518      -281.6791
  27   2.0000     -10.350859      -281.6612
  28   2.0000     -10.347513      -281.5701
  29   2.0000     -10.328389      -281.0498
  30   2.0000     -10.327148      -281.0160
  31   2.0000     -10.327064      -281.0137
  32   2.0000     -10.325443      -280.9696
  33   2.0000     -10.324528      -280.9447
  34   2.0000     -10.323037      -280.9041
  35   2.0000     -10.320428      -280.8331
  36   2.0000     -10.318673      -280.7854
  37   2.0000     -10.318224      -280.7732
  38   2.0000     -10.317999      -280.7670
  39   2.0000     -10.317296      -280.7479
  40   2.0000     -10.317043      -280.7410
  41   2.0000     -10.315279      -280.6930
  42   2.0000     -10.315212      -280.6912
  43   2.0000     -10.314877      -280.6821
  44   2.0000     -10.313771      -280.6520
  45   2.0000     -10.313157      -280.6353
  46   2.0000     -10.311374      -280.5868
  47   2.0000     -10.310077      -280.5515
  48   2.0000     -10.309847      -280.5452
  49   2.0000     -10.309334      -280.5312
  50   2.0000     -10.308306      -280.5033
  51   2.0000     -10.308061      -280.4966
  52   2.0000     -10.307046      -280.4690
  53   2.0000     -10.306967      -280.4668
  54   2.0000     -10.306265      -280.4477
  55   2.0000     -10.305102      -280.4161
  56   2.0000     -10.304186      -280.3912
  57   2.0000     -10.302878      -280.3556
  58   2.0000     -10.302626      -280.3487
  59   2.0000     -10.300458      -280.2897
  60   2.0000     -10.300397      -280.2880
  61   2.0000     -10.299322      -280.2588
  62   2.0000     -10.296761      -280.1891
  63   2.0000     -10.283929      -279.8399
  64   2.0000     -10.283523      -279.8289
  65   2.0000      -8.065088      -219.4622
  66   2.0000      -6.034298      -164.2016
  67   2.0000      -6.030265      -164.0919
  68   2.0000      -6.027269      -164.0103
  69   2.0000      -1.326647       -36.0999
  70   2.0000      -1.324792       -36.0494
  71   2.0000      -1.317114       -35.8405
  72   2.0000      -1.311721       -35.6937
  73   2.0000      -1.311139       -35.6779
  74   2.0000      -1.309899       -35.6442
  75   2.0000      -1.309379       -35.6300
  76   2.0000      -1.308480       -35.6055
  77   2.0000      -1.142059       -31.0770
  78   2.0000      -1.140141       -31.0248
  79   2.0000      -1.028459       -27.9858
  80   2.0000      -1.026059       -27.9205
  81   2.0000      -1.011846       -27.5337
  82   2.0000      -1.009539       -27.4710
  83   2.0000      -1.006387       -27.3852
  84   2.0000      -1.003505       -27.3068
  85   2.0000      -1.001220       -27.2446
  86   2.0000      -0.991056       -26.9680
  87   2.0000      -0.988120       -26.8881
  88   2.0000      -0.985253       -26.8101
  89   2.0000      -0.976939       -26.5839
  90   2.0000      -0.940728       -25.5985
  91   2.0000      -0.937893       -25.5214
  92   2.0000      -0.924592       -25.1594
  93   2.0000      -0.916595       -24.9418
  94   2.0000      -0.903166       -24.5764
  95   2.0000      -0.899929       -24.4883
  96   2.0000      -0.896906       -24.4061
  97   2.0000      -0.893923       -24.3249
  98   2.0000      -0.871868       -23.7247
  99   2.0000      -0.863558       -23.4986
 100   2.0000      -0.855789       -23.2872
 101   2.0000      -0.849906       -23.1271
 102   2.0000      -0.847202       -23.0535
 103   2.0000      -0.845378       -23.0039
 104   2.0000      -0.839380       -22.8407
 105   2.0000      -0.826029       -22.4774
 106   2.0000      -0.807199       -21.9650
 107   2.0000      -0.789420       -21.4812
 108   2.0000      -0.775191       -21.0940
 109   2.0000      -0.772405       -21.0182
 110   2.0000      -0.759893       -20.6777
 111   2.0000      -0.744916       -20.2702
 112   2.0000      -0.739243       -20.1158
 113   2.0000      -0.736282       -20.0353
 114   2.0000      -0.726967       -19.7818
 115   2.0000      -0.726766       -19.7763
 116   2.0000      -0.721797       -19.6411
 117   2.0000      -0.719445       -19.5771
 118   2.0000      -0.702497       -19.1159
 119   2.0000      -0.696403       -18.9501
 120   2.0000      -0.689292       -18.7566
 121   2.0000      -0.688478       -18.7345
 122   2.0000      -0.675050       -18.3690
 123   2.0000      -0.672117       -18.2892
 124   2.0000      -0.666595       -18.1390
 125   2.0000      -0.662484       -18.0271
 126   2.0000      -0.656658       -17.8686
 127   2.0000      -0.653847       -17.7921
 128   2.0000      -0.648737       -17.6530
 129   2.0000      -0.646841       -17.6014
 130   2.0000      -0.637638       -17.3510
 131   2.0000      -0.632661       -17.2156
 132   2.0000      -0.629231       -17.1223
 133   2.0000      -0.625009       -17.0074
 134   2.0000      -0.622837       -16.9483
 135   2.0000      -0.618454       -16.8290
 136   2.0000      -0.617549       -16.8044
 137   2.0000      -0.603826       -16.4309
 138   2.0000      -0.597410       -16.2564
 139   2.0000      -0.596702       -16.2371
 140   2.0000      -0.591038       -16.0830
 141   2.0000      -0.589188       -16.0326
 142   2.0000      -0.587560       -15.9883
 143   2.0000      -0.586536       -15.9604
 144   2.0000      -0.583049       -15.8656
 145   2.0000      -0.579182       -15.7603
 146   2.0000      -0.572555       -15.5800
 147   2.0000      -0.568647       -15.4737
 148   2.0000      -0.565099       -15.3771
 149   2.0000      -0.563296       -15.3281
 150   2.0000      -0.559842       -15.2341
 151   2.0000      -0.559379       -15.2215
 152   2.0000      -0.558451       -15.1962
 153   2.0000      -0.552534       -15.0352
 154   2.0000      -0.550756       -14.9868
 155   2.0000      -0.550249       -14.9730
 156   2.0000      -0.547643       -14.9021
 157   2.0000      -0.546664       -14.8755
 158   2.0000      -0.543678       -14.7942
 159   2.0000      -0.543280       -14.7834
 160   2.0000      -0.540370       -14.7042
 161   2.0000      -0.537460       -14.6250
 162   2.0000      -0.535355       -14.5678
 163   2.0000      -0.531762       -14.4700
 164   2.0000      -0.529139       -14.3986
 165   2.0000      -0.525849       -14.3091
 166   2.0000      -0.523360       -14.2414
 167   2.0000      -0.521617       -14.1939
 168   2.0000      -0.518790       -14.1170
 169   2.0000      -0.517392       -14.0790
 170   2.0000      -0.514298       -13.9948
 171   2.0000      -0.512703       -13.9513
 172   2.0000      -0.505033       -13.7427
 173   2.0000      -0.504724       -13.7342
 174   2.0000      -0.501725       -13.6526
 175   2.0000      -0.498451       -13.5635
 176   2.0000      -0.497991       -13.5510
 177   2.0000      -0.490615       -13.3503
 178   2.0000      -0.489962       -13.3325
 179   2.0000      -0.488744       -13.2994
 180   2.0000      -0.485965       -13.2238
 181   2.0000      -0.479956       -13.0603
 182   2.0000      -0.476555       -12.9677
 183   2.0000      -0.474323       -12.9070
 184   2.0000      -0.470337       -12.7985
 185   2.0000      -0.468906       -12.7596
 186   2.0000      -0.466599       -12.6968
 187   2.0000      -0.459850       -12.5132
 188   2.0000      -0.458770       -12.4838
 189   2.0000      -0.456656       -12.4263
 190   2.0000      -0.456119       -12.4116
 191   2.0000      -0.454011       -12.3543
 192   2.0000      -0.452934       -12.3250
 193   2.0000      -0.451317       -12.2810
 194   2.0000      -0.450169       -12.2497
 195   2.0000      -0.447771       -12.1845
 196   2.0000      -0.444499       -12.0954
 197   2.0000      -0.437661       -11.9093
 198   2.0000      -0.435920       -11.8620
 199   2.0000      -0.434290       -11.8176
 200   2.0000      -0.432357       -11.7650
 201   2.0000      -0.432034       -11.7562
 202   2.0000      -0.428366       -11.6564
 203   2.0000      -0.421753       -11.4765
 204   2.0000      -0.419911       -11.4264
 205   2.0000      -0.418105       -11.3772
 206   2.0000      -0.410271       -11.1640
 207   2.0000      -0.404360       -11.0032
 208   2.0000      -0.393614       -10.7108
 209   2.0000      -0.390895       -10.6368
 210   2.0000      -0.381174       -10.3723
 211   2.0000      -0.367406        -9.9976
 212   2.0000      -0.350809        -9.5460
 213   2.0000      -0.347311        -9.4508
 214   2.0000      -0.339803        -9.2465
 215   2.0000      -0.336362        -9.1529
 216   2.0000      -0.332116        -9.0373
 217   2.0000      -0.330194        -8.9850
 218   2.0000      -0.324113        -8.8196
 219   2.0000      -0.320723        -8.7273
 220   2.0000      -0.314232        -8.5507
 221   2.0000      -0.305837        -8.3223
 222   2.0000      -0.303854        -8.2683
 223   2.0000      -0.272374        -7.4117
 224   0.0000      -0.102949        -2.8014
 225   0.0000      -0.096183        -2.6173
 226   0.0000      -0.067174        -1.8279
 227   0.0000      -0.063075        -1.7163
 228   0.0000      -0.047771        -1.2999

MULLIKEN ATOMIC CHARGES
-----------------------
   0 C :   -0.105932
   1 C :    0.241787
   2 F :   -0.168510
   3 C :    0.238665
   4 F :   -0.169874
   5 C :   -0.102753
   6 C :    0.115407
   7 C :    0.112793
   8 C :   -0.080531
   9 C :    0.053289
  10 C :   -0.013066
  11 C :   -0.073276
  12 C :    0.152089
  13 O :   -0.134614
  14 C :   -0.071204
  15 C :    0.303661
  16 C :   -0.330449
  17 C :   -0.198956
  18 N :    0.163476
  19 C :   -0.182281
  20 N :    0.156567
  21 C :   -0.024036
  22 C :   -0.007133
  23 C :   -0.070789
  24 C :    0.228081
  25 F :   -0.187798
  26 C :    0.106722
  27 C :   -0.114397
  28 C :    0.315536
  29 F :   -0.180697
  30 C :   -0.072805
  31 C :    0.009707
  32 C :    0.013982
  33 C :   -0.074887
  34 S :    0.105447
  35 C :    0.113992
  36 C :   -0.098399
  37 C :    0.267749
  38 F :   -0.183137
  39 C :    0.005313
  40 C :   -0.062325
  41 C :    0.237226
  42 F :   -0.184886
  43 C :    0.016961
  44 C :   -0.103571
  45 C :    0.135651
  46 O :   -0.135345
  47 C :    0.012733
  48 C :   -0.082693
  49 C :    0.115828
  50 C :    0.114798
  51 C :   -0.109943
  52 C :    0.244505
  53 C :    0.241999
  54 C :   -0.108062
  55 F :   -0.170189
  56 F :   -0.169083
  57 C :   -0.082978
  58 C :    0.039218
  59 C :    0.286118
  60 C :   -0.321755
  61 C :   -0.211108
  62 N :    0.181420
  63 C :   -0.178342
  64 N :    0.158121
  65 H :    0.010100
  66 H :    0.001450
  67 H :   -0.004852
  68 H :   -0.007802
  69 H :    0.042558
  70 H :   -0.002619
  71 H :    0.002453
  72 H :   -0.000726
  73 H :    0.002253
  74 H :    0.003505
  75 H :   -0.002505
  76 H :    0.032006
  77 H :   -0.007156
  78 H :    0.007711
  79 H :    0.001354
  80 H :   -0.000760
Sum of atomic charges:   -0.0000000

LOEWDIN ATOMIC CHARGES
----------------------
   0 C :   -0.028776
   1 C :    0.067789
   2 F :   -0.046572
   3 C :    0.069075
   4 F :   -0.047219
   5 C :   -0.032433
   6 C :   -0.007496
   7 C :   -0.005610
   8 C :    0.019488
   9 C :   -0.023807
  10 C :   -0.052919
  11 C :    0.032950
  12 C :    0.083932
  13 O :   -0.126140
  14 C :   -0.075650
  15 C :    0.073935
  16 C :   -0.127784
  17 C :   -0.022133
  18 N :   -0.041584
  19 C :   -0.017158
  20 N :   -0.045318
  21 C :    0.078856
  22 C :   -0.057876
  23 C :   -0.016974
  24 C :    0.083428
  25 F :   -0.058739
  26 C :   -0.039686
  27 C :   -0.040765
  28 C :    0.104173
  29 F :   -0.053469
  30 C :   -0.162419
  31 C :   -0.041354
  32 C :   -0.038722
  33 C :   -0.163854
  34 S :    0.448188
  35 C :   -0.033995
  36 C :   -0.037333
  37 C :    0.095274
  38 F :   -0.055609
  39 C :   -0.061869
  40 C :   -0.010683
  41 C :    0.090413
  42 F :   -0.055726
  43 C :    0.071194
  44 C :   -0.077273
  45 C :    0.085993
  46 O :   -0.134618
  47 C :   -0.055948
  48 C :    0.032910
  49 C :   -0.009082
  50 C :   -0.004456
  51 C :   -0.029801
  52 C :    0.068101
  53 C :    0.067708
  54 C :   -0.032402
  55 F :   -0.048009
  56 F :   -0.047043
  57 C :    0.016046
  58 C :   -0.018595
  59 C :    0.068888
  60 C :   -0.126396
  61 C :   -0.019571
  62 N :   -0.040072
  63 C :   -0.017425
  64 N :   -0.045752
  65 H :    0.048473
  66 H :    0.045571
  67 H :    0.040354
  68 H :    0.041293
  69 H :    0.048739
  70 H :    0.044842
  71 H :    0.035293
  72 H :    0.032633
  73 H :    0.033564
  74 H :    0.036089
  75 H :    0.045693
  76 H :    0.050099
  77 H :    0.041354
  78 H :    0.047927
  79 H :    0.045359
  80 H :    0.040489

  Mayer bond orders larger than 0.100000
B(  0-C ,  1-C ) :   1.4457 B(  0-C ,  5-C ) :   0.1079 B(  0-C ,  7-C ) :   1.1858
B(  0-C , 65-H ) :   1.0062 B(  1-C ,  2-F ) :   1.1379 B(  1-C ,  3-C ) :   1.1870
B(  3-C ,  4-F ) :   1.1352 B(  3-C ,  5-C ) :   1.4458 B(  5-C ,  6-C ) :   1.1922
B(  5-C , 66-H ) :   1.0065 B(  6-C ,  7-C ) :   1.2501 B(  6-C , 11-C ) :   1.1932
B(  7-C ,  8-C ) :   1.2263 B(  8-C ,  9-C ) :   1.4417 B(  8-C , 67-H ) :   0.9891
B(  9-C , 10-C ) :   1.2184 B(  9-C , 15-C ) :   0.9990 B( 10-C , 11-C ) :   1.4740
B( 10-C , 12-C ) :   0.9446 B( 11-C , 68-H ) :   1.0156 B( 12-C , 13-O ) :   2.2343
B( 12-C , 14-C ) :   0.9215 B( 14-C , 15-C ) :   1.0402 B( 14-C , 21-C ) :   1.7306
B( 15-C , 16-C ) :   1.6644 B( 16-C , 17-C ) :   1.1388 B( 16-C , 19-C ) :   1.1389
B( 17-C , 18-N ) :   2.9835 B( 19-C , 20-N ) :   2.9672 B( 21-C , 22-C ) :   1.0253
B( 21-C , 69-H ) :   0.9434 B( 22-C , 23-C ) :   1.2902 B( 22-C , 28-C ) :   1.3210
B( 23-C , 24-C ) :   1.3851 B( 23-C , 70-H ) :   0.9998 B( 24-C , 25-F ) :   1.0991
B( 24-C , 26-C ) :   1.3095 B( 26-C , 27-C ) :   1.2771 B( 26-C , 30-C ) :   1.0736
B( 27-C , 28-C ) :   1.3922 B( 27-C , 71-H ) :   0.9901 B( 28-C , 29-F ) :   1.1227
B( 30-C , 31-C ) :   1.5239 B( 30-C , 33-C ) :   0.1065 B( 30-C , 34-S ) :   1.1268
B( 31-C , 32-C ) :   1.2427 B( 31-C , 72-H ) :   0.9967 B( 32-C , 33-C ) :   1.5223
B( 32-C , 73-H ) :   0.9971 B( 33-C , 34-S ) :   1.1251 B( 33-C , 35-C ) :   1.0762
B( 35-C , 36-C ) :   1.2903 B( 35-C , 41-C ) :   1.2977 B( 36-C , 37-C ) :   1.3968
B( 36-C , 74-H ) :   0.9857 B( 37-C , 38-F ) :   1.1032 B( 37-C , 39-C ) :   1.3020
B( 39-C , 40-C ) :   1.2789 B( 39-C , 43-C ) :   1.0343 B( 40-C , 41-C ) :   1.3914
B( 40-C , 75-H ) :   0.9987 B( 41-C , 42-F ) :   1.1037 B( 43-C , 44-C ) :   1.7417
B( 43-C , 76-H ) :   0.9381 B( 44-C , 45-C ) :   0.9274 B( 44-C , 59-C ) :   1.0104
B( 45-C , 46-O ) :   2.2741 B( 45-C , 47-C ) :   0.9215 B( 47-C , 48-C ) :   1.4680
B( 47-C , 58-C ) :   1.2183 B( 48-C , 49-C ) :   1.1969 B( 48-C , 77-H ) :   1.0175
B( 49-C , 50-C ) :   1.2541 B( 49-C , 54-C ) :   1.1900 B( 50-C , 51-C ) :   1.1864
B( 50-C , 57-C ) :   1.2183 B( 51-C , 52-C ) :   1.4434 B( 51-C , 54-C ) :   0.1087
B( 51-C , 78-H ) :   1.0081 B( 52-C , 53-C ) :   1.1883 B( 52-C , 56-F ) :   1.1365
B( 53-C , 54-C ) :   1.4444 B( 53-C , 55-F ) :   1.1348 B( 54-C , 79-H ) :   1.0082
B( 57-C , 58-C ) :   1.4506 B( 57-C , 80-H ) :   0.9940 B( 58-C , 59-C ) :   1.0046
B( 59-C , 60-C ) :   1.6768 B( 60-C , 61-C ) :   1.1671 B( 60-C , 63-C ) :   1.1290
B( 61-C , 62-N ) :   3.0092 B( 63-C , 64-N ) :   2.9878

-----------------------------------------------------------------------------
         ABSORPTION SPECTRUM VIA TRANSITION ELECTRIC DIPOLE MOMENTS
-----------------------------------------------------------------------------
State   Energy  Wavelength   fosc         T2         TX        TY        TZ
        (cm-1)    (nm)                  (au**2)     (au)      (au)      (au)
-----------------------------------------------------------------------------
   0   21504.7    465.0   1.280690704  19.60585   0.21155   4.32544  -0.92287
   1   23638.7    423.0   0.141430980   1.96968  -0.23706  -0.15458   1.37462
   2   27764.4    360.2   0.087169303   1.03359   0.32292   0.96081   0.07843
   3   27969.3    357.5   0.052012371   0.61221  -0.04779   0.30335  -0.71966
   4   28081.3    356.1   0.078146930   0.91616   0.92944  -0.10527   0.20303
   5   29195.2    342.5   0.012413758   0.13998  -0.13051  -0.31252   0.15899
   6   29374.4    340.4   0.051195685   0.57377   0.36482  -0.66382   0.00497
   7   29942.5    334.0   0.140367056   1.54331   0.98702   0.71904  -0.22821
   8   30282.5    330.2   0.008216788   0.08933  -0.13097   0.10997   0.24512
   9   31020.0    322.4   0.116529301   1.23671  -0.21829   0.87782  -0.64691
  10   31275.4    319.7   0.057229413   0.60241   0.19899  -0.69427   0.28426
  11   31590.0    316.6   0.337056148   3.51260   0.83935  -1.53749   0.66650
  12   33491.9    298.6   0.095689847   0.94059   0.39900  -0.54241  -0.69798
  13   34038.4    293.8   0.177379206   1.71557  -0.96298  -0.88092  -0.11052
  14   34290.8    291.6   0.214632875   2.06060   0.63240   0.58555  -1.14796
  15   34657.5    288.5   0.883103259   8.38860   2.03933  -1.17264   1.68957
  16   34904.4    286.5   0.231700495   2.18536  -1.17957   0.68157   0.57396
  17   35015.1    285.6   0.786698167   7.39653  -1.89553  -1.89016   0.48042
  18   35438.2    282.2   0.374965083   3.48334   0.72724  -0.63423   1.59757
  19   36546.8    273.6   0.047980110   0.43220   0.26883   0.03635   0.59884
  20   37130.5    269.3   0.012126882   0.10752   0.24343   0.01051  -0.21944
  21   38013.3    263.1   0.024995033   0.21647  -0.31872   0.17162   0.29229
  22   38411.4    260.3   0.017607464   0.15091   0.28176  -0.25236  -0.08852
  23   38510.4    259.7   0.019139475   0.16362  -0.31980   0.21845   0.11674
  24   38807.0    257.7   0.065446524   0.55520   0.63362  -0.39164  -0.01882
  25   38964.6    256.6   0.011189429   0.09454   0.25120   0.12056   0.13001
  26   39147.6    255.4   0.014747618   0.12402   0.20847  -0.25736  -0.11969
  27   39360.9    254.1   0.081094441   0.67827  -0.32654  -0.74651   0.11987
  28   39812.0    251.2   0.123443761   1.02078  -0.56398   0.83826   0.00386

FINAL SINGLE POINT ENERGY     -3477.434600325433

DIPOLE MOMENT
-------------
                                X             Y             Z
Electronic contribution:      4.81302       3.47607      11.24285
Nuclear contribution   :     -2.37548      -4.28052     -11.59831
                        -----------------------------------------
Total Dipole Moment    :      2.43754      -0.80446      -0.35545
                        -----------------------------------------
Magnitude (a.u.)       :      2.59135
Magnitude (Debye)      :      6.58668

Rotational constants in cm-1:     0.001906     0.000272     0.000263
Rotational constants in MHz :    57.128637     8.164551     7.899497

                             ****ORCA TERMINATED NORMALLY****
TOTAL RUN TIME: 0 days 0 hours 6 minutes 47 seconds 324 msec
