                         Program Version 4.2.0 -  RELEASE  -
|  1> # ORCA input file
|  2> # SCF done       -162.975115078850          0.000636245662
|  3> ! CAM-B3LYP def2-SVP def2/J RIJCOSX Grid4 TightSCF
|  4> %maxcore 5000
|  5> %tddft
|  6>     Mode sTDDFT
|  7>     Ethresh 5.0
|  8>     maxcore 5000
|  9> end
| 10>
| 11> %pal
| 12>   nprocs 6
| 13>   end
| 14> * xyz 0 1
| 15>    C        9.20799         2.43209        -1.68304
| 16>    C        9.21347         2.88928        -0.40046
| 17>    C        8.13515         3.76359        -0.16462
| 18>    C        7.33388         3.94341        -1.29768
| 19>    S        7.89795         3.04836        -2.63631
| 20>    C        6.27296         4.83900        -0.97320
| 21>    C        6.41550         5.21658         0.36992
| 22>    C        7.58929         4.55443         0.92339
| 23>    C        8.07091         4.66156         2.19583
| 24>    C        7.44519         5.47027         3.16699
| 25>    N        6.93874         6.13045         3.95654
| 26>    C        9.22598         3.97568         2.62493
| 27>    N       10.16595         3.42228         2.97880
| 28>    C        5.42108         6.10010         0.79013
| 29>    C        4.52768         6.39358        -0.22381
| 30>    S        4.92168         5.56482        -1.71927
| 31>    C        3.38652         7.25515        -0.17361
| 32>    C        2.96921         7.94337         0.95246
| 33>    C        1.85368         8.79019         0.95674
| 34>    C        1.07221         9.04014        -0.15544
| 35>    C        1.42665         8.31371        -1.32280
| 36>    C        2.57332         7.43941        -1.32330
| 37>    N        2.63944         6.87475        -2.51040
| 38>    O        1.60235         7.34325        -3.20355
| 39>    N        0.85805         8.20024        -2.50641
| 40>    C       -0.05129         9.93767        -0.11813
| 41>    S       -1.03978        10.00273         1.30656
| 42>    C       -2.10178        11.17146         0.57424
| 43>    C       -1.67404        11.49411        -0.70493
| 44>    C       -0.50269        10.81266        -1.08561
| 45>    C        0.24568        11.09505        -2.35900
| 46>    N        1.67710        11.09969        -2.08255
| 47>    C       -0.26726        12.40518        -2.97688
| 48>    C       -1.78763        12.40210        -3.01998
| 49>    C       -2.36838        12.48766        -1.59959
| 50>    N       -3.81355        12.29148        -1.55939
| 51>    C       -3.23446        11.67774         1.26363
| 52>    C       -3.52062        11.39846         2.55552
| 53>    C       -4.66760        11.85978         3.27307
| 54>    C       -5.74045        12.55790         2.73804
| 55>    C       -6.84725        12.95528         3.49164
| 56>    C       -6.99025        12.70074         4.84731
| 57>    C       -5.90995        11.99686         5.44770
| 58>    C       -4.77250        11.58178         4.66461
| 59>    N       -3.94725        10.95529         5.47876
| 60>    O       -4.51847        10.97395         6.67862
| 61>    N       -5.69784        11.59283         6.68478
| 62>    C       -8.13365        13.09272         5.60810
| 63>    C       -8.35020        12.90294         6.95971
| 64>    C       -9.58840        13.40458         7.36569
| 65>    C      -10.31868        13.97633         6.31498
| 66>    S       -9.48567        13.90552         4.82938
| 67>    C      -11.56053        14.44631         6.82836
| 68>    C      -11.60945        14.17120         8.19943
| 69>    C      -10.37513        13.51256         8.58889
| 70>    C      -10.02415        13.08879         9.83662
| 71>    C      -10.87634        13.25277        10.94907
| 72>    N      -11.56525        13.38248        11.85679
| 73>    C       -8.78993        12.46248        10.11306
| 74>    N       -7.79407        11.95264        10.36290
| 75>    C      -12.81279        14.60170         8.79085
| 76>    C      -13.63529        15.18332         7.87499
| 77>    S      -12.97514        15.22429         6.27277
| 78>    H        9.90223         1.75767        -2.14290
| 79>    H        9.95109         2.61102         0.32986
| 80>    H        5.35008         6.50878         1.78096
| 81>    H        3.52368         7.83683         1.87137
| 82>    H        1.60511         9.29491         1.87906
| 83>    H        0.06618        10.27018        -3.06028
| 84>    H        1.90881        11.85670        -1.44685
| 85>    H        2.19627        11.24373        -2.94158
| 86>    H        0.14278        12.51647        -3.98318
| 87>    H        0.07851        13.25077        -2.37395
| 88>    H       -2.13254        11.47839        -3.49365
| 89>    H       -2.15505        13.24504        -3.61062
| 90>    H       -2.18305        13.49773        -1.20293
| 91>    H       -4.04312        11.35138        -1.86654
| 92>    H       -4.26539        12.94294        -2.19266
| 93>    H       -3.87354        12.31240         0.66721
| 94>    H       -2.84102        10.78054         3.12893
| 95>    H       -5.73510        12.79843         1.68641
| 96>    H       -7.64144        13.48720         2.98640
| 97>    H       -7.62668        12.42033         7.59119
| 98>    H      -13.06123        14.49125         9.83047
| 99>    H      -14.60893        15.60049         8.03686
|100> *
|101>
|102>                          ****END OF INPUT****

CARTESIAN COORDINATES (ANGSTROEM)
---------------------------------
  C      9.207990    2.432090   -1.683040
  C      9.213470    2.889280   -0.400460
  C      8.135150    3.763590   -0.164620
  C      7.333880    3.943410   -1.297680
  S      7.897950    3.048360   -2.636310
  C      6.272960    4.839000   -0.973200
  C      6.415500    5.216580    0.369920
  C      7.589290    4.554430    0.923390
  C      8.070910    4.661560    2.195830
  C      7.445190    5.470270    3.166990
  N      6.938740    6.130450    3.956540
  C      9.225980    3.975680    2.624930
  N     10.165950    3.422280    2.978800
  C      5.421080    6.100100    0.790130
  C      4.527680    6.393580   -0.223810
  S      4.921680    5.564820   -1.719270
  C      3.386520    7.255150   -0.173610
  C      2.969210    7.943370    0.952460
  C      1.853680    8.790190    0.956740
  C      1.072210    9.040140   -0.155440
  C      1.426650    8.313710   -1.322800
  C      2.573320    7.439410   -1.323300
  N      2.639440    6.874750   -2.510400
  O      1.602350    7.343250   -3.203550
  N      0.858050    8.200240   -2.506410
  C     -0.051290    9.937670   -0.118130
  S     -1.039780   10.002730    1.306560
  C     -2.101780   11.171460    0.574240
  C     -1.674040   11.494110   -0.704930
  C     -0.502690   10.812660   -1.085610
  C      0.245680   11.095050   -2.359000
  N      1.677100   11.099690   -2.082550
  C     -0.267260   12.405180   -2.976880
  C     -1.787630   12.402100   -3.019980
  C     -2.368380   12.487660   -1.599590
  N     -3.813550   12.291480   -1.559390
  C     -3.234460   11.677740    1.263630
  C     -3.520620   11.398460    2.555520
  C     -4.667600   11.859780    3.273070
  C     -5.740450   12.557900    2.738040
  C     -6.847250   12.955280    3.491640
  C     -6.990250   12.700740    4.847310
  C     -5.909950   11.996860    5.447700
  C     -4.772500   11.581780    4.664610
  N     -3.947250   10.955290    5.478760
  O     -4.518470   10.973950    6.678620
  N     -5.697840   11.592830    6.684780
  C     -8.133650   13.092720    5.608100
  C     -8.350200   12.902940    6.959710
  C     -9.588400   13.404580    7.365690
  C    -10.318680   13.976330    6.314980
  S     -9.485670   13.905520    4.829380
  C    -11.560530   14.446310    6.828360
  C    -11.609450   14.171200    8.199430
  C    -10.375130   13.512560    8.588890
  C    -10.024150   13.088790    9.836620
  C    -10.876340   13.252770   10.949070
  N    -11.565250   13.382480   11.856790
  C     -8.789930   12.462480   10.113060
  N     -7.794070   11.952640   10.362900
  C    -12.812790   14.601700    8.790850
  C    -13.635290   15.183320    7.874990
  S    -12.975140   15.224290    6.272770
  H      9.902230    1.757670   -2.142900
  H      9.951090    2.611020    0.329860
  H      5.350080    6.508780    1.780960
  H      3.523680    7.836830    1.871370
  H      1.605110    9.294910    1.879060
  H      0.066180   10.270180   -3.060280
  H      1.908810   11.856700   -1.446850
  H      2.196270   11.243730   -2.941580
  H      0.142780   12.516470   -3.983180
  H      0.078510   13.250770   -2.373950
  H     -2.132540   11.478390   -3.493650
  H     -2.155050   13.245040   -3.610620
  H     -2.183050   13.497730   -1.202930
  H     -4.043120   11.351380   -1.866540
  H     -4.265390   12.942940   -2.192660
  H     -3.873540   12.312400    0.667210
  H     -2.841020   10.780540    3.128930
  H     -5.735100   12.798430    1.686410
  H     -7.641440   13.487200    2.986400
  H     -7.626680   12.420330    7.591190
  H    -13.061230   14.491250    9.830470
  H    -14.608930   15.600490    8.036860

 Total Charge           Charge          ....    0
 Multiplicity           Mult            ....    1
 Number of Electrons    NEL             ....  464
 Basis Dimension        Dim             .... 1012

ORBITAL ENERGIES
----------------

  NO   OCC          E(Eh)            E(eV)
   0   2.0000     -88.982241     -2421.3299
   1   2.0000     -88.981977     -2421.3227
   2   2.0000     -88.981877     -2421.3200
   3   2.0000     -88.979752     -2421.2621
   4   2.0000     -88.955551     -2420.6036
   5   2.0000     -19.354360      -526.6589
   6   2.0000     -19.349989      -526.5400
   7   2.0000     -14.480765      -394.0416
   8   2.0000     -14.478039      -393.9675
   9   2.0000     -14.475153      -393.8889
  10   2.0000     -14.474729      -393.8774
  11   2.0000     -14.424300      -392.5052
  12   2.0000     -14.423161      -392.4742
  13   2.0000     -14.422150      -392.4467
  14   2.0000     -14.418920      -392.3588
  15   2.0000     -14.399271      -391.8241
  16   2.0000     -14.389957      -391.5706
  17   2.0000     -10.356152      -281.8052
  18   2.0000     -10.355522      -281.7881
  19   2.0000     -10.344942      -281.5002
  20   2.0000     -10.342602      -281.4365
  21   2.0000     -10.325212      -280.9633
  22   2.0000     -10.324763      -280.9511
  23   2.0000     -10.324463      -280.9429
  24   2.0000     -10.323906      -280.9278
  25   2.0000     -10.323891      -280.9274
  26   2.0000     -10.323445      -280.9152
  27   2.0000     -10.323384      -280.9136
  28   2.0000     -10.322606      -280.8924
  29   2.0000     -10.321746      -280.8690
  30   2.0000     -10.320154      -280.8257
  31   2.0000     -10.318664      -280.7851
  32   2.0000     -10.318624      -280.7840
  33   2.0000     -10.317476      -280.7528
  34   2.0000     -10.315956      -280.7114
  35   2.0000     -10.312009      -280.6040
  36   2.0000     -10.309285      -280.5299
  37   2.0000     -10.309009      -280.5224
  38   2.0000     -10.307966      -280.4940
  39   2.0000     -10.306814      -280.4627
  40   2.0000     -10.306488      -280.4538
  41   2.0000     -10.304143      -280.3900
  42   2.0000     -10.300678      -280.2957
  43   2.0000     -10.300403      -280.2882
  44   2.0000     -10.297708      -280.2149
  45   2.0000     -10.296066      -280.1702
  46   2.0000     -10.295649      -280.1589
  47   2.0000     -10.294920      -280.1390
  48   2.0000     -10.293505      -280.1005
  49   2.0000     -10.293492      -280.1002
  50   2.0000     -10.293398      -280.0976
  51   2.0000     -10.293325      -280.0956
  52   2.0000     -10.293064      -280.0885
  53   2.0000     -10.292248      -280.0663
  54   2.0000     -10.292120      -280.0628
  55   2.0000     -10.289422      -279.9894
  56   2.0000     -10.288160      -279.9551
  57   2.0000     -10.280475      -279.7459
  58   2.0000     -10.278997      -279.7057
  59   2.0000     -10.278684      -279.6972
  60   2.0000     -10.276193      -279.6294
  61   2.0000     -10.270255      -279.4678
  62   2.0000     -10.267944      -279.4050
  63   2.0000      -8.077325      -219.7952
  64   2.0000      -8.076946      -219.7849
  65   2.0000      -8.076595      -219.7753
  66   2.0000      -8.073530      -219.6919
  67   2.0000      -8.050962      -219.0778
  68   2.0000      -6.046587      -164.5360
  69   2.0000      -6.046176      -164.5248
  70   2.0000      -6.045823      -164.5152
  71   2.0000      -6.042800      -164.4330
  72   2.0000      -6.042150      -164.4153
  73   2.0000      -6.041749      -164.4044
  74   2.0000      -6.041699      -164.4030
  75   2.0000      -6.039899      -164.3540
  76   2.0000      -6.039563      -164.3449
  77   2.0000      -6.038988      -164.3292
  78   2.0000      -6.038349      -164.3118
  79   2.0000      -6.036070      -164.2498
  80   2.0000      -6.020067      -163.8144
  81   2.0000      -6.016144      -163.7076
  82   2.0000      -6.013230      -163.6283
  83   2.0000      -1.306978       -35.5647
  84   2.0000      -1.303398       -35.4673
  85   2.0000      -1.036180       -28.1959
  86   2.0000      -1.035659       -28.1817
  87   2.0000      -1.016619       -27.6636
  88   2.0000      -1.014178       -27.5972
  89   2.0000      -1.012964       -27.5641
  90   2.0000      -1.010867       -27.5071
  91   2.0000      -1.007671       -27.4201
  92   2.0000      -1.001516       -27.2526
  93   2.0000      -1.000131       -27.2150
  94   2.0000      -0.998706       -27.1762
  95   2.0000      -0.997629       -27.1469
  96   2.0000      -0.984073       -26.7780
  97   2.0000      -0.983175       -26.7535
  98   2.0000      -0.978109       -26.6157
  99   2.0000      -0.967861       -26.3368
 100   2.0000      -0.949237       -25.8300
 101   2.0000      -0.948580       -25.8122
 102   2.0000      -0.920772       -25.0555
 103   2.0000      -0.917938       -24.9784
 104   2.0000      -0.912550       -24.8318
 105   2.0000      -0.906367       -24.6635
 106   2.0000      -0.893032       -24.3006
 107   2.0000      -0.887998       -24.1636
 108   2.0000      -0.878984       -23.9184
 109   2.0000      -0.862037       -23.4572
 110   2.0000      -0.856195       -23.2983
 111   2.0000      -0.850047       -23.1309
 112   2.0000      -0.845044       -22.9948
 113   2.0000      -0.844557       -22.9816
 114   2.0000      -0.828269       -22.5383
 115   2.0000      -0.818946       -22.2846
 116   2.0000      -0.795225       -21.6392
 117   2.0000      -0.790162       -21.5014
 118   2.0000      -0.774619       -21.0785
 119   2.0000      -0.770243       -20.9594
 120   2.0000      -0.767096       -20.8737
 121   2.0000      -0.765187       -20.8218
 122   2.0000      -0.757327       -20.6079
 123   2.0000      -0.745941       -20.2981
 124   2.0000      -0.743028       -20.2188
 125   2.0000      -0.728751       -19.8303
 126   2.0000      -0.715443       -19.4682
 127   2.0000      -0.707096       -19.2411
 128   2.0000      -0.697346       -18.9757
 129   2.0000      -0.696220       -18.9451
 130   2.0000      -0.692704       -18.8494
 131   2.0000      -0.685369       -18.6498
 132   2.0000      -0.672556       -18.3012
 133   2.0000      -0.669881       -18.2284
 134   2.0000      -0.662828       -18.0365
 135   2.0000      -0.651669       -17.7328
 136   2.0000      -0.646374       -17.5887
 137   2.0000      -0.635366       -17.2892
 138   2.0000      -0.630364       -17.1531
 139   2.0000      -0.629322       -17.1247
 140   2.0000      -0.627045       -17.0628
 141   2.0000      -0.616981       -16.7889
 142   2.0000      -0.615769       -16.7559
 143   2.0000      -0.608528       -16.5589
 144   2.0000      -0.606697       -16.5091
 145   2.0000      -0.605673       -16.4812
 146   2.0000      -0.604331       -16.4447
 147   2.0000      -0.601366       -16.3640
 148   2.0000      -0.600788       -16.3483
 149   2.0000      -0.596087       -16.2203
 150   2.0000      -0.585760       -15.9394
 151   2.0000      -0.575843       -15.6695
 152   2.0000      -0.572110       -15.5679
 153   2.0000      -0.566375       -15.4119
 154   2.0000      -0.564378       -15.3575
 155   2.0000      -0.548526       -14.9261
 156   2.0000      -0.541900       -14.7459
 157   2.0000      -0.539982       -14.6936
 158   2.0000      -0.538510       -14.6536
 159   2.0000      -0.537833       -14.6352
 160   2.0000      -0.536166       -14.5898
 161   2.0000      -0.526941       -14.3388
 162   2.0000      -0.525700       -14.3050
 163   2.0000      -0.520030       -14.1507
 164   2.0000      -0.512908       -13.9569
 165   2.0000      -0.510266       -13.8850
 166   2.0000      -0.505362       -13.7516
 167   2.0000      -0.501949       -13.6587
 168   2.0000      -0.499690       -13.5972
 169   2.0000      -0.497854       -13.5473
 170   2.0000      -0.495065       -13.4714
 171   2.0000      -0.493397       -13.4260
 172   2.0000      -0.489359       -13.3161
 173   2.0000      -0.487367       -13.2619
 174   2.0000      -0.486966       -13.2510
 175   2.0000      -0.485949       -13.2234
 176   2.0000      -0.483322       -13.1519
 177   2.0000      -0.481764       -13.1095
 178   2.0000      -0.479912       -13.0591
 179   2.0000      -0.476327       -12.9615
 180   2.0000      -0.474158       -12.9025
 181   2.0000      -0.466969       -12.7069
 182   2.0000      -0.465676       -12.6717
 183   2.0000      -0.463120       -12.6021
 184   2.0000      -0.461619       -12.5613
 185   2.0000      -0.460716       -12.5367
 186   2.0000      -0.459613       -12.5067
 187   2.0000      -0.455770       -12.4021
 188   2.0000      -0.452545       -12.3144
 189   2.0000      -0.451933       -12.2977
 190   2.0000      -0.451379       -12.2827
 191   2.0000      -0.448099       -12.1934
 192   2.0000      -0.447269       -12.1708
 193   2.0000      -0.442432       -12.0392
 194   2.0000      -0.441207       -12.0058
 195   2.0000      -0.440032       -11.9739
 196   2.0000      -0.436975       -11.8907
 197   2.0000      -0.434426       -11.8213
 198   2.0000      -0.432241       -11.7619
 199   2.0000      -0.431849       -11.7512
 200   2.0000      -0.430835       -11.7236
 201   2.0000      -0.429660       -11.6916
 202   2.0000      -0.429318       -11.6823
 203   2.0000      -0.421721       -11.4756
 204   2.0000      -0.420947       -11.4546
 205   2.0000      -0.419971       -11.4280
 206   2.0000      -0.416294       -11.3279
 207   2.0000      -0.413408       -11.2494
 208   2.0000      -0.404119       -10.9966
 209   2.0000      -0.402032       -10.9399
 210   2.0000      -0.400214       -10.8904
 211   2.0000      -0.398505       -10.8439
 212   2.0000      -0.397304       -10.8112
 213   2.0000      -0.387511       -10.5447
 214   2.0000      -0.384582       -10.4650
 215   2.0000      -0.377118       -10.2619
 216   2.0000      -0.372655       -10.1405
 217   2.0000      -0.367245        -9.9932
 218   2.0000      -0.361240        -9.8298
 219   2.0000      -0.358556        -9.7568
 220   2.0000      -0.339804        -9.2465
 221   2.0000      -0.339331        -9.2337
 222   2.0000      -0.332115        -9.0373
 223   2.0000      -0.326750        -8.8913
 224   2.0000      -0.315240        -8.5781
 225   2.0000      -0.313800        -8.5389
 226   2.0000      -0.313396        -8.5279
 227   2.0000      -0.310672        -8.4538
 228   2.0000      -0.304965        -8.2985
 229   2.0000      -0.281088        -7.6488
 230   2.0000      -0.256260        -6.9732
 231   2.0000      -0.234878        -6.3914
 232   0.0000      -0.097879        -2.6634
 233   0.0000      -0.095449        -2.5973
 234   0.0000      -0.078209        -2.1282
 235   0.0000      -0.063373        -1.7245
 236   0.0000      -0.013182        -0.3587

MULLIKEN ATOMIC CHARGES
-----------------------
   0 C :   -0.081774
   1 C :    0.034652
   2 C :   -0.031870
   3 C :   -0.118131
   4 S :    0.181342
   5 C :   -0.086639
   6 C :    0.014696
   7 C :    0.301360
   8 C :   -0.301249
   9 C :   -0.185108
  10 N :    0.162931
  11 C :   -0.193489
  12 N :    0.173083
  13 C :   -0.050986
  14 C :   -0.102288
  15 S :    0.210226
  16 C :    0.164999
  17 C :   -0.063369
  18 C :   -0.027231
  19 C :    0.079525
  20 C :    0.025667
  21 C :   -0.092387
  22 N :    0.007497
  23 O :   -0.098504
  24 N :    0.045920
  25 C :   -0.176703
  26 S :    0.132291
  27 C :   -0.108233
  28 C :   -0.057976
  29 C :    0.001353
  30 C :    0.053518
  31 N :   -0.181992
  32 C :    0.075940
  33 C :    0.060351
  34 C :    0.075544
  35 N :   -0.182809
  36 C :    0.021003
  37 C :   -0.040304
  38 C :    0.089552
  39 C :   -0.047856
  40 C :   -0.060597
  41 C :    0.143131
  42 C :   -0.038468
  43 C :   -0.040615
  44 N :    0.052754
  45 O :   -0.090846
  46 N :    0.043188
  47 C :   -0.118097
  48 C :   -0.061180
  49 C :    0.023754
  50 C :   -0.090227
  51 S :    0.155644
  52 C :   -0.118093
  53 C :   -0.030307
  54 C :    0.302324
  55 C :   -0.304168
  56 C :   -0.190987
  57 N :    0.169724
  58 C :   -0.192909
  59 N :    0.188318
  60 C :    0.035854
  61 C :   -0.080848
  62 S :    0.175096
  63 H :    0.034660
  64 H :    0.011340
  65 H :    0.002026
  66 H :   -0.008806
  67 H :   -0.010034
  68 H :    0.026406
  69 H :    0.090428
  70 H :    0.092223
  71 H :   -0.008438
  72 H :   -0.015341
  73 H :   -0.007327
  74 H :   -0.007769
  75 H :    0.004145
  76 H :    0.097721
  77 H :    0.093916
  78 H :    0.006139
  79 H :    0.000033
  80 H :   -0.015310
  81 H :   -0.012847
  82 H :    0.026536
  83 H :    0.011595
  84 H :    0.033706
Sum of atomic charges:   -0.0000000

LOEWDIN ATOMIC CHARGES
----------------------
   0 C :   -0.179174
   1 C :   -0.034984
   2 C :   -0.077706
   3 C :   -0.182059
   4 S :    0.477280
   5 C :   -0.184776
   6 C :   -0.073963
   7 C :    0.085182
   8 C :   -0.108965
   9 C :   -0.015155
  10 N :   -0.040469
  11 C :   -0.017382
  12 N :   -0.036562
  13 C :   -0.023263
  14 C :   -0.167285
  15 S :    0.515058
  16 C :   -0.042090
  17 C :   -0.003796
  18 C :   -0.011226
  19 C :   -0.032672
  20 C :   -0.032558
  21 C :   -0.054318
  22 N :   -0.048651
  23 O :    0.070928
  24 N :   -0.014916
  25 C :   -0.163920
  26 S :    0.451191
  27 C :   -0.165017
  28 C :   -0.058212
  29 C :   -0.053921
  30 C :    0.009606
  31 N :   -0.090029
  32 C :   -0.040105
  33 C :   -0.041219
  34 C :    0.019023
  35 N :   -0.087443
  36 C :   -0.016026
  37 C :   -0.036716
  38 C :   -0.022087
  39 C :   -0.011826
  40 C :   -0.019139
  41 C :   -0.047151
  42 C :   -0.045925
  43 C :   -0.050120
  44 N :   -0.021346
  45 O :    0.079738
  46 N :   -0.023729
  47 C :   -0.163307
  48 C :   -0.020295
  49 C :   -0.071705
  50 C :   -0.177920
  51 S :    0.466772
  52 C :   -0.185421
  53 C :   -0.074892
  54 C :    0.081327
  55 C :   -0.100918
  56 C :   -0.015451
  57 N :   -0.036435
  58 C :   -0.021440
  59 N :   -0.023297
  60 C :   -0.034815
  61 C :   -0.178661
  62 S :    0.472003
  63 H :    0.026895
  64 H :    0.042217
  65 H :    0.037647
  66 H :    0.037317
  67 H :    0.031587
  68 H :    0.026276
  69 H :    0.053079
  70 H :    0.055100
  71 H :    0.021385
  72 H :    0.016162
  73 H :    0.020379
  74 H :    0.020361
  75 H :    0.027722
  76 H :    0.056832
  77 H :    0.055205
  78 H :    0.028974
  79 H :    0.025103
  80 H :    0.034788
  81 H :    0.024672
  82 H :    0.041556
  83 H :    0.042323
  84 H :    0.026769

  Mayer bond orders larger than 0.100000
B(  0-C ,  1-C ) :   1.5497 B(  0-C ,  4-S ) :   1.1488 B(  0-C , 63-H ) :   0.9644
B(  1-C ,  2-C ) :   1.2755 B(  1-C , 64-H ) :   0.9959 B(  2-C ,  3-C ) :   1.4590
B(  2-C ,  7-C ) :   1.0157 B(  3-C ,  4-S ) :   1.1382 B(  3-C ,  5-C ) :   1.1762
B(  5-C ,  6-C ) :   1.4430 B(  5-C , 15-S ) :   1.1129 B(  6-C ,  7-C ) :   0.9950
B(  6-C , 13-C ) :   1.2976 B(  7-C ,  8-C ) :   1.7040 B(  8-C ,  9-C ) :   1.1346
B(  8-C , 11-C ) :   1.1303 B(  9-C , 10-N ) :   2.9870 B( 11-C , 12-N ) :   3.0037
B( 13-C , 14-C ) :   1.4623 B( 13-C , 65-H ) :   0.9877 B( 14-C , 15-S ) :   1.1147
B( 14-C , 16-C ) :   1.0994 B( 16-C , 17-C ) :   1.4876 B( 16-C , 19-C ) :   0.1034
B( 16-C , 21-C ) :   1.1252 B( 17-C , 18-C ) :   1.2012 B( 17-C , 66-H ) :   0.9947
B( 18-C , 19-C ) :   1.5070 B( 18-C , 67-H ) :   0.9886 B( 19-C , 20-C ) :   1.1717
B( 19-C , 25-C ) :   1.0321 B( 20-C , 21-C ) :   1.1534 B( 20-C , 24-N ) :   1.5923
B( 21-C , 22-N ) :   1.5789 B( 22-N , 23-O ) :   1.0630 B( 22-N , 24-N ) :   0.1807
B( 23-O , 24-N ) :   1.0628 B( 25-C , 26-S ) :   1.1397 B( 25-C , 27-C ) :   0.1087
B( 25-C , 29-C ) :   1.5544 B( 26-S , 27-C ) :   1.1069 B( 27-C , 28-C ) :   1.4863
B( 27-C , 36-C ) :   1.1718 B( 28-C , 29-C ) :   1.3108 B( 28-C , 34-C ) :   0.9870
B( 29-C , 30-C ) :   0.9993 B( 30-C , 31-N ) :   1.0927 B( 30-C , 32-C ) :   1.0644
B( 30-C , 68-H ) :   0.8581 B( 31-N , 69-H ) :   0.9642 B( 31-N , 70-H ) :   0.9688
B( 32-C , 33-C ) :   1.0578 B( 32-C , 71-H ) :   0.9233 B( 32-C , 72-H ) :   0.9238
B( 33-C , 34-C ) :   1.0704 B( 33-C , 73-H ) :   0.9262 B( 33-C , 74-H ) :   0.9256
B( 34-C , 35-N ) :   1.0752 B( 34-C , 75-H ) :   0.8804 B( 35-N , 76-H ) :   0.9651
B( 35-N , 77-H ) :   0.9690 B( 35-N , 78-H ) :   0.1023 B( 36-C , 37-C ) :   1.6040
B( 36-C , 78-H ) :   0.9453 B( 37-C , 38-C ) :   1.1345 B( 37-C , 79-H ) :   0.9834
B( 38-C , 39-C ) :   1.4578 B( 38-C , 41-C ) :   0.1130 B( 38-C , 43-C ) :   1.1136
B( 39-C , 40-C ) :   1.2426 B( 39-C , 80-H ) :   0.9884 B( 40-C , 41-C ) :   1.4591
B( 40-C , 81-H ) :   0.9836 B( 41-C , 42-C ) :   1.1544 B( 41-C , 47-C ) :   1.1230
B( 42-C , 43-C ) :   1.1434 B( 42-C , 46-N ) :   1.5942 B( 43-C , 44-N ) :   1.6203
B( 44-N , 45-O ) :   1.0691 B( 44-N , 46-N ) :   0.1824 B( 45-O , 46-N ) :   1.0599
B( 47-C , 48-C ) :   1.4950 B( 47-C , 51-S ) :   1.0877 B( 48-C , 49-C ) :   1.2394
B( 48-C , 82-H ) :   0.9835 B( 49-C , 50-C ) :   1.4596 B( 49-C , 54-C ) :   0.9940
B( 50-C , 51-S ) :   1.1254 B( 50-C , 52-C ) :   1.1797 B( 52-C , 53-C ) :   1.4599
B( 52-C , 62-S ) :   1.1324 B( 53-C , 54-C ) :   1.0121 B( 53-C , 60-C ) :   1.2768
B( 54-C , 55-C ) :   1.7108 B( 55-C , 56-C ) :   1.1315 B( 55-C , 58-C ) :   1.1368
B( 56-C , 57-N ) :   3.0005 B( 58-C , 59-N ) :   2.9952 B( 60-C , 61-C ) :   1.5483
B( 60-C , 83-H ) :   0.9960 B( 61-C , 62-S ) :   1.1492 B( 61-C , 84-H ) :   0.9642

-----------------------------------------------------------------------------
         ABSORPTION SPECTRUM VIA TRANSITION ELECTRIC DIPOLE MOMENTS
-----------------------------------------------------------------------------
State   Energy  Wavelength   fosc         T2         TX        TY        TZ
        (cm-1)    (nm)                  (au**2)     (au)      (au)      (au)
-----------------------------------------------------------------------------
   0   14022.4    713.1   0.334644130   7.85664   2.31758  -1.06150  -1.16562
   1   14542.8    687.6   0.089495014   2.02594  -1.09970   0.89087   0.15150
   2   18334.8    545.4   1.500680806  26.94553  -4.24572   2.11290   2.11070
   3   21748.6    459.8   0.155597255   2.35530  -0.41124  -0.43593   1.41285
   4   22895.9    436.8   0.096380013   1.38582  -0.53462   0.78149  -0.69948
   5   23531.9    425.0   0.023581657   0.32991  -0.48391   0.22346   0.21402
   6   25606.0    390.5   0.047374956   0.60909  -0.50529   0.54524  -0.23766
   7   27630.9    361.9   0.055465935   0.66086  -0.68224   0.38659   0.21437
   8   28474.9    351.2   0.026359644   0.30476  -0.46571   0.29606  -0.01481
   9   28906.5    345.9   0.014861040   0.16925  -0.29398   0.26045  -0.12245
  10   29558.0    338.3   0.030656199   0.34144  -0.31595   0.13799  -0.47178
  11   30891.0    323.7   0.172456584   1.83791   1.22142  -0.40286  -0.42865
  12   31933.0    313.2   0.832101521   8.57852   1.05730  -0.87865   2.58623
  13   32117.8    311.4   0.446965804   4.58146  -0.36898  -0.47249  -2.05477
  14   32478.5    307.9   0.019662357   0.19930   0.31158   0.22354   0.22859
  15   33007.9    303.0   0.280261622   2.79525   1.00800  -0.38180  -1.27806
  16   33433.0    299.1   0.066928149   0.65904  -0.22660  -0.28615  -0.72513
  17   33950.4    294.5   0.024816065   0.24064  -0.38769   0.05953   0.29460
  18   34401.0    290.7   0.175927121   1.68360  -1.11079   0.66671   0.07235
  19   34565.4    289.3   0.010552614   0.10051  -0.27380   0.10533   0.12018
  20   34987.1    285.8   0.000645505   0.00607  -0.00432   0.07473   0.02170
  21   35039.9    285.4   0.083643377   0.78586  -0.70956   0.28503   0.44849
  22   35887.3    278.6   0.101871066   0.93451   0.00831   0.28647  -0.92324
  23   36093.8    277.1   0.071908865   0.65588   0.19355   0.20120  -0.76022
  24   36344.3    275.1   0.049677724   0.44999   0.20390  -0.33113   0.54660
  25   36519.0    273.8   0.178798731   1.61184   1.17454  -0.40056   0.26802
  26   36930.8    270.8   0.032113489   0.28627   0.39937   0.04246   0.35351
  27   37158.2    269.1   0.577288583   5.11462  -1.78436   1.36372   0.26635
  28   37629.8    265.7   0.011851846   0.10369   0.17835  -0.11271  -0.24326
  29   38282.3    261.2   0.003985274   0.03427  -0.10609  -0.07150  -0.13380
  30   38842.1    257.5   0.008430446   0.07145  -0.01645   0.17847  -0.19832
  31   39213.1    255.0   0.016643880   0.13973   0.15275  -0.23996   0.24253
  32   39494.4    253.2   0.001917145   0.01598   0.04956  -0.11517   0.01616
  33   39653.3    252.2   0.007708086   0.06399  -0.21649  -0.00982  -0.13050
  34   39997.3    250.0   0.008899473   0.07325   0.12122  -0.09713   0.22164
  35   40115.0    249.3   0.043188140   0.35443  -0.53237   0.26096  -0.05392

FINAL SINGLE POINT ENERGY     -4451.064869842528

DIPOLE MOMENT
-------------
                                X             Y             Z
Electronic contribution:     -1.35401     -22.49184      34.05662
Nuclear contribution   :      0.14442      24.48346     -39.34163
                        -----------------------------------------
Total Dipole Moment    :     -1.20959       1.99162      -5.28502
                        -----------------------------------------
Magnitude (a.u.)       :      5.77590
Magnitude (Debye)      :     14.68118

Rotational constants in cm-1:     0.002302     0.000259     0.000236
Rotational constants in MHz :    69.007623     7.764429     7.089802

                             ****ORCA TERMINATED NORMALLY****
TOTAL RUN TIME: 0 days 0 hours 7 minutes 14 seconds 65 msec
