                         Program Version 4.2.0 -  RELEASE  -
|  1> # ORCA input file
|  2> # SCF done       -209.414981306515          0.000793627733
|  3> ! CAM-B3LYP def2-SVP def2/J RIJCOSX Grid4 TightSCF
|  4> %maxcore 5000
|  5> %tddft
|  6>     Mode sTDDFT
|  7>     Ethresh 5.0
|  8>     maxcore 5000
|  9> end
| 10>
| 11> %pal
| 12>   nprocs 6
| 13>   end
| 14> * xyz 0 1
| 15>    C      -10.32828         2.30695         1.36456
| 16>    C      -11.63855         2.43443         1.73235
| 17>    F      -12.19548         3.64933         1.83071
| 18>    C      -12.41872         1.29507         2.01133
| 19>    F      -13.70152         1.44885         2.36919
| 20>    C      -11.87762         0.04316         1.91945
| 21>    C      -10.53051        -0.12094         1.54392
| 22>    C       -9.74102         1.03043         1.25926
| 23>    C       -8.38733         0.88956         0.87445
| 24>    C       -7.84350        -0.36329         0.77643
| 25>    C       -8.63685        -1.50728         1.06930
| 26>    C       -9.94436        -1.40313         1.44525
| 27>    C       -7.82000        -2.72821         0.90833
| 28>    O       -8.17061        -3.86518         1.15639
| 29>    C       -6.48159        -2.25881         0.48908
| 30>    C       -6.50893        -0.81530         0.39344
| 31>    C       -5.49565        -0.01459        -0.06963
| 32>    C       -4.25700        -0.48172        -0.55724
| 33>    N       -3.24160        -0.78120        -1.00259
| 34>    C       -5.58005         1.38976        -0.15889
| 35>    N       -5.58931         2.53453        -0.24671
| 36>    C       -5.35107        -3.03379         0.43260
| 37>    C       -5.25573        -4.44404         0.36787
| 38>    C       -4.14051        -5.06154         0.97138
| 39>    C       -3.98161        -6.49806         1.03868
| 40>    N       -2.84706        -6.83465         1.66883
| 41>    S       -2.08664        -5.50420         2.12896
| 42>    N       -3.13265        -4.42555         1.57507
| 43>    C       -4.89137        -7.37545         0.42411
| 44>    C       -5.97917        -6.76661        -0.24758
| 45>    C       -7.00146        -7.41870        -0.91397
| 46>    S       -8.07585        -6.33982        -1.65633
| 47>    C       -7.23542        -4.98084        -1.07517
| 48>    C       -6.15492        -5.32608        -0.29487
| 49>    C       -4.63171        -8.79518         0.36631
| 50>    C       -4.62298        -9.47030        -0.86159
| 51>    C       -4.23582       -10.86147        -0.97002
| 52>    N       -4.24303       -11.27389        -2.24320
| 53>    S       -4.66201       -10.05211        -3.19330
| 54>    N       -4.87198        -8.93968        -2.06791
| 55>    C       -3.92885       -11.65782         0.14506
| 56>    C       -3.87564       -10.96737         1.39116
| 57>    C       -3.46469       -11.45825         2.61535
| 58>    S       -3.58035       -10.29881         3.85684
| 59>    C       -4.16334        -9.11376         2.79545
| 60>    C       -4.23665        -9.56275         1.49126
| 61>    C       -3.71201       -13.06822        -0.00803
| 62>    C       -4.02380       -13.98558         0.97683
| 63>    C       -3.84004       -15.35744         0.87545
| 64>    C       -3.27858       -15.96878        -0.32447
| 65>    C       -2.92896       -15.26162        -1.42587
| 66>    S       -3.09381       -13.56609        -1.56999
| 67>    C       -3.24281       -17.36436        -0.06144
| 68>    C       -3.72304       -17.62140         1.22709
| 69>    C       -3.80952       -19.00980         1.48275
| 70>    C       -3.37584       -19.74295         0.42577
| 71>    S       -2.85612       -18.79539        -0.92647
| 72>    C       -4.08488       -16.36996         1.84383
| 73>    C       -4.60933       -16.13977         3.12716
| 74>    C       -4.50251       -16.95989         4.22383
| 75>    C       -3.56133       -17.98747         4.35593
| 76>    C       -3.45164       -18.89080         5.38759
| 77>    C       -2.17323       -19.58727         5.63482
| 78>    O       -1.20116       -19.61700         4.91320
| 79>    C       -2.32366       -20.21316         6.97466
| 80>    C       -3.62718       -19.97677         7.44847
| 81>    C       -3.99410       -20.40959         8.71097
| 82>    C       -3.06441       -21.09883         9.48824
| 83>    C       -1.77192       -21.34602         8.99814
| 84>    C       -1.39581       -20.89797         7.72670
| 85>    C       -0.81675       -22.07475         9.75153
| 86>    N        0.01282       -22.68078        10.25751
| 87>    C       -3.39066       -21.53963        10.88502
| 88>    O       -2.55602       -21.61474        11.74107
| 89>    O       -4.67171       -21.83969        11.13261
| 90>    C       -4.38541       -19.27665         6.40858
| 91>    C       -5.75827       -19.23168         6.33396
| 92>    C       -6.46350       -18.83264         5.18098
| 93>    N       -7.07570       -18.57274         4.24529
| 94>    C       -6.59667       -19.72690         7.34981
| 95>    N       -7.29245       -20.12894         8.17074
| 96>    H       -9.74506         3.18958         1.15306
| 97>    H      -12.48830        -0.81909         2.13713
| 98>    H       -7.81422         1.77949         0.67039
| 99>    H      -10.52504        -2.28702         1.66162
|100>    H       -4.39319        -2.53660         0.53581
|101>    H       -7.15436        -8.47338        -1.00876
|102>    H       -7.56409        -4.00128        -1.35293
|103>    H       -3.04966       -12.41780         2.84454
|104>    H       -4.40926        -8.14161         3.16721
|105>    H       -4.49837       -13.60091         1.86729
|106>    H       -2.53600       -15.73565        -2.31161
|107>    H       -4.19228       -19.44861         2.38553
|108>    H       -3.32579       -20.81126         0.34773
|109>    H       -5.16991       -15.22159         3.25390
|110>    H       -5.11292       -16.72136         5.08484
|111>    H       -2.73875       -18.00394         3.64967
|112>    H       -4.97087       -20.17506         9.10760
|113>    H       -0.40198       -21.08168         7.34765
|114>    H       -5.25471       -21.76457        10.36411
|115> *
|116>
|117>                          ****END OF INPUT****

CARTESIAN COORDINATES (ANGSTROEM)
---------------------------------
  C    -10.328280    2.306950    1.364560
  C    -11.638550    2.434430    1.732350
  F    -12.195480    3.649330    1.830710
  C    -12.418720    1.295070    2.011330
  F    -13.701520    1.448850    2.369190
  C    -11.877620    0.043160    1.919450
  C    -10.530510   -0.120940    1.543920
  C     -9.741020    1.030430    1.259260
  C     -8.387330    0.889560    0.874450
  C     -7.843500   -0.363290    0.776430
  C     -8.636850   -1.507280    1.069300
  C     -9.944360   -1.403130    1.445250
  C     -7.820000   -2.728210    0.908330
  O     -8.170610   -3.865180    1.156390
  C     -6.481590   -2.258810    0.489080
  C     -6.508930   -0.815300    0.393440
  C     -5.495650   -0.014590   -0.069630
  C     -4.257000   -0.481720   -0.557240
  N     -3.241600   -0.781200   -1.002590
  C     -5.580050    1.389760   -0.158890
  N     -5.589310    2.534530   -0.246710
  C     -5.351070   -3.033790    0.432600
  C     -5.255730   -4.444040    0.367870
  C     -4.140510   -5.061540    0.971380
  C     -3.981610   -6.498060    1.038680
  N     -2.847060   -6.834650    1.668830
  S     -2.086640   -5.504200    2.128960
  N     -3.132650   -4.425550    1.575070
  C     -4.891370   -7.375450    0.424110
  C     -5.979170   -6.766610   -0.247580
  C     -7.001460   -7.418700   -0.913970
  S     -8.075850   -6.339820   -1.656330
  C     -7.235420   -4.980840   -1.075170
  C     -6.154920   -5.326080   -0.294870
  C     -4.631710   -8.795180    0.366310
  C     -4.622980   -9.470300   -0.861590
  C     -4.235820  -10.861470   -0.970020
  N     -4.243030  -11.273890   -2.243200
  S     -4.662010  -10.052110   -3.193300
  N     -4.871980   -8.939680   -2.067910
  C     -3.928850  -11.657820    0.145060
  C     -3.875640  -10.967370    1.391160
  C     -3.464690  -11.458250    2.615350
  S     -3.580350  -10.298810    3.856840
  C     -4.163340   -9.113760    2.795450
  C     -4.236650   -9.562750    1.491260
  C     -3.712010  -13.068220   -0.008030
  C     -4.023800  -13.985580    0.976830
  C     -3.840040  -15.357440    0.875450
  C     -3.278580  -15.968780   -0.324470
  C     -2.928960  -15.261620   -1.425870
  S     -3.093810  -13.566090   -1.569990
  C     -3.242810  -17.364360   -0.061440
  C     -3.723040  -17.621400    1.227090
  C     -3.809520  -19.009800    1.482750
  C     -3.375840  -19.742950    0.425770
  S     -2.856120  -18.795390   -0.926470
  C     -4.084880  -16.369960    1.843830
  C     -4.609330  -16.139770    3.127160
  C     -4.502510  -16.959890    4.223830
  C     -3.561330  -17.987470    4.355930
  C     -3.451640  -18.890800    5.387590
  C     -2.173230  -19.587270    5.634820
  O     -1.201160  -19.617000    4.913200
  C     -2.323660  -20.213160    6.974660
  C     -3.627180  -19.976770    7.448470
  C     -3.994100  -20.409590    8.710970
  C     -3.064410  -21.098830    9.488240
  C     -1.771920  -21.346020    8.998140
  C     -1.395810  -20.897970    7.726700
  C     -0.816750  -22.074750    9.751530
  N      0.012820  -22.680780   10.257510
  C     -3.390660  -21.539630   10.885020
  O     -2.556020  -21.614740   11.741070
  O     -4.671710  -21.839690   11.132610
  C     -4.385410  -19.276650    6.408580
  C     -5.758270  -19.231680    6.333960
  C     -6.463500  -18.832640    5.180980
  N     -7.075700  -18.572740    4.245290
  C     -6.596670  -19.726900    7.349810
  N     -7.292450  -20.128940    8.170740
  H     -9.745060    3.189580    1.153060
  H    -12.488300   -0.819090    2.137130
  H     -7.814220    1.779490    0.670390
  H    -10.525040   -2.287020    1.661620
  H     -4.393190   -2.536600    0.535810
  H     -7.154360   -8.473380   -1.008760
  H     -7.564090   -4.001280   -1.352930
  H     -3.049660  -12.417800    2.844540
  H     -4.409260   -8.141610    3.167210
  H     -4.498370  -13.600910    1.867290
  H     -2.536000  -15.735650   -2.311610
  H     -4.192280  -19.448610    2.385530
  H     -3.325790  -20.811260    0.347730
  H     -5.169910  -15.221590    3.253900
  H     -5.112920  -16.721360    5.084840
  H     -2.738750  -18.003940    3.649670
  H     -4.970870  -20.175060    9.107600
  H     -0.401980  -21.081680    7.347650
  H     -5.254710  -21.764570   10.364110

 Total Charge           Charge          ....    0
 Multiplicity           Mult            ....    1
 Number of Electrons    NEL             ....  588
 Basis Dimension        Dim             .... 1253

ORBITAL ENERGIES
----------------

  NO   OCC          E(Eh)            E(eV)
   0   2.0000     -89.056827     -2423.3595
   1   2.0000     -89.047771     -2423.1130
   2   2.0000     -89.003188     -2421.8999
   3   2.0000     -88.997066     -2421.7333
   4   2.0000     -88.994919     -2421.6749
   5   2.0000     -88.966262     -2420.8951
   6   2.0000     -24.798758      -674.8085
   7   2.0000     -24.797623      -674.7776
   8   2.0000     -19.268655      -524.3268
   9   2.0000     -19.220084      -523.0051
  10   2.0000     -19.215088      -522.8691
  11   2.0000     -19.207853      -522.6723
  12   2.0000     -14.459324      -393.4582
  13   2.0000     -14.458824      -393.4446
  14   2.0000     -14.454696      -393.3323
  15   2.0000     -14.449593      -393.1934
  16   2.0000     -14.424555      -392.5121
  17   2.0000     -14.418059      -392.3353
  18   2.0000     -14.415179      -392.2570
  19   2.0000     -14.413465      -392.2103
  20   2.0000     -14.404098      -391.9554
  21   2.0000     -10.413354      -283.3618
  22   2.0000     -10.381790      -282.5029
  23   2.0000     -10.380794      -282.4758
  24   2.0000     -10.371103      -282.2120
  25   2.0000     -10.365683      -282.0646
  26   2.0000     -10.350743      -281.6580
  27   2.0000     -10.349246      -281.6173
  28   2.0000     -10.348856      -281.6067
  29   2.0000     -10.348443      -281.5955
  30   2.0000     -10.347027      -281.5569
  31   2.0000     -10.344277      -281.4821
  32   2.0000     -10.342131      -281.4237
  33   2.0000     -10.341626      -281.4099
  34   2.0000     -10.341285      -281.4007
  35   2.0000     -10.340409      -281.3768
  36   2.0000     -10.339681      -281.3570
  37   2.0000     -10.331919      -281.1458
  38   2.0000     -10.329739      -281.0865
  39   2.0000     -10.328124      -281.0426
  40   2.0000     -10.327641      -281.0294
  41   2.0000     -10.325835      -280.9802
  42   2.0000     -10.324834      -280.9530
  43   2.0000     -10.322522      -280.8901
  44   2.0000     -10.320837      -280.8443
  45   2.0000     -10.320433      -280.8333
  46   2.0000     -10.319656      -280.8121
  47   2.0000     -10.318774      -280.7881
  48   2.0000     -10.318311      -280.7755
  49   2.0000     -10.318128      -280.7705
  50   2.0000     -10.318059      -280.7687
  51   2.0000     -10.317953      -280.7658
  52   2.0000     -10.316289      -280.7205
  53   2.0000     -10.315901      -280.7099
  54   2.0000     -10.315800      -280.7072
  55   2.0000     -10.314423      -280.6697
  56   2.0000     -10.314318      -280.6669
  57   2.0000     -10.313624      -280.6480
  58   2.0000     -10.312418      -280.6152
  59   2.0000     -10.310741      -280.5695
  60   2.0000     -10.310527      -280.5637
  61   2.0000     -10.310064      -280.5511
  62   2.0000     -10.309833      -280.5448
  63   2.0000     -10.306594      -280.4567
  64   2.0000     -10.306590      -280.4566
  65   2.0000     -10.305875      -280.4371
  66   2.0000     -10.305644      -280.4308
  67   2.0000     -10.304994      -280.4131
  68   2.0000     -10.304145      -280.3900
  69   2.0000     -10.302012      -280.3320
  70   2.0000     -10.301798      -280.3262
  71   2.0000     -10.301499      -280.3180
  72   2.0000     -10.300994      -280.3043
  73   2.0000     -10.300616      -280.2940
  74   2.0000     -10.298251      -280.2297
  75   2.0000     -10.294645      -280.1315
  76   2.0000     -10.293022      -280.0874
  77   2.0000     -10.292920      -280.0846
  78   2.0000     -10.290283      -280.0128
  79   2.0000     -10.288287      -279.9585
  80   2.0000     -10.282760      -279.8081
  81   2.0000      -8.147686      -221.7098
  82   2.0000      -8.138958      -221.4723
  83   2.0000      -8.098354      -220.3674
  84   2.0000      -8.091457      -220.1797
  85   2.0000      -8.090086      -220.1424
  86   2.0000      -8.061923      -219.3761
  87   2.0000      -6.118602      -166.4956
  88   2.0000      -6.110891      -166.2858
  89   2.0000      -6.110854      -166.2848
  90   2.0000      -6.109911      -166.2591
  91   2.0000      -6.102126      -166.0473
  92   2.0000      -6.102039      -166.0449
  93   2.0000      -6.066856      -165.0876
  94   2.0000      -6.062547      -164.9703
  95   2.0000      -6.062398      -164.9662
  96   2.0000      -6.060830      -164.9236
  97   2.0000      -6.058548      -164.8615
  98   2.0000      -6.055971      -164.7913
  99   2.0000      -6.054279      -164.7453
 100   2.0000      -6.054175      -164.7425
 101   2.0000      -6.053946      -164.7362
 102   2.0000      -6.031406      -164.1229
 103   2.0000      -6.027110      -164.0060
 104   2.0000      -6.023834      -163.9168
 105   2.0000      -1.320886       -35.9431
 106   2.0000      -1.306043       -35.5392
 107   2.0000      -1.192303       -32.4442
 108   2.0000      -1.150093       -31.2956
 109   2.0000      -1.142189       -31.0805
 110   2.0000      -1.134289       -30.8656
 111   2.0000      -1.129459       -30.7341
 112   2.0000      -1.107437       -30.1349
 113   2.0000      -1.030565       -28.0431
 114   2.0000      -1.027896       -27.9705
 115   2.0000      -1.024085       -27.8668
 116   2.0000      -1.019010       -27.7287
 117   2.0000      -1.017492       -27.6874
 118   2.0000      -1.011227       -27.5169
 119   2.0000      -1.007469       -27.4146
 120   2.0000      -1.003616       -27.3098
 121   2.0000      -1.000034       -27.2123
 122   2.0000      -0.996502       -27.1162
 123   2.0000      -0.992779       -27.0149
 124   2.0000      -0.990008       -26.9395
 125   2.0000      -0.987248       -26.8644
 126   2.0000      -0.980871       -26.6909
 127   2.0000      -0.967590       -26.3295
 128   2.0000      -0.964402       -26.2427
 129   2.0000      -0.955332       -25.9959
 130   2.0000      -0.944827       -25.7101
 131   2.0000      -0.933162       -25.3926
 132   2.0000      -0.925974       -25.1970
 133   2.0000      -0.917224       -24.9589
 134   2.0000      -0.911293       -24.7976
 135   2.0000      -0.906651       -24.6712
 136   2.0000      -0.895816       -24.3764
 137   2.0000      -0.889974       -24.2174
 138   2.0000      -0.888584       -24.1796
 139   2.0000      -0.877846       -23.8874
 140   2.0000      -0.876843       -23.8601
 141   2.0000      -0.871550       -23.7161
 142   2.0000      -0.866287       -23.5729
 143   2.0000      -0.852561       -23.1994
 144   2.0000      -0.850709       -23.1490
 145   2.0000      -0.840172       -22.8622
 146   2.0000      -0.831144       -22.6166
 147   2.0000      -0.820859       -22.3367
 148   2.0000      -0.817473       -22.2446
 149   2.0000      -0.813604       -22.1393
 150   2.0000      -0.797661       -21.7055
 151   2.0000      -0.791788       -21.5456
 152   2.0000      -0.781764       -21.2729
 153   2.0000      -0.775920       -21.1139
 154   2.0000      -0.767767       -20.8920
 155   2.0000      -0.766188       -20.8490
 156   2.0000      -0.745076       -20.2746
 157   2.0000      -0.744662       -20.2633
 158   2.0000      -0.739579       -20.1250
 159   2.0000      -0.734867       -19.9967
 160   2.0000      -0.721071       -19.6213
 161   2.0000      -0.717041       -19.5117
 162   2.0000      -0.712423       -19.3860
 163   2.0000      -0.710063       -19.3218
 164   2.0000      -0.704488       -19.1701
 165   2.0000      -0.698751       -19.0140
 166   2.0000      -0.696584       -18.9550
 167   2.0000      -0.692581       -18.8461
 168   2.0000      -0.683067       -18.5872
 169   2.0000      -0.680267       -18.5110
 170   2.0000      -0.675993       -18.3947
 171   2.0000      -0.668401       -18.1881
 172   2.0000      -0.664051       -18.0697
 173   2.0000      -0.663142       -18.0450
 174   2.0000      -0.658334       -17.9142
 175   2.0000      -0.656508       -17.8645
 176   2.0000      -0.644742       -17.5443
 177   2.0000      -0.641090       -17.4449
 178   2.0000      -0.640657       -17.4332
 179   2.0000      -0.638116       -17.3640
 180   2.0000      -0.628021       -17.0893
 181   2.0000      -0.626888       -17.0585
 182   2.0000      -0.620665       -16.8891
 183   2.0000      -0.617007       -16.7896
 184   2.0000      -0.614597       -16.7240
 185   2.0000      -0.608678       -16.5630
 186   2.0000      -0.605178       -16.4677
 187   2.0000      -0.601301       -16.3622
 188   2.0000      -0.590881       -16.0787
 189   2.0000      -0.588980       -16.0270
 190   2.0000      -0.586470       -15.9587
 191   2.0000      -0.585577       -15.9344
 192   2.0000      -0.582523       -15.8513
 193   2.0000      -0.577142       -15.7048
 194   2.0000      -0.575500       -15.6601
 195   2.0000      -0.573840       -15.6150
 196   2.0000      -0.571482       -15.5508
 197   2.0000      -0.567680       -15.4474
 198   2.0000      -0.562984       -15.3196
 199   2.0000      -0.559450       -15.2234
 200   2.0000      -0.556710       -15.1489
 201   2.0000      -0.554475       -15.0880
 202   2.0000      -0.550753       -14.9867
 203   2.0000      -0.547240       -14.8912
 204   2.0000      -0.546907       -14.8821
 205   2.0000      -0.540896       -14.7185
 206   2.0000      -0.537587       -14.6285
 207   2.0000      -0.536001       -14.5853
 208   2.0000      -0.533295       -14.5117
 209   2.0000      -0.531745       -14.4695
 210   2.0000      -0.530754       -14.4426
 211   2.0000      -0.528427       -14.3792
 212   2.0000      -0.524706       -14.2780
 213   2.0000      -0.524223       -14.2648
 214   2.0000      -0.521190       -14.1823
 215   2.0000      -0.517129       -14.0718
 216   2.0000      -0.514768       -14.0075
 217   2.0000      -0.513009       -13.9597
 218   2.0000      -0.512575       -13.9479
 219   2.0000      -0.509854       -13.8738
 220   2.0000      -0.508252       -13.8303
 221   2.0000      -0.506717       -13.7885
 222   2.0000      -0.503529       -13.7017
 223   2.0000      -0.502299       -13.6682
 224   2.0000      -0.500715       -13.6251
 225   2.0000      -0.498758       -13.5719
 226   2.0000      -0.495338       -13.4788
 227   2.0000      -0.493518       -13.4293
 228   2.0000      -0.490836       -13.3563
 229   2.0000      -0.489564       -13.3217
 230   2.0000      -0.487556       -13.2671
 231   2.0000      -0.483656       -13.1609
 232   2.0000      -0.481277       -13.0962
 233   2.0000      -0.479363       -13.0441
 234   2.0000      -0.478264       -13.0142
 235   2.0000      -0.469417       -12.7735
 236   2.0000      -0.468910       -12.7597
 237   2.0000      -0.466627       -12.6976
 238   2.0000      -0.466016       -12.6809
 239   2.0000      -0.462988       -12.5985
 240   2.0000      -0.462297       -12.5797
 241   2.0000      -0.459778       -12.5112
 242   2.0000      -0.457262       -12.4427
 243   2.0000      -0.454021       -12.3545
 244   2.0000      -0.449927       -12.2431
 245   2.0000      -0.448798       -12.2124
 246   2.0000      -0.448398       -12.2015
 247   2.0000      -0.447399       -12.1743
 248   2.0000      -0.445907       -12.1337
 249   2.0000      -0.443871       -12.0784
 250   2.0000      -0.442759       -12.0481
 251   2.0000      -0.441830       -12.0228
 252   2.0000      -0.440645       -11.9906
 253   2.0000      -0.438265       -11.9258
 254   2.0000      -0.433898       -11.8070
 255   2.0000      -0.433503       -11.7962
 256   2.0000      -0.431507       -11.7419
 257   2.0000      -0.430895       -11.7253
 258   2.0000      -0.429242       -11.6803
 259   2.0000      -0.427861       -11.6427
 260   2.0000      -0.425576       -11.5805
 261   2.0000      -0.425064       -11.5666
 262   2.0000      -0.421969       -11.4824
 263   2.0000      -0.419913       -11.4264
 264   2.0000      -0.416285       -11.3277
 265   2.0000      -0.414307       -11.2739
 266   2.0000      -0.412450       -11.2233
 267   2.0000      -0.409187       -11.1346
 268   2.0000      -0.408456       -11.1147
 269   2.0000      -0.397781       -10.8242
 270   2.0000      -0.397404       -10.8139
 271   2.0000      -0.394988       -10.7482
 272   2.0000      -0.390666       -10.6306
 273   2.0000      -0.386602       -10.5200
 274   2.0000      -0.383972       -10.4484
 275   2.0000      -0.378881       -10.3099
 276   2.0000      -0.366977        -9.9860
 277   2.0000      -0.365225        -9.9383
 278   2.0000      -0.357940        -9.7400
 279   2.0000      -0.354477        -9.6458
 280   2.0000      -0.351827        -9.5737
 281   2.0000      -0.348912        -9.4944
 282   2.0000      -0.344810        -9.3828
 283   2.0000      -0.343039        -9.3346
 284   2.0000      -0.337405        -9.1813
 285   2.0000      -0.329202        -8.9580
 286   2.0000      -0.322671        -8.7803
 287   2.0000      -0.313091        -8.5196
 288   2.0000      -0.312351        -8.4995
 289   2.0000      -0.299982        -8.1629
 290   2.0000      -0.299436        -8.1481
 291   2.0000      -0.276713        -7.5297
 292   2.0000      -0.258860        -7.0439
 293   2.0000      -0.240116        -6.5339
 294   0.0000      -0.137303        -3.7362
 295   0.0000      -0.110811        -3.0153
 296   0.0000      -0.096729        -2.6321
 297   0.0000      -0.079789        -2.1712
 298   0.0000      -0.075606        -2.0573

MULLIKEN ATOMIC CHARGES
-----------------------
   0 C :   -0.109583
   1 C :    0.242290
   2 F :   -0.172522
   3 C :    0.237783
   4 F :   -0.172780
   5 C :   -0.106532
   6 C :    0.117840
   7 C :    0.114455
   8 C :   -0.088458
   9 C :    0.053031
  10 C :    0.000882
  11 C :   -0.088131
  12 C :    0.119358
  13 O :   -0.146673
  14 C :   -0.104725
  15 C :    0.306943
  16 C :   -0.343671
  17 C :   -0.204749
  18 N :    0.165620
  19 C :   -0.183030
  20 N :    0.141641
  21 C :   -0.077746
  22 C :    0.073580
  23 C :    0.009991
  24 C :   -0.034168
  25 N :   -0.272653
  26 S :    0.545799
  27 N :   -0.281378
  28 C :    0.057301
  29 C :    0.070584
  30 C :   -0.132092
  31 S :    0.203727
  32 C :   -0.140381
  33 C :    0.085301
  34 C :    0.033289
  35 C :   -0.024038
  36 C :   -0.008381
  37 N :   -0.328712
  38 S :    0.554530
  39 N :   -0.267568
  40 C :    0.115151
  41 C :    0.053349
  42 C :   -0.196985
  43 S :    0.211337
  44 C :   -0.131285
  45 C :    0.069692
  46 C :   -0.135173
  47 C :   -0.057220
  48 C :    0.074648
  49 C :    0.061850
  50 C :   -0.116755
  51 S :    0.218904
  52 C :   -0.110696
  53 C :    0.043536
  54 C :    0.009176
  55 C :   -0.059475
  56 S :    0.133428
  57 C :    0.065081
  58 C :   -0.011788
  59 C :    0.005347
  60 C :    0.009676
  61 C :   -0.146771
  62 C :    0.147418
  63 O :   -0.136233
  64 C :    0.005098
  65 C :    0.033279
  66 C :   -0.090784
  67 C :    0.008782
  68 C :   -0.077566
  69 C :   -0.037965
  70 C :   -0.158399
  71 N :    0.138665
  72 C :    0.178174
  73 O :   -0.149515
  74 O :   -0.143639
  75 C :    0.278030
  76 C :   -0.328691
  77 C :   -0.208129
  78 N :    0.168205
  79 C :   -0.179602
  80 N :    0.133938
  81 H :    0.007420
  82 H :   -0.003219
  83 H :   -0.007228
  84 H :   -0.015389
  85 H :    0.048319
  86 H :    0.022953
  87 H :    0.026682
  88 H :    0.034667
  89 H :    0.030380
  90 H :   -0.002018
  91 H :    0.042791
  92 H :    0.004007
  93 H :    0.034298
  94 H :   -0.002885
  95 H :    0.003889
  96 H :    0.037677
  97 H :    0.001129
  98 H :    0.013517
  99 H :    0.190942
Sum of atomic charges:   -0.0000000

LOEWDIN ATOMIC CHARGES
----------------------
   0 C :   -0.029435
   1 C :    0.065548
   2 F :   -0.050113
   3 C :    0.066935
   4 F :   -0.050685
   5 C :   -0.034779
   6 C :   -0.009166
   7 C :   -0.007875
   8 C :    0.015958
   9 C :   -0.023442
  10 C :   -0.050814
  11 C :    0.023722
  12 C :    0.069263
  13 O :   -0.144361
  14 C :   -0.103983
  15 C :    0.072626
  16 C :   -0.139245
  17 C :   -0.025896
  18 N :   -0.049751
  19 C :   -0.017259
  20 N :   -0.056308
  21 C :    0.078439
  22 C :   -0.044879
  23 C :   -0.028815
  24 C :   -0.060372
  25 N :   -0.287794
  26 S :    0.682507
  27 N :   -0.293981
  28 C :    0.019470
  29 C :   -0.037236
  30 C :   -0.187413
  31 S :    0.558954
  32 C :   -0.195334
  33 C :   -0.025913
  34 C :   -0.016571
  35 C :   -0.049373
  36 C :   -0.053765
  37 N :   -0.320474
  38 S :    0.686484
  39 N :   -0.285392
  40 C :   -0.046592
  41 C :   -0.035592
  42 C :   -0.227784
  43 S :    0.555326
  44 C :   -0.186194
  45 C :   -0.034642
  46 C :   -0.148937
  47 C :   -0.019390
  48 C :    0.009278
  49 C :   -0.052330
  50 C :   -0.139992
  51 S :    0.537873
  52 C :   -0.202299
  53 C :   -0.037322
  54 C :   -0.057600
  55 C :   -0.154266
  56 S :    0.425139
  57 C :   -0.065511
  58 C :    0.046528
  59 C :   -0.060157
  60 C :    0.070068
  61 C :   -0.119857
  62 C :    0.078640
  63 O :   -0.140338
  64 C :   -0.031317
  65 C :    0.003736
  66 C :   -0.007101
  67 C :   -0.039712
  68 C :   -0.028065
  69 C :    0.046189
  70 C :   -0.033871
  71 N :   -0.029815
  72 C :    0.079867
  73 O :   -0.122289
  74 O :   -0.016402
  75 C :    0.065365
  76 C :   -0.145686
  77 C :   -0.024542
  78 N :   -0.048258
  79 C :   -0.017247
  80 N :   -0.064966
  81 H :    0.047591
  82 H :    0.043835
  83 H :    0.039605
  84 H :    0.038122
  85 H :    0.049703
  86 H :    0.022164
  87 H :    0.023401
  88 H :    0.024881
  89 H :    0.025534
  90 H :    0.038965
  91 H :    0.039595
  92 H :    0.036704
  93 H :    0.027415
  94 H :    0.035610
  95 H :    0.034238
  96 H :    0.047539
  97 H :    0.034825
  98 H :    0.051940
  99 H :    0.098920

  Mayer bond orders larger than 0.100000
B(  0-C ,  1-C ) :   1.4373 B(  0-C ,  5-C ) :   0.1090 B(  0-C ,  7-C ) :   1.1897
B(  0-C , 81-H ) :   1.0074 B(  1-C ,  2-F ) :   1.1331 B(  1-C ,  3-C ) :   1.1950
B(  3-C ,  4-F ) :   1.1326 B(  3-C ,  5-C ) :   1.4411 B(  5-C ,  6-C ) :   1.1923
B(  5-C , 82-H ) :   1.0070 B(  6-C ,  7-C ) :   1.2601 B(  6-C , 11-C ) :   1.1831
B(  7-C ,  8-C ) :   1.2102 B(  8-C ,  9-C ) :   1.4526 B(  8-C , 83-H ) :   0.9908
B(  9-C , 10-C ) :   1.2203 B(  9-C , 15-C ) :   0.9830 B( 10-C , 11-C ) :   1.4756
B( 10-C , 12-C ) :   0.9315 B( 11-C , 84-H ) :   1.0168 B( 12-C , 13-O ) :   2.2192
B( 12-C , 14-C ) :   0.9609 B( 14-C , 15-C ) :   1.0720 B( 14-C , 21-C ) :   1.5039
B( 15-C , 16-C ) :   1.6367 B( 16-C , 17-C ) :   1.1421 B( 16-C , 19-C ) :   1.1443
B( 17-C , 18-N ) :   2.9939 B( 19-C , 20-N ) :   2.9622 B( 21-C , 22-C ) :   1.2404
B( 21-C , 85-H ) :   0.9383 B( 22-C , 23-C ) :   1.2271 B( 22-C , 28-C ) :   0.1078
B( 22-C , 33-C ) :   1.1838 B( 23-C , 24-C ) :   1.1115 B( 23-C , 27-N ) :   1.5093
B( 24-C , 25-N ) :   1.4764 B( 24-C , 28-C ) :   1.3110 B( 25-N , 26-S ) :   1.3052
B( 25-N , 27-N ) :   0.1628 B( 26-S , 27-N ) :   1.2816 B( 28-C , 29-C ) :   1.3053
B( 28-C , 34-C ) :   0.9845 B( 29-C , 30-C ) :   1.3759 B( 29-C , 33-C ) :   1.1354
B( 30-C , 31-S ) :   1.2845 B( 30-C , 32-C ) :   0.1118 B( 30-C , 86-H ) :   0.9466
B( 31-S , 32-C ) :   1.2249 B( 32-C , 33-C ) :   1.4368 B( 32-C , 87-H ) :   0.9512
B( 34-C , 35-C ) :   1.3426 B( 34-C , 40-C ) :   0.1186 B( 34-C , 45-C ) :   1.2818
B( 35-C , 36-C ) :   1.1119 B( 35-C , 39-N ) :   1.4684 B( 36-C , 37-N ) :   1.4343
B( 36-C , 40-C ) :   1.2701 B( 37-N , 38-S ) :   1.2843 B( 37-N , 39-N ) :   0.1674
B( 38-S , 39-N ) :   1.3104 B( 40-C , 41-C ) :   1.2200 B( 40-C , 46-C ) :   1.1165
B( 41-C , 42-C ) :   1.3925 B( 41-C , 45-C ) :   1.1341 B( 42-C , 43-S ) :   1.2387
B( 42-C , 44-C ) :   0.1173 B( 42-C , 88-H ) :   0.9565 B( 43-S , 44-C ) :   1.2698
B( 44-C , 45-C ) :   1.4044 B( 44-C , 89-H ) :   0.9457 B( 46-C , 47-C ) :   1.4619
B( 46-C , 51-S ) :   1.1169 B( 47-C , 48-C ) :   1.2881 B( 47-C , 90-H ) :   0.9633
B( 48-C , 49-C ) :   1.0868 B( 48-C , 57-C ) :   1.2941 B( 49-C , 50-C ) :   1.5419
B( 49-C , 52-C ) :   1.1875 B( 50-C , 51-S ) :   1.1809 B( 50-C , 91-H ) :   0.9399
B( 52-C , 53-C ) :   1.4381 B( 52-C , 56-S ) :   1.0800 B( 53-C , 54-C ) :   1.2250
B( 53-C , 57-C ) :   1.0898 B( 54-C , 55-C ) :   1.5877 B( 54-C , 92-H ) :   0.9917
B( 55-C , 56-S ) :   1.1476 B( 55-C , 93-H ) :   0.9648 B( 57-C , 58-C ) :   1.2261
B( 58-C , 59-C ) :   1.5528 B( 58-C , 94-H ) :   0.9559 B( 59-C , 60-C ) :   1.2182
B( 59-C , 95-H ) :   0.9505 B( 60-C , 61-C ) :   1.5285 B( 60-C , 96-H ) :   0.9383
B( 61-C , 62-C ) :   0.9664 B( 61-C , 75-C ) :   1.0940 B( 62-C , 63-O ) :   2.2651
B( 62-C , 64-C ) :   0.8983 B( 64-C , 65-C ) :   1.3464 B( 64-C , 69-C ) :   1.3627
B( 65-C , 66-C ) :   1.3942 B( 65-C , 75-C ) :   0.9825 B( 66-C , 67-C ) :   1.3116
B( 66-C , 97-H ) :   0.9672 B( 67-C , 68-C ) :   1.4046 B( 67-C , 72-C ) :   0.8702
B( 68-C , 69-C ) :   1.3572 B( 68-C , 70-C ) :   1.0668 B( 69-C , 98-H ) :   1.0162
B( 70-C , 71-N ) :   3.0397 B( 72-C , 73-O ) :   2.1680 B( 72-C , 74-O ) :   1.2574
B( 74-O , 99-H ) :   0.9456 B( 75-C , 76-C ) :   1.6138 B( 76-C , 77-C ) :   1.1664
B( 76-C , 79-C ) :   1.1362 B( 77-C , 78-N ) :   2.9899 B( 79-C , 80-N ) :   2.9793

-----------------------------------------------------------------------------
         ABSORPTION SPECTRUM VIA TRANSITION ELECTRIC DIPOLE MOMENTS
-----------------------------------------------------------------------------
State   Energy  Wavelength   fosc         T2         TX        TY        TZ
        (cm-1)    (nm)                  (au**2)     (au)      (au)      (au)
-----------------------------------------------------------------------------
   0    7845.7   1274.6   0.849446726  35.64335   0.95006  -5.79683   1.06653
   1   11406.0    876.7   0.035051564   1.01170  -0.20006  -0.49884   0.85019
   2   12949.6    772.2   0.094686602   2.40717   0.47019   0.38084  -1.42866
   3   14979.0    667.6   0.016908140   0.37161  -0.09192  -0.35859   0.48433
   4   15835.1    631.5   0.353598613   7.35132   0.27104   1.73439  -2.06634
   5   17212.3    581.0   0.074800836   1.43068  -0.38821   0.35487   1.07427
   6   20321.7    492.1   0.039493827   0.63980   0.54411  -0.55574   0.18683
   7   20596.4    485.5   0.015300608   0.24456  -0.23845  -0.33388   0.27611
   8   20855.0    479.5   0.107407498   1.69550   0.29343  -1.15061  -0.53432
   9   21379.2    467.7   0.051268242   0.78947  -0.17215   0.76908   0.41029
  10   21616.4    462.6   0.138654779   2.11168   0.24345  -1.28931   0.62457
  11   22512.2    444.2   0.112663470   1.64756   0.11974   0.38177  -1.21962
  12   23382.7    427.7   0.007640706   0.10758   0.14467   0.12408  -0.26693
  13   23685.4    422.2   0.071558838   0.99462   0.02635   0.01652  -0.99682
  14   24956.2    400.7   0.084728332   1.11770  -0.76060   0.60742   0.41259
  15   25712.4    388.9   0.111483715   1.42739  -0.71455   0.94229  -0.17001
  16   25988.9    384.8   0.050402632   0.63847   0.03717   0.75129  -0.26953
  17   26258.7    380.8   0.063501218   0.79613  -0.54534  -0.36686   0.60345
  18   26775.3    373.5   0.141271502   1.73699  -0.92554   0.79404  -0.49988
  19   27154.4    368.3   0.026088366   0.31629   0.20596   0.50355   0.14249
  20   27758.2    360.3   0.021259069   0.25213  -0.40747   0.03820  -0.29094
  21   28092.8    356.0   0.038099444   0.44648  -0.32145  -0.32113  -0.48992
  22   28143.1    355.3   0.039291241   0.45962  -0.31965  -0.44817  -0.39571
  23   28524.0    350.6   0.043537928   0.50250   0.50463  -0.49672   0.03339
  24   28645.2    349.1   0.104852764   1.20505  -0.72232   0.39581   0.72570
  25   28963.9    345.3   0.003868487   0.04397   0.06138  -0.07898   0.18430
  26   29482.8    339.2   0.052176064   0.58261   0.37443  -0.49121   0.44847
  27   29679.9    336.9   0.015743443   0.17463   0.01482   0.38042   0.17231
  28   30236.6    330.7   0.107972695   1.17559  -1.02299   0.17931  -0.31135
  29   30366.8    329.3   0.077810021   0.84355  -0.63721  -0.66113  -0.02070
  30   30420.2    328.7   0.113534346   1.22868  -0.09070   0.23241   1.08002
  31   30863.6    324.0   0.149996452   1.59996  -0.60433   0.93283  -0.60381
  32   31128.6    321.2   0.171514093   1.81391  -0.89529   0.45208   0.89888
  33   31249.2    320.0   0.050132236   0.52815   0.56395  -0.45826  -0.01033
  34   31422.6    318.2   0.029610750   0.31023  -0.10745   0.33368  -0.43283
  35   31551.5    316.9   0.064765645   0.67577   0.25899   0.74871  -0.21937
  36   31701.7    315.4   0.156538659   1.62560   1.25960   0.07238   0.18376
  37   31873.9    313.7   0.024586657   0.25395  -0.45927  -0.07443   0.19360
  38   32053.6    312.0   0.096027038   0.98626   0.90605   0.10783   0.39205
  39   32229.3    310.3   0.008230975   0.08408  -0.04911  -0.17411  -0.22661
  40   32539.2    307.3   0.031467814   0.31837  -0.28086  -0.48473   0.06726
  41   32659.5    306.2   0.052186668   0.52605   0.27404   0.27441  -0.61290
  42   33122.0    301.9   0.006001179   0.05965   0.09968   0.05527   0.21600
  43   33172.9    301.5   0.153346581   1.52183   0.81096  -0.71872   0.58958
  44   33655.3    297.1   0.018055114   0.17661  -0.27865   0.22816  -0.21658
  45   33751.7    296.3   0.002547132   0.02484  -0.07701  -0.02550   0.13514
  46   34075.2    293.5   0.067518091   0.65232  -0.66152   0.45224   0.10095
  47   34279.2    291.7   0.069353241   0.66606   0.37675   0.68439   0.23608
  48   34421.1    290.5   0.234035709   2.23837   0.87715  -0.16170  -1.20118
  49   34499.6    289.9   0.146476369   1.39775   0.98357  -0.34269   0.55938
  50   34668.6    288.4   0.070395267   0.66847   0.10044  -0.20446   0.78523
  51   35022.9    285.5   0.023534097   0.22122   0.17775   0.00605  -0.43541
  52   35034.6    285.4   0.578166387   5.43289  -1.89117   0.71837  -1.15773
  53   35076.0    285.1   0.046064545   0.43235  -0.00928  -0.40321  -0.51931
  54   35286.6    283.4   0.004688780   0.04374   0.12150  -0.13301  -0.10625
  55   35548.3    281.3   0.076266821   0.70631  -0.38621   0.73869   0.10713
  56   35739.4    279.8   0.041593467   0.38314  -0.27696   0.53951   0.12393
  57   36230.7    276.0   0.125091531   1.13665   0.50156   0.40265  -0.85027
  58   36327.9    275.3   0.011732609   0.10632  -0.30829  -0.10556  -0.01173
  59   36605.8    273.2   0.018793531   0.16902   0.22366   0.04968  -0.34136
  60   36803.9    271.7   0.295509005   2.64333   1.03270   1.20658  -0.34790
  61   36867.9    271.2   0.160258050   1.43102   1.15449   0.05531  -0.30843
  62   36966.8    270.5   0.037314319   0.33231   0.08369   0.32632  -0.46778
  63   37249.0    268.5   0.020151847   0.17811  -0.28887   0.21802  -0.21708
  64   37295.2    268.1   0.037563346   0.33158   0.21431   0.41540  -0.33629
  65   37541.3    266.4   0.017887796   0.15686  -0.07555  -0.32096   0.21941
  66   37603.7    265.9   0.128846844   1.12803   0.14505  -0.96912   0.40963
  67   38119.9    262.3   0.007484664   0.06464  -0.15066   0.05568  -0.19708
  68   38195.3    261.8   0.030930805   0.26660  -0.24562  -0.15518   0.42683
  69   38521.4    259.6   0.027169277   0.23219  -0.41495  -0.13321   0.20559
  70   38736.2    258.2   0.011971462   0.10174  -0.09015   0.05831  -0.30036
  71   38812.1    257.7   0.008644458   0.07332  -0.00314   0.21902   0.15921
  72   39041.3    256.1   0.010525640   0.08876  -0.29630   0.00890   0.02977
  73   39129.5    255.6   0.237403422   1.99737  -1.06133   0.46683  -0.80810
  74   39202.7    255.1   0.052662162   0.44224  -0.57209  -0.27999   0.19121
  75   39537.1    252.9   0.065534643   0.54568   0.55058  -0.42019  -0.25688
  76   39591.0    252.6   0.023891645   0.19867   0.31598  -0.30808  -0.06256
  77   39626.1    252.4   0.009816723   0.08156  -0.11235  -0.26124  -0.02626
  78   39805.1    251.2   0.034429069   0.28475  -0.45131   0.28167  -0.04162
  79   40014.4    249.9   0.041801762   0.34392   0.11744  -0.50147  -0.28045
  80   40235.8    248.5   0.035973204   0.29434  -0.49227  -0.02323   0.22686
  81   40250.6    248.4   0.019818182   0.16209   0.28082   0.28665  -0.03261

FINAL SINGLE POINT ENERGY     -5675.288541084685

DIPOLE MOMENT
-------------
                                X             Y             Z
Electronic contribution:     -8.90296      42.56357     -13.12474
Nuclear contribution   :      7.76801     -41.11506       8.99860
                        -----------------------------------------
Total Dipole Moment    :     -1.13494       1.44850      -4.12614
                        -----------------------------------------
Magnitude (a.u.)       :      4.51788
Magnitude (Debye)      :     11.48355

Rotational constants in cm-1:     0.001168     0.000193     0.000181
Rotational constants in MHz :    35.005857     5.792281     5.412413

                             ****ORCA TERMINATED NORMALLY****
TOTAL RUN TIME: 0 days 0 hours 12 minutes 55 seconds 903 msec
