                         Program Version 4.2.0 -  RELEASE  -
|  1> # ORCA input file
|  2> # SCF done       -153.636550471399          0.000881224148
|  3> ! CAM-B3LYP def2-SVP def2/J RIJCOSX Grid4 TightSCF
|  4> %maxcore 5000
|  5> %tddft
|  6>     Mode sTDDFT
|  7>     Ethresh 5.0
|  8>     maxcore 5000
|  9> end
| 10>
| 11> %pal
| 12>   nprocs 6
| 13>   end
| 14> * xyz 0 1
| 15>    C       -3.58650        -3.59793         0.78345
| 16>    C       -3.20876        -2.98870         1.94130
| 17>    C       -2.97267        -1.61471         1.74387
| 18>    C       -3.18338        -1.22280         0.41752
| 19>    S       -3.66533        -2.52544        -0.57492
| 20>    C       -2.92180         0.17295         0.30994
| 21>    C       -2.54664         0.65611         1.57093
| 22>    C       -2.56587        -0.45354         2.51636
| 23>    C       -2.26384        -0.41118         3.84542
| 24>    C       -1.87444         0.77608         4.50170
| 25>    N       -1.55218         1.72853         5.05250
| 26>    C       -2.31770        -1.56067         4.66191
| 27>    N       -2.35833        -2.49199         5.32954
| 28>    C       -2.26457         2.02416         1.56819
| 29>    C       -2.42304         2.58107         0.31436
| 30>    S       -2.93021         1.39265        -0.87924
| 31>    C       -2.21945         3.94326        -0.06951
| 32>    C       -2.41394         4.41093        -1.35779
| 33>    C       -2.21440         5.74278        -1.73330
| 34>    C       -1.76900         6.72137        -0.86284
| 35>    C       -1.58020         6.29522         0.47746
| 36>    C       -1.80946         4.92504         0.87377
| 37>    N       -1.59168         4.85649         2.17191
| 38>    O       -1.26297         6.08449         2.56398
| 39>    N       -1.24965         6.96337         1.56640
| 40>    C       -1.65478         8.10146        -1.26971
| 41>    C       -0.76426         9.10114        -0.92480
| 42>    O        0.40830         8.98945        -0.24874
| 43>    C        1.10120         7.76148        -0.23807
| 44>    C       -1.12790        10.36962        -1.47135
| 45>    O       -0.49687        11.55155        -1.29164
| 46>    C        0.46929        11.69326        -0.26722
| 47>    C       -2.26414        10.31076        -2.26934
| 48>    S       -2.89130         8.69691        -2.34408
| 49>    C       -2.90832        11.34892        -3.01157
| 50>    C       -2.46839        12.66050        -3.11140
| 51>    C       -3.12619        13.63835        -3.86541
| 52>    C       -4.28540        13.40063        -4.58843
| 53>    C       -4.77808        12.07242        -4.50309
| 54>    C       -4.09923        11.06274        -3.73359
| 55>    N       -4.78794         9.94805        -3.86160
| 56>    O       -5.82248        10.23216        -4.65040
| 57>    N       -5.83469        11.50491        -5.04733
| 58>    C       -4.96293        14.37760        -5.38275
| 59>    C       -4.57455        15.67748        -5.65181
| 60>    C       -5.48567        16.33295        -6.47985
| 61>    C       -6.57526        15.52467        -6.83536
| 62>    S       -6.47696        13.95907        -6.16488
| 63>    C       -7.43913        16.28795        -7.67428
| 64>    C       -6.89085        17.56441        -7.84446
| 65>    C       -5.64355        17.63878        -7.10626
| 66>    C       -4.78856        18.69921        -7.02230
| 67>    C       -5.03687        19.92187        -7.67958
| 68>    N       -5.22993        20.91702        -8.21576
| 69>    C       -3.59467        18.63953        -6.27443
| 70>    N       -2.62100        18.59707        -5.66954
| 71>    C       -7.68637        18.38762        -8.66436
| 72>    C       -8.80101        17.73176        -9.09043
| 73>    S       -8.91412        16.10185        -8.51137
| 74>    H       -3.82921        -4.63083         0.63352
| 75>    H       -3.10718        -3.50208         2.87977
| 76>    H       -1.96049         2.60649         2.41872
| 77>    H       -2.74023         3.71410        -2.11622
| 78>    H       -2.40921         6.02142        -2.75798
| 79>    H        0.84273         7.14222        -1.09981
| 80>    H        0.89741         7.21430         0.68365
| 81>    H        2.16293         8.01173        -0.27295
| 82>    H        0.61999        12.76788        -0.16645
| 83>    H        1.41259        11.21658        -0.53947
| 84>    H        0.11495        11.27920         0.67751
| 85>    H       -1.56993        12.94135        -2.58935
| 86>    H       -2.69703        14.62790        -3.88055
| 87>    H       -3.67257        16.11864        -5.27035
| 88>    H       -7.45369        19.40345        -8.92675
| 89>    H       -9.58205        18.10576        -9.72159
| 90> *
| 91>
| 92>                          ****END OF INPUT****

CARTESIAN COORDINATES (ANGSTROEM)
---------------------------------
  C     -3.586500   -3.597930    0.783450
  C     -3.208760   -2.988700    1.941300
  C     -2.972670   -1.614710    1.743870
  C     -3.183380   -1.222800    0.417520
  S     -3.665330   -2.525440   -0.574920
  C     -2.921800    0.172950    0.309940
  C     -2.546640    0.656110    1.570930
  C     -2.565870   -0.453540    2.516360
  C     -2.263840   -0.411180    3.845420
  C     -1.874440    0.776080    4.501700
  N     -1.552180    1.728530    5.052500
  C     -2.317700   -1.560670    4.661910
  N     -2.358330   -2.491990    5.329540
  C     -2.264570    2.024160    1.568190
  C     -2.423040    2.581070    0.314360
  S     -2.930210    1.392650   -0.879240
  C     -2.219450    3.943260   -0.069510
  C     -2.413940    4.410930   -1.357790
  C     -2.214400    5.742780   -1.733300
  C     -1.769000    6.721370   -0.862840
  C     -1.580200    6.295220    0.477460
  C     -1.809460    4.925040    0.873770
  N     -1.591680    4.856490    2.171910
  O     -1.262970    6.084490    2.563980
  N     -1.249650    6.963370    1.566400
  C     -1.654780    8.101460   -1.269710
  C     -0.764260    9.101140   -0.924800
  O      0.408300    8.989450   -0.248740
  C      1.101200    7.761480   -0.238070
  C     -1.127900   10.369620   -1.471350
  O     -0.496870   11.551550   -1.291640
  C      0.469290   11.693260   -0.267220
  C     -2.264140   10.310760   -2.269340
  S     -2.891300    8.696910   -2.344080
  C     -2.908320   11.348920   -3.011570
  C     -2.468390   12.660500   -3.111400
  C     -3.126190   13.638350   -3.865410
  C     -4.285400   13.400630   -4.588430
  C     -4.778080   12.072420   -4.503090
  C     -4.099230   11.062740   -3.733590
  N     -4.787940    9.948050   -3.861600
  O     -5.822480   10.232160   -4.650400
  N     -5.834690   11.504910   -5.047330
  C     -4.962930   14.377600   -5.382750
  C     -4.574550   15.677480   -5.651810
  C     -5.485670   16.332950   -6.479850
  C     -6.575260   15.524670   -6.835360
  S     -6.476960   13.959070   -6.164880
  C     -7.439130   16.287950   -7.674280
  C     -6.890850   17.564410   -7.844460
  C     -5.643550   17.638780   -7.106260
  C     -4.788560   18.699210   -7.022300
  C     -5.036870   19.921870   -7.679580
  N     -5.229930   20.917020   -8.215760
  C     -3.594670   18.639530   -6.274430
  N     -2.621000   18.597070   -5.669540
  C     -7.686370   18.387620   -8.664360
  C     -8.801010   17.731760   -9.090430
  S     -8.914120   16.101850   -8.511370
  H     -3.829210   -4.630830    0.633520
  H     -3.107180   -3.502080    2.879770
  H     -1.960490    2.606490    2.418720
  H     -2.740230    3.714100   -2.116220
  H     -2.409210    6.021420   -2.757980
  H      0.842730    7.142220   -1.099810
  H      0.897410    7.214300    0.683650
  H      2.162930    8.011730   -0.272950
  H      0.619990   12.767880   -0.166450
  H      1.412590   11.216580   -0.539470
  H      0.114950   11.279200    0.677510
  H     -1.569930   12.941350   -2.589350
  H     -2.697030   14.627900   -3.880550
  H     -3.672570   16.118640   -5.270350
  H     -7.453690   19.403450   -8.926750
  H     -9.582050   18.105760   -9.721590

 Total Charge           Charge          ....    0
 Multiplicity           Mult            ....    1
 Number of Electrons    NEL             ....  436
 Basis Dimension        Dim             ....  926

ORBITAL ENERGIES
----------------

  NO   OCC          E(Eh)            E(eV)
   0   2.0000     -88.988493     -2421.5000
   1   2.0000     -88.987122     -2421.4627
   2   2.0000     -88.981560     -2421.3114
   3   2.0000     -88.979507     -2421.2555
   4   2.0000     -88.955604     -2420.6050
   5   2.0000     -19.361732      -526.8595
   6   2.0000     -19.357394      -526.7415
   7   2.0000     -19.257158      -524.0139
   8   2.0000     -19.254626      -523.9450
   9   2.0000     -14.485954      -394.1828
  10   2.0000     -14.485775      -394.1780
  11   2.0000     -14.483254      -394.1094
  12   2.0000     -14.483144      -394.1064
  13   2.0000     -14.426653      -392.5692
  14   2.0000     -14.424574      -392.5126
  15   2.0000     -14.424282      -392.5047
  16   2.0000     -14.423251      -392.4766
  17   2.0000     -10.360730      -281.9298
  18   2.0000     -10.355985      -281.8007
  19   2.0000     -10.347868      -281.5798
  20   2.0000     -10.347014      -281.5566
  21   2.0000     -10.344736      -281.4946
  22   2.0000     -10.344731      -281.4945
  23   2.0000     -10.333127      -281.1787
  24   2.0000     -10.332242      -281.1546
  25   2.0000     -10.331440      -281.1328
  26   2.0000     -10.327982      -281.0387
  27   2.0000     -10.327597      -281.0282
  28   2.0000     -10.326976      -281.0113
  29   2.0000     -10.326678      -281.0032
  30   2.0000     -10.325557      -280.9727
  31   2.0000     -10.324742      -280.9505
  32   2.0000     -10.324012      -280.9306
  33   2.0000     -10.323999      -280.9303
  34   2.0000     -10.323217      -280.9090
  35   2.0000     -10.322324      -280.8847
  36   2.0000     -10.320615      -280.8382
  37   2.0000     -10.319710      -280.8136
  38   2.0000     -10.319640      -280.8117
  39   2.0000     -10.317854      -280.7631
  40   2.0000     -10.317342      -280.7492
  41   2.0000     -10.311841      -280.5995
  42   2.0000     -10.310415      -280.5607
  43   2.0000     -10.310124      -280.5527
  44   2.0000     -10.306681      -280.4590
  45   2.0000     -10.305973      -280.4398
  46   2.0000     -10.304534      -280.4006
  47   2.0000     -10.303518      -280.3730
  48   2.0000     -10.300696      -280.2962
  49   2.0000     -10.298956      -280.2488
  50   2.0000     -10.298878      -280.2467
  51   2.0000     -10.296653      -280.1862
  52   2.0000     -10.295654      -280.1590
  53   2.0000     -10.295388      -280.1518
  54   2.0000     -10.294174      -280.1187
  55   2.0000     -10.293167      -280.0913
  56   2.0000     -10.292843      -280.0825
  57   2.0000     -10.291927      -280.0576
  58   2.0000     -10.287652      -279.9412
  59   2.0000      -8.083039      -219.9507
  60   2.0000      -8.082137      -219.9261
  61   2.0000      -8.076636      -219.7764
  62   2.0000      -8.073330      -219.6865
  63   2.0000      -8.050225      -219.0578
  64   2.0000      -6.052264      -164.6905
  65   2.0000      -6.051419      -164.6675
  66   2.0000      -6.048132      -164.5780
  67   2.0000      -6.046932      -164.5454
  68   2.0000      -6.045846      -164.5158
  69   2.0000      -6.045472      -164.5056
  70   2.0000      -6.044743      -164.4858
  71   2.0000      -6.042591      -164.4273
  72   2.0000      -6.041444      -164.3961
  73   2.0000      -6.039266      -164.3368
  74   2.0000      -6.038163      -164.3068
  75   2.0000      -6.035877      -164.2446
  76   2.0000      -6.019815      -163.8075
  77   2.0000      -6.015683      -163.6951
  78   2.0000      -6.011643      -163.5851
  79   2.0000      -1.315156       -35.7872
  80   2.0000      -1.310321       -35.6556
  81   2.0000      -1.167827       -31.7782
  82   2.0000      -1.148177       -31.2435
  83   2.0000      -1.041402       -28.3380
  84   2.0000      -1.035913       -28.1886
  85   2.0000      -1.019659       -27.7463
  86   2.0000      -1.018664       -27.7193
  87   2.0000      -1.017334       -27.6831
  88   2.0000      -1.015241       -27.6261
  89   2.0000      -1.011838       -27.5335
  90   2.0000      -1.007836       -27.4246
  91   2.0000      -1.002698       -27.2848
  92   2.0000      -1.001611       -27.2552
  93   2.0000      -0.991086       -26.9688
  94   2.0000      -0.984832       -26.7987
  95   2.0000      -0.977369       -26.5956
  96   2.0000      -0.954152       -25.9638
  97   2.0000      -0.949269       -25.8309
  98   2.0000      -0.927098       -25.2276
  99   2.0000      -0.920682       -25.0530
 100   2.0000      -0.914363       -24.8811
 101   2.0000      -0.905168       -24.6309
 102   2.0000      -0.890560       -24.2334
 103   2.0000      -0.878817       -23.9138
 104   2.0000      -0.862776       -23.4773
 105   2.0000      -0.856396       -23.3037
 106   2.0000      -0.850138       -23.1334
 107   2.0000      -0.846471       -23.0337
 108   2.0000      -0.845023       -22.9942
 109   2.0000      -0.834566       -22.7097
 110   2.0000      -0.810454       -22.0536
 111   2.0000      -0.798315       -21.7233
 112   2.0000      -0.777868       -21.1669
 113   2.0000      -0.775403       -21.0998
 114   2.0000      -0.774191       -21.0668
 115   2.0000      -0.767239       -20.8776
 116   2.0000      -0.766187       -20.8490
 117   2.0000      -0.761529       -20.7223
 118   2.0000      -0.751873       -20.4595
 119   2.0000      -0.746857       -20.3230
 120   2.0000      -0.728495       -19.8233
 121   2.0000      -0.716150       -19.4874
 122   2.0000      -0.699022       -19.0214
 123   2.0000      -0.696486       -18.9523
 124   2.0000      -0.688602       -18.7378
 125   2.0000      -0.678106       -18.4522
 126   2.0000      -0.671471       -18.2717
 127   2.0000      -0.669802       -18.2262
 128   2.0000      -0.657964       -17.9041
 129   2.0000      -0.651709       -17.7339
 130   2.0000      -0.644704       -17.5433
 131   2.0000      -0.640445       -17.4274
 132   2.0000      -0.634086       -17.2544
 133   2.0000      -0.629615       -17.1327
 134   2.0000      -0.621903       -16.9228
 135   2.0000      -0.618962       -16.8428
 136   2.0000      -0.612712       -16.6727
 137   2.0000      -0.611046       -16.6274
 138   2.0000      -0.609427       -16.5834
 139   2.0000      -0.608631       -16.5617
 140   2.0000      -0.604806       -16.4576
 141   2.0000      -0.600510       -16.3407
 142   2.0000      -0.599474       -16.3125
 143   2.0000      -0.577809       -15.7230
 144   2.0000      -0.572053       -15.5663
 145   2.0000      -0.570743       -15.5307
 146   2.0000      -0.567652       -15.4466
 147   2.0000      -0.564791       -15.3687
 148   2.0000      -0.551624       -15.0105
 149   2.0000      -0.545788       -14.8516
 150   2.0000      -0.543355       -14.7854
 151   2.0000      -0.542121       -14.7519
 152   2.0000      -0.539799       -14.6887
 153   2.0000      -0.538272       -14.6471
 154   2.0000      -0.528521       -14.3818
 155   2.0000      -0.522886       -14.2284
 156   2.0000      -0.517933       -14.0937
 157   2.0000      -0.512449       -13.9445
 158   2.0000      -0.506659       -13.7869
 159   2.0000      -0.504038       -13.7156
 160   2.0000      -0.502870       -13.6838
 161   2.0000      -0.500474       -13.6186
 162   2.0000      -0.495942       -13.4953
 163   2.0000      -0.493571       -13.4307
 164   2.0000      -0.492510       -13.4019
 165   2.0000      -0.491284       -13.3685
 166   2.0000      -0.488438       -13.2911
 167   2.0000      -0.486715       -13.2442
 168   2.0000      -0.483857       -13.1664
 169   2.0000      -0.481559       -13.1039
 170   2.0000      -0.476736       -12.9726
 171   2.0000      -0.473136       -12.8747
 172   2.0000      -0.470703       -12.8085
 173   2.0000      -0.468073       -12.7369
 174   2.0000      -0.464694       -12.6450
 175   2.0000      -0.459997       -12.5171
 176   2.0000      -0.458883       -12.4868
 177   2.0000      -0.456897       -12.4328
 178   2.0000      -0.456130       -12.4119
 179   2.0000      -0.452500       -12.3131
 180   2.0000      -0.452027       -12.3003
 181   2.0000      -0.446683       -12.1549
 182   2.0000      -0.443990       -12.0816
 183   2.0000      -0.440906       -11.9977
 184   2.0000      -0.438811       -11.9406
 185   2.0000      -0.437719       -11.9109
 186   2.0000      -0.437159       -11.8957
 187   2.0000      -0.435345       -11.8463
 188   2.0000      -0.434492       -11.8231
 189   2.0000      -0.434293       -11.8177
 190   2.0000      -0.432315       -11.7639
 191   2.0000      -0.431977       -11.7547
 192   2.0000      -0.425388       -11.5754
 193   2.0000      -0.421453       -11.4683
 194   2.0000      -0.420626       -11.4458
 195   2.0000      -0.411403       -11.1949
 196   2.0000      -0.410363       -11.1665
 197   2.0000      -0.406592       -11.0639
 198   2.0000      -0.403787       -10.9876
 199   2.0000      -0.401760       -10.9325
 200   2.0000      -0.398473       -10.8430
 201   2.0000      -0.397656       -10.8208
 202   2.0000      -0.388946       -10.5837
 203   2.0000      -0.376571       -10.2470
 204   2.0000      -0.374741       -10.1972
 205   2.0000      -0.373665       -10.1679
 206   2.0000      -0.368370       -10.0239
 207   2.0000      -0.363305        -9.8860
 208   2.0000      -0.345355        -9.3976
 209   2.0000      -0.343352        -9.3431
 210   2.0000      -0.337831        -9.1928
 211   2.0000      -0.323240        -8.7958
 212   2.0000      -0.317561        -8.6413
 213   2.0000      -0.313777        -8.5383
 214   2.0000      -0.291115        -7.9216
 215   2.0000      -0.283100        -7.7035
 216   2.0000      -0.262423        -7.1409
 217   2.0000      -0.239364        -6.5134
 218   0.0000      -0.101912        -2.7732
 219   0.0000      -0.096521        -2.6265
 220   0.0000      -0.080536        -2.1915
 221   0.0000      -0.064953        -1.7675
 222   0.0000      -0.005418        -0.1474

MULLIKEN ATOMIC CHARGES
-----------------------
   0 C :   -0.079333
   1 C :    0.034995
   2 C :   -0.028779
   3 C :   -0.118847
   4 S :    0.180239
   5 C :   -0.089039
   6 C :    0.021397
   7 C :    0.302274
   8 C :   -0.300900
   9 C :   -0.189371
  10 N :    0.184795
  11 C :   -0.193583
  12 N :    0.172522
  13 C :   -0.056215
  14 C :   -0.118836
  15 S :    0.160494
  16 C :    0.148955
  17 C :   -0.064385
  18 C :   -0.035465
  19 C :    0.054018
  20 C :   -0.039530
  21 C :   -0.043374
  22 N :    0.047074
  23 O :   -0.086792
  24 N :    0.043764
  25 C :   -0.214220
  26 C :    0.199401
  27 O :   -0.327734
  28 C :    0.176314
  29 C :    0.158018
  30 O :   -0.321420
  31 C :    0.204957
  32 C :   -0.153484
  33 S :    0.156194
  34 C :    0.134702
  35 C :   -0.054674
  36 C :   -0.046228
  37 C :    0.155277
  38 C :   -0.073075
  39 C :   -0.066712
  40 N :    0.021091
  41 O :   -0.090238
  42 N :    0.014816
  43 C :   -0.098660
  44 C :   -0.054847
  45 C :    0.016230
  46 C :   -0.087251
  47 S :    0.210227
  48 C :   -0.118427
  49 C :   -0.032970
  50 C :    0.303285
  51 C :   -0.305889
  52 C :   -0.190674
  53 N :    0.171401
  54 C :   -0.184343
  55 N :    0.162352
  56 C :    0.036025
  57 C :   -0.084138
  58 S :    0.181405
  59 H :    0.036290
  60 H :    0.012300
  61 H :    0.024981
  62 H :   -0.005774
  63 H :   -0.002077
  64 H :    0.033501
  65 H :    0.044987
  66 H :    0.030494
  67 H :    0.029678
  68 H :    0.025897
  69 H :    0.033947
  70 H :   -0.001977
  71 H :   -0.012490
  72 H :    0.002059
  73 H :    0.010615
  74 H :    0.034782
Sum of atomic charges:   -0.0000000

LOEWDIN ATOMIC CHARGES
----------------------
   0 C :   -0.176024
   1 C :   -0.034557
   2 C :   -0.072601
   3 C :   -0.187251
   4 S :    0.475878
   5 C :   -0.173672
   6 C :   -0.072987
   7 C :    0.080861
   8 C :   -0.100110
   9 C :   -0.020794
  10 N :   -0.024047
  11 C :   -0.016079
  12 N :   -0.034201
  13 C :   -0.017368
  14 C :   -0.167232
  15 S :    0.471561
  16 C :   -0.040196
  17 C :   -0.020439
  18 C :   -0.013991
  19 C :   -0.048301
  20 C :   -0.048493
  21 C :   -0.044808
  22 N :   -0.019840
  23 O :    0.081908
  24 N :   -0.017437
  25 C :   -0.214291
  26 C :    0.002026
  27 O :   -0.098168
  28 C :    0.078496
  29 C :    0.019097
  30 O :   -0.092932
  31 C :    0.082993
  32 C :   -0.201343
  33 S :    0.472425
  34 C :   -0.036078
  35 C :   -0.007720
  36 C :   -0.000608
  37 C :   -0.050199
  38 C :   -0.055069
  39 C :   -0.052636
  40 N :   -0.037868
  41 O :    0.074743
  42 N :   -0.044939
  43 C :   -0.165926
  44 C :   -0.025306
  45 C :   -0.073438
  46 C :   -0.185701
  47 S :    0.513159
  48 C :   -0.181551
  49 C :   -0.078661
  50 C :    0.085718
  51 C :   -0.109665
  52 C :   -0.017169
  53 N :   -0.037125
  54 C :   -0.014834
  55 N :   -0.041712
  56 C :   -0.034837
  57 C :   -0.179997
  58 S :    0.477733
  59 H :    0.027754
  60 H :    0.042713
  61 H :    0.041395
  62 H :    0.027136
  63 H :    0.033018
  64 H :    0.019809
  65 H :    0.015135
  66 H :    0.024235
  67 H :    0.023128
  68 H :    0.017123
  69 H :    0.021769
  70 H :    0.035429
  71 H :    0.036775
  72 H :    0.037320
  73 H :    0.041982
  74 H :    0.026879

  Mayer bond orders larger than 0.100000
B(  0-C ,  1-C ) :   1.5470 B(  0-C ,  4-S ) :   1.1524 B(  0-C , 59-H ) :   0.9644
B(  1-C ,  2-C ) :   1.2761 B(  1-C , 60-H ) :   0.9965 B(  2-C ,  3-C ) :   1.4602
B(  2-C ,  7-C ) :   1.0124 B(  3-C ,  4-S ) :   1.1314 B(  3-C ,  5-C ) :   1.1789
B(  5-C ,  6-C ) :   1.4606 B(  5-C , 15-S ) :   1.1318 B(  6-C ,  7-C ) :   0.9952
B(  6-C , 13-C ) :   1.2434 B(  7-C ,  8-C ) :   1.7102 B(  8-C ,  9-C ) :   1.1357
B(  8-C , 11-C ) :   1.1322 B(  9-C , 10-N ) :   2.9930 B( 11-C , 12-N ) :   3.0012
B( 13-C , 14-C ) :   1.4969 B( 13-C , 61-H ) :   0.9824 B( 14-C , 15-S ) :   1.0846
B( 14-C , 16-C ) :   1.1197 B( 16-C , 17-C ) :   1.4707 B( 16-C , 19-C ) :   0.1069
B( 16-C , 21-C ) :   1.1524 B( 17-C , 18-C ) :   1.2181 B( 17-C , 62-H ) :   0.9865
B( 18-C , 19-C ) :   1.4906 B( 18-C , 63-H ) :   0.9881 B( 19-C , 20-C ) :   1.1711
B( 19-C , 25-C ) :   1.0297 B( 20-C , 21-C ) :   1.1439 B( 20-C , 24-N ) :   1.5654
B( 21-C , 22-N ) :   1.5966 B( 22-N , 23-O ) :   1.0636 B( 22-N , 24-N ) :   0.1829
B( 23-O , 24-N ) :   1.0633 B( 25-C , 26-C ) :   1.4735 B( 25-C , 32-C ) :   0.1370
B( 25-C , 33-S ) :   1.0804 B( 26-C , 27-O ) :   1.1777 B( 26-C , 29-C ) :   1.1920
B( 27-O , 28-C ) :   0.9368 B( 28-C , 64-H ) :   0.9634 B( 28-C , 65-H ) :   0.9659
B( 28-C , 66-H ) :   0.9765 B( 29-C , 30-O ) :   1.1715 B( 29-C , 32-C ) :   1.4905
B( 30-O , 31-C ) :   0.9228 B( 31-C , 67-H ) :   0.9771 B( 31-C , 68-H ) :   0.9768
B( 31-C , 69-H ) :   0.9744 B( 32-C , 33-S ) :   1.1098 B( 32-C , 34-C ) :   1.1407
B( 34-C , 35-C ) :   1.4829 B( 34-C , 37-C ) :   0.1009 B( 34-C , 39-C ) :   1.1148
B( 35-C , 36-C ) :   1.1978 B( 35-C , 70-H ) :   0.9849 B( 36-C , 37-C ) :   1.4684
B( 36-C , 71-H ) :   0.9944 B( 37-C , 38-C ) :   1.1329 B( 37-C , 43-C ) :   1.1003
B( 38-C , 39-C ) :   1.1564 B( 38-C , 42-N ) :   1.5818 B( 39-C , 40-N ) :   1.5783
B( 40-N , 41-O ) :   1.0660 B( 40-N , 42-N ) :   0.1800 B( 41-O , 42-N ) :   1.0637
B( 43-C , 44-C ) :   1.4607 B( 43-C , 47-S ) :   1.1155 B( 44-C , 45-C ) :   1.2954
B( 44-C , 72-H ) :   0.9885 B( 45-C , 46-C ) :   1.4423 B( 45-C , 50-C ) :   0.9949
B( 46-C , 47-S ) :   1.1129 B( 46-C , 48-C ) :   1.1775 B( 48-C , 49-C ) :   1.4566
B( 48-C , 58-S ) :   1.1396 B( 49-C , 50-C ) :   1.0159 B( 49-C , 56-C ) :   1.2753
B( 50-C , 51-C ) :   1.7044 B( 51-C , 52-C ) :   1.1301 B( 51-C , 54-C ) :   1.1357
B( 52-C , 53-N ) :   3.0030 B( 54-C , 55-N ) :   2.9864 B( 56-C , 57-C ) :   1.5494
B( 56-C , 73-H ) :   0.9961 B( 57-C , 58-S ) :   1.1489 B( 57-C , 74-H ) :   0.9644

-----------------------------------------------------------------------------
         ABSORPTION SPECTRUM VIA TRANSITION ELECTRIC DIPOLE MOMENTS
-----------------------------------------------------------------------------
State   Energy  Wavelength   fosc         T2         TX        TY        TZ
        (cm-1)    (nm)                  (au**2)     (au)      (au)      (au)
-----------------------------------------------------------------------------
   0   14005.6    714.0   0.251984959   5.92310  -0.87879   1.89831  -1.24388
   1   14754.5    677.8   0.149367065   3.33277  -0.17933  -1.76769   0.41939
   2   18296.2    546.6   1.253948773  22.56284  -1.14665   4.02263  -2.25089
   3   21806.7    458.6   0.102782006   1.55168  -1.07949  -0.17721  -0.59581
   4   22771.4    439.1   0.140027210   2.02441   0.78823   1.18446   0.01272
   5   24081.3    415.3   0.002274581   0.03110   0.14075   0.05245   0.09238
   6   24534.0    407.6   0.029993947   0.40248  -0.43155  -0.45165  -0.11070
   7   26342.6    379.6   0.030203633   0.37746   0.27580   0.54869  -0.01836
   8   27189.1    367.8   0.000953880   0.01155  -0.07725  -0.05022  -0.05532
   9   28302.2    353.3   0.033616694   0.39103  -0.12875   0.50424  -0.34669
  10   29231.3    342.1   0.063590657   0.71618   0.02015   0.80503  -0.26020
  11   29829.6    335.2   0.056735332   0.62615   0.10854   0.74188  -0.25295
  12   30820.6    324.5   0.021715656   0.23196  -0.08582  -0.44348   0.16708
  13   31502.7    317.4   0.420068952   4.38984  -0.65129  -1.26984   1.53401
  14   31571.1    316.7   0.588804342   6.13983   1.11836   1.03830   1.95218
  15   31818.6    314.3   0.293185657   3.03346   1.05596   1.26762   0.55815
  16   33114.9    302.0   0.136006788   1.35211  -0.88941   0.48300  -0.57251
  17   33567.8    297.9   0.074008248   0.72583  -0.27980  -0.80357   0.04255
  18   33743.3    296.4   0.003544266   0.03458   0.13124   0.11644  -0.06160
  19   34667.9    288.5   0.767019461   7.28374  -0.93128   2.04493  -1.49489
  20   34964.8    286.0   0.296456106   2.79129  -0.52491   1.42005  -0.70656
  21   35435.3    282.2   0.012589101   0.11696  -0.23188  -0.06260  -0.24346
  22   35908.8    278.5   0.161081983   1.47680   0.63250   1.01884  -0.19677
  23   36332.6    275.2   0.075338232   0.68264  -0.66484  -0.48591  -0.06722
  24   36618.4    273.1   0.026152757   0.23512  -0.42379  -0.21178   0.10329
  25   36933.5    270.8   0.247678122   2.20771  -0.73772  -1.00456  -0.80890
  26   38698.1    258.4   0.005144200   0.04376  -0.05535   0.19601  -0.04775
  27   39365.0    254.0   0.041724239   0.34894  -0.46297  -0.30989  -0.19639
  28   40221.9    248.6   0.012002370   0.09824  -0.18377  -0.18491   0.17400

FINAL SINGLE POINT ENERGY     -4336.109342273432

DIPOLE MOMENT
-------------
                                X             Y             Z
Electronic contribution:    -22.13477      -7.95298      -8.01797
Nuclear contribution   :     21.92540       6.01515       5.86248
                        -----------------------------------------
Total Dipole Moment    :     -0.20937      -1.93783      -2.15549
                        -----------------------------------------
Magnitude (a.u.)       :      2.90605
Magnitude (Debye)      :      7.38660

Rotational constants in cm-1:     0.003223     0.000313     0.000292
Rotational constants in MHz :    96.630230     9.396392     8.746767

                             ****ORCA TERMINATED NORMALLY****
TOTAL RUN TIME: 0 days 0 hours 5 minutes 57 seconds 858 msec
