                         Program Version 4.2.0 -  RELEASE  -
|  1> # ORCA input file
|  2> # SCF done       -200.033265644784          0.000553272489
|  3> ! CAM-B3LYP def2-SVP def2/J RIJCOSX Grid4 TightSCF
|  4> %maxcore 5000
|  5> %tddft
|  6>     Mode sTDDFT
|  7>     Ethresh 5.0
|  8>     maxcore 5000
|  9> end
| 10>
| 11> %pal
| 12>   nprocs 6
| 13>   end
| 14> * xyz 0 1
| 15>    C       -0.41816        -0.69292        -7.86438
| 16>    C       -1.18676        -0.79055        -8.99019
| 17>    F       -1.03351         0.08986        -9.98928
| 18>    C       -2.14700        -1.81371        -9.11648
| 19>    F       -2.88635        -1.88709       -10.23282
| 20>    C       -2.32668        -2.72474        -8.11371
| 21>    C       -1.55023        -2.65062        -6.94126
| 22>    C       -0.57797        -1.61719        -6.81234
| 23>    C        0.21562        -1.52566        -5.64572
| 24>    C        0.03837        -2.43639        -4.63729
| 25>    C       -0.93557        -3.46311        -4.77446
| 26>    C       -1.71051        -3.58189        -5.89107
| 27>    C       -0.91500        -4.32708        -3.57557
| 28>    O       -1.51795        -5.36956        -3.44102
| 29>    C        0.09958        -3.72788        -2.67208
| 30>    C        0.69540        -2.59025        -3.34178
| 31>    C        1.65894        -1.75379        -2.83760
| 32>    C        2.25817        -1.87313        -1.56677
| 33>    N        2.78822        -1.89554        -0.54791
| 34>    C        2.18205        -0.64247        -3.53021
| 35>    N        2.65033         0.27199        -4.04316
| 36>    C        0.50100        -4.27769        -1.48812
| 37>    C       -0.22389        -5.25210        -0.74421
| 38>    C        0.43151        -6.22385         0.01971
| 39>    C       -0.22705        -7.23694         0.69494
| 40>    C       -1.62444        -7.35204         0.71976
| 41>    C       -2.31304        -6.32467         0.01995
| 42>    C       -1.63646        -5.29552        -0.69254
| 43>    N       -2.56909        -4.46618        -1.17814
| 44>    N       -3.69783        -4.99388        -0.79625
| 45>    N       -3.62706        -6.08726        -0.08884
| 46>    C       -4.95568        -4.41701        -1.15595
| 47>    C       -2.41120        -8.36433         1.31893
| 48>    C       -2.07510        -9.42080         2.12872
| 49>    C       -0.86597        -9.83016         2.74440
| 50>    C       -0.96779       -10.97042         3.48281
| 51>    C       -2.26287       -11.53522         3.50058
| 52>    S       -3.35556       -10.55211         2.56298
| 53>    C       -2.68001       -12.69163         4.13484
| 54>    C       -1.91401       -13.59804         4.89981
| 55>    C       -2.62933       -14.65440         5.37438
| 56>    C       -4.00478       -14.64806         5.01898
| 57>    S       -4.34111       -13.22746         4.04842
| 58>    C       -4.89991       -15.62287         5.38332
| 59>    C       -6.28287       -15.73387         5.11533
| 60>    C       -7.08325       -14.81411         4.42265
| 61>    C       -8.43848       -14.99917         4.22919
| 62>    C       -9.15842       -16.09365         4.72921
| 63>    C       -8.37259       -17.06775         5.39354
| 64>    C       -6.97315       -16.88286         5.58317
| 65>    N       -6.51062       -17.95911         6.23297
| 66>    N       -7.55905       -18.71380         6.39940
| 67>    N       -8.68892       -18.25739         5.92503
| 68>    C       -7.49049       -19.96467         7.08934
| 69>    C      -10.55850       -16.17487         4.50374
| 70>    C      -11.51691       -16.93344         5.11128
| 71>    C      -12.81280       -17.14821         4.41485
| 72>    O      -13.23194       -16.54805         3.45116
| 73>    C      -13.44632       -18.28567         5.11671
| 74>    C      -14.60358       -18.94274         4.81638
| 75>    C      -15.00876       -20.02689         5.62799
| 76>    C      -14.19994       -20.41018         6.73677
| 77>    C      -14.60798       -21.49509         7.53826
| 78>    C      -15.76519       -22.16480         7.25524
| 79>    C      -16.56509       -21.78318         6.16051
| 80>    C      -16.19572       -20.73662         5.36276
| 81>    F      -17.69572       -22.45814         5.90593
| 82>    F      -16.15067       -23.19593         8.02083
| 83>    C      -13.01015       -19.70371         7.02863
| 84>    C      -12.64023       -18.65401         6.23182
| 85>    C      -11.51631       -17.72606         6.31381
| 86>    C      -10.74031       -17.51219         7.42533
| 87>    C       -9.92035       -16.37812         7.58925
| 88>    N       -9.27595       -15.44897         7.78849
| 89>    C      -10.69975       -18.37324         8.53557
| 90>    N      -10.56570       -19.07811         9.43338
| 91>    H        0.31258         0.09666        -7.78413
| 92>    H       -3.06519        -3.50305        -8.22600
| 93>    H        0.94842        -0.73761        -5.58377
| 94>    H       -2.43684        -4.37632        -5.97186
| 95>    H        1.45642        -3.98401        -1.07082
| 96>    H        1.51233        -6.21446         0.03023
| 97>    H        0.37380        -7.98084         1.19007
| 98>    H       -4.90459        -3.33603        -1.03487
| 99>    H       -5.72291        -4.84190        -0.51275
|100>    H       -5.18373        -4.64466        -2.19885
|101>    H       -3.46417        -8.27974         1.07851
|102>    H        0.04610        -9.27049         2.65763
|103>    H       -0.14726       -11.41553         4.01663
|104>    H       -0.86387       -13.45000         5.07593
|105>    H       -2.21676       -15.44588         5.97447
|106>    H       -4.49297       -16.43890         5.96768
|107>    H       -6.63510       -13.91603         4.03001
|108>    H       -8.98922       -14.23634         3.69801
|109>    H       -7.85152       -20.76408         6.44193
|110>    H       -8.11613       -19.92909         7.98304
|111>    H       -6.45394       -20.14029         7.36569
|112>    H      -10.92638       -15.58064         3.67154
|113>    H      -15.20481       -18.63946         3.97274
|114>    H      -14.00914       -21.79874         8.38268
|115>    H      -16.81899       -20.45656         4.52801
|116>    H      -12.41560       -20.01451         7.87306
|117> *
|118>
|119>                          ****END OF INPUT****

CARTESIAN COORDINATES (ANGSTROEM)
---------------------------------
  C     -0.418160   -0.692920   -7.864380
  C     -1.186760   -0.790550   -8.990190
  F     -1.033510    0.089860   -9.989280
  C     -2.147000   -1.813710   -9.116480
  F     -2.886350   -1.887090  -10.232820
  C     -2.326680   -2.724740   -8.113710
  C     -1.550230   -2.650620   -6.941260
  C     -0.577970   -1.617190   -6.812340
  C      0.215620   -1.525660   -5.645720
  C      0.038370   -2.436390   -4.637290
  C     -0.935570   -3.463110   -4.774460
  C     -1.710510   -3.581890   -5.891070
  C     -0.915000   -4.327080   -3.575570
  O     -1.517950   -5.369560   -3.441020
  C      0.099580   -3.727880   -2.672080
  C      0.695400   -2.590250   -3.341780
  C      1.658940   -1.753790   -2.837600
  C      2.258170   -1.873130   -1.566770
  N      2.788220   -1.895540   -0.547910
  C      2.182050   -0.642470   -3.530210
  N      2.650330    0.271990   -4.043160
  C      0.501000   -4.277690   -1.488120
  C     -0.223890   -5.252100   -0.744210
  C      0.431510   -6.223850    0.019710
  C     -0.227050   -7.236940    0.694940
  C     -1.624440   -7.352040    0.719760
  C     -2.313040   -6.324670    0.019950
  C     -1.636460   -5.295520   -0.692540
  N     -2.569090   -4.466180   -1.178140
  N     -3.697830   -4.993880   -0.796250
  N     -3.627060   -6.087260   -0.088840
  C     -4.955680   -4.417010   -1.155950
  C     -2.411200   -8.364330    1.318930
  C     -2.075100   -9.420800    2.128720
  C     -0.865970   -9.830160    2.744400
  C     -0.967790  -10.970420    3.482810
  C     -2.262870  -11.535220    3.500580
  S     -3.355560  -10.552110    2.562980
  C     -2.680010  -12.691630    4.134840
  C     -1.914010  -13.598040    4.899810
  C     -2.629330  -14.654400    5.374380
  C     -4.004780  -14.648060    5.018980
  S     -4.341110  -13.227460    4.048420
  C     -4.899910  -15.622870    5.383320
  C     -6.282870  -15.733870    5.115330
  C     -7.083250  -14.814110    4.422650
  C     -8.438480  -14.999170    4.229190
  C     -9.158420  -16.093650    4.729210
  C     -8.372590  -17.067750    5.393540
  C     -6.973150  -16.882860    5.583170
  N     -6.510620  -17.959110    6.232970
  N     -7.559050  -18.713800    6.399400
  N     -8.688920  -18.257390    5.925030
  C     -7.490490  -19.964670    7.089340
  C    -10.558500  -16.174870    4.503740
  C    -11.516910  -16.933440    5.111280
  C    -12.812800  -17.148210    4.414850
  O    -13.231940  -16.548050    3.451160
  C    -13.446320  -18.285670    5.116710
  C    -14.603580  -18.942740    4.816380
  C    -15.008760  -20.026890    5.627990
  C    -14.199940  -20.410180    6.736770
  C    -14.607980  -21.495090    7.538260
  C    -15.765190  -22.164800    7.255240
  C    -16.565090  -21.783180    6.160510
  C    -16.195720  -20.736620    5.362760
  F    -17.695720  -22.458140    5.905930
  F    -16.150670  -23.195930    8.020830
  C    -13.010150  -19.703710    7.028630
  C    -12.640230  -18.654010    6.231820
  C    -11.516310  -17.726060    6.313810
  C    -10.740310  -17.512190    7.425330
  C     -9.920350  -16.378120    7.589250
  N     -9.275950  -15.448970    7.788490
  C    -10.699750  -18.373240    8.535570
  N    -10.565700  -19.078110    9.433380
  H      0.312580    0.096660   -7.784130
  H     -3.065190   -3.503050   -8.226000
  H      0.948420   -0.737610   -5.583770
  H     -2.436840   -4.376320   -5.971860
  H      1.456420   -3.984010   -1.070820
  H      1.512330   -6.214460    0.030230
  H      0.373800   -7.980840    1.190070
  H     -4.904590   -3.336030   -1.034870
  H     -5.722910   -4.841900   -0.512750
  H     -5.183730   -4.644660   -2.198850
  H     -3.464170   -8.279740    1.078510
  H      0.046100   -9.270490    2.657630
  H     -0.147260  -11.415530    4.016630
  H     -0.863870  -13.450000    5.075930
  H     -2.216760  -15.445880    5.974470
  H     -4.492970  -16.438900    5.967680
  H     -6.635100  -13.916030    4.030010
  H     -8.989220  -14.236340    3.698010
  H     -7.851520  -20.764080    6.441930
  H     -8.116130  -19.929090    7.983040
  H     -6.453940  -20.140290    7.365690
  H    -10.926380  -15.580640    3.671540
  H    -15.204810  -18.639460    3.972740
  H    -14.009140  -21.798740    8.382680
  H    -16.818990  -20.456560    4.528010
  H    -12.415600  -20.014510    7.873060

 Total Charge           Charge          ....    0
 Multiplicity           Mult            ....    1
 Number of Electrons    NEL             ....  528
 Basis Dimension        Dim             .... 1202

ORBITAL ENERGIES
----------------

  NO   OCC          E(Eh)            E(eV)
   0   2.0000     -88.963961     -2420.8324
   1   2.0000     -88.959009     -2420.6977
   2   2.0000     -24.796459      -674.7459
   3   2.0000     -24.795024      -674.7069
   4   2.0000     -24.793643      -674.6693
   5   2.0000     -24.793424      -674.6634
   6   2.0000     -19.209271      -522.7108
   7   2.0000     -19.209069      -522.7054
   8   2.0000     -14.547517      -395.8581
   9   2.0000     -14.545079      -395.7917
  10   2.0000     -14.451468      -393.2444
  11   2.0000     -14.445722      -393.0881
  12   2.0000     -14.444013      -393.0416
  13   2.0000     -14.440925      -392.9575
  14   2.0000     -14.414213      -392.2307
  15   2.0000     -14.413732      -392.2176
  16   2.0000     -14.412926      -392.1957
  17   2.0000     -14.405257      -391.9870
  18   2.0000     -10.379256      -282.4339
  19   2.0000     -10.378108      -282.4027
  20   2.0000     -10.376215      -282.3512
  21   2.0000     -10.375867      -282.3417
  22   2.0000     -10.360930      -281.9352
  23   2.0000     -10.359750      -281.9031
  24   2.0000     -10.339383      -281.3489
  25   2.0000     -10.338153      -281.3155
  26   2.0000     -10.332666      -281.1661
  27   2.0000     -10.329624      -281.0834
  28   2.0000     -10.328512      -281.0531
  29   2.0000     -10.328296      -281.0472
  30   2.0000     -10.327751      -281.0324
  31   2.0000     -10.326571      -281.0003
  32   2.0000     -10.324799      -280.9521
  33   2.0000     -10.323072      -280.9051
  34   2.0000     -10.317258      -280.7469
  35   2.0000     -10.316647      -280.7302
  36   2.0000     -10.316056      -280.7142
  37   2.0000     -10.313989      -280.6579
  38   2.0000     -10.309143      -280.5260
  39   2.0000     -10.308851      -280.5181
  40   2.0000     -10.308393      -280.5056
  41   2.0000     -10.308157      -280.4992
  42   2.0000     -10.307691      -280.4865
  43   2.0000     -10.307593      -280.4839
  44   2.0000     -10.307238      -280.4742
  45   2.0000     -10.306948      -280.4663
  46   2.0000     -10.306471      -280.4533
  47   2.0000     -10.305052      -280.4147
  48   2.0000     -10.304932      -280.4115
  49   2.0000     -10.304257      -280.3931
  50   2.0000     -10.304238      -280.3926
  51   2.0000     -10.303627      -280.3760
  52   2.0000     -10.303573      -280.3745
  53   2.0000     -10.302758      -280.3523
  54   2.0000     -10.300545      -280.2921
  55   2.0000     -10.299908      -280.2747
  56   2.0000     -10.299133      -280.2537
  57   2.0000     -10.298923      -280.2479
  58   2.0000     -10.298160      -280.2272
  59   2.0000     -10.298094      -280.2254
  60   2.0000     -10.297102      -280.1984
  61   2.0000     -10.296630      -280.1855
  62   2.0000     -10.296479      -280.1814
  63   2.0000     -10.296301      -280.1766
  64   2.0000     -10.295881      -280.1652
  65   2.0000     -10.295685      -280.1598
  66   2.0000     -10.295492      -280.1546
  67   2.0000     -10.294735      -280.1340
  68   2.0000     -10.294438      -280.1259
  69   2.0000     -10.293089      -280.0892
  70   2.0000     -10.291981      -280.0590
  71   2.0000     -10.288662      -279.9687
  72   2.0000     -10.288547      -279.9656
  73   2.0000     -10.287987      -279.9504
  74   2.0000     -10.286807      -279.9182
  75   2.0000     -10.285392      -279.8797
  76   2.0000      -8.059901      -219.3211
  77   2.0000      -8.055631      -219.2049
  78   2.0000      -6.029608      -164.0740
  79   2.0000      -6.025530      -163.9630
  80   2.0000      -6.025400      -163.9595
  81   2.0000      -6.021280      -163.8473
  82   2.0000      -6.020910      -163.8373
  83   2.0000      -6.016472      -163.7165
  84   2.0000      -1.318310       -35.8730
  85   2.0000      -1.316004       -35.8103
  86   2.0000      -1.303459       -35.4689
  87   2.0000      -1.301230       -35.4083
  88   2.0000      -1.224627       -33.3238
  89   2.0000      -1.221780       -33.2463
  90   2.0000      -1.124469       -30.5984
  91   2.0000      -1.123974       -30.5849
  92   2.0000      -1.016613       -27.6634
  93   2.0000      -1.014426       -27.6039
  94   2.0000      -1.012940       -27.5635
  95   2.0000      -1.001356       -27.2483
  96   2.0000      -0.998960       -27.1831
  97   2.0000      -0.997587       -27.1457
  98   2.0000      -0.995319       -27.0840
  99   2.0000      -0.993055       -27.0224
 100   2.0000      -0.991869       -26.9901
 101   2.0000      -0.989457       -26.9245
 102   2.0000      -0.985719       -26.8228
 103   2.0000      -0.982593       -26.7377
 104   2.0000      -0.977116       -26.5887
 105   2.0000      -0.973672       -26.4950
 106   2.0000      -0.932940       -25.3866
 107   2.0000      -0.932167       -25.3655
 108   2.0000      -0.927806       -25.2469
 109   2.0000      -0.924852       -25.1665
 110   2.0000      -0.915300       -24.9066
 111   2.0000      -0.908718       -24.7275
 112   2.0000      -0.895562       -24.3695
 113   2.0000      -0.891592       -24.2615
 114   2.0000      -0.888507       -24.1775
 115   2.0000      -0.885132       -24.0857
 116   2.0000      -0.879239       -23.9253
 117   2.0000      -0.866641       -23.5825
 118   2.0000      -0.861169       -23.4336
 119   2.0000      -0.847160       -23.0524
 120   2.0000      -0.842267       -22.9192
 121   2.0000      -0.837325       -22.7848
 122   2.0000      -0.834463       -22.7069
 123   2.0000      -0.827630       -22.5210
 124   2.0000      -0.821322       -22.3493
 125   2.0000      -0.819877       -22.3100
 126   2.0000      -0.803736       -21.8708
 127   2.0000      -0.791583       -21.5401
 128   2.0000      -0.775946       -21.1146
 129   2.0000      -0.763305       -20.7706
 130   2.0000      -0.758903       -20.6508
 131   2.0000      -0.754078       -20.5195
 132   2.0000      -0.741940       -20.1892
 133   2.0000      -0.735755       -20.0209
 134   2.0000      -0.731258       -19.8985
 135   2.0000      -0.728855       -19.8332
 136   2.0000      -0.723372       -19.6840
 137   2.0000      -0.717503       -19.5243
 138   2.0000      -0.713288       -19.4096
 139   2.0000      -0.710249       -19.3269
 140   2.0000      -0.704021       -19.1574
 141   2.0000      -0.698969       -19.0199
 142   2.0000      -0.690363       -18.7857
 143   2.0000      -0.683306       -18.5937
 144   2.0000      -0.675841       -18.3906
 145   2.0000      -0.672938       -18.3116
 146   2.0000      -0.663207       -18.0468
 147   2.0000      -0.655668       -17.8416
 148   2.0000      -0.651917       -17.7396
 149   2.0000      -0.648474       -17.6459
 150   2.0000      -0.642952       -17.4956
 151   2.0000      -0.639740       -17.4082
 152   2.0000      -0.637347       -17.3431
 153   2.0000      -0.637120       -17.3369
 154   2.0000      -0.634842       -17.2749
 155   2.0000      -0.629312       -17.1245
 156   2.0000      -0.627469       -17.0743
 157   2.0000      -0.614667       -16.7259
 158   2.0000      -0.611854       -16.6494
 159   2.0000      -0.609914       -16.5966
 160   2.0000      -0.609003       -16.5718
 161   2.0000      -0.606138       -16.4938
 162   2.0000      -0.605707       -16.4821
 163   2.0000      -0.601107       -16.3569
 164   2.0000      -0.595150       -16.1948
 165   2.0000      -0.586603       -15.9623
 166   2.0000      -0.583518       -15.8783
 167   2.0000      -0.583117       -15.8674
 168   2.0000      -0.580723       -15.8023
 169   2.0000      -0.577898       -15.7254
 170   2.0000      -0.576086       -15.6761
 171   2.0000      -0.573314       -15.6007
 172   2.0000      -0.572259       -15.5720
 173   2.0000      -0.569012       -15.4836
 174   2.0000      -0.559998       -15.2383
 175   2.0000      -0.551768       -15.0144
 176   2.0000      -0.549130       -14.9426
 177   2.0000      -0.547490       -14.8980
 178   2.0000      -0.544838       -14.8258
 179   2.0000      -0.544714       -14.8224
 180   2.0000      -0.542540       -14.7633
 181   2.0000      -0.537846       -14.6355
 182   2.0000      -0.534312       -14.5394
 183   2.0000      -0.532923       -14.5016
 184   2.0000      -0.529731       -14.4147
 185   2.0000      -0.528089       -14.3700
 186   2.0000      -0.527652       -14.3581
 187   2.0000      -0.525461       -14.2985
 188   2.0000      -0.522507       -14.2181
 189   2.0000      -0.521225       -14.1833
 190   2.0000      -0.517697       -14.0872
 191   2.0000      -0.515540       -14.0286
 192   2.0000      -0.513289       -13.9673
 193   2.0000      -0.511084       -13.9073
 194   2.0000      -0.510222       -13.8838
 195   2.0000      -0.509195       -13.8559
 196   2.0000      -0.508753       -13.8439
 197   2.0000      -0.507840       -13.8190
 198   2.0000      -0.506151       -13.7731
 199   2.0000      -0.503829       -13.7099
 200   2.0000      -0.500284       -13.6134
 201   2.0000      -0.498466       -13.5639
 202   2.0000      -0.494866       -13.4660
 203   2.0000      -0.493387       -13.4257
 204   2.0000      -0.492121       -13.3913
 205   2.0000      -0.486676       -13.2431
 206   2.0000      -0.483524       -13.1574
 207   2.0000      -0.483037       -13.1441
 208   2.0000      -0.479872       -13.0580
 209   2.0000      -0.479806       -13.0562
 210   2.0000      -0.478821       -13.0294
 211   2.0000      -0.475313       -12.9339
 212   2.0000      -0.466807       -12.7025
 213   2.0000      -0.462142       -12.5755
 214   2.0000      -0.460861       -12.5407
 215   2.0000      -0.457756       -12.4562
 216   2.0000      -0.457350       -12.4451
 217   2.0000      -0.455503       -12.3949
 218   2.0000      -0.450668       -12.2633
 219   2.0000      -0.449225       -12.2240
 220   2.0000      -0.447878       -12.1874
 221   2.0000      -0.447343       -12.1728
 222   2.0000      -0.443978       -12.0813
 223   2.0000      -0.442300       -12.0356
 224   2.0000      -0.441915       -12.0251
 225   2.0000      -0.441294       -12.0082
 226   2.0000      -0.438125       -11.9220
 227   2.0000      -0.436442       -11.8762
 228   2.0000      -0.434271       -11.8171
 229   2.0000      -0.428723       -11.6662
 230   2.0000      -0.425860       -11.5882
 231   2.0000      -0.422467       -11.4959
 232   2.0000      -0.421240       -11.4625
 233   2.0000      -0.420898       -11.4532
 234   2.0000      -0.417654       -11.3650
 235   2.0000      -0.414788       -11.2869
 236   2.0000      -0.413252       -11.2452
 237   2.0000      -0.407335       -11.0842
 238   2.0000      -0.401739       -10.9319
 239   2.0000      -0.399520       -10.8715
 240   2.0000      -0.395141       -10.7523
 241   2.0000      -0.392310       -10.6753
 242   2.0000      -0.389633       -10.6024
 243   2.0000      -0.385537       -10.4910
 244   2.0000      -0.382084       -10.3970
 245   2.0000      -0.377710       -10.2780
 246   2.0000      -0.374075       -10.1791
 247   2.0000      -0.370156       -10.0725
 248   2.0000      -0.353969        -9.6320
 249   2.0000      -0.352935        -9.6038
 250   2.0000      -0.342647        -9.3239
 251   2.0000      -0.341537        -9.2937
 252   2.0000      -0.337457        -9.1827
 253   2.0000      -0.333794        -9.0830
 254   2.0000      -0.330103        -8.9826
 255   2.0000      -0.327175        -8.9029
 256   2.0000      -0.322882        -8.7861
 257   2.0000      -0.312403        -8.5009
 258   2.0000      -0.308868        -8.4047
 259   2.0000      -0.303752        -8.2655
 260   2.0000      -0.295516        -8.0414
 261   2.0000      -0.290010        -7.8916
 262   2.0000      -0.273973        -7.4552
 263   2.0000      -0.225531        -6.1370
 264   0.0000      -0.117534        -3.1983
 265   0.0000      -0.091725        -2.4960
 266   0.0000      -0.071519        -1.9461
 267   0.0000      -0.055034        -1.4976
 268   0.0000      -0.049509        -1.3472

MULLIKEN ATOMIC CHARGES
-----------------------
   0 C :   -0.112507
   1 C :    0.242340
   2 F :   -0.173323
   3 C :    0.238653
   4 F :   -0.173854
   5 C :   -0.110249
   6 C :    0.121834
   7 C :    0.117338
   8 C :   -0.092214
   9 C :    0.055273
  10 C :   -0.000543
  11 C :   -0.091230
  12 C :    0.151686
  13 O :   -0.145376
  14 C :   -0.078837
  15 C :    0.310737
  16 C :   -0.347840
  17 C :   -0.195343
  18 N :    0.152435
  19 C :   -0.183517
  20 N :    0.145417
  21 C :   -0.051721
  22 C :    0.047177
  23 C :   -0.001108
  24 C :   -0.054518
  25 C :    0.082623
  26 C :   -0.035007
  27 C :    0.034900
  28 N :   -0.053856
  29 N :   -0.071476
  30 N :   -0.054650
  31 C :    0.146539
  32 C :    0.001238
  33 C :   -0.040516
  34 C :    0.031194
  35 C :    0.025365
  36 C :   -0.046115
  37 S :    0.106063
  38 C :   -0.026320
  39 C :    0.033649
  40 C :    0.035970
  41 C :    0.006156
  42 S :    0.074218
  43 C :   -0.062167
  44 C :    0.079433
  45 C :   -0.049611
  46 C :   -0.001135
  47 C :    0.067468
  48 C :   -0.014630
  49 C :   -0.005345
  50 N :   -0.044826
  51 N :   -0.067726
  52 N :   -0.070877
  53 C :    0.142420
  54 C :   -0.013810
  55 C :   -0.121931
  56 C :    0.135008
  57 O :   -0.145140
  58 C :    0.008644
  59 C :   -0.085087
  60 C :    0.111413
  61 C :    0.116547
  62 C :   -0.110042
  63 C :    0.241441
  64 C :    0.236100
  65 C :   -0.104700
  66 F :   -0.174521
  67 F :   -0.174388
  68 C :   -0.097335
  69 C :    0.053026
  70 C :    0.308227
  71 C :   -0.311628
  72 C :   -0.227495
  73 N :    0.170801
  74 C :   -0.164441
  75 N :    0.117655
  76 H :    0.007804
  77 H :   -0.002296
  78 H :   -0.006619
  79 H :   -0.015122
  80 H :    0.025610
  81 H :   -0.013255
  82 H :   -0.037379
  83 H :    0.053589
  84 H :    0.051821
  85 H :    0.057308
  86 H :    0.001669
  87 H :   -0.006442
  88 H :   -0.007233
  89 H :   -0.006336
  90 H :   -0.002314
  91 H :   -0.000572
  92 H :   -0.009877
  93 H :   -0.011270
  94 H :    0.051342
  95 H :    0.065586
  96 H :    0.049765
  97 H :    0.015143
  98 H :   -0.011791
  99 H :    0.002075
 100 H :   -0.001785
 101 H :   -0.011455
Sum of atomic charges:    0.0000000

LOEWDIN ATOMIC CHARGES
----------------------
   0 C :   -0.029416
   1 C :    0.065100
   2 F :   -0.050916
   3 C :    0.067049
   4 F :   -0.051477
   5 C :   -0.035332
   6 C :   -0.008550
   7 C :   -0.007900
   8 C :    0.016053
   9 C :   -0.022806
  10 C :   -0.047167
  11 C :    0.024004
  12 C :    0.081397
  13 O :   -0.139744
  14 C :   -0.088630
  15 C :    0.076087
  16 C :   -0.140408
  17 C :   -0.021721
  18 N :   -0.053600
  19 C :   -0.017188
  20 N :   -0.056647
  21 C :    0.078802
  22 C :   -0.045396
  23 C :    0.015848
  24 C :   -0.034735
  25 C :   -0.002912
  26 C :   -0.048085
  27 C :   -0.032324
  28 N :   -0.083700
  29 N :    0.161932
  30 N :   -0.090448
  31 C :    0.033562
  32 C :   -0.047033
  33 C :   -0.125176
  34 C :   -0.036876
  35 C :   -0.014580
  36 C :   -0.174938
  37 S :    0.390616
  38 C :   -0.173397
  39 C :   -0.029082
  40 C :   -0.023478
  41 C :   -0.128770
  42 S :    0.400929
  43 C :   -0.044274
  44 C :   -0.001767
  45 C :   -0.035883
  46 C :    0.028392
  47 C :   -0.050406
  48 C :   -0.039821
  49 C :   -0.044431
  50 N :   -0.078081
  51 N :    0.160279
  52 N :   -0.088431
  53 C :    0.032437
  54 C :    0.070879
  55 C :   -0.091577
  56 C :    0.083824
  57 O :   -0.145919
  58 C :   -0.053390
  59 C :    0.028448
  60 C :   -0.011683
  61 C :   -0.005846
  62 C :   -0.032659
  63 C :    0.065569
  64 C :    0.064141
  65 C :   -0.033304
  66 F :   -0.052353
  67 F :   -0.051863
  68 C :    0.006408
  69 C :   -0.013723
  70 C :    0.070481
  71 C :   -0.135135
  72 C :   -0.023033
  73 N :   -0.056275
  74 C :   -0.012267
  75 N :   -0.071553
  76 H :    0.047534
  77 H :    0.043811
  78 H :    0.039440
  79 H :    0.037894
  80 H :    0.045477
  81 H :    0.035771
  82 H :    0.026188
  83 H :    0.042040
  84 H :    0.041890
  85 H :    0.042270
  86 H :    0.036690
  87 H :    0.033471
  88 H :    0.035318
  89 H :    0.034735
  90 H :    0.037763
  91 H :    0.041661
  92 H :    0.015480
  93 H :    0.037015
  94 H :    0.041068
  95 H :    0.044444
  96 H :    0.041923
  97 H :    0.045579
  98 H :    0.039447
  99 H :    0.045574
 100 H :    0.044076
 101 H :    0.037310

  Mayer bond orders larger than 0.100000
B(  0-C ,  1-C ) :   1.4416 B(  0-C ,  5-C ) :   0.1090 B(  0-C ,  7-C ) :   1.1869
B(  0-C , 76-H ) :   1.0075 B(  1-C ,  2-F ) :   1.1321 B(  1-C ,  3-C ) :   1.1920
B(  3-C ,  4-F ) :   1.1316 B(  3-C ,  5-C ) :   1.4432 B(  5-C ,  6-C ) :   1.1912
B(  5-C , 77-H ) :   1.0076 B(  6-C ,  7-C ) :   1.2567 B(  6-C , 11-C ) :   1.1862
B(  7-C ,  8-C ) :   1.2163 B(  8-C ,  9-C ) :   1.4468 B(  8-C , 78-H ) :   0.9902
B(  9-C , 10-C ) :   1.2229 B(  9-C , 15-C ) :   0.9844 B( 10-C , 11-C ) :   1.4760
B( 10-C , 12-C ) :   0.9363 B( 11-C , 79-H ) :   1.0167 B( 12-C , 13-O ) :   2.2318
B( 12-C , 14-C ) :   0.9426 B( 14-C , 15-C ) :   1.0826 B( 14-C , 21-C ) :   1.5933
B( 15-C , 16-C ) :   1.6279 B( 16-C , 17-C ) :   1.1434 B( 16-C , 19-C ) :   1.1473
B( 17-C , 18-N ) :   2.9752 B( 19-C , 20-N ) :   2.9597 B( 21-C , 22-C ) :   1.1319
B( 21-C , 80-H ) :   0.9422 B( 22-C , 23-C ) :   1.3604 B( 22-C , 27-C ) :   1.1784
B( 23-C , 24-C ) :   1.3229 B( 23-C , 81-H ) :   0.9915 B( 24-C , 25-C ) :   1.3408
B( 24-C , 82-H ) :   0.9947 B( 25-C , 26-C ) :   1.1729 B( 25-C , 32-C ) :   1.2205
B( 26-C , 27-C ) :   1.2342 B( 26-C , 30-N ) :   1.4840 B( 27-C , 28-N ) :   1.4645
B( 28-N , 29-N ) :   1.2243 B( 28-N , 30-N ) :   0.1616 B( 29-N , 30-N ) :   1.2399
B( 29-N , 31-C ) :   0.9536 B( 31-C , 83-H ) :   0.9685 B( 31-C , 84-H ) :   0.9670
B( 31-C , 85-H ) :   0.9695 B( 32-C , 33-C ) :   1.5227 B( 32-C , 86-H ) :   0.9459
B( 33-C , 34-C ) :   1.1427 B( 33-C , 37-S ) :   1.0532 B( 34-C , 35-C ) :   1.5976
B( 34-C , 87-H ) :   0.9923 B( 35-C , 36-C ) :   1.1962 B( 35-C , 88-H ) :   0.9930
B( 36-C , 37-S ) :   1.0631 B( 36-C , 38-C ) :   1.4803 B( 38-C , 39-C ) :   1.1919
B( 38-C , 42-S ) :   1.0480 B( 39-C , 40-C ) :   1.5813 B( 39-C , 89-H ) :   0.9930
B( 40-C , 41-C ) :   1.1489 B( 40-C , 90-H ) :   1.0009 B( 41-C , 42-S ) :   1.0491
B( 41-C , 43-C ) :   1.5186 B( 43-C , 44-C ) :   1.1876 B( 43-C , 91-H ) :   0.9734
B( 44-C , 45-C ) :   1.3315 B( 44-C , 49-C ) :   1.1685 B( 45-C , 46-C ) :   1.3426
B( 45-C , 92-H ) :   0.9757 B( 46-C , 47-C ) :   1.3521 B( 46-C , 93-H ) :   0.9913
B( 47-C , 48-C ) :   1.1648 B( 47-C , 54-C ) :   1.1265 B( 48-C , 49-C ) :   1.2325
B( 48-C , 52-N ) :   1.4692 B( 49-C , 50-N ) :   1.4862 B( 50-N , 51-N ) :   1.2540
B( 50-N , 52-N ) :   0.1510 B( 51-N , 52-N ) :   1.1990 B( 51-N , 53-C ) :   0.9512
B( 53-C , 94-H ) :   0.9683 B( 53-C , 95-H ) :   0.9628 B( 53-C , 96-H ) :   0.9651
B( 54-C , 55-C ) :   1.6080 B( 54-C , 97-H ) :   0.9447 B( 55-C , 56-C ) :   0.9444
B( 55-C , 70-C ) :   1.0638 B( 56-C , 57-O ) :   2.2642 B( 56-C , 58-C ) :   0.9176
B( 58-C , 59-C ) :   1.4769 B( 58-C , 69-C ) :   1.2167 B( 59-C , 60-C ) :   1.1919
B( 59-C , 98-H ) :   1.0158 B( 60-C , 61-C ) :   1.2611 B( 60-C , 65-C ) :   1.1920
B( 61-C , 62-C ) :   1.1922 B( 61-C , 68-C ) :   1.2057 B( 62-C , 63-C ) :   1.4390
B( 62-C , 65-C ) :   0.1091 B( 62-C , 99-H ) :   1.0068 B( 63-C , 64-C ) :   1.1933
B( 63-C , 67-F ) :   1.1318 B( 64-C , 65-C ) :   1.4427 B( 64-C , 66-F ) :   1.1313
B( 65-C ,100-H ) :   1.0071 B( 68-C , 69-C ) :   1.4600 B( 68-C ,101-H ) :   0.9941
B( 69-C , 70-C ) :   1.0071 B( 70-C , 71-C ) :   1.6285 B( 71-C , 72-C ) :   1.1589
B( 71-C , 74-C ) :   1.1560 B( 72-C , 73-N ) :   3.0145 B( 74-C , 75-N ) :   2.9086

-----------------------------------------------------------------------------
         ABSORPTION SPECTRUM VIA TRANSITION ELECTRIC DIPOLE MOMENTS
-----------------------------------------------------------------------------
State   Energy  Wavelength   fosc         T2         TX        TY        TZ
        (cm-1)    (nm)                  (au**2)     (au)      (au)      (au)
-----------------------------------------------------------------------------
   0   10646.4    939.3   2.210201690  68.34466   4.27645   6.03133  -3.69861
   1   16839.2    593.9   0.185773296   3.63194   1.28293  -0.88434   1.09727
   2   20783.5    481.2   0.180808033   2.86401  -1.33071   0.65302  -0.81656
   3   21770.8    459.3   0.040478284   0.61210   0.53217  -0.57079  -0.05570
   4   24326.3    411.1   0.014624115   0.19791  -0.11541   0.26268   0.33999
   5   24744.5    404.1   0.056332966   0.74948   0.60565   0.06746  -0.61491
   6   25316.6    395.0   0.204639100   2.66109  -1.50482  -0.53753  -0.32814
   7   25809.7    387.5   0.040367481   0.51490  -0.10057  -0.33711   0.62541
   8   26620.0    375.7   0.226251326   2.79807  -1.38808   0.08092  -0.92992
   9   27169.0    368.1   0.143572026   1.73969  -0.63511  -0.27196   1.12355
  10   28281.6    353.6   0.002507608   0.02919  -0.00445   0.09548  -0.14161
  11   28404.6    352.1   0.007921050   0.09181   0.23534  -0.02540   0.18914
  12   28722.6    348.2   0.020265682   0.23228   0.28275   0.33686   0.19713
  13   28906.5    345.9   0.016252012   0.18509   0.31453  -0.04684   0.28978
  14   29376.5    340.4   0.011750834   0.13169   0.21957   0.26556  -0.11381
  15   29592.0    337.9   0.060325088   0.67112   0.48755   0.65074  -0.09973
  16   30613.0    326.7   0.083637512   0.89944   0.71231   0.00277   0.62613
  17   30829.9    324.4   0.089830413   0.95924  -0.58741   0.36772  -0.69208
  18   31213.4    320.4   0.032446108   0.34221  -0.42579   0.34442   0.20564
  19   31755.7    314.9   0.082618964   0.85651   0.26734   0.73721  -0.49148
  20   32163.7    310.9   0.025910909   0.26521   0.39143   0.29781  -0.15265
  21   32441.1    308.3   0.015670017   0.15902   0.17961   0.02823  -0.35491
  22   32772.1    305.1   0.373013034   3.74710  -1.56675  -1.06222  -0.40505
  23   32961.7    303.4   0.212211282   2.11951   0.94655   0.29152   1.06703
  24   33523.0    298.3   0.060652025   0.59563  -0.44365  -0.31152  -0.54933
  25   33860.0    295.3   0.087459692   0.85035   0.18740   0.00752   0.90287
  26   34235.0    292.1   0.066048303   0.63514  -0.42060   0.25653  -0.62644
  27   34417.5    290.5   0.016086300   0.15387   0.01990   0.23771  -0.31140
  28   34671.1    288.4   0.032557284   0.30914  -0.38796  -0.10538  -0.38408
  29   34738.0    287.9   0.054547081   0.51694  -0.52120  -0.44973   0.20747
  30   35028.6    285.5   0.269434771   2.53225   1.22242   0.62832   0.80197
  31   35465.8    282.0   0.208117577   1.93186  -0.19380   0.86590  -1.06982
  32   35713.7    280.0   0.139040387   1.28169   0.71266   0.23255   0.84837
  33   35763.7    279.6   0.068332025   0.62901   0.58613   0.29895   0.44283
  34   36005.7    277.7   0.017380503   0.15892  -0.07227  -0.25059   0.30149
  35   36828.5    271.5   0.095985224   0.85802   0.78586   0.38454   0.30427
  36   36913.3    270.9   0.182514122   1.62775   0.89023   0.09399   0.90907
  37   37202.0    268.8   0.004887824   0.04325  -0.16445  -0.06591  -0.10893
  38   37368.0    267.6   0.309704180   2.72849  -1.13811  -0.79525  -0.89487
  39   37606.7    265.9   0.056116204   0.49125  -0.45220  -0.35047   0.40488
  40   37869.0    264.1   0.007620981   0.06625  -0.23964   0.09322  -0.01168
  41   38105.5    262.4   0.006820233   0.05892   0.22605   0.01976   0.08622
  42   38354.1    260.7   0.075135646   0.64493  -0.50081   0.09855  -0.62001
  43   38723.7    258.2   0.009016742   0.07666  -0.22129  -0.10730   0.12717
  44   38977.3    256.6   0.033686808   0.28453  -0.38323  -0.05293  -0.36724
  45   39048.6    256.1   0.065888432   0.55549  -0.21265  -0.51988   0.48990
  46   39444.7    253.5   0.026618245   0.22216  -0.41983  -0.19406  -0.09078
  47   39783.3    251.4   0.016284164   0.13475  -0.19620   0.19776  -0.23906
  48   40020.3    249.9   0.016900531   0.13903   0.21581   0.27936  -0.12004

FINAL SINGLE POINT ENERGY     -4115.042172734204

DIPOLE MOMENT
-------------
                                X             Y             Z
Electronic contribution:    -23.60504       4.37487     -21.60627
Nuclear contribution   :     23.96172      -6.51145      21.14889
                        -----------------------------------------
Total Dipole Moment    :      0.35667      -2.13658      -0.45738
                        -----------------------------------------
Magnitude (a.u.)       :      2.21391
Magnitude (Debye)      :      5.62731

Rotational constants in cm-1:     0.001670     0.000159     0.000148
Rotational constants in MHz :    50.080278     4.764368     4.429182

                             ****ORCA TERMINATED NORMALLY****
TOTAL RUN TIME: 0 days 0 hours 16 minutes 31 seconds 144 msec
