                         Program Version 4.2.0 -  RELEASE  -
|  1> # ORCA input file
|  2> # SCF done       -128.455890303056          0.000387938269
|  3> ! CAM-B3LYP def2-SVP def2/J RIJCOSX Grid4 TightSCF
|  4> %maxcore 5000
|  5> %tddft
|  6>     Mode sTDDFT
|  7>     Ethresh 5.0
|  8>     maxcore 5000
|  9> end
| 10>
| 11> %pal
| 12>   nprocs 6
| 13>   end
| 14> * xyz 0 1
| 15>    C       -0.15985        -3.04408         0.91752
| 16>    C        0.62864        -2.51459        -0.05758
| 17>    C        0.52332        -1.11059        -0.09604
| 18>    C       -0.35903        -0.61434         0.87169
| 19>    S       -1.04992        -1.85736         1.81521
| 20>    C       -0.40330         0.80439         0.76355
| 21>    C        0.45163         1.19647        -0.27702
| 22>    C        1.06553         0.00295        -0.84980
| 23>    C        1.96551        -0.04442        -1.87447
| 24>    C        2.41950         1.12036        -2.52706
| 25>    N        2.79126         2.06649        -3.05825
| 26>    C        2.50388        -1.25923        -2.34758
| 27>    N        2.94492        -2.24409        -2.73563
| 28>    C        0.48413         2.57679        -0.46745
| 29>    C       -0.33875         3.24618         0.42408
| 30>    S       -1.16335         2.13523         1.51019
| 31>    C       -0.57453         4.63752         0.57034
| 32>    C       -0.03639         5.59810        -0.22087
| 33>    C       -0.24770         6.99073        -0.05515
| 34>    C       -0.96603         7.66751         0.91754
| 35>    C       -0.91080         9.04917         0.74703
| 36>    C       -0.14731         9.43690        -0.36931
| 37>    S        0.50068         8.09680        -1.20207
| 38>    C       -0.14060        10.85159        -0.44330
| 39>    C       -0.89588        11.36111         0.62884
| 40>    C       -1.40752        10.24526         1.40901
| 41>    C       -2.18323        10.30742         2.52968
| 42>    C       -2.59809        11.53456         3.08740
| 43>    N       -2.93558        12.53131         3.54327
| 44>    C       -2.61885         9.14856         3.20521
| 45>    N       -2.97433         8.20715         3.75535
| 46>    C       -0.93481        12.75358         0.65625
| 47>    C       -0.21684        13.31801        -0.38587
| 48>    S        0.51053        12.09094        -1.41751
| 49>    C        0.00934        14.68319        -0.69667
| 50>    C       -0.43487        15.72700         0.04591
| 51>    C       -0.18410        17.09161        -0.25049
| 52>    C        0.50094        17.65462        -1.31529
| 53>    C        0.54616        19.04526        -1.23412
| 54>    C       -0.10708        19.55205        -0.10104
| 55>    S       -0.78147        18.31682         0.86116
| 56>    C        0.00866        20.97085        -0.11215
| 57>    C        0.73154        21.35297        -1.24914
| 58>    C        1.09243        20.16369        -1.99577
| 59>    C        1.79250        20.09486        -3.16511
| 60>    C        2.27656        21.24569        -3.82136
| 61>    N        2.67371        22.17751        -4.35896
| 62>    C        2.07656        18.86649        -3.79685
| 63>    N        2.30807        17.86753        -4.31047
| 64>    C        0.89762        22.74890        -1.33625
| 65>    C        0.31002        23.38428        -0.28556
| 66>    S       -0.46030        22.30993         0.83636
| 67>    H       -0.28137        -4.07677         1.17626
| 68>    H        1.24862        -3.10257        -0.70929
| 69>    H        1.07790         3.07557        -1.21049
| 70>    H       -1.23258         4.91973         1.37996
| 71>    H        0.60670         5.31476        -1.04198
| 72>    H       -1.49389         7.17314         1.71159
| 73>    H       -1.45707        13.33324         1.39436
| 74>    H        0.59348        14.87172        -1.58621
| 75>    H       -1.01176        15.53875         0.94028
| 76>    H        0.94121        17.07586        -2.10563
| 77>    H        1.41999        23.25770        -2.12560
| 78>    H        0.27674        24.43714        -0.08916
| 79> *
| 80>
| 81>                          ****END OF INPUT****

CARTESIAN COORDINATES (ANGSTROEM)
---------------------------------
  C     -0.159850   -3.044080    0.917520
  C      0.628640   -2.514590   -0.057580
  C      0.523320   -1.110590   -0.096040
  C     -0.359030   -0.614340    0.871690
  S     -1.049920   -1.857360    1.815210
  C     -0.403300    0.804390    0.763550
  C      0.451630    1.196470   -0.277020
  C      1.065530    0.002950   -0.849800
  C      1.965510   -0.044420   -1.874470
  C      2.419500    1.120360   -2.527060
  N      2.791260    2.066490   -3.058250
  C      2.503880   -1.259230   -2.347580
  N      2.944920   -2.244090   -2.735630
  C      0.484130    2.576790   -0.467450
  C     -0.338750    3.246180    0.424080
  S     -1.163350    2.135230    1.510190
  C     -0.574530    4.637520    0.570340
  C     -0.036390    5.598100   -0.220870
  C     -0.247700    6.990730   -0.055150
  C     -0.966030    7.667510    0.917540
  C     -0.910800    9.049170    0.747030
  C     -0.147310    9.436900   -0.369310
  S      0.500680    8.096800   -1.202070
  C     -0.140600   10.851590   -0.443300
  C     -0.895880   11.361110    0.628840
  C     -1.407520   10.245260    1.409010
  C     -2.183230   10.307420    2.529680
  C     -2.598090   11.534560    3.087400
  N     -2.935580   12.531310    3.543270
  C     -2.618850    9.148560    3.205210
  N     -2.974330    8.207150    3.755350
  C     -0.934810   12.753580    0.656250
  C     -0.216840   13.318010   -0.385870
  S      0.510530   12.090940   -1.417510
  C      0.009340   14.683190   -0.696670
  C     -0.434870   15.727000    0.045910
  C     -0.184100   17.091610   -0.250490
  C      0.500940   17.654620   -1.315290
  C      0.546160   19.045260   -1.234120
  C     -0.107080   19.552050   -0.101040
  S     -0.781470   18.316820    0.861160
  C      0.008660   20.970850   -0.112150
  C      0.731540   21.352970   -1.249140
  C      1.092430   20.163690   -1.995770
  C      1.792500   20.094860   -3.165110
  C      2.276560   21.245690   -3.821360
  N      2.673710   22.177510   -4.358960
  C      2.076560   18.866490   -3.796850
  N      2.308070   17.867530   -4.310470
  C      0.897620   22.748900   -1.336250
  C      0.310020   23.384280   -0.285560
  S     -0.460300   22.309930    0.836360
  H     -0.281370   -4.076770    1.176260
  H      1.248620   -3.102570   -0.709290
  H      1.077900    3.075570   -1.210490
  H     -1.232580    4.919730    1.379960
  H      0.606700    5.314760   -1.041980
  H     -1.493890    7.173140    1.711590
  H     -1.457070   13.333240    1.394360
  H      0.593480   14.871720   -1.586210
  H     -1.011760   15.538750    0.940280
  H      0.941210   17.075860   -2.105630
  H      1.419990   23.257700   -2.125600
  H      0.276740   24.437140   -0.089160

 Total Charge           Charge          ....    0
 Multiplicity           Mult            ....    1
 Number of Electrons    NEL             ....  390
 Basis Dimension        Dim             ....  812

ORBITAL ENERGIES
----------------

  NO   OCC          E(Eh)            E(eV)
   0   2.0000     -88.986894     -2421.4565
   1   2.0000     -88.986805     -2421.4541
   2   2.0000     -88.986006     -2421.4323
   3   2.0000     -88.985764     -2421.4257
   4   2.0000     -88.985361     -2421.4148
   5   2.0000     -88.985099     -2421.4076
   6   2.0000     -14.430802      -392.6821
   7   2.0000     -14.430723      -392.6799
   8   2.0000     -14.428060      -392.6075
   9   2.0000     -14.428049      -392.6072
  10   2.0000     -14.426815      -392.5736
  11   2.0000     -14.426765      -392.5722
  12   2.0000     -10.363571      -282.0071
  13   2.0000     -10.360457      -281.9224
  14   2.0000     -10.360375      -281.9201
  15   2.0000     -10.351607      -281.6815
  16   2.0000     -10.348621      -281.6003
  17   2.0000     -10.348581      -281.5992
  18   2.0000     -10.331502      -281.1345
  19   2.0000     -10.331437      -281.1327
  20   2.0000     -10.329267      -281.0736
  21   2.0000     -10.329057      -281.0679
  22   2.0000     -10.328889      -281.0634
  23   2.0000     -10.328880      -281.0631
  24   2.0000     -10.327463      -281.0246
  25   2.0000     -10.327418      -281.0233
  26   2.0000     -10.327302      -281.0202
  27   2.0000     -10.327255      -281.0189
  28   2.0000     -10.326495      -280.9982
  29   2.0000     -10.326413      -280.9960
  30   2.0000     -10.321072      -280.8506
  31   2.0000     -10.321035      -280.8496
  32   2.0000     -10.319986      -280.8211
  33   2.0000     -10.319957      -280.8203
  34   2.0000     -10.309118      -280.5254
  35   2.0000     -10.309059      -280.5238
  36   2.0000     -10.301434      -280.3163
  37   2.0000     -10.301382      -280.3149
  38   2.0000     -10.299523      -280.2643
  39   2.0000     -10.299516      -280.2641
  40   2.0000     -10.298188      -280.2279
  41   2.0000     -10.298146      -280.2268
  42   2.0000     -10.297941      -280.2212
  43   2.0000     -10.297911      -280.2204
  44   2.0000     -10.297501      -280.2092
  45   2.0000     -10.297468      -280.2083
  46   2.0000     -10.296571      -280.1839
  47   2.0000     -10.296553      -280.1835
  48   2.0000     -10.296271      -280.1758
  49   2.0000     -10.296262      -280.1755
  50   2.0000     -10.295184      -280.1462
  51   2.0000     -10.295168      -280.1458
  52   2.0000      -8.081640      -219.9126
  53   2.0000      -8.081572      -219.9108
  54   2.0000      -8.080705      -219.8872
  55   2.0000      -8.080567      -219.8834
  56   2.0000      -8.080322      -219.8767
  57   2.0000      -8.080167      -219.8725
  58   2.0000      -6.050783      -164.6502
  59   2.0000      -6.050734      -164.6488
  60   2.0000      -6.049839      -164.6245
  61   2.0000      -6.049698      -164.6206
  62   2.0000      -6.049547      -164.6166
  63   2.0000      -6.049430      -164.6134
  64   2.0000      -6.046672      -164.5383
  65   2.0000      -6.046658      -164.5379
  66   2.0000      -6.045761      -164.5135
  67   2.0000      -6.045635      -164.5101
  68   2.0000      -6.045166      -164.4973
  69   2.0000      -6.044983      -164.4923
  70   2.0000      -6.044089      -164.4680
  71   2.0000      -6.044056      -164.4671
  72   2.0000      -6.043216      -164.4443
  73   2.0000      -6.043038      -164.4394
  74   2.0000      -6.042952      -164.4371
  75   2.0000      -6.042753      -164.4317
  76   2.0000      -1.042324       -28.3631
  77   2.0000      -1.039718       -28.2922
  78   2.0000      -1.039698       -28.2916
  79   2.0000      -1.021875       -27.8066
  80   2.0000      -1.018780       -27.7224
  81   2.0000      -1.018759       -27.7218
  82   2.0000      -1.008520       -27.4432
  83   2.0000      -1.005126       -27.3509
  84   2.0000      -1.005088       -27.3498
  85   2.0000      -0.995996       -27.1024
  86   2.0000      -0.991820       -26.9888
  87   2.0000      -0.990819       -26.9616
  88   2.0000      -0.959987       -26.1226
  89   2.0000      -0.954329       -25.9686
  90   2.0000      -0.953794       -25.9540
  91   2.0000      -0.925715       -25.1900
  92   2.0000      -0.917013       -24.9532
  93   2.0000      -0.907164       -24.6852
  94   2.0000      -0.891039       -24.2464
  95   2.0000      -0.881930       -23.9985
  96   2.0000      -0.864471       -23.5235
  97   2.0000      -0.860282       -23.4095
  98   2.0000      -0.853254       -23.2182
  99   2.0000      -0.852686       -23.2028
 100   2.0000      -0.849082       -23.1047
 101   2.0000      -0.848928       -23.1005
 102   2.0000      -0.820151       -22.3175
 103   2.0000      -0.800450       -21.7814
 104   2.0000      -0.776699       -21.1350
 105   2.0000      -0.774493       -21.0750
 106   2.0000      -0.773816       -21.0566
 107   2.0000      -0.766315       -20.8525
 108   2.0000      -0.746826       -20.3222
 109   2.0000      -0.725115       -19.7314
 110   2.0000      -0.700396       -19.0587
 111   2.0000      -0.700387       -19.0585
 112   2.0000      -0.699435       -19.0326
 113   2.0000      -0.688487       -18.7347
 114   2.0000      -0.679339       -18.4858
 115   2.0000      -0.674917       -18.3654
 116   2.0000      -0.674100       -18.3432
 117   2.0000      -0.668900       -18.2017
 118   2.0000      -0.654387       -17.8068
 119   2.0000      -0.638690       -17.3796
 120   2.0000      -0.632120       -17.2009
 121   2.0000      -0.629917       -17.1409
 122   2.0000      -0.624471       -16.9927
 123   2.0000      -0.615053       -16.7364
 124   2.0000      -0.612226       -16.6595
 125   2.0000      -0.612165       -16.6579
 126   2.0000      -0.611646       -16.6437
 127   2.0000      -0.594851       -16.1867
 128   2.0000      -0.590591       -16.0708
 129   2.0000      -0.573755       -15.6127
 130   2.0000      -0.564108       -15.3502
 131   2.0000      -0.551261       -15.0006
 132   2.0000      -0.547088       -14.8870
 133   2.0000      -0.545413       -14.8414
 134   2.0000      -0.542305       -14.7569
 135   2.0000      -0.542204       -14.7541
 136   2.0000      -0.533011       -14.5040
 137   2.0000      -0.522704       -14.2235
 138   2.0000      -0.512477       -13.9452
 139   2.0000      -0.508604       -13.8398
 140   2.0000      -0.504985       -13.7413
 141   2.0000      -0.503631       -13.7045
 142   2.0000      -0.501580       -13.6487
 143   2.0000      -0.501002       -13.6330
 144   2.0000      -0.497148       -13.5281
 145   2.0000      -0.493767       -13.4361
 146   2.0000      -0.492987       -13.4149
 147   2.0000      -0.489374       -13.3165
 148   2.0000      -0.488028       -13.2799
 149   2.0000      -0.485733       -13.2175
 150   2.0000      -0.480151       -13.0656
 151   2.0000      -0.476212       -12.9584
 152   2.0000      -0.472556       -12.8589
 153   2.0000      -0.466547       -12.6954
 154   2.0000      -0.464769       -12.6470
 155   2.0000      -0.463644       -12.6164
 156   2.0000      -0.462221       -12.5777
 157   2.0000      -0.459291       -12.4979
 158   2.0000      -0.459187       -12.4951
 159   2.0000      -0.458860       -12.4862
 160   2.0000      -0.455300       -12.3894
 161   2.0000      -0.454868       -12.3776
 162   2.0000      -0.454744       -12.3742
 163   2.0000      -0.448972       -12.2171
 164   2.0000      -0.444729       -12.1017
 165   2.0000      -0.442071       -12.0294
 166   2.0000      -0.441395       -12.0110
 167   2.0000      -0.439775       -11.9669
 168   2.0000      -0.438767       -11.9395
 169   2.0000      -0.438395       -11.9293
 170   2.0000      -0.438128       -11.9221
 171   2.0000      -0.438001       -11.9186
 172   2.0000      -0.437604       -11.9078
 173   2.0000      -0.436965       -11.8904
 174   2.0000      -0.435306       -11.8453
 175   2.0000      -0.434802       -11.8316
 176   2.0000      -0.425892       -11.5891
 177   2.0000      -0.423216       -11.5163
 178   2.0000      -0.423150       -11.5145
 179   2.0000      -0.419715       -11.4210
 180   2.0000      -0.411009       -11.1841
 181   2.0000      -0.397445       -10.8150
 182   2.0000      -0.395121       -10.7518
 183   2.0000      -0.375824       -10.2267
 184   2.0000      -0.356246        -9.6940
 185   2.0000      -0.346575        -9.4308
 186   2.0000      -0.344023        -9.3613
 187   2.0000      -0.343915        -9.3584
 188   2.0000      -0.328928        -8.9506
 189   2.0000      -0.321215        -8.7407
 190   2.0000      -0.318621        -8.6701
 191   2.0000      -0.317396        -8.6368
 192   2.0000      -0.293885        -7.9970
 193   2.0000      -0.261028        -7.1029
 194   2.0000      -0.232752        -6.3335
 195   0.0000      -0.105584        -2.8731
 196   0.0000      -0.098683        -2.6853
 197   0.0000      -0.097634        -2.6568
 198   0.0000      -0.059419        -1.6169
 199   0.0000      -0.038374        -1.0442

MULLIKEN ATOMIC CHARGES
-----------------------
   0 C :   -0.084112
   1 C :    0.037221
   2 C :   -0.033106
   3 C :   -0.118736
   4 S :    0.180316
   5 C :   -0.106289
   6 C :    0.003384
   7 C :    0.299210
   8 C :   -0.299363
   9 C :   -0.184807
  10 N :    0.165410
  11 C :   -0.191929
  12 N :    0.175721
  13 C :   -0.033825
  14 C :   -0.080969
  15 S :    0.188349
  16 C :    0.043924
  17 C :    0.042295
  18 C :   -0.077582
  19 C :   -0.036413
  20 C :    0.001902
  21 C :   -0.103998
  22 S :    0.191596
  23 C :   -0.105326
  24 C :   -0.000493
  25 C :    0.307984
  26 C :   -0.301721
  27 C :   -0.184098
  28 N :    0.168054
  29 C :   -0.185554
  30 N :    0.167390
  31 C :   -0.034418
  32 C :   -0.078439
  33 S :    0.191769
  34 C :    0.042754
  35 C :    0.044007
  36 C :   -0.079664
  37 C :   -0.035047
  38 C :    0.002061
  39 C :   -0.105848
  40 S :    0.188153
  41 C :   -0.117103
  42 C :   -0.035657
  43 C :    0.302267
  44 C :   -0.300368
  45 C :   -0.191349
  46 N :    0.175514
  47 C :   -0.182498
  48 N :    0.162928
  49 C :    0.036242
  50 C :   -0.083660
  51 S :    0.180406
  52 H :    0.035792
  53 H :    0.012173
  54 H :    0.003575
  55 H :   -0.009282
  56 H :   -0.008671
  57 H :    0.003303
  58 H :    0.003749
  59 H :   -0.009254
  60 H :   -0.010166
  61 H :    0.003820
  62 H :    0.011967
  63 H :    0.036507
Sum of atomic charges:   -0.0000000

LOEWDIN ATOMIC CHARGES
----------------------
   0 C :   -0.179436
   1 C :   -0.034042
   2 C :   -0.079490
   3 C :   -0.181386
   4 S :    0.476468
   5 C :   -0.187829
   6 C :   -0.067706
   7 C :    0.084670
   8 C :   -0.106405
   9 C :   -0.015073
  10 N :   -0.039112
  11 C :   -0.017245
  12 N :   -0.034321
  13 C :   -0.029290
  14 C :   -0.164547
  15 S :    0.478106
  16 C :   -0.038748
  17 C :   -0.040302
  18 C :   -0.163152
  19 C :   -0.029627
  20 C :   -0.069382
  21 C :   -0.184782
  22 S :    0.478734
  23 C :   -0.184869
  24 C :   -0.069319
  25 C :    0.085283
  26 C :   -0.106023
  27 C :   -0.015270
  28 N :   -0.037410
  29 C :   -0.015255
  30 N :   -0.037385
  31 C :   -0.029667
  32 C :   -0.163072
  33 S :    0.478788
  34 C :   -0.040197
  35 C :   -0.038637
  36 C :   -0.164471
  37 C :   -0.029436
  38 C :   -0.067632
  39 C :   -0.187828
  40 S :    0.477960
  41 C :   -0.181352
  42 C :   -0.079522
  43 C :    0.084793
  44 C :   -0.106323
  45 C :   -0.017297
  46 N :   -0.034314
  47 C :   -0.014768
  48 N :   -0.039387
  49 C :   -0.034185
  50 C :   -0.179429
  51 S :    0.476288
  52 H :    0.027287
  53 H :    0.042417
  54 H :    0.037543
  55 H :    0.030813
  56 H :    0.031186
  57 H :    0.037648
  58 H :    0.037708
  59 H :    0.031093
  60 H :    0.030707
  61 H :    0.037588
  62 H :    0.042434
  63 H :    0.027410

  Mayer bond orders larger than 0.100000
B(  0-C ,  1-C ) :   1.5520 B(  0-C ,  4-S ) :   1.1463 B(  0-C , 52-H ) :   0.9642
B(  1-C ,  2-C ) :   1.2748 B(  1-C , 53-H ) :   0.9959 B(  2-C ,  3-C ) :   1.4560
B(  2-C ,  7-C ) :   1.0201 B(  3-C ,  4-S ) :   1.1387 B(  3-C ,  5-C ) :   1.1874
B(  5-C ,  6-C ) :   1.4498 B(  5-C , 15-S ) :   1.1256 B(  6-C ,  7-C ) :   0.9954
B(  6-C , 13-C ) :   1.3058 B(  7-C ,  8-C ) :   1.7073 B(  8-C ,  9-C ) :   1.1345
B(  8-C , 11-C ) :   1.1301 B(  9-C , 10-N ) :   2.9870 B( 11-C , 12-N ) :   3.0042
B( 13-C , 14-C ) :   1.4566 B( 13-C , 54-H ) :   0.9901 B( 14-C , 15-S ) :   1.1084
B( 14-C , 16-C ) :   1.1254 B( 16-C , 17-C ) :   1.7092 B( 16-C , 55-H ) :   0.9581
B( 17-C , 18-C ) :   1.1268 B( 17-C , 56-H ) :   0.9582 B( 18-C , 19-C ) :   1.4555
B( 18-C , 22-S ) :   1.1040 B( 19-C , 20-C ) :   1.3060 B( 19-C , 57-H ) :   0.9895
B( 20-C , 21-C ) :   1.4328 B( 20-C , 25-C ) :   1.0001 B( 21-C , 22-S ) :   1.1249
B( 21-C , 23-C ) :   1.1971 B( 23-C , 24-C ) :   1.4337 B( 23-C , 33-S ) :   1.1243
B( 24-C , 25-C ) :   0.9997 B( 24-C , 31-C ) :   1.3066 B( 25-C , 26-C ) :   1.7072
B( 26-C , 27-C ) :   1.1335 B( 26-C , 29-C ) :   1.1342 B( 27-C , 28-N ) :   2.9890
B( 29-C , 30-N ) :   2.9886 B( 31-C , 32-C ) :   1.4550 B( 31-C , 58-H ) :   0.9895
B( 32-C , 33-S ) :   1.1048 B( 32-C , 34-C ) :   1.1264 B( 34-C , 35-C ) :   1.7106
B( 34-C , 59-H ) :   0.9578 B( 35-C , 36-C ) :   1.1253 B( 35-C , 60-H ) :   0.9580
B( 36-C , 37-C ) :   1.4571 B( 36-C , 40-S ) :   1.1085 B( 37-C , 38-C ) :   1.3051
B( 37-C , 61-H ) :   0.9898 B( 38-C , 39-C ) :   1.4499 B( 38-C , 43-C ) :   0.9955
B( 39-C , 40-S ) :   1.1253 B( 39-C , 41-C ) :   1.1855 B( 41-C , 42-C ) :   1.4571
B( 41-C , 51-S ) :   1.1387 B( 42-C , 43-C ) :   1.0202 B( 42-C , 49-C ) :   1.2738
B( 43-C , 44-C ) :   1.7066 B( 44-C , 45-C ) :   1.1291 B( 44-C , 47-C ) :   1.1348
B( 45-C , 46-N ) :   3.0042 B( 47-C , 48-N ) :   2.9858 B( 49-C , 50-C ) :   1.5529
B( 49-C , 62-H ) :   0.9957 B( 50-C , 51-S ) :   1.1460 B( 50-C , 63-H ) :   0.9643

-----------------------------------------------------------------------------
         ABSORPTION SPECTRUM VIA TRANSITION ELECTRIC DIPOLE MOMENTS
-----------------------------------------------------------------------------
State   Energy  Wavelength   fosc         T2         TX        TY        TZ
        (cm-1)    (nm)                  (au**2)     (au)      (au)      (au)
-----------------------------------------------------------------------------
   0   10529.2    949.7   0.219787969   6.87201  -0.02668  -2.61798   0.13215
   1   13093.5    763.7   0.195129501   4.90617  -0.03213  -2.21227   0.10499
   2   13268.6    753.7   0.001204566   0.02989   0.15770   0.04453  -0.05508
   3   20161.1    496.0   0.000293018   0.00478  -0.06500  -0.00954  -0.02164
   4   21592.3    463.1   1.870425019  28.51792   0.05131   5.33297  -0.27327
   5   22899.6    436.7   0.000081843   0.00118  -0.02083  -0.01858  -0.01993
   6   23583.5    424.0   0.784661293  10.95340  -0.02282  -3.30467   0.17894
   7   27060.6    369.5   0.008139863   0.09903   0.01380   0.31298  -0.02967
   8   27617.0    362.1   0.188962147   2.25255   1.05536  -0.07700  -1.06434
   9   29641.4    337.4   0.009600669   0.10663  -0.22042   0.08747   0.22448
  10   29681.6    336.9   0.050501068   0.56013  -0.02395  -0.74544   0.06223
  11   31120.7    321.3   0.017533648   0.18548  -0.27984   0.02055   0.32672
  12   31801.8    314.4   0.043433262   0.44962  -0.34143   0.03905   0.57578
  13   32264.7    309.9   0.022973856   0.23441   0.28963   0.35132   0.16462
  14   32390.2    308.7   1.745441202  17.74057  -2.41866   0.18531   3.44330
  15   32990.2    303.1   0.395364886   3.94537  -0.08035  -1.98370   0.06193
  16   34378.6    290.9   0.089531109   0.85736  -0.44799  -0.02222   0.81004
  17   34417.9    290.5   0.213221421   2.03949  -0.03365   1.42691  -0.04789
  18   34835.0    287.1   0.074717259   0.70612   0.56867  -0.02131  -0.61829
  19   35779.6    279.5   0.175107740   1.61118  -0.03545  -1.26780   0.05104
  20   36127.8    276.8   0.028447456   0.25923   0.07009  -0.50373   0.02375
  21   36147.4    276.6   0.098594130   0.89794  -0.54382   0.01026   0.77595
  22   36733.4    272.2   0.004920479   0.04410   0.05142   0.20017   0.03724
  23   36747.6    272.1   0.004367611   0.03913  -0.13068  -0.01118   0.14807
  24   37348.1    267.8   0.103740381   0.91444   0.53075  -0.04093  -0.79440
  25   37864.8    264.1   0.001501724   0.01306   0.01057  -0.11227   0.01843
  26   38642.3    258.8   0.123341986   1.05081  -0.05533  -1.02319   0.02873

FINAL SINGLE POINT ENERGY     -4245.823770886335

DIPOLE MOMENT
-------------
                                X             Y             Z
Electronic contribution:     -1.33390       0.07721       1.37726
Nuclear contribution   :      0.12434       0.00763       0.31578
                        -----------------------------------------
Total Dipole Moment    :     -1.20957       0.08484       1.69304
                        -----------------------------------------
Magnitude (a.u.)       :      2.08246
Magnitude (Debye)      :      5.29319

Rotational constants in cm-1:     0.004201     0.000318     0.000296
Rotational constants in MHz :   125.939490     9.542748     8.884811

                             ****ORCA TERMINATED NORMALLY****
TOTAL RUN TIME: 0 days 0 hours 5 minutes 58 seconds 917 msec
