                         Program Version 4.2.0 -  RELEASE  -
|  1> # ORCA input file
|  2> # SCF done       -217.645471563502          0.000490374417
|  3> ! CAM-B3LYP def2-SVP def2/J RIJCOSX Grid4 TightSCF
|  4> %maxcore 5000
|  5> %tddft
|  6>     Mode sTDDFT
|  7>     Ethresh 5.0
|  8>     maxcore 5000
|  9> end
| 10>
| 11> %pal
| 12>   nprocs 6
| 13>   end
| 14> * xyz 0 1
| 15>    C       -2.59826         1.03642         8.35849
| 16>    C       -2.69912         2.37540         8.58986
| 17>    C       -2.45821         3.11429         7.41642
| 18>    C       -2.17819         2.29459         6.31451
| 19>    S       -2.21137         0.63736         6.71845
| 20>    C       -1.94330         3.11252         5.17188
| 21>    C       -2.08089         4.45536         5.57416
| 22>    C       -2.41672         4.49999         6.99122
| 23>    C       -2.65548         5.61348         7.74360
| 24>    C       -2.61177         6.91101         7.19314
| 25>    N       -2.58769         7.96647         6.74457
| 26>    C       -2.97474         5.54120         9.11551
| 27>    N       -3.23090         5.48830        10.23198
| 28>    C       -1.85856         5.33990         4.53290
| 29>    C       -1.56351         4.68913         3.33549
| 30>    S       -1.56865         2.93759         3.52015
| 31>    C       -1.28724         5.38255         2.13363
| 32>    C       -1.06649         4.94482         0.82490
| 33>    C       -1.03272         3.56176         0.42015
| 34>    O       -1.16703         2.61303         1.18229
| 35>    C       -0.80062         3.35949        -1.02336
| 36>    C       -0.73387         4.43262        -1.95152
| 37>    C       -0.52971         3.98728        -3.23422
| 38>    S       -0.40587         2.27586        -3.33649
| 39>    C       -0.64407         2.14019        -1.64051
| 40>    C       -0.65468         0.78327        -1.00810
| 41>    F        0.28849         0.63908        -0.07270
| 42>    F       -1.83023         0.47886        -0.45032
| 43>    F       -0.41926        -0.17022        -1.92850
| 44>    C       -0.40514         4.80807        -4.48065
| 45>    F        0.55494         5.72921        -4.40442
| 46>    F       -0.09554         4.02385        -5.53172
| 47>    F       -1.54389         5.42817        -4.80490
| 48>    C       -0.87913         5.84900        -1.54569
| 49>    O       -1.05383         6.74281        -2.34681
| 50>    C       -0.87020         6.02355        -0.09434
| 51>    C       -0.87262         7.25951         0.52178
| 52>    S       -1.21551         7.12644         2.21381
| 53>    C       -0.61349         8.55446        -0.03806
| 54>    C        0.33394         8.82242        -1.01394
| 55>    F        1.15182         7.85104        -1.43662
| 56>    C        0.53906        10.10112        -1.54522
| 57>    F        1.50676        10.18257        -2.47703
| 58>    C       -0.16746        11.24608        -1.16683
| 59>    C       -1.09507        11.00176        -0.11338
| 60>    C       -1.29069         9.69862         0.43179
| 61>    N       -2.19875         9.79479         1.40913
| 62>    N       -2.50650        11.05894         1.44233
| 63>    N       -1.90148        11.82581         0.57611
| 64>    C       -3.44413        11.56884         2.39213
| 65>    C        0.01412        12.54629        -1.75794
| 66>    C       -0.79572        13.60918        -1.41283
| 67>    C       -0.71499        14.89419        -1.93782
| 68>    C        0.24663        15.21067        -3.00119
| 69>    C        1.15159        14.32804        -3.48109
| 70>    S        1.30117        12.71423        -2.94690
| 71>    C       -0.00671        16.55768        -3.36706
| 72>    C       -1.05167        17.06076        -2.58995
| 73>    C       -1.35345        18.40389        -2.91087
| 74>    C       -0.55066        18.87132        -3.90102
| 75>    S        0.60171        17.71388        -4.48224
| 76>    C       -1.49593        16.04579        -1.67336
| 77>    C       -2.51964        16.30435        -0.73359
| 78>    C       -2.89237        15.56362         0.34536
| 79>    C       -3.93954        15.93858         1.22210
| 80>    C       -4.80618        17.02127         1.16030
| 81>    C       -5.70851        17.03900         2.22008
| 82>    C       -5.54325        15.96625         3.10745
| 83>    S       -4.26654        14.93595         2.63214
| 84>    C       -6.51422        16.07862         4.13784
| 85>    C       -7.29056        17.22182         3.89987
| 86>    C       -6.81597        17.86637         2.69466
| 87>    C       -7.29013        19.00681         2.11268
| 88>    C       -8.37250        19.73238         2.65146
| 89>    N       -9.25240        20.32689         3.08475
| 90>    C       -6.72505        19.53470         0.93412
| 91>    N       -6.26437        19.96683        -0.02354
| 92>    C       -8.28496        17.40853         4.88079
| 93>    C       -8.24580        16.42690         5.82154
| 94>    S       -7.00215        15.24745         5.54723
| 95>    H       -2.72951         0.23950         9.06306
| 96>    H       -2.93206         2.80099         9.54875
| 97>    H       -1.90692         6.41159         4.61120
| 98>    H       -4.27178        12.05617         1.87660
| 99>    H       -2.95941        12.29957         3.03990
|100>    H       -3.80696        10.73142         2.98280
|101>    H       -1.56561        13.39389        -0.69064
|102>    H        1.85643        14.59017        -4.25489
|103>    H       -2.11934        18.99597        -2.44378
|104>    H       -0.55586        19.84780        -4.34445
|105>    H       -3.03364        17.24297        -0.89553
|106>    H       -2.37164        14.65330         0.59918
|107>    H       -4.77803        17.75398         0.37586
|108>    H       -8.98986        18.21962         4.89337
|109>    H       -8.87694        16.31099         6.67956
|110> *
|111>
|112>                          ****END OF INPUT****

CARTESIAN COORDINATES (ANGSTROEM)
---------------------------------
  C     -2.598260    1.036420    8.358490
  C     -2.699120    2.375400    8.589860
  C     -2.458210    3.114290    7.416420
  C     -2.178190    2.294590    6.314510
  S     -2.211370    0.637360    6.718450
  C     -1.943300    3.112520    5.171880
  C     -2.080890    4.455360    5.574160
  C     -2.416720    4.499990    6.991220
  C     -2.655480    5.613480    7.743600
  C     -2.611770    6.911010    7.193140
  N     -2.587690    7.966470    6.744570
  C     -2.974740    5.541200    9.115510
  N     -3.230900    5.488300   10.231980
  C     -1.858560    5.339900    4.532900
  C     -1.563510    4.689130    3.335490
  S     -1.568650    2.937590    3.520150
  C     -1.287240    5.382550    2.133630
  C     -1.066490    4.944820    0.824900
  C     -1.032720    3.561760    0.420150
  O     -1.167030    2.613030    1.182290
  C     -0.800620    3.359490   -1.023360
  C     -0.733870    4.432620   -1.951520
  C     -0.529710    3.987280   -3.234220
  S     -0.405870    2.275860   -3.336490
  C     -0.644070    2.140190   -1.640510
  C     -0.654680    0.783270   -1.008100
  F      0.288490    0.639080   -0.072700
  F     -1.830230    0.478860   -0.450320
  F     -0.419260   -0.170220   -1.928500
  C     -0.405140    4.808070   -4.480650
  F      0.554940    5.729210   -4.404420
  F     -0.095540    4.023850   -5.531720
  F     -1.543890    5.428170   -4.804900
  C     -0.879130    5.849000   -1.545690
  O     -1.053830    6.742810   -2.346810
  C     -0.870200    6.023550   -0.094340
  C     -0.872620    7.259510    0.521780
  S     -1.215510    7.126440    2.213810
  C     -0.613490    8.554460   -0.038060
  C      0.333940    8.822420   -1.013940
  F      1.151820    7.851040   -1.436620
  C      0.539060   10.101120   -1.545220
  F      1.506760   10.182570   -2.477030
  C     -0.167460   11.246080   -1.166830
  C     -1.095070   11.001760   -0.113380
  C     -1.290690    9.698620    0.431790
  N     -2.198750    9.794790    1.409130
  N     -2.506500   11.058940    1.442330
  N     -1.901480   11.825810    0.576110
  C     -3.444130   11.568840    2.392130
  C      0.014120   12.546290   -1.757940
  C     -0.795720   13.609180   -1.412830
  C     -0.714990   14.894190   -1.937820
  C      0.246630   15.210670   -3.001190
  C      1.151590   14.328040   -3.481090
  S      1.301170   12.714230   -2.946900
  C     -0.006710   16.557680   -3.367060
  C     -1.051670   17.060760   -2.589950
  C     -1.353450   18.403890   -2.910870
  C     -0.550660   18.871320   -3.901020
  S      0.601710   17.713880   -4.482240
  C     -1.495930   16.045790   -1.673360
  C     -2.519640   16.304350   -0.733590
  C     -2.892370   15.563620    0.345360
  C     -3.939540   15.938580    1.222100
  C     -4.806180   17.021270    1.160300
  C     -5.708510   17.039000    2.220080
  C     -5.543250   15.966250    3.107450
  S     -4.266540   14.935950    2.632140
  C     -6.514220   16.078620    4.137840
  C     -7.290560   17.221820    3.899870
  C     -6.815970   17.866370    2.694660
  C     -7.290130   19.006810    2.112680
  C     -8.372500   19.732380    2.651460
  N     -9.252400   20.326890    3.084750
  C     -6.725050   19.534700    0.934120
  N     -6.264370   19.966830   -0.023540
  C     -8.284960   17.408530    4.880790
  C     -8.245800   16.426900    5.821540
  S     -7.002150   15.247450    5.547230
  H     -2.729510    0.239500    9.063060
  H     -2.932060    2.800990    9.548750
  H     -1.906920    6.411590    4.611200
  H     -4.271780   12.056170    1.876600
  H     -2.959410   12.299570    3.039900
  H     -3.806960   10.731420    2.982800
  H     -1.565610   13.393890   -0.690640
  H      1.856430   14.590170   -4.254890
  H     -2.119340   18.995970   -2.443780
  H     -0.555860   19.847800   -4.344450
  H     -3.033640   17.242970   -0.895530
  H     -2.371640   14.653300    0.599180
  H     -4.778030   17.753980    0.375860
  H     -8.989860   18.219620    4.893370
  H     -8.876940   16.310990    6.679560

 Total Charge           Charge          ....    0
 Multiplicity           Mult            ....    1
 Number of Electrons    NEL             ....  610
 Basis Dimension        Dim             .... 1227

ORBITAL ENERGIES
----------------

  NO   OCC          E(Eh)            E(eV)
   0   2.0000     -89.012990     -2422.1666
   1   2.0000     -88.989224     -2421.5199
   2   2.0000     -88.988617     -2421.5034
   3   2.0000     -88.986736     -2421.4522
   4   2.0000     -88.981290     -2421.3040
   5   2.0000     -88.980879     -2421.2928
   6   2.0000     -88.971109     -2421.0270
   7   2.0000     -88.952278     -2420.5145
   8   2.0000     -24.810878      -675.1383
   9   2.0000     -24.808117      -675.0632
  10   2.0000     -24.804322      -674.9599
  11   2.0000     -24.803310      -674.9324
  12   2.0000     -24.803172      -674.9286
  13   2.0000     -24.802648      -674.9144
  14   2.0000     -24.801812      -674.8916
  15   2.0000     -24.799167      -674.8196
  16   2.0000     -19.231044      -523.3033
  17   2.0000     -19.223688      -523.1031
  18   2.0000     -14.560147      -396.2017
  19   2.0000     -14.463618      -393.5751
  20   2.0000     -14.462449      -393.5433
  21   2.0000     -14.432310      -392.7231
  22   2.0000     -14.429598      -392.6493
  23   2.0000     -14.424059      -392.4986
  24   2.0000     -14.423255      -392.4767
  25   2.0000     -10.535768      -286.6928
  26   2.0000     -10.533319      -286.6262
  27   2.0000     -10.388807      -282.6938
  28   2.0000     -10.387164      -282.6491
  29   2.0000     -10.383638      -282.5532
  30   2.0000     -10.383324      -282.5446
  31   2.0000     -10.363093      -281.9941
  32   2.0000     -10.356145      -281.8050
  33   2.0000     -10.352336      -281.7014
  34   2.0000     -10.349511      -281.6245
  35   2.0000     -10.348825      -281.6058
  36   2.0000     -10.347980      -281.5828
  37   2.0000     -10.344097      -281.4772
  38   2.0000     -10.340618      -281.3825
  39   2.0000     -10.333428      -281.1869
  40   2.0000     -10.332670      -281.1663
  41   2.0000     -10.330227      -281.0998
  42   2.0000     -10.329822      -281.0888
  43   2.0000     -10.329704      -281.0855
  44   2.0000     -10.329652      -281.0841
  45   2.0000     -10.327469      -281.0247
  46   2.0000     -10.326733      -281.0047
  47   2.0000     -10.326073      -280.9867
  48   2.0000     -10.325008      -280.9577
  49   2.0000     -10.324605      -280.9468
  50   2.0000     -10.323827      -280.9256
  51   2.0000     -10.323787      -280.9245
  52   2.0000     -10.322939      -280.9015
  53   2.0000     -10.322345      -280.8853
  54   2.0000     -10.321080      -280.8509
  55   2.0000     -10.318367      -280.7770
  56   2.0000     -10.317924      -280.7650
  57   2.0000     -10.314772      -280.6792
  58   2.0000     -10.314005      -280.6583
  59   2.0000     -10.307039      -280.4688
  60   2.0000     -10.306801      -280.4623
  61   2.0000     -10.306003      -280.4406
  62   2.0000     -10.303856      -280.3822
  63   2.0000     -10.301791      -280.3260
  64   2.0000     -10.301231      -280.3107
  65   2.0000     -10.299014      -280.2504
  66   2.0000     -10.294741      -280.1341
  67   2.0000     -10.293110      -280.0898
  68   2.0000     -10.293078      -280.0889
  69   2.0000     -10.290980      -280.0318
  70   2.0000     -10.290621      -280.0220
  71   2.0000     -10.290098      -280.0078
  72   2.0000     -10.288002      -279.9508
  73   2.0000     -10.283032      -279.8155
  74   2.0000     -10.282592      -279.8036
  75   2.0000     -10.280199      -279.7384
  76   2.0000     -10.279466      -279.7185
  77   2.0000     -10.274341      -279.5790
  78   2.0000     -10.271121      -279.4914
  79   2.0000     -10.269245      -279.4404
  80   2.0000      -8.107887      -220.6268
  81   2.0000      -8.083641      -219.9671
  82   2.0000      -8.081764      -219.9160
  83   2.0000      -8.081125      -219.8986
  84   2.0000      -8.075907      -219.7566
  85   2.0000      -8.075700      -219.7510
  86   2.0000      -8.066194      -219.4923
  87   2.0000      -8.047815      -218.9922
  88   2.0000      -6.077021      -165.3641
  89   2.0000      -6.072521      -165.2417
  90   2.0000      -6.070596      -165.1893
  91   2.0000      -6.052816      -164.7055
  92   2.0000      -6.051113      -164.6592
  93   2.0000      -6.050535      -164.6434
  94   2.0000      -6.048417      -164.5858
  95   2.0000      -6.046688      -164.5387
  96   2.0000      -6.046339      -164.5292
  97   2.0000      -6.045890      -164.5170
  98   2.0000      -6.045166      -164.4973
  99   2.0000      -6.044920      -164.4906
 100   2.0000      -6.043897      -164.4628
 101   2.0000      -6.043673      -164.4567
 102   2.0000      -6.040810      -164.3788
 103   2.0000      -6.040743      -164.3770
 104   2.0000      -6.038492      -164.3157
 105   2.0000      -6.038182      -164.3073
 106   2.0000      -6.035727      -164.2405
 107   2.0000      -6.030980      -164.1113
 108   2.0000      -6.028180      -164.0351
 109   2.0000      -6.017287      -163.7387
 110   2.0000      -6.013051      -163.6234
 111   2.0000      -6.009737      -163.5333
 112   2.0000      -1.398285       -38.0493
 113   2.0000      -1.395942       -37.9855
 114   2.0000      -1.328875       -36.1605
 115   2.0000      -1.310074       -35.6489
 116   2.0000      -1.300353       -35.3844
 117   2.0000      -1.298271       -35.3277
 118   2.0000      -1.297662       -35.3112
 119   2.0000      -1.295125       -35.2421
 120   2.0000      -1.239687       -33.7336
 121   2.0000      -1.150732       -31.3130
 122   2.0000      -1.142727       -31.0952
 123   2.0000      -1.043294       -28.3895
 124   2.0000      -1.036040       -28.1921
 125   2.0000      -1.034576       -28.1522
 126   2.0000      -1.025246       -27.8984
 127   2.0000      -1.021376       -27.7931
 128   2.0000      -1.014616       -27.6091
 129   2.0000      -1.013836       -27.5879
 130   2.0000      -1.008655       -27.4469
 131   2.0000      -1.005499       -27.3610
 132   2.0000      -1.001296       -27.2466
 133   2.0000      -0.999930       -27.2095
 134   2.0000      -0.990771       -26.9602
 135   2.0000      -0.985711       -26.8226
 136   2.0000      -0.968311       -26.3491
 137   2.0000      -0.956926       -26.0393
 138   2.0000      -0.949523       -25.8378
 139   2.0000      -0.942281       -25.6408
 140   2.0000      -0.928410       -25.2633
 141   2.0000      -0.925269       -25.1779
 142   2.0000      -0.916855       -24.9489
 143   2.0000      -0.907138       -24.6845
 144   2.0000      -0.906638       -24.6709
 145   2.0000      -0.901394       -24.5282
 146   2.0000      -0.883718       -24.0472
 147   2.0000      -0.874989       -23.8097
 148   2.0000      -0.871614       -23.7178
 149   2.0000      -0.859798       -23.3963
 150   2.0000      -0.854225       -23.2446
 151   2.0000      -0.852931       -23.2094
 152   2.0000      -0.848190       -23.0804
 153   2.0000      -0.844057       -22.9680
 154   2.0000      -0.838876       -22.8270
 155   2.0000      -0.829920       -22.5833
 156   2.0000      -0.822828       -22.3903
 157   2.0000      -0.809145       -22.0180
 158   2.0000      -0.806301       -21.9406
 159   2.0000      -0.798069       -21.7166
 160   2.0000      -0.786187       -21.3932
 161   2.0000      -0.778009       -21.1707
 162   2.0000      -0.769407       -20.9366
 163   2.0000      -0.768724       -20.9181
 164   2.0000      -0.759626       -20.6705
 165   2.0000      -0.755612       -20.5613
 166   2.0000      -0.750721       -20.4282
 167   2.0000      -0.744727       -20.2650
 168   2.0000      -0.734351       -19.9827
 169   2.0000      -0.726824       -19.7779
 170   2.0000      -0.721343       -19.6287
 171   2.0000      -0.717878       -19.5345
 172   2.0000      -0.709178       -19.2977
 173   2.0000      -0.703293       -19.1376
 174   2.0000      -0.696262       -18.9462
 175   2.0000      -0.688271       -18.7288
 176   2.0000      -0.680968       -18.5301
 177   2.0000      -0.680703       -18.5229
 178   2.0000      -0.680074       -18.5057
 179   2.0000      -0.678493       -18.4627
 180   2.0000      -0.677332       -18.4311
 181   2.0000      -0.670608       -18.2482
 182   2.0000      -0.668555       -18.1923
 183   2.0000      -0.667250       -18.1568
 184   2.0000      -0.663871       -18.0648
 185   2.0000      -0.655461       -17.8360
 186   2.0000      -0.646925       -17.6037
 187   2.0000      -0.642464       -17.4823
 188   2.0000      -0.635384       -17.2897
 189   2.0000      -0.634260       -17.2591
 190   2.0000      -0.630773       -17.1642
 191   2.0000      -0.624919       -17.0049
 192   2.0000      -0.623419       -16.9641
 193   2.0000      -0.622441       -16.9375
 194   2.0000      -0.621752       -16.9187
 195   2.0000      -0.617688       -16.8082
 196   2.0000      -0.615946       -16.7607
 197   2.0000      -0.607816       -16.5395
 198   2.0000      -0.606343       -16.4994
 199   2.0000      -0.600767       -16.3477
 200   2.0000      -0.594593       -16.1797
 201   2.0000      -0.590869       -16.0784
 202   2.0000      -0.589856       -16.0508
 203   2.0000      -0.588451       -16.0126
 204   2.0000      -0.581940       -15.8354
 205   2.0000      -0.575297       -15.6546
 206   2.0000      -0.566007       -15.4018
 207   2.0000      -0.562522       -15.3070
 208   2.0000      -0.557619       -15.1736
 209   2.0000      -0.556247       -15.1362
 210   2.0000      -0.553458       -15.0604
 211   2.0000      -0.552158       -15.0250
 212   2.0000      -0.550399       -14.9771
 213   2.0000      -0.549671       -14.9573
 214   2.0000      -0.548680       -14.9303
 215   2.0000      -0.544984       -14.8298
 216   2.0000      -0.544001       -14.8030
 217   2.0000      -0.542647       -14.7662
 218   2.0000      -0.540391       -14.7048
 219   2.0000      -0.537540       -14.6272
 220   2.0000      -0.536843       -14.6082
 221   2.0000      -0.530977       -14.4486
 222   2.0000      -0.523038       -14.2326
 223   2.0000      -0.521881       -14.2011
 224   2.0000      -0.521568       -14.1926
 225   2.0000      -0.518376       -14.1057
 226   2.0000      -0.516213       -14.0469
 227   2.0000      -0.514352       -13.9962
 228   2.0000      -0.513953       -13.9854
 229   2.0000      -0.512359       -13.9420
 230   2.0000      -0.511078       -13.9071
 231   2.0000      -0.509201       -13.8561
 232   2.0000      -0.507169       -13.8008
 233   2.0000      -0.506735       -13.7890
 234   2.0000      -0.504991       -13.7415
 235   2.0000      -0.503775       -13.7084
 236   2.0000      -0.501516       -13.6470
 237   2.0000      -0.497710       -13.5434
 238   2.0000      -0.496674       -13.5152
 239   2.0000      -0.496409       -13.5080
 240   2.0000      -0.494368       -13.4524
 241   2.0000      -0.491298       -13.3689
 242   2.0000      -0.490689       -13.3523
 243   2.0000      -0.489287       -13.3142
 244   2.0000      -0.487069       -13.2538
 245   2.0000      -0.485404       -13.2085
 246   2.0000      -0.482799       -13.1376
 247   2.0000      -0.481063       -13.0904
 248   2.0000      -0.477810       -13.0019
 249   2.0000      -0.475390       -12.9360
 250   2.0000      -0.474710       -12.9175
 251   2.0000      -0.473805       -12.8929
 252   2.0000      -0.469181       -12.7671
 253   2.0000      -0.468671       -12.7532
 254   2.0000      -0.467135       -12.7114
 255   2.0000      -0.463884       -12.6229
 256   2.0000      -0.463681       -12.6174
 257   2.0000      -0.461612       -12.5611
 258   2.0000      -0.458258       -12.4698
 259   2.0000      -0.455749       -12.4016
 260   2.0000      -0.454308       -12.3624
 261   2.0000      -0.451929       -12.2976
 262   2.0000      -0.450092       -12.2476
 263   2.0000      -0.446304       -12.1445
 264   2.0000      -0.445128       -12.1125
 265   2.0000      -0.441702       -12.0193
 266   2.0000      -0.440407       -11.9841
 267   2.0000      -0.440093       -11.9755
 268   2.0000      -0.438374       -11.9288
 269   2.0000      -0.434278       -11.8173
 270   2.0000      -0.433582       -11.7984
 271   2.0000      -0.432530       -11.7697
 272   2.0000      -0.431725       -11.7478
 273   2.0000      -0.427100       -11.6220
 274   2.0000      -0.425013       -11.5652
 275   2.0000      -0.422455       -11.4956
 276   2.0000      -0.421621       -11.4729
 277   2.0000      -0.419493       -11.4150
 278   2.0000      -0.418264       -11.3815
 279   2.0000      -0.411127       -11.1873
 280   2.0000      -0.409786       -11.1508
 281   2.0000      -0.403951       -10.9921
 282   2.0000      -0.402576       -10.9547
 283   2.0000      -0.388058       -10.5596
 284   2.0000      -0.383299       -10.4301
 285   2.0000      -0.381917       -10.3925
 286   2.0000      -0.377061       -10.2604
 287   2.0000      -0.367309        -9.9950
 288   2.0000      -0.356470        -9.7001
 289   2.0000      -0.354258        -9.6398
 290   2.0000      -0.352436        -9.5903
 291   2.0000      -0.347584        -9.4582
 292   2.0000      -0.345872        -9.4116
 293   2.0000      -0.345106        -9.3908
 294   2.0000      -0.340200        -9.2573
 295   2.0000      -0.339643        -9.2422
 296   2.0000      -0.332230        -9.0404
 297   2.0000      -0.324727        -8.8363
 298   2.0000      -0.320674        -8.7260
 299   2.0000      -0.314182        -8.5493
 300   2.0000      -0.307862        -8.3774
 301   2.0000      -0.281831        -7.6690
 302   2.0000      -0.270672        -7.3654
 303   2.0000      -0.259677        -7.0662
 304   2.0000      -0.220137        -5.9902
 305   0.0000      -0.102441        -2.7876
 306   0.0000      -0.096909        -2.6370
 307   0.0000      -0.087016        -2.3678
 308   0.0000      -0.078619        -2.1393
 309   0.0000      -0.059623        -1.6224

MULLIKEN ATOMIC CHARGES
-----------------------
   0 C :   -0.079772
   1 C :    0.037054
   2 C :   -0.032363
   3 C :   -0.120954
   4 S :    0.192332
   5 C :   -0.076816
   6 C :    0.037035
   7 C :    0.302665
   8 C :   -0.301416
   9 C :   -0.185192
  10 N :    0.158870
  11 C :   -0.192175
  12 N :    0.173502
  13 C :   -0.092718
  14 C :   -0.072120
  15 S :    0.251361
  16 C :   -0.097209
  17 C :   -0.011402
  18 C :    0.147512
  19 O :   -0.201008
  20 C :    0.065749
  21 C :    0.068777
  22 C :   -0.337931
  23 S :    0.281916
  24 C :   -0.340743
  25 C :    0.569822
  26 F :   -0.147477
  27 F :   -0.146043
  28 F :   -0.166074
  29 C :    0.564854
  30 F :   -0.140922
  31 F :   -0.167699
  32 F :   -0.143491
  33 C :    0.094087
  34 O :   -0.141505
  35 C :    0.039899
  36 C :   -0.163010
  37 S :    0.203368
  38 C :    0.017586
  39 C :    0.187189
  40 F :   -0.158859
  41 C :    0.115335
  42 F :   -0.176691
  43 C :    0.092080
  44 C :   -0.024419
  45 C :   -0.047636
  46 N :   -0.047327
  47 N :   -0.066960
  48 N :   -0.083231
  49 C :    0.139486
  50 C :   -0.111685
  51 C :   -0.072593
  52 C :    0.058500
  53 C :    0.058815
  54 C :   -0.129569
  55 S :    0.156989
  56 C :   -0.101750
  57 C :    0.045348
  58 C :    0.004736
  59 C :   -0.067025
  60 S :    0.124897
  61 C :    0.095281
  62 C :   -0.026740
  63 C :    0.030756
  64 C :   -0.070597
  65 C :   -0.041996
  66 C :    0.006595
  67 C :   -0.105821
  68 S :    0.141389
  69 C :   -0.112099
  70 C :   -0.038198
  71 C :    0.299829
  72 C :   -0.303500
  73 C :   -0.192033
  74 N :    0.171694
  75 C :   -0.179897
  76 N :    0.164703
  77 C :    0.037669
  78 C :   -0.087291
  79 S :    0.168839
  80 H :    0.038274
  81 H :    0.011673
  82 H :    0.021125
  83 H :    0.058245
  84 H :    0.059137
  85 H :    0.059354
  86 H :   -0.004126
  87 H :    0.036457
  88 H :   -0.008362
  89 H :    0.027090
  90 H :   -0.024740
  91 H :   -0.027616
  92 H :    0.005477
  93 H :    0.011544
  94 H :    0.033904
Sum of atomic charges:   -0.0000000

LOEWDIN ATOMIC CHARGES
----------------------
   0 C :   -0.174467
   1 C :   -0.034971
   2 C :   -0.073252
   3 C :   -0.183881
   4 S :    0.486256
   5 C :   -0.183942
   6 C :   -0.075149
   7 C :    0.084704
   8 C :   -0.110056
   9 C :   -0.013935
  10 N :   -0.044084
  11 C :   -0.018120
  12 N :   -0.035140
  13 C :   -0.024802
  14 C :   -0.202342
  15 S :    0.553541
  16 C :   -0.119722
  17 C :   -0.110928
  18 C :    0.080327
  19 O :   -0.171539
  20 C :   -0.064001
  21 C :   -0.062575
  22 C :   -0.206561
  23 S :    0.560585
  24 C :   -0.207228
  25 C :    0.144975
  26 F :   -0.046067
  27 F :   -0.045685
  28 F :   -0.067234
  29 C :    0.144662
  30 F :   -0.040126
  31 F :   -0.069293
  32 F :   -0.044630
  33 C :    0.073396
  34 O :   -0.127864
  35 C :   -0.088528
  36 C :   -0.119498
  37 S :    0.515804
  38 C :   -0.083521
  39 C :    0.085641
  40 F :   -0.034219
  41 C :    0.055423
  42 F :   -0.049864
  43 C :   -0.052026
  44 C :   -0.038581
  45 C :   -0.050840
  46 N :   -0.092110
  47 N :    0.160145
  48 N :   -0.090508
  49 C :    0.028261
  50 C :   -0.177318
  51 C :   -0.005645
  52 C :   -0.023331
  53 C :   -0.050826
  54 C :   -0.144232
  55 S :    0.473725
  56 C :   -0.202190
  57 C :   -0.039664
  58 C :   -0.063449
  59 C :   -0.162238
  60 S :    0.417592
  61 C :   -0.047390
  62 C :   -0.003429
  63 C :   -0.063526
  64 C :   -0.151523
  65 C :   -0.038353
  66 C :   -0.062715
  67 C :   -0.201463
  68 S :    0.466055
  69 C :   -0.177074
  70 C :   -0.085600
  71 C :    0.085852
  72 C :   -0.107544
  73 C :   -0.016819
  74 N :   -0.036361
  75 C :   -0.014403
  76 N :   -0.040792
  77 C :   -0.033885
  78 C :   -0.183853
  79 S :    0.467535
  80 H :    0.028406
  81 H :    0.042574
  82 H :    0.031036
  83 H :    0.035119
  84 H :    0.034967
  85 H :    0.047051
  86 H :    0.033469
  87 H :    0.037089
  88 H :    0.032436
  89 H :    0.023877
  90 H :    0.031238
  91 H :    0.023909
  92 H :    0.036999
  93 H :    0.042030
  94 H :    0.026232

  Mayer bond orders larger than 0.100000
B(  0-C ,  1-C ) :   1.5461 B(  0-C ,  4-S ) :   1.1557 B(  0-C , 80-H ) :   0.9639
B(  1-C ,  2-C ) :   1.2769 B(  1-C , 81-H ) :   0.9958 B(  2-C ,  3-C ) :   1.4515
B(  2-C ,  7-C ) :   1.0190 B(  3-C ,  4-S ) :   1.1395 B(  3-C ,  5-C ) :   1.1786
B(  5-C ,  6-C ) :   1.4035 B(  5-C , 15-S ) :   1.1160 B(  6-C ,  7-C ) :   0.9860
B(  6-C , 13-C ) :   1.3492 B(  7-C ,  8-C ) :   1.7038 B(  8-C ,  9-C ) :   1.1377
B(  8-C , 11-C ) :   1.1284 B(  9-C , 10-N ) :   2.9832 B( 11-C , 12-N ) :   3.0043
B( 13-C , 14-C ) :   1.3823 B( 13-C , 82-H ) :   0.9811 B( 14-C , 15-S ) :   1.1058
B( 14-C , 16-C ) :   1.2173 B( 16-C , 17-C ) :   1.4391 B( 16-C , 37-S ) :   1.1568
B( 17-C , 18-C ) :   1.0358 B( 17-C , 35-C ) :   1.1615 B( 18-C , 19-O ) :   2.0504
B( 18-C , 20-C ) :   0.9666 B( 20-C , 21-C ) :   1.2334 B( 20-C , 24-C ) :   1.5673
B( 21-C , 22-C ) :   1.5827 B( 21-C , 33-C ) :   0.9288 B( 22-C , 23-S ) :   1.1861
B( 22-C , 29-C ) :   0.9284 B( 23-S , 24-C ) :   1.1897 B( 24-C , 25-C ) :   0.9326
B( 25-C , 26-F ) :   1.1820 B( 25-C , 27-F ) :   1.1857 B( 25-C , 28-F ) :   1.1510
B( 29-C , 30-F ) :   1.1891 B( 29-C , 31-F ) :   1.1492 B( 29-C , 32-F ) :   1.1897
B( 33-C , 34-O ) :   2.2018 B( 33-C , 35-C ) :   0.9831 B( 35-C , 36-C ) :   1.5437
B( 36-C , 37-S ) :   1.1546 B( 36-C , 38-C ) :   1.0420 B( 38-C , 39-C ) :   1.4026
B( 38-C , 43-C ) :   0.1193 B( 38-C , 45-C ) :   1.1981 B( 39-C , 40-F ) :   1.1777
B( 39-C , 41-C ) :   1.1916 B( 41-C , 42-F ) :   1.1119 B( 41-C , 43-C ) :   1.3435
B( 43-C , 44-C ) :   1.1701 B( 43-C , 50-C ) :   1.1571 B( 44-C , 45-C ) :   1.2273
B( 44-C , 48-N ) :   1.4473 B( 45-C , 46-N ) :   1.4913 B( 46-N , 47-N ) :   1.2495
B( 46-N , 48-N ) :   0.1579 B( 47-N , 48-N ) :   1.2277 B( 47-N , 49-C ) :   0.9482
B( 49-C , 83-H ) :   0.9659 B( 49-C , 84-H ) :   0.9667 B( 49-C , 85-H ) :   0.9617
B( 50-C , 51-C ) :   1.5224 B( 50-C , 55-S ) :   1.0493 B( 51-C , 52-C ) :   1.2348
B( 51-C , 86-H ) :   0.9533 B( 52-C , 53-C ) :   1.0579 B( 52-C , 61-C ) :   1.3466
B( 53-C , 54-C ) :   1.5776 B( 53-C , 56-C ) :   1.1874 B( 54-C , 55-S ) :   1.1470
B( 54-C , 87-H ) :   0.9420 B( 56-C , 57-C ) :   1.4279 B( 56-C , 60-S ) :   1.0723
B( 57-C , 58-C ) :   1.2096 B( 57-C , 61-C ) :   1.1173 B( 58-C , 59-C ) :   1.5949
B( 58-C , 88-H ) :   0.9979 B( 59-C , 60-S ) :   1.1489 B( 59-C , 89-H ) :   0.9655
B( 61-C , 62-C ) :   1.1756 B( 62-C , 63-C ) :   1.6303 B( 62-C , 90-H ) :   0.9602
B( 63-C , 64-C ) :   1.1318 B( 63-C , 91-H ) :   0.9575 B( 64-C , 65-C ) :   1.4467
B( 64-C , 68-S ) :   1.1057 B( 65-C , 66-C ) :   1.3039 B( 65-C , 92-H ) :   0.9883
B( 66-C , 67-C ) :   1.4550 B( 66-C , 71-C ) :   0.9920 B( 67-C , 68-S ) :   1.1002
B( 67-C , 69-C ) :   1.1914 B( 69-C , 70-C ) :   1.4480 B( 69-C , 79-S ) :   1.1374
B( 70-C , 71-C ) :   1.0270 B( 70-C , 77-C ) :   1.2705 B( 71-C , 72-C ) :   1.7047
B( 72-C , 73-C ) :   1.1312 B( 72-C , 75-C ) :   1.1356 B( 73-C , 74-N ) :   3.0036
B( 75-C , 76-N ) :   2.9829 B( 77-C , 78-C ) :   1.5576 B( 77-C , 93-H ) :   0.9960
B( 78-C , 79-S ) :   1.1366 B( 78-C , 94-H ) :   0.9645

-----------------------------------------------------------------------------
         ABSORPTION SPECTRUM VIA TRANSITION ELECTRIC DIPOLE MOMENTS
-----------------------------------------------------------------------------
State   Energy  Wavelength   fosc         T2         TX        TY        TZ
        (cm-1)    (nm)                  (au**2)     (au)      (au)      (au)
-----------------------------------------------------------------------------
   0   10690.6    935.4   0.148625811   4.57686  -1.43774   1.16472   1.07388
   1   14367.7    696.0   0.548837448  12.57573   0.79290  -3.41965   0.50300
   2   15261.3    655.3   0.087020993   1.87719   0.61363  -0.79281  -0.93386
   3   17785.2    562.3   0.010604743   0.19630  -0.10065   0.42799  -0.05471
   4   20247.7    493.9   0.097066788   1.57823  -0.77487   0.98407   0.09709
   5   20677.0    483.6   0.135868347   2.16325  -0.29478   0.04247   1.44033
   6   21261.0    470.3   0.140202152   2.17093  -1.07408   0.13289   0.99981
   7   22241.6    449.6   0.516101556   7.63914  -1.05345  -1.99906   1.59158
   8   23353.0    428.2   0.308971116   4.35563   0.40587  -0.25987  -2.03061
   9   23545.6    424.7   0.161455019   2.25744  -0.05282   1.01274  -1.10860
  10   25365.5    394.2   0.041588359   0.53976  -0.37808  -0.48141   0.40628
  11   26373.7    379.2   0.096153594   1.20024  -0.75856   0.23884   0.75351
  12   26722.4    374.2   0.135053224   1.66382  -0.83889   0.00610   0.97982
  13   27106.4    368.9   0.666896678   8.09958   1.96593   0.20795  -2.04730
  14   28227.1    354.3   0.035957041   0.41937   0.39812  -0.21898  -0.46143
  15   28798.1    347.2   0.005923200   0.06771   0.19364  -0.11678  -0.12875
  16   28958.3    345.3   0.100078198   1.13774   0.11928   0.77574  -0.72231
  17   29689.9    336.8   0.134778047   1.49446  -0.14152  -0.54855   1.08329
  18   30307.1    330.0   0.070986976   0.77110   0.48774  -0.40718  -0.60615
  19   30342.7    329.6   0.034121796   0.37021   0.29806  -0.30378  -0.43485
  20   30457.8    328.3   0.021160590   0.22872  -0.04271  -0.31418  -0.35804
  21   30878.5    323.8   0.042246070   0.45041   0.02413  -0.08868  -0.66480
  22   31481.4    317.6   0.118768663   1.24201   0.67996  -0.74219   0.47835
  23   31530.6    317.2   1.039449585  10.85291  -0.86255   3.17787   0.10019
  24   31765.9    314.8   0.223675320   2.31810   0.04527  -0.04543   1.52118
  25   32083.8    311.7   0.177154038   1.81778  -0.09456  -1.33688  -0.14693
  26   32651.1    306.3   0.011075075   0.11167  -0.27622  -0.18726  -0.01736
  27   32982.3    303.2   0.187792645   1.87444   0.82658   0.14919  -1.08118
  28   33617.3    297.5   0.039446881   0.38630   0.12439   0.05111   0.60681
  29   33719.7    296.6   0.325602379   3.17892  -0.82374  -0.51312   1.49569
  30   33880.2    295.2   0.051742950   0.50278  -0.42730   0.32075   0.46618
  31   34495.7    289.9   0.245240977   2.34047  -0.12990  -0.88279   1.24269
  32   34743.7    287.8   0.190585425   1.80588   0.76856  -0.32129  -1.05450
  33   35126.6    284.7   0.051617753   0.48377  -0.01561   0.67195   0.17890
  34   35147.4    284.5   0.077318583   0.72421  -0.37915   0.72530  -0.23323
  35   35791.8    279.4   0.050527678   0.46475  -0.18726  -0.16533   0.63431
  36   35839.2    279.0   0.138625751   1.27339   0.29569   1.00111  -0.42864
  37   35876.6    278.7   0.046464851   0.42637   0.09959  -0.55753  -0.32498
  38   36105.5    277.0   0.008063290   0.07352  -0.03752  -0.24196   0.11650
  39   36545.5    273.6   0.003929905   0.03540   0.13154  -0.11830   0.06407
  40   36738.5    272.2   0.020688881   0.18539  -0.12447   0.28504   0.29774
  41   36835.6    271.5   0.013974980   0.12490  -0.04585  -0.20302   0.28562
  42   37454.9    267.0   0.061532446   0.54084   0.11299  -0.59821   0.41257
  43   37512.2    266.6   0.037342226   0.32772  -0.08913  -0.28628   0.48767
  44   38140.0    262.2   0.016069318   0.13870  -0.04938   0.30981   0.20071
  45   38230.0    261.6   0.005714334   0.04921   0.04256   0.06961  -0.20628
  46   38272.5    261.3   0.000435759   0.00375   0.04673  -0.03940  -0.00352
  47   38536.2    259.5   0.037087425   0.31684   0.01363  -0.23479   0.51139
  48   38747.8    258.1   0.000804932   0.00684  -0.01455   0.07799   0.02335
  49   38932.4    256.9   0.016392096   0.13861   0.23657   0.02785  -0.28613
  50   39155.8    255.4   0.025532163   0.21467   0.08264   0.33583  -0.30831
  51   39276.1    254.6   0.133691314   1.12060   0.08779   0.90874  -0.53580
  52   39562.8    252.8   0.019328420   0.16084  -0.03593   0.39815   0.03200
  53   39787.4    251.3   0.023418133   0.19377   0.03329   0.42773  -0.09854
  54   39880.2    250.8   0.106212693   0.87679   0.22230   0.34392  -0.84207
  55   39966.3    250.2   0.108102001   0.89046   0.09445  -0.89295  -0.29014
  56   40137.3    249.1   0.032555601   0.26703   0.05070   0.38259  -0.34362
  57   40188.3    248.8   0.055602254   0.45548   0.06845   0.54877  -0.38684

FINAL SINGLE POINT ENERGY     -6617.628076359652

DIPOLE MOMENT
-------------
                                X             Y             Z
Electronic contribution:     32.47872     -91.34016     -41.34329
Nuclear contribution   :    -31.73752      89.15514      42.20603
                        -----------------------------------------
Total Dipole Moment    :      0.74120      -2.18502       0.86274
                        -----------------------------------------
Magnitude (a.u.)       :      2.46333
Magnitude (Debye)      :      6.26129

Rotational constants in cm-1:     0.000723     0.000335     0.000244
Rotational constants in MHz :    21.680873    10.057381     7.325124

                             ****ORCA TERMINATED NORMALLY****
TOTAL RUN TIME: 0 days 0 hours 10 minutes 51 seconds 249 msec
