                         Program Version 4.2.0 -  RELEASE  -
|  1> # ORCA input file
|  2> # SCF done       -162.754840152022          0.000514940664
|  3> ! CAM-B3LYP def2-SVP def2/J RIJCOSX Grid4 TightSCF
|  4> %maxcore 5000
|  5> %tddft
|  6>     Mode sTDDFT
|  7>     Ethresh 5.0
|  8>     maxcore 5000
|  9> end
| 10>
| 11> %pal
| 12>   nprocs 6
| 13>   end
| 14> * xyz 0 1
| 15>    C       -8.80106         1.53325        -2.45018
| 16>    C       -9.78824         1.62490        -3.39070
| 17>    F      -10.26710         2.82159        -3.74934
| 18>    C      -10.31496         0.46435        -3.99491
| 19>    F      -11.28218         0.58553        -4.91176
| 20>    C       -9.84553        -0.77211        -3.65045
| 21>    C       -8.82765        -0.89941        -2.68503
| 22>    C       -8.29469         0.27276        -2.07272
| 23>    C       -7.27270         0.16963        -1.10258
| 24>    C       -6.79300        -1.06787        -0.75690
| 25>    C       -7.33176        -2.23186        -1.37357
| 26>    C       -8.32314        -2.16363        -2.31081
| 27>    C       -6.66014        -3.43105        -0.84337
| 28>    O       -6.89409        -4.58231        -1.13401
| 29>    C       -5.68290        -2.92684         0.16705
| 30>    C       -5.75893        -1.47154         0.18920
| 31>    C       -4.96975        -0.62594         0.91906
| 32>    C       -3.94159        -1.03189         1.79748
| 33>    N       -3.08864        -1.29090         2.52041
| 34>    C       -5.06992         0.78225         0.87860
| 35>    N       -5.10408         1.92890         0.88916
| 36>    C       -4.97360        -3.72666         0.99781
| 37>    C       -4.89544        -5.16078         0.87437
| 38>    C       -4.60510        -5.81400        -0.33513
| 39>    N       -4.58260        -7.11807        -0.43880
| 40>    C       -4.80907        -7.84255         0.65610
| 41>    N       -5.00610        -7.32436         1.86718
| 42>    C       -5.05809        -6.01697         1.97233
| 43>    C       -4.83158        -9.29027         0.51404
| 44>    C       -4.62229        -9.91291        -0.72198
| 45>    N       -4.66937       -11.21833        -0.86423
| 46>    C       -4.91715       -11.94843         0.22405
| 47>    N       -5.12061       -11.45661         1.44661
| 48>    C       -5.08121       -10.14976         1.58945
| 49>    C       -4.97526       -13.39433         0.05597
| 50>    C       -4.77419       -14.00321        -1.18857
| 51>    N       -4.84486       -15.30541        -1.34849
| 52>    C       -5.07035       -16.04841        -0.26479
| 53>    N       -5.27731       -15.56788         0.96447
| 54>    C       -5.24544       -14.26243         1.11890
| 55>    C       -5.15917       -17.47653        -0.48643
| 56>    C       -5.09718       -18.47111         0.42025
| 57>    C       -5.58907       -19.83896         0.05174
| 58>    O       -5.77951       -20.26152        -1.06101
| 59>    C       -5.84357       -20.51063         1.34043
| 60>    C       -6.42173       -21.72701         1.56990
| 61>    C       -6.58976       -22.16754         2.90090
| 62>    C       -6.16163       -21.33150         3.97389
| 63>    C       -6.33933       -21.77517         5.30030
| 64>    C       -6.91089       -22.99106         5.54933
| 65>    C       -7.33201       -23.81776         4.48719
| 66>    C       -7.17547       -23.41586         3.19059
| 67>    F       -7.88945       -25.00372         4.76193
| 68>    F       -7.07771       -23.41126         6.80915
| 69>    C       -5.56222       -20.08016         3.70663
| 70>    C       -5.39649       -19.67798         2.40723
| 71>    C       -4.77950       -18.48278         1.84094
| 72>    C       -3.88439       -17.67235         2.47480
| 73>    C       -3.09723       -16.70019         1.81776
| 74>    N       -2.36714       -15.95623         1.33888
| 75>    C       -3.56268       -17.78504         3.84470
| 76>    N       -3.28203       -17.83273         4.95597
| 77>    H       -8.40916         2.43126        -1.99865
| 78>    H      -10.25836        -1.65036        -4.12154
| 79>    H       -6.89583         1.07461        -0.65442
| 80>    H       -8.71321        -3.06404        -2.76054
| 81>    H       -4.43645        -3.29762         1.83434
| 82>    H       -4.34972        -5.25677        -1.22606
| 83>    H       -5.26589        -5.62701         2.96069
| 84>    H       -4.41633        -9.32883        -1.60865
| 85>    H       -5.25453        -9.75993         2.58349
| 86>    H       -4.56338       -13.40934        -2.06726
| 87>    H       -5.43130       -13.88125         2.11380
| 88>    H       -5.36561       -17.75923        -1.51248
| 89>    H       -6.74621       -22.34414         0.74592
| 90>    H       -6.01937       -21.15708         6.12454
| 91>    H       -7.50267       -24.05958         2.38918
| 92>    H       -5.25521       -19.46341         4.53618
| 93> *
| 94>
| 95>                          ****END OF INPUT****

CARTESIAN COORDINATES (ANGSTROEM)
---------------------------------
  C     -8.801060    1.533250   -2.450180
  C     -9.788240    1.624900   -3.390700
  F    -10.267100    2.821590   -3.749340
  C    -10.314960    0.464350   -3.994910
  F    -11.282180    0.585530   -4.911760
  C     -9.845530   -0.772110   -3.650450
  C     -8.827650   -0.899410   -2.685030
  C     -8.294690    0.272760   -2.072720
  C     -7.272700    0.169630   -1.102580
  C     -6.793000   -1.067870   -0.756900
  C     -7.331760   -2.231860   -1.373570
  C     -8.323140   -2.163630   -2.310810
  C     -6.660140   -3.431050   -0.843370
  O     -6.894090   -4.582310   -1.134010
  C     -5.682900   -2.926840    0.167050
  C     -5.758930   -1.471540    0.189200
  C     -4.969750   -0.625940    0.919060
  C     -3.941590   -1.031890    1.797480
  N     -3.088640   -1.290900    2.520410
  C     -5.069920    0.782250    0.878600
  N     -5.104080    1.928900    0.889160
  C     -4.973600   -3.726660    0.997810
  C     -4.895440   -5.160780    0.874370
  C     -4.605100   -5.814000   -0.335130
  N     -4.582600   -7.118070   -0.438800
  C     -4.809070   -7.842550    0.656100
  N     -5.006100   -7.324360    1.867180
  C     -5.058090   -6.016970    1.972330
  C     -4.831580   -9.290270    0.514040
  C     -4.622290   -9.912910   -0.721980
  N     -4.669370  -11.218330   -0.864230
  C     -4.917150  -11.948430    0.224050
  N     -5.120610  -11.456610    1.446610
  C     -5.081210  -10.149760    1.589450
  C     -4.975260  -13.394330    0.055970
  C     -4.774190  -14.003210   -1.188570
  N     -4.844860  -15.305410   -1.348490
  C     -5.070350  -16.048410   -0.264790
  N     -5.277310  -15.567880    0.964470
  C     -5.245440  -14.262430    1.118900
  C     -5.159170  -17.476530   -0.486430
  C     -5.097180  -18.471110    0.420250
  C     -5.589070  -19.838960    0.051740
  O     -5.779510  -20.261520   -1.061010
  C     -5.843570  -20.510630    1.340430
  C     -6.421730  -21.727010    1.569900
  C     -6.589760  -22.167540    2.900900
  C     -6.161630  -21.331500    3.973890
  C     -6.339330  -21.775170    5.300300
  C     -6.910890  -22.991060    5.549330
  C     -7.332010  -23.817760    4.487190
  C     -7.175470  -23.415860    3.190590
  F     -7.889450  -25.003720    4.761930
  F     -7.077710  -23.411260    6.809150
  C     -5.562220  -20.080160    3.706630
  C     -5.396490  -19.677980    2.407230
  C     -4.779500  -18.482780    1.840940
  C     -3.884390  -17.672350    2.474800
  C     -3.097230  -16.700190    1.817760
  N     -2.367140  -15.956230    1.338880
  C     -3.562680  -17.785040    3.844700
  N     -3.282030  -17.832730    4.955970
  H     -8.409160    2.431260   -1.998650
  H    -10.258360   -1.650360   -4.121540
  H     -6.895830    1.074610   -0.654420
  H     -8.713210   -3.064040   -2.760540
  H     -4.436450   -3.297620    1.834340
  H     -4.349720   -5.256770   -1.226060
  H     -5.265890   -5.627010    2.960690
  H     -4.416330   -9.328830   -1.608650
  H     -5.254530   -9.759930    2.583490
  H     -4.563380  -13.409340   -2.067260
  H     -5.431300  -13.881250    2.113800
  H     -5.365610  -17.759230   -1.512480
  H     -6.746210  -22.344140    0.745920
  H     -6.019370  -21.157080    6.124540
  H     -7.502670  -24.059580    2.389180
  H     -5.255210  -19.463410    4.536180

 Total Charge           Charge          ....    0
 Multiplicity           Mult            ....    1
 Number of Electrons    NEL             ....  414
 Basis Dimension        Dim             ....  948

ORBITAL ENERGIES
----------------

  NO   OCC          E(Eh)            E(eV)
   0   2.0000     -24.809944      -675.1129
   1   2.0000     -24.809065      -675.0890
   2   2.0000     -24.798657      -674.8058
   3   2.0000     -24.798098      -674.7905
   4   2.0000     -19.238008      -523.4928
   5   2.0000     -19.219927      -523.0008
   6   2.0000     -14.434690      -392.7879
   7   2.0000     -14.433327      -392.7508
   8   2.0000     -14.431172      -392.6921
   9   2.0000     -14.429779      -392.6542
  10   2.0000     -14.423382      -392.4802
  11   2.0000     -14.422841      -392.4655
  12   2.0000     -14.421217      -392.4213
  13   2.0000     -14.418152      -392.3379
  14   2.0000     -14.418027      -392.3345
  15   2.0000     -14.412032      -392.1713
  16   2.0000     -10.394421      -282.8466
  17   2.0000     -10.393759      -282.8286
  18   2.0000     -10.389505      -282.7128
  19   2.0000     -10.381751      -282.5018
  20   2.0000     -10.381414      -282.4926
  21   2.0000     -10.370403      -282.1930
  22   2.0000     -10.369226      -282.1610
  23   2.0000     -10.364143      -282.0227
  24   2.0000     -10.360668      -281.9281
  25   2.0000     -10.360507      -281.9237
  26   2.0000     -10.354398      -281.7575
  27   2.0000     -10.346192      -281.5342
  28   2.0000     -10.346085      -281.5313
  29   2.0000     -10.345789      -281.5232
  30   2.0000     -10.340165      -281.3702
  31   2.0000     -10.339845      -281.3615
  32   2.0000     -10.336303      -281.2651
  33   2.0000     -10.335132      -281.2332
  34   2.0000     -10.332949      -281.1738
  35   2.0000     -10.332154      -281.1522
  36   2.0000     -10.326640      -281.0021
  37   2.0000     -10.325081      -280.9597
  38   2.0000     -10.325014      -280.9579
  39   2.0000     -10.324815      -280.9525
  40   2.0000     -10.324283      -280.9380
  41   2.0000     -10.324045      -280.9316
  42   2.0000     -10.319770      -280.8152
  43   2.0000     -10.318322      -280.7758
  44   2.0000     -10.318010      -280.7673
  45   2.0000     -10.316181      -280.7176
  46   2.0000     -10.315218      -280.6914
  47   2.0000     -10.313834      -280.6537
  48   2.0000     -10.313073      -280.6330
  49   2.0000     -10.311478      -280.5896
  50   2.0000     -10.310964      -280.5756
  51   2.0000     -10.309484      -280.5353
  52   2.0000     -10.309216      -280.5280
  53   2.0000     -10.309070      -280.5241
  54   2.0000     -10.304790      -280.4076
  55   2.0000     -10.304060      -280.3877
  56   2.0000     -10.302345      -280.3411
  57   2.0000     -10.301451      -280.3167
  58   2.0000     -10.300490      -280.2906
  59   2.0000     -10.300464      -280.2899
  60   2.0000     -10.296558      -280.1836
  61   2.0000     -10.295256      -280.1482
  62   2.0000      -1.332981       -36.2722
  63   2.0000      -1.321635       -35.9635
  64   2.0000      -1.318009       -35.8649
  65   2.0000      -1.306755       -35.5586
  66   2.0000      -1.154149       -31.4060
  67   2.0000      -1.136032       -30.9130
  68   2.0000      -1.108799       -30.1720
  69   2.0000      -1.098514       -29.8921
  70   2.0000      -1.090095       -29.6630
  71   2.0000      -1.037643       -28.2357
  72   2.0000      -1.020444       -27.7677
  73   2.0000      -1.019710       -27.7477
  74   2.0000      -1.012204       -27.5435
  75   2.0000      -1.004427       -27.3318
  76   2.0000      -1.001153       -27.2428
  77   2.0000      -0.997728       -27.1496
  78   2.0000      -0.994902       -27.0727
  79   2.0000      -0.991400       -26.9774
  80   2.0000      -0.984493       -26.7894
  81   2.0000      -0.981512       -26.7083
  82   2.0000      -0.957108       -26.0442
  83   2.0000      -0.943184       -25.6653
  84   2.0000      -0.934896       -25.4398
  85   2.0000      -0.926638       -25.2151
  86   2.0000      -0.913423       -24.8555
  87   2.0000      -0.907130       -24.6843
  88   2.0000      -0.902896       -24.5690
  89   2.0000      -0.894210       -24.3327
  90   2.0000      -0.889560       -24.2062
  91   2.0000      -0.870082       -23.6761
  92   2.0000      -0.855548       -23.2807
  93   2.0000      -0.853103       -23.2141
  94   2.0000      -0.841117       -22.8880
  95   2.0000      -0.821346       -22.3499
  96   2.0000      -0.806187       -21.9375
  97   2.0000      -0.784724       -21.3534
  98   2.0000      -0.782285       -21.2871
  99   2.0000      -0.779407       -21.2088
 100   2.0000      -0.767104       -20.8740
 101   2.0000      -0.762539       -20.7497
 102   2.0000      -0.756573       -20.5874
 103   2.0000      -0.745036       -20.2735
 104   2.0000      -0.736198       -20.0330
 105   2.0000      -0.734096       -19.9758
 106   2.0000      -0.729713       -19.8565
 107   2.0000      -0.719637       -19.5823
 108   2.0000      -0.716858       -19.5067
 109   2.0000      -0.711431       -19.3590
 110   2.0000      -0.696747       -18.9595
 111   2.0000      -0.691623       -18.8200
 112   2.0000      -0.682354       -18.5678
 113   2.0000      -0.674527       -18.3548
 114   2.0000      -0.662196       -18.0193
 115   2.0000      -0.658647       -17.9227
 116   2.0000      -0.656372       -17.8608
 117   2.0000      -0.650477       -17.7004
 118   2.0000      -0.646360       -17.5884
 119   2.0000      -0.643785       -17.5183
 120   2.0000      -0.641937       -17.4680
 121   2.0000      -0.631753       -17.1909
 122   2.0000      -0.623452       -16.9650
 123   2.0000      -0.623070       -16.9546
 124   2.0000      -0.614224       -16.7139
 125   2.0000      -0.605618       -16.4797
 126   2.0000      -0.603289       -16.4163
 127   2.0000      -0.597957       -16.2712
 128   2.0000      -0.597316       -16.2538
 129   2.0000      -0.593598       -16.1526
 130   2.0000      -0.588313       -16.0088
 131   2.0000      -0.585940       -15.9442
 132   2.0000      -0.582406       -15.8481
 133   2.0000      -0.574842       -15.6422
 134   2.0000      -0.568630       -15.4732
 135   2.0000      -0.561647       -15.2832
 136   2.0000      -0.558508       -15.1978
 137   2.0000      -0.557973       -15.1832
 138   2.0000      -0.555691       -15.1211
 139   2.0000      -0.553689       -15.0666
 140   2.0000      -0.550807       -14.9882
 141   2.0000      -0.547626       -14.9017
 142   2.0000      -0.545698       -14.8492
 143   2.0000      -0.543107       -14.7787
 144   2.0000      -0.538635       -14.6570
 145   2.0000      -0.538003       -14.6398
 146   2.0000      -0.535557       -14.5732
 147   2.0000      -0.535282       -14.5658
 148   2.0000      -0.531079       -14.4514
 149   2.0000      -0.528484       -14.3808
 150   2.0000      -0.526971       -14.3396
 151   2.0000      -0.522633       -14.2216
 152   2.0000      -0.518322       -14.1042
 153   2.0000      -0.517857       -14.0916
 154   2.0000      -0.514935       -14.0121
 155   2.0000      -0.514345       -13.9960
 156   2.0000      -0.512869       -13.9559
 157   2.0000      -0.508160       -13.8277
 158   2.0000      -0.506687       -13.7877
 159   2.0000      -0.503851       -13.7105
 160   2.0000      -0.501704       -13.6521
 161   2.0000      -0.500153       -13.6098
 162   2.0000      -0.491689       -13.3795
 163   2.0000      -0.485034       -13.1984
 164   2.0000      -0.484486       -13.1835
 165   2.0000      -0.482543       -13.1306
 166   2.0000      -0.477267       -12.9871
 167   2.0000      -0.466631       -12.6977
 168   2.0000      -0.466184       -12.6855
 169   2.0000      -0.462280       -12.5793
 170   2.0000      -0.461384       -12.5549
 171   2.0000      -0.460635       -12.5345
 172   2.0000      -0.451148       -12.2764
 173   2.0000      -0.448123       -12.1940
 174   2.0000      -0.446286       -12.1441
 175   2.0000      -0.445254       -12.1160
 176   2.0000      -0.442453       -12.0398
 177   2.0000      -0.441736       -12.0202
 178   2.0000      -0.433724       -11.8022
 179   2.0000      -0.430866       -11.7244
 180   2.0000      -0.427970       -11.6457
 181   2.0000      -0.427066       -11.6211
 182   2.0000      -0.425066       -11.5666
 183   2.0000      -0.418192       -11.3796
 184   2.0000      -0.417505       -11.3609
 185   2.0000      -0.413330       -11.2473
 186   2.0000      -0.409776       -11.1506
 187   2.0000      -0.404181       -10.9983
 188   2.0000      -0.401740       -10.9319
 189   2.0000      -0.397460       -10.8154
 190   2.0000      -0.395378       -10.7588
 191   2.0000      -0.390011       -10.6127
 192   2.0000      -0.387066       -10.5326
 193   2.0000      -0.377784       -10.2800
 194   2.0000      -0.374043       -10.1782
 195   2.0000      -0.361613        -9.8400
 196   2.0000      -0.354906        -9.6575
 197   2.0000      -0.343417        -9.3448
 198   2.0000      -0.340302        -9.2601
 199   2.0000      -0.334712        -9.1080
 200   2.0000      -0.332726        -9.0539
 201   2.0000      -0.328093        -8.9279
 202   2.0000      -0.324905        -8.8411
 203   2.0000      -0.316628        -8.6159
 204   2.0000      -0.314165        -8.5489
 205   2.0000      -0.304880        -8.2962
 206   2.0000      -0.296416        -8.0659
 207   0.0000      -0.112055        -3.0492
 208   0.0000      -0.096664        -2.6304
 209   0.0000      -0.077388        -2.1058
 210   0.0000      -0.061288        -1.6677
 211   0.0000      -0.052239        -1.4215

MULLIKEN ATOMIC CHARGES
-----------------------
   0 C :   -0.102167
   1 C :    0.243459
   2 F :   -0.166095
   3 C :    0.239751
   4 F :   -0.167701
   5 C :   -0.099504
   6 C :    0.111982
   7 C :    0.109762
   8 C :   -0.078178
   9 C :    0.056504
  10 C :   -0.017909
  11 C :   -0.067685
  12 C :    0.142416
  13 O :   -0.130948
  14 C :   -0.083040
  15 C :    0.306977
  16 C :   -0.330620
  17 C :   -0.195533
  18 N :    0.165447
  19 C :   -0.180087
  20 N :    0.159714
  21 C :   -0.013040
  22 C :   -0.032461
  23 C :    0.115822
  24 N :   -0.053362
  25 C :   -0.060657
  26 N :   -0.050610
  27 C :    0.064047
  28 C :    0.011385
  29 C :    0.061898
  30 N :   -0.046037
  31 C :   -0.064951
  32 N :   -0.047864
  33 C :    0.059298
  34 C :    0.031219
  35 C :    0.059626
  36 N :   -0.041434
  37 C :   -0.077077
  38 N :   -0.080826
  39 C :    0.067350
  40 C :    0.088153
  41 C :   -0.088858
  42 C :    0.138433
  43 O :   -0.128010
  44 C :    0.006929
  45 C :   -0.077031
  46 C :    0.110293
  47 C :    0.112510
  48 C :   -0.107511
  49 C :    0.243121
  50 C :    0.238824
  51 C :   -0.102173
  52 F :   -0.170625
  53 F :   -0.170603
  54 C :   -0.078868
  55 C :    0.038541
  56 C :    0.288043
  57 C :   -0.290101
  58 C :   -0.180307
  59 N :    0.158184
  60 C :   -0.190214
  61 N :    0.156635
  62 H :    0.010732
  63 H :    0.003108
  64 H :   -0.003938
  65 H :   -0.005789
  66 H :    0.044539
  67 H :    0.011155
  68 H :    0.013350
  69 H :    0.023303
  70 H :    0.021862
  71 H :    0.023260
  72 H :    0.020572
  73 H :    0.028802
  74 H :   -0.008012
  75 H :    0.006367
  76 H :   -0.000081
  77 H :   -0.003466
Sum of atomic charges:   -0.0000000

LOEWDIN ATOMIC CHARGES
----------------------
   0 C :   -0.027941
   1 C :    0.069696
   2 F :   -0.044380
   3 C :    0.070689
   4 F :   -0.044958
   5 C :   -0.031159
   6 C :   -0.007492
   7 C :   -0.004712
   8 C :    0.021054
   9 C :   -0.024505
  10 C :   -0.056579
  11 C :    0.036047
  12 C :    0.084350
  13 O :   -0.127339
  14 C :   -0.077010
  15 C :    0.072397
  16 C :   -0.125131
  17 C :   -0.022324
  18 N :   -0.038204
  19 C :   -0.017387
  20 N :   -0.040602
  21 C :    0.074950
  22 C :   -0.083584
  23 C :    0.089166
  24 N :   -0.074399
  25 C :    0.045939
  26 N :   -0.079592
  27 C :    0.068094
  28 C :   -0.089544
  29 C :    0.080329
  30 N :   -0.077623
  31 C :    0.041516
  32 N :   -0.078491
  33 C :    0.080228
  34 C :   -0.073885
  35 C :    0.078935
  36 N :   -0.066523
  37 C :    0.021650
  38 N :   -0.068963
  39 C :    0.081421
  40 C :    0.060625
  41 C :   -0.055981
  42 C :    0.085718
  43 O :   -0.128046
  44 C :   -0.056098
  45 C :    0.032491
  46 C :   -0.009714
  47 C :   -0.004251
  48 C :   -0.030438
  49 C :    0.067571
  50 C :    0.066445
  51 C :   -0.032551
  52 F :   -0.048566
  53 F :   -0.047857
  54 C :    0.014070
  55 C :   -0.017464
  56 C :    0.070468
  57 C :   -0.110207
  58 C :   -0.016961
  59 N :   -0.049739
  60 C :   -0.016469
  61 N :   -0.047133
  62 H :    0.048984
  63 H :    0.046378
  64 H :    0.040938
  65 H :    0.042265
  66 H :    0.049626
  67 H :    0.028957
  68 H :    0.030380
  69 H :    0.031615
  70 H :    0.031559
  71 H :    0.031540
  72 H :    0.031079
  73 H :    0.053052
  74 H :    0.041100
  75 H :    0.047491
  76 H :    0.045060
  77 H :    0.039930

  Mayer bond orders larger than 0.100000
B(  0-C ,  1-C ) :   1.4444 B(  0-C ,  5-C ) :   0.1069 B(  0-C ,  7-C ) :   1.1866
B(  0-C , 62-H ) :   1.0065 B(  1-C ,  2-F ) :   1.1405 B(  1-C ,  3-C ) :   1.1845
B(  3-C ,  4-F ) :   1.1371 B(  3-C ,  5-C ) :   1.4457 B(  5-C ,  6-C ) :   1.1921
B(  5-C , 63-H ) :   1.0069 B(  6-C ,  7-C ) :   1.2508 B(  6-C , 11-C ) :   1.1953
B(  7-C ,  8-C ) :   1.2260 B(  8-C ,  9-C ) :   1.4391 B(  8-C , 64-H ) :   0.9895
B(  9-C , 10-C ) :   1.2158 B(  9-C , 15-C ) :   1.0007 B( 10-C , 11-C ) :   1.4688
B( 10-C , 12-C ) :   0.9438 B( 11-C , 65-H ) :   1.0162 B( 12-C , 13-O ) :   2.2388
B( 12-C , 14-C ) :   0.9202 B( 14-C , 15-C ) :   1.0311 B( 14-C , 21-C ) :   1.7382
B( 15-C , 16-C ) :   1.6679 B( 16-C , 17-C ) :   1.1378 B( 16-C , 19-C ) :   1.1395
B( 17-C , 18-N ) :   2.9775 B( 19-C , 20-N ) :   2.9651 B( 21-C , 22-C ) :   1.0221
B( 21-C , 66-H ) :   0.9407 B( 22-C , 23-C ) :   1.3077 B( 22-C , 27-C ) :   1.3284
B( 23-C , 24-N ) :   1.5826 B( 23-C , 67-H ) :   0.9837 B( 24-N , 25-C ) :   1.5652
B( 25-C , 26-N ) :   1.5797 B( 25-C , 28-C ) :   0.9708 B( 26-N , 27-C ) :   1.5577
B( 27-C , 68-H ) :   0.9915 B( 28-C , 29-C ) :   1.3358 B( 28-C , 33-C ) :   1.3364
B( 29-C , 30-N ) :   1.5502 B( 29-C , 69-H ) :   0.9765 B( 30-N , 31-C ) :   1.5783
B( 31-C , 32-N ) :   1.5782 B( 31-C , 34-C ) :   0.9665 B( 32-N , 33-C ) :   1.5478
B( 33-C , 70-H ) :   0.9786 B( 34-C , 35-C ) :   1.3429 B( 34-C , 39-C ) :   1.3374
B( 35-C , 36-N ) :   1.5467 B( 35-C , 71-H ) :   0.9743 B( 36-N , 37-C ) :   1.5168
B( 37-C , 38-N ) :   1.4762 B( 37-C , 40-C ) :   1.0099 B( 38-N , 39-C ) :   1.5317
B( 39-C , 72-H ) :   0.9768 B( 40-C , 41-C ) :   1.7112 B( 40-C , 73-H ) :   0.9501
B( 41-C , 42-C ) :   0.9202 B( 41-C , 56-C ) :   1.0007 B( 42-C , 43-O ) :   2.2896
B( 42-C , 44-C ) :   0.9164 B( 44-C , 45-C ) :   1.4679 B( 44-C , 55-C ) :   1.2202
B( 45-C , 46-C ) :   1.2006 B( 45-C , 74-H ) :   1.0156 B( 46-C , 47-C ) :   1.2557
B( 46-C , 51-C ) :   1.1898 B( 47-C , 48-C ) :   1.1873 B( 47-C , 54-C ) :   1.2185
B( 48-C , 49-C ) :   1.4431 B( 48-C , 51-C ) :   0.1092 B( 48-C , 75-H ) :   1.0071
B( 49-C , 50-C ) :   1.1893 B( 49-C , 53-F ) :   1.1341 B( 50-C , 51-C ) :   1.4456
B( 50-C , 52-F ) :   1.1344 B( 51-C , 76-H ) :   1.0068 B( 54-C , 55-C ) :   1.4518
B( 54-C , 77-H ) :   0.9937 B( 55-C , 56-C ) :   0.9997 B( 56-C , 57-C ) :   1.7083
B( 57-C , 58-C ) :   1.1508 B( 57-C , 60-C ) :   1.1356 B( 58-C , 59-N ) :   2.9803
B( 60-C , 61-N ) :   2.9867

-----------------------------------------------------------------------------
         ABSORPTION SPECTRUM VIA TRANSITION ELECTRIC DIPOLE MOMENTS
-----------------------------------------------------------------------------
State   Energy  Wavelength   fosc         T2         TX        TY        TZ
        (cm-1)    (nm)                  (au**2)     (au)      (au)      (au)
-----------------------------------------------------------------------------
   0   24790.1    403.4   0.537224989   7.13433  -0.48239   2.60906  -0.30732
   1   25123.7    398.0   0.340521671   4.46207  -0.12083  -2.10398   0.14400
   2   27095.4    369.1   0.060339531   0.73313  -0.60859   0.47166  -0.37456
   3   27532.9    363.2   0.065113782   0.77857   0.61471  -0.27342   0.57091
   4   28054.7    356.4   0.232973441   2.73386   0.29004  -1.56519   0.44710
   5   28459.6    351.4   0.082751540   0.95724  -0.07927  -0.82985   0.51216
   6   28796.8    347.3   0.690435937   7.89323   0.11022  -2.67739   0.84418
   7   29200.7    342.5   0.035358544   0.39864  -0.50852  -0.31588  -0.20065
   8   29733.4    336.3   0.017199674   0.19044   0.31331   0.14555  -0.26663
   9   30163.0    331.5   0.076710435   0.83725  -0.21266  -0.81010  -0.36847
  10   30427.2    328.7   0.004585934   0.04962  -0.09222  -0.13562  -0.15074
  11   32102.3    311.5   0.225912996   2.31675  -0.76078   1.08154  -0.75382
  12   33918.6    294.8   0.181275520   1.75945  -1.19579  -0.55856  -0.13244
  13   34055.8    293.6   0.712683624   6.88939   0.04016  -2.33549   1.19719
  14   34124.6    293.0   0.938334760   9.05243   2.36617   1.23714   1.38677
  15   35286.2    283.4   0.250163681   2.33397  -0.54807  -1.35060   0.45768
  16   35673.4    280.3   0.031673256   0.29230   0.44541   0.03664   0.30424
  17   36013.6    277.7   0.098027540   0.89610  -0.44088  -0.61488  -0.56890
  18   36365.4    275.0   0.143434329   1.29849   0.45013  -1.04577   0.04738
  19   36598.1    273.2   0.082963304   0.74628   0.29053   0.78122  -0.22711
  20   36892.2    271.1   0.043215207   0.38564  -0.06596  -0.59038  -0.18092
  21   37263.3    268.4   0.147727847   1.30514  -0.19529   0.56666  -0.97257
  22   38103.2    262.4   0.019802072   0.17109  -0.16260   0.30878   0.22205
  23   38556.4    259.4   0.028321837   0.24182   0.05909  -0.48297  -0.07125
  24   38615.0    259.0   0.130988431   1.11674   0.25723   0.73879   0.71047
  25   38863.2    257.3   0.094969206   0.80449  -0.31352  -0.83474  -0.09693
  26   39308.3    254.4   0.158128991   1.32435   0.03361  -1.00044   0.56775
  27   39874.6    250.8   0.065001056   0.53666   0.16391  -0.54247   0.46424
  28   40056.2    249.6   0.019591632   0.16102   0.02720   0.21327  -0.33881

FINAL SINGLE POINT ENERGY     -2856.292862887001

DIPOLE MOMENT
-------------
                                X             Y             Z
Electronic contribution:    -11.65868      -3.47798       2.25127
Nuclear contribution   :      9.30004       5.03436      -3.27071
                        -----------------------------------------
Total Dipole Moment    :     -2.35863       1.55638      -1.01944
                        -----------------------------------------
Magnitude (a.u.)       :      3.00412
Magnitude (Debye)      :      7.63586

Rotational constants in cm-1:     0.003158     0.000248     0.000242
Rotational constants in MHz :    94.671658     7.449162     7.240498

                             ****ORCA TERMINATED NORMALLY****
TOTAL RUN TIME: 0 days 0 hours 6 minutes 4 seconds 52 msec
