                         Program Version 4.2.0 -  RELEASE  -
|  1> # ORCA input file
|  2> # SCF done       -161.570315831240          0.000584825782
|  3> ! CAM-B3LYP def2-SVP def2/J RIJCOSX Grid4 TightSCF
|  4> %maxcore 5000
|  5> %tddft
|  6>     Mode sTDDFT
|  7>     Ethresh 5.0
|  8>     maxcore 5000
|  9> end
| 10>
| 11> %pal
| 12>   nprocs 6
| 13>   end
| 14> * xyz 0 1
| 15>    C        0.28956        -2.79023         1.98629
| 16>    C       -0.44806        -2.59465         0.85821
| 17>    C       -0.62982        -1.22329         0.59649
| 18>    C       -0.01153        -0.41106         1.55384
| 19>    S        0.78305        -1.32106         2.76027
| 20>    C       -0.24620         0.95120         1.21322
| 21>    C       -1.01287         0.99224         0.03953
| 22>    C       -1.28000        -0.37576        -0.38783
| 23>    C       -1.99100        -0.77554        -1.48062
| 24>    C       -2.58581         0.13540        -2.37987
| 25>    N       -3.07795         0.85701        -3.12248
| 26>    C       -2.18286        -2.13849        -1.79128
| 27>    N       -2.34082        -3.24476        -2.04870
| 28>    C       -1.29959         2.29270        -0.37806
| 29>    C       -0.75691         3.23948         0.47035
| 30>    S        0.12333         2.50511         1.80517
| 31>    C       -0.84988         4.66064         0.36523
| 32>    C       -0.27926         5.53749         1.27236
| 33>    C       -0.38343         6.92759         1.17417
| 34>    C       -1.06750         7.57831         0.15861
| 35>    C       -1.66541         6.71736        -0.80702
| 36>    C       -1.55750         5.27953        -0.70244
| 37>    N       -2.20545         4.76222        -1.72614
| 38>    O       -2.68511         5.78439        -2.42381
| 39>    N       -2.37437         6.96505        -1.89195
| 40>    C       -1.17924         9.01508         0.08655
| 41>    C       -1.86256         9.66343        -0.93177
| 42>    C       -2.00611        11.05000        -1.00912
| 43>    C       -1.48377        11.92819        -0.07295
| 44>    C       -0.75863        11.31286         0.98557
| 45>    C       -0.60522         9.87726         1.06490
| 46>    N        0.11183         9.63299         2.14528
| 47>    O        0.38633        10.81428         2.69722
| 48>    N       -0.12697        11.83263         2.01761
| 49>    C       -1.65729        13.34169        -0.13646
| 50>    C       -1.22846        14.29222         0.77157
| 51>    C       -1.60141        15.58242         0.39562
| 52>    C       -2.31708        15.61400        -0.81724
| 53>    S       -2.53282        14.06183        -1.48649
| 54>    C       -2.65527        16.95517        -1.11039
| 55>    C       -2.16263        17.77738        -0.08445
| 56>    C       -1.48062        16.94062         0.89531
| 57>    C       -0.86441        17.35666         2.03856
| 58>    C       -0.82192        18.71652         2.41194
| 59>    N       -0.78539        19.82080         2.71945
| 60>    C       -0.22881        16.46580         2.92972
| 61>    N        0.29359        15.76032         3.66700
| 62>    C       -2.45453        19.12574        -0.27986
| 63>    C       -3.16308        19.34431        -1.44920
| 64>    S       -3.47258        17.84614        -2.32030
| 65>    C       -3.62109        20.58864        -1.97094
| 66>    C       -4.27694        20.69521        -3.17120
| 67>    C       -4.73884        21.88782        -3.73136
| 68>    C       -4.63081        23.15526        -2.98465
| 69>    C       -4.01465        23.28203        -1.79090
| 70>    S       -3.26854        21.98549        -0.95274
| 71>    C       -5.28691        24.12254        -3.79054
| 72>    C       -5.76120        23.51247        -4.95533
| 73>    C       -6.41488        24.43161        -5.80768
| 74>    C       -6.42289        25.68241        -5.27967
| 75>    S       -5.64011        25.80314        -3.73728
| 76>    C       -5.40766        22.12231        -4.93793
| 77>    C       -5.72025        21.22124        -6.01509
| 78>    C       -5.06904        20.10520        -6.34024
| 79>    H        0.58329        -3.72263         2.42531
| 80>    H       -0.83660        -3.39340         0.25349
| 81>    H       -1.87039         2.56422        -1.24723
| 82>    H        0.27467         5.12943         2.10570
| 83>    H        0.09209         7.52834         1.93298
| 84>    H       -2.31432         9.06191        -1.70422
| 85>    H       -2.56324        11.45548        -1.84151
| 86>    H       -0.67627        14.02870         1.65527
| 87>    H       -2.17020        19.92024         0.38613
| 88>    H       -4.46352        19.77378        -3.70599
| 89>    H       -3.93769        24.22609        -1.27451
| 90>    H       -6.85425        24.18655        -6.75766
| 91>    H       -6.84672        26.57205        -5.70320
| 92>    H       -6.55350        21.53781        -6.63151
| 93>    H       -4.19054        19.77090        -5.81696
| 94>    H       -5.38225        19.50263        -7.17539
| 95> *
| 96>
| 97>                          ****END OF INPUT****

CARTESIAN COORDINATES (ANGSTROEM)
---------------------------------
  C      0.289560   -2.790230    1.986290
  C     -0.448060   -2.594650    0.858210
  C     -0.629820   -1.223290    0.596490
  C     -0.011530   -0.411060    1.553840
  S      0.783050   -1.321060    2.760270
  C     -0.246200    0.951200    1.213220
  C     -1.012870    0.992240    0.039530
  C     -1.280000   -0.375760   -0.387830
  C     -1.991000   -0.775540   -1.480620
  C     -2.585810    0.135400   -2.379870
  N     -3.077950    0.857010   -3.122480
  C     -2.182860   -2.138490   -1.791280
  N     -2.340820   -3.244760   -2.048700
  C     -1.299590    2.292700   -0.378060
  C     -0.756910    3.239480    0.470350
  S      0.123330    2.505110    1.805170
  C     -0.849880    4.660640    0.365230
  C     -0.279260    5.537490    1.272360
  C     -0.383430    6.927590    1.174170
  C     -1.067500    7.578310    0.158610
  C     -1.665410    6.717360   -0.807020
  C     -1.557500    5.279530   -0.702440
  N     -2.205450    4.762220   -1.726140
  O     -2.685110    5.784390   -2.423810
  N     -2.374370    6.965050   -1.891950
  C     -1.179240    9.015080    0.086550
  C     -1.862560    9.663430   -0.931770
  C     -2.006110   11.050000   -1.009120
  C     -1.483770   11.928190   -0.072950
  C     -0.758630   11.312860    0.985570
  C     -0.605220    9.877260    1.064900
  N      0.111830    9.632990    2.145280
  O      0.386330   10.814280    2.697220
  N     -0.126970   11.832630    2.017610
  C     -1.657290   13.341690   -0.136460
  C     -1.228460   14.292220    0.771570
  C     -1.601410   15.582420    0.395620
  C     -2.317080   15.614000   -0.817240
  S     -2.532820   14.061830   -1.486490
  C     -2.655270   16.955170   -1.110390
  C     -2.162630   17.777380   -0.084450
  C     -1.480620   16.940620    0.895310
  C     -0.864410   17.356660    2.038560
  C     -0.821920   18.716520    2.411940
  N     -0.785390   19.820800    2.719450
  C     -0.228810   16.465800    2.929720
  N      0.293590   15.760320    3.667000
  C     -2.454530   19.125740   -0.279860
  C     -3.163080   19.344310   -1.449200
  S     -3.472580   17.846140   -2.320300
  C     -3.621090   20.588640   -1.970940
  C     -4.276940   20.695210   -3.171200
  C     -4.738840   21.887820   -3.731360
  C     -4.630810   23.155260   -2.984650
  C     -4.014650   23.282030   -1.790900
  S     -3.268540   21.985490   -0.952740
  C     -5.286910   24.122540   -3.790540
  C     -5.761200   23.512470   -4.955330
  C     -6.414880   24.431610   -5.807680
  C     -6.422890   25.682410   -5.279670
  S     -5.640110   25.803140   -3.737280
  C     -5.407660   22.122310   -4.937930
  C     -5.720250   21.221240   -6.015090
  C     -5.069040   20.105200   -6.340240
  H      0.583290   -3.722630    2.425310
  H     -0.836600   -3.393400    0.253490
  H     -1.870390    2.564220   -1.247230
  H      0.274670    5.129430    2.105700
  H      0.092090    7.528340    1.932980
  H     -2.314320    9.061910   -1.704220
  H     -2.563240   11.455480   -1.841510
  H     -0.676270   14.028700    1.655270
  H     -2.170200   19.920240    0.386130
  H     -4.463520   19.773780   -3.705990
  H     -3.937690   24.226090   -1.274510
  H     -6.854250   24.186550   -6.757660
  H     -6.846720   26.572050   -5.703200
  H     -6.553500   21.537810   -6.631510
  H     -4.190540   19.770900   -5.816960
  H     -5.382250   19.502630   -7.175390

 Total Charge           Charge          ....    0
 Multiplicity           Mult            ....    1
 Number of Electrons    NEL             ....  472
 Basis Dimension        Dim             .... 1000

ORBITAL ENERGIES
----------------

  NO   OCC          E(Eh)            E(eV)
   0   2.0000     -88.989741     -2421.5339
   1   2.0000     -88.989579     -2421.5295
   2   2.0000     -88.989328     -2421.5227
   3   2.0000     -88.987757     -2421.4800
   4   2.0000     -88.973248     -2421.0852
   5   2.0000     -88.953880     -2420.5581
   6   2.0000     -19.361642      -526.8571
   7   2.0000     -19.361403      -526.8506
   8   2.0000     -14.488613      -394.2552
   9   2.0000     -14.488481      -394.2516
  10   2.0000     -14.486660      -394.2020
  11   2.0000     -14.486457      -394.1965
  12   2.0000     -14.429297      -392.6411
  13   2.0000     -14.427116      -392.5818
  14   2.0000     -14.426552      -392.5664
  15   2.0000     -14.424756      -392.5176
  16   2.0000     -10.363749      -282.0119
  17   2.0000     -10.361383      -281.9476
  18   2.0000     -10.350242      -281.6444
  19   2.0000     -10.348470      -281.5962
  20   2.0000     -10.334956      -281.2285
  21   2.0000     -10.333976      -281.2018
  22   2.0000     -10.333951      -281.2011
  23   2.0000     -10.333739      -281.1953
  24   2.0000     -10.333709      -281.1945
  25   2.0000     -10.332814      -281.1702
  26   2.0000     -10.329518      -281.0805
  27   2.0000     -10.329487      -281.0796
  28   2.0000     -10.328996      -281.0663
  29   2.0000     -10.328685      -281.0578
  30   2.0000     -10.327397      -281.0227
  31   2.0000     -10.326083      -280.9870
  32   2.0000     -10.326064      -280.9865
  33   2.0000     -10.325816      -280.9797
  34   2.0000     -10.324503      -280.9440
  35   2.0000     -10.323316      -280.9117
  36   2.0000     -10.323056      -280.9046
  37   2.0000     -10.321407      -280.8598
  38   2.0000     -10.321288      -280.8565
  39   2.0000     -10.312645      -280.6213
  40   2.0000     -10.312559      -280.6190
  41   2.0000     -10.312037      -280.6048
  42   2.0000     -10.304039      -280.3871
  43   2.0000     -10.301375      -280.3147
  44   2.0000     -10.300875      -280.3011
  45   2.0000     -10.300673      -280.2956
  46   2.0000     -10.299956      -280.2760
  47   2.0000     -10.299701      -280.2691
  48   2.0000     -10.299521      -280.2642
  49   2.0000     -10.298287      -280.2306
  50   2.0000     -10.297310      -280.2040
  51   2.0000     -10.296931      -280.1937
  52   2.0000     -10.296517      -280.1825
  53   2.0000     -10.296112      -280.1714
  54   2.0000     -10.295952      -280.1671
  55   2.0000     -10.294802      -280.1358
  56   2.0000     -10.294242      -280.1206
  57   2.0000     -10.283684      -279.8333
  58   2.0000     -10.281511      -279.7741
  59   2.0000     -10.274162      -279.5742
  60   2.0000     -10.272607      -279.5319
  61   2.0000     -10.272067      -279.5172
  62   2.0000     -10.269636      -279.4510
  63   2.0000     -10.262523      -279.2575
  64   2.0000      -8.084148      -219.9809
  65   2.0000      -8.083956      -219.9756
  66   2.0000      -8.083825      -219.9721
  67   2.0000      -8.082752      -219.9429
  68   2.0000      -8.068488      -219.5547
  69   2.0000      -8.049292      -219.0324
  70   2.0000      -6.053384      -164.7210
  71   2.0000      -6.053304      -164.7188
  72   2.0000      -6.053049      -164.7118
  73   2.0000      -6.052034      -164.6842
  74   2.0000      -6.049230      -164.6079
  75   2.0000      -6.049151      -164.6058
  76   2.0000      -6.048910      -164.5992
  77   2.0000      -6.047541      -164.5619
  78   2.0000      -6.046518      -164.5341
  79   2.0000      -6.046259      -164.5271
  80   2.0000      -6.046180      -164.5249
  81   2.0000      -6.045363      -164.5027
  82   2.0000      -6.038180      -164.3072
  83   2.0000      -6.033596      -164.1825
  84   2.0000      -6.030154      -164.0888
  85   2.0000      -6.018742      -163.7783
  86   2.0000      -6.014521      -163.6634
  87   2.0000      -6.011273      -163.5751
  88   2.0000      -1.316128       -35.8137
  89   2.0000      -1.315642       -35.8005
  90   2.0000      -1.044139       -28.4125
  91   2.0000      -1.042139       -28.3580
  92   2.0000      -1.022027       -27.8108
  93   2.0000      -1.021071       -27.7848
  94   2.0000      -1.019890       -27.7526
  95   2.0000      -1.018144       -27.7051
  96   2.0000      -1.015010       -27.6198
  97   2.0000      -1.006815       -27.3968
  98   2.0000      -1.004796       -27.3419
  99   2.0000      -1.003237       -27.2995
 100   2.0000      -1.002742       -27.2860
 101   2.0000      -0.994168       -27.0527
 102   2.0000      -0.989833       -26.9347
 103   2.0000      -0.969993       -26.3949
 104   2.0000      -0.954876       -25.9835
 105   2.0000      -0.954403       -25.9706
 106   2.0000      -0.927889       -25.2491
 107   2.0000      -0.927006       -25.2251
 108   2.0000      -0.924836       -25.1661
 109   2.0000      -0.918992       -25.0070
 110   2.0000      -0.908341       -24.7172
 111   2.0000      -0.896442       -24.3934
 112   2.0000      -0.884372       -24.0650
 113   2.0000      -0.872263       -23.7355
 114   2.0000      -0.864886       -23.5347
 115   2.0000      -0.863822       -23.5058
 116   2.0000      -0.854951       -23.2644
 117   2.0000      -0.852359       -23.1939
 118   2.0000      -0.850680       -23.1482
 119   2.0000      -0.833473       -22.6800
 120   2.0000      -0.818688       -22.2776
 121   2.0000      -0.804134       -21.8816
 122   2.0000      -0.788217       -21.4485
 123   2.0000      -0.781374       -21.2623
 124   2.0000      -0.776676       -21.1344
 125   2.0000      -0.776592       -21.1321
 126   2.0000      -0.771613       -20.9967
 127   2.0000      -0.763172       -20.7670
 128   2.0000      -0.759315       -20.6620
 129   2.0000      -0.745867       -20.2961
 130   2.0000      -0.738319       -20.0907
 131   2.0000      -0.723329       -19.6828
 132   2.0000      -0.722857       -19.6699
 133   2.0000      -0.705432       -19.1958
 134   2.0000      -0.699419       -19.0322
 135   2.0000      -0.691540       -18.8178
 136   2.0000      -0.682483       -18.5713
 137   2.0000      -0.679364       -18.4864
 138   2.0000      -0.672930       -18.3113
 139   2.0000      -0.661215       -17.9926
 140   2.0000      -0.656288       -17.8585
 141   2.0000      -0.650551       -17.7024
 142   2.0000      -0.648177       -17.6378
 143   2.0000      -0.640483       -17.4284
 144   2.0000      -0.636364       -17.3164
 145   2.0000      -0.631973       -17.1969
 146   2.0000      -0.624133       -16.9835
 147   2.0000      -0.618493       -16.8301
 148   2.0000      -0.615168       -16.7396
 149   2.0000      -0.614266       -16.7150
 150   2.0000      -0.612750       -16.6738
 151   2.0000      -0.612430       -16.6651
 152   2.0000      -0.609920       -16.5968
 153   2.0000      -0.597853       -16.2684
 154   2.0000      -0.593764       -16.1571
 155   2.0000      -0.592687       -16.1278
 156   2.0000      -0.576349       -15.6832
 157   2.0000      -0.574824       -15.6418
 158   2.0000      -0.574052       -15.6207
 159   2.0000      -0.568903       -15.4806
 160   2.0000      -0.554823       -15.0975
 161   2.0000      -0.552797       -15.0424
 162   2.0000      -0.546795       -14.8790
 163   2.0000      -0.545790       -14.8517
 164   2.0000      -0.544062       -14.8047
 165   2.0000      -0.535184       -14.5631
 166   2.0000      -0.526166       -14.3177
 167   2.0000      -0.523715       -14.2510
 168   2.0000      -0.520044       -14.1511
 169   2.0000      -0.513845       -13.9824
 170   2.0000      -0.511944       -13.9307
 171   2.0000      -0.510166       -13.8823
 172   2.0000      -0.509287       -13.8584
 173   2.0000      -0.507422       -13.8077
 174   2.0000      -0.504342       -13.7238
 175   2.0000      -0.501869       -13.6565
 176   2.0000      -0.498599       -13.5676
 177   2.0000      -0.494976       -13.4690
 178   2.0000      -0.494173       -13.4471
 179   2.0000      -0.493624       -13.4322
 180   2.0000      -0.492405       -13.3990
 181   2.0000      -0.489332       -13.3154
 182   2.0000      -0.483842       -13.1660
 183   2.0000      -0.477753       -13.0003
 184   2.0000      -0.477374       -12.9900
 185   2.0000      -0.476513       -12.9666
 186   2.0000      -0.470209       -12.7950
 187   2.0000      -0.468755       -12.7555
 188   2.0000      -0.468718       -12.7545
 189   2.0000      -0.465370       -12.6634
 190   2.0000      -0.459175       -12.4948
 191   2.0000      -0.457275       -12.4431
 192   2.0000      -0.456390       -12.4190
 193   2.0000      -0.454985       -12.3808
 194   2.0000      -0.453833       -12.3494
 195   2.0000      -0.452967       -12.3259
 196   2.0000      -0.448717       -12.2102
 197   2.0000      -0.446980       -12.1629
 198   2.0000      -0.442017       -12.0279
 199   2.0000      -0.441005       -12.0004
 200   2.0000      -0.438207       -11.9242
 201   2.0000      -0.437425       -11.9029
 202   2.0000      -0.436852       -11.8873
 203   2.0000      -0.435889       -11.8611
 204   2.0000      -0.435711       -11.8563
 205   2.0000      -0.434772       -11.8308
 206   2.0000      -0.427974       -11.6458
 207   2.0000      -0.423624       -11.5274
 208   2.0000      -0.422020       -11.4837
 209   2.0000      -0.420289       -11.4366
 210   2.0000      -0.415466       -11.3054
 211   2.0000      -0.414886       -11.2896
 212   2.0000      -0.411703       -11.2030
 213   2.0000      -0.408378       -11.1125
 214   2.0000      -0.406679       -11.0663
 215   2.0000      -0.404806       -11.0153
 216   2.0000      -0.404247       -11.0001
 217   2.0000      -0.397482       -10.8160
 218   2.0000      -0.395389       -10.7591
 219   2.0000      -0.394411       -10.7325
 220   2.0000      -0.375681       -10.2228
 221   2.0000      -0.372777       -10.1438
 222   2.0000      -0.368446       -10.0259
 223   2.0000      -0.364106        -9.9078
 224   2.0000      -0.355518        -9.6741
 225   2.0000      -0.348108        -9.4725
 226   2.0000      -0.345922        -9.4130
 227   2.0000      -0.339753        -9.2452
 228   2.0000      -0.325117        -8.8469
 229   2.0000      -0.321382        -8.7453
 230   2.0000      -0.318919        -8.6782
 231   2.0000      -0.311094        -8.4653
 232   2.0000      -0.284356        -7.7377
 233   2.0000      -0.270619        -7.3639
 234   2.0000      -0.252391        -6.8679
 235   2.0000      -0.229313        -6.2399
 236   0.0000      -0.109369        -2.9761
 237   0.0000      -0.101861        -2.7718
 238   0.0000      -0.088350        -2.4041
 239   0.0000      -0.057741        -1.5712
 240   0.0000      -0.050570        -1.3761

MULLIKEN ATOMIC CHARGES
-----------------------
   0 C :   -0.079334
   1 C :    0.038002
   2 C :   -0.029342
   3 C :   -0.119479
   4 S :    0.182322
   5 C :   -0.086902
   6 C :    0.022374
   7 C :    0.300996
   8 C :   -0.300727
   9 C :   -0.192059
  10 N :    0.186625
  11 C :   -0.190688
  12 N :    0.171544
  13 C :   -0.057088
  14 C :   -0.121303
  15 S :    0.166425
  16 C :    0.174157
  17 C :   -0.074698
  18 C :   -0.059425
  19 C :    0.090201
  20 C :   -0.040433
  21 C :   -0.059104
  22 N :    0.049555
  23 O :   -0.080047
  24 N :    0.029467
  25 C :    0.087779
  26 C :   -0.056777
  27 C :   -0.075433
  28 C :    0.174160
  29 C :   -0.060603
  30 C :   -0.039282
  31 N :    0.029535
  32 O :   -0.081204
  33 N :    0.049640
  34 C :   -0.120206
  35 C :   -0.055772
  36 C :    0.019472
  37 C :   -0.082108
  38 S :    0.166158
  39 C :   -0.101302
  40 C :    0.022787
  41 C :    0.304344
  42 C :   -0.300145
  43 C :   -0.187125
  44 N :    0.170521
  45 C :   -0.194072
  46 N :    0.189689
  47 C :   -0.062577
  48 C :   -0.053940
  49 S :    0.170343
  50 C :   -0.025024
  51 C :   -0.096860
  52 C :    0.052036
  53 C :    0.060707
  54 C :   -0.122560
  55 S :    0.122563
  56 C :   -0.107950
  57 C :    0.050387
  58 C :    0.010210
  59 C :   -0.068832
  60 S :    0.126543
  61 C :    0.048473
  62 C :   -0.034506
  63 C :   -0.030404
  64 H :    0.036473
  65 H :    0.012851
  66 H :    0.027423
  67 H :   -0.005882
  68 H :    0.005034
  69 H :    0.005100
  70 H :   -0.005758
  71 H :    0.026839
  72 H :    0.021513
  73 H :   -0.010910
  74 H :    0.037427
  75 H :   -0.018747
  76 H :    0.025380
  77 H :   -0.011870
  78 H :    0.014754
  79 H :    0.020671
Sum of atomic charges:   -0.0000000

LOEWDIN ATOMIC CHARGES
----------------------
   0 C :   -0.174790
   1 C :   -0.034418
   2 C :   -0.071508
   3 C :   -0.187817
   4 S :    0.477564
   5 C :   -0.171436
   6 C :   -0.073060
   7 C :    0.080468
   8 C :   -0.099582
   9 C :   -0.021006
  10 N :   -0.023580
  11 C :   -0.015905
  12 N :   -0.033929
  13 C :   -0.014544
  14 C :   -0.168351
  15 S :    0.475299
  16 C :   -0.032805
  17 C :   -0.021960
  18 C :    0.004905
  19 C :   -0.031000
  20 C :   -0.037653
  21 C :   -0.044020
  22 N :   -0.012533
  23 O :    0.081722
  24 N :   -0.028002
  25 C :   -0.032725
  26 C :    0.005831
  27 C :   -0.023732
  28 C :   -0.032708
  29 C :   -0.044327
  30 C :   -0.037650
  31 N :   -0.028425
  32 O :    0.080849
  33 N :   -0.012867
  34 C :   -0.168069
  35 C :   -0.012956
  36 C :   -0.075388
  37 C :   -0.167985
  38 S :    0.473611
  39 C :   -0.188034
  40 C :   -0.060855
  41 C :    0.080334
  42 C :   -0.097282
  43 C :   -0.015377
  44 N :   -0.032675
  45 C :   -0.020954
  46 N :   -0.021659
  47 C :   -0.045649
  48 C :   -0.170131
  49 S :    0.474396
  50 C :   -0.188313
  51 C :   -0.026871
  52 C :   -0.026510
  53 C :   -0.049282
  54 C :   -0.137814
  55 S :    0.452470
  56 C :   -0.203205
  57 C :   -0.041206
  58 C :   -0.063897
  59 C :   -0.165336
  60 S :    0.419124
  61 C :   -0.047347
  62 C :   -0.019749
  63 C :   -0.053578
  64 H :    0.027969
  65 H :    0.042888
  66 H :    0.041536
  67 H :    0.027650
  68 H :    0.035674
  69 H :    0.035599
  70 H :    0.027243
  71 H :    0.042002
  72 H :    0.034749
  73 H :    0.026722
  74 H :    0.037423
  75 H :    0.029987
  76 H :    0.022820
  77 H :    0.029944
  78 H :    0.017604
  79 H :    0.024068

  Mayer bond orders larger than 0.100000
B(  0-C ,  1-C ) :   1.5451 B(  0-C ,  4-S ) :   1.1537 B(  0-C , 64-H ) :   0.9646
B(  1-C ,  2-C ) :   1.2791 B(  1-C , 65-H ) :   0.9958 B(  2-C ,  3-C ) :   1.4590
B(  2-C ,  7-C ) :   1.0114 B(  3-C ,  4-S ) :   1.1317 B(  3-C ,  5-C ) :   1.1807
B(  5-C ,  6-C ) :   1.4548 B(  5-C , 15-S ) :   1.1342 B(  6-C ,  7-C ) :   0.9946
B(  6-C , 13-C ) :   1.2470 B(  7-C ,  8-C ) :   1.7123 B(  8-C ,  9-C ) :   1.1359
B(  8-C , 11-C ) :   1.1312 B(  9-C , 10-N ) :   2.9938 B( 11-C , 12-N ) :   3.0005
B( 13-C , 14-C ) :   1.4868 B( 13-C , 66-H ) :   0.9822 B( 14-C , 15-S ) :   1.0853
B( 14-C , 16-C ) :   1.1321 B( 16-C , 17-C ) :   1.4564 B( 16-C , 19-C ) :   0.1144
B( 16-C , 21-C ) :   1.1417 B( 17-C , 18-C ) :   1.2169 B( 17-C , 67-H ) :   0.9867
B( 18-C , 19-C ) :   1.4920 B( 18-C , 68-H ) :   0.9664 B( 19-C , 20-C ) :   1.1221
B( 19-C , 25-C ) :   1.1024 B( 20-C , 21-C ) :   1.1461 B( 20-C , 24-N ) :   1.5887
B( 21-C , 22-N ) :   1.6040 B( 22-N , 23-O ) :   1.0710 B( 22-N , 24-N ) :   0.1778
B( 23-O , 24-N ) :   1.0605 B( 25-C , 26-C ) :   1.4892 B( 25-C , 28-C ) :   0.1139
B( 25-C , 30-C ) :   1.1232 B( 26-C , 27-C ) :   1.2206 B( 26-C , 69-H ) :   0.9656
B( 27-C , 28-C ) :   1.4508 B( 27-C , 70-H ) :   0.9861 B( 28-C , 29-C ) :   1.1408
B( 28-C , 34-C ) :   1.1386 B( 29-C , 30-C ) :   1.1455 B( 29-C , 33-N ) :   1.6065
B( 30-C , 31-N ) :   1.5892 B( 31-N , 32-O ) :   1.0590 B( 31-N , 33-N ) :   0.1775
B( 32-O , 33-N ) :   1.0709 B( 34-C , 35-C ) :   1.4821 B( 34-C , 38-S ) :   1.0781
B( 35-C , 36-C ) :   1.2511 B( 35-C , 71-H ) :   0.9820 B( 36-C , 37-C ) :   1.4309
B( 36-C , 41-C ) :   0.9980 B( 37-C , 38-S ) :   1.1324 B( 37-C , 39-C ) :   1.1901
B( 39-C , 40-C ) :   1.4510 B( 39-C , 49-S ) :   1.1093 B( 40-C , 41-C ) :   0.9924
B( 40-C , 47-C ) :   1.3006 B( 41-C , 42-C ) :   1.7119 B( 42-C , 43-C ) :   1.1347
B( 42-C , 45-C ) :   1.1372 B( 43-C , 44-N ) :   2.9877 B( 45-C , 46-N ) :   2.9955
B( 47-C , 48-C ) :   1.4574 B( 47-C , 72-H ) :   0.9791 B( 48-C , 49-S ) :   1.1093
B( 48-C , 50-C ) :   1.1674 B( 50-C , 51-C ) :   1.5317 B( 50-C , 55-S ) :   1.0457
B( 51-C , 52-C ) :   1.2291 B( 51-C , 73-H ) :   0.9591 B( 52-C , 53-C ) :   1.0424
B( 52-C , 61-C ) :   1.4408 B( 53-C , 54-C ) :   1.6163 B( 53-C , 56-C ) :   1.1810
B( 54-C , 55-S ) :   1.1355 B( 54-C , 74-H ) :   0.9407 B( 56-C , 57-C ) :   1.4337
B( 56-C , 60-S ) :   1.0756 B( 57-C , 58-C ) :   1.2131 B( 57-C , 61-C ) :   1.1237
B( 58-C , 59-C ) :   1.5896 B( 58-C , 75-H ) :   0.9972 B( 59-C , 60-S ) :   1.1511
B( 59-C , 76-H ) :   0.9663 B( 61-C , 62-C ) :   1.0989 B( 62-C , 63-C ) :   1.9207
B( 62-C , 77-H ) :   0.9561 B( 63-C , 78-H ) :   0.9574 B( 63-C , 79-H ) :   0.9472

-----------------------------------------------------------------------------
         ABSORPTION SPECTRUM VIA TRANSITION ELECTRIC DIPOLE MOMENTS
-----------------------------------------------------------------------------
State   Energy  Wavelength   fosc         T2         TX        TY        TZ
        (cm-1)    (nm)                  (au**2)     (au)      (au)      (au)
-----------------------------------------------------------------------------
   0   10623.1    941.3   0.317393812   9.83613  -0.78120   2.90285  -0.89405
   1   14782.3    676.5   0.377073556   8.39771  -0.33789   2.85860  -0.33455
   2   17165.4    582.6   0.623888568  11.96546  -0.63829   3.32789  -0.69511
   3   17520.9    570.7   0.652340580  12.25724  -0.31318   3.48531  -0.10842
   4   21196.7    471.8   0.111201203   1.72709  -0.32748  -1.17045  -0.49989
   5   21604.3    462.9   0.198608337   3.02644  -0.77960   0.95732  -1.22565
   6   22878.5    437.1   0.004705863   0.06772   0.19488  -0.08669   0.14907
   7   23320.6    428.8   0.040480215   0.57145  -0.09989  -0.70980  -0.24013
   8   24859.6    402.3   0.153900971   2.03809   0.55695  -1.12351   0.68235
   9   25260.1    395.9   0.047425416   0.61809   0.32655  -0.39000   0.59946
  10   25684.4    389.3   0.178171386   2.28373  -0.61536   0.97500  -0.97695
  11   26783.1    373.4   0.031630323   0.38879   0.25515  -0.15585   0.54718
  12   27796.1    359.8   0.005272609   0.06245   0.01213  -0.19054  -0.16124
  13   30065.8    332.6   0.005553803   0.06081  -0.00115  -0.24648  -0.00772
  14   30226.7    330.8   0.049995430   0.54452   0.20320   0.40190   0.58456
  15   30813.8    324.5   0.238441002   2.54749  -0.53943  -0.92441  -1.18405
  16   31090.8    321.6   0.250461931   2.65208  -0.80324  -0.30451  -1.38353
  17   31378.8    318.7   0.562585040   5.90239  -1.25335  -0.71523  -1.95447
  18   31602.6    316.4   0.017505078   0.18235  -0.24241   0.25819  -0.23860
  19   32274.7    309.8   0.030876458   0.31495   0.07993  -0.54186   0.12226
  20   33078.9    302.3   0.247691280   2.46510  -0.72355   0.57598  -1.26879
  21   33503.4    298.5   0.117870194   1.15822  -0.57123  -0.03785  -0.91131
  22   33839.5    295.5   0.245048574   2.38399  -0.57049   1.18249  -0.81256
  23   34113.4    293.1   0.100132090   0.96633  -0.30610   0.87232  -0.33421
  24   34846.0    287.0   0.484103040   4.57362   0.30042  -2.11140   0.15918
  25   35083.8    285.0   0.208139896   1.95310   0.46232   1.08272   0.75304
  26   35176.0    284.3   0.186023311   1.74099  -0.09433  -1.23898  -0.44388
  27   35591.5    281.0   0.223659102   2.06879   0.71694  -0.81177   0.94647
  28   36045.3    277.4   0.105612539   0.96459  -0.31020   0.90197  -0.23411
  29   36366.8    275.0   0.072209901   0.65368  -0.11068  -0.75847  -0.25721
  30   36607.5    273.2   0.040614660   0.36525  -0.23818  -0.40792  -0.37699
  31   36872.7    271.2   0.209233449   1.86811  -0.31365   1.20070  -0.57277
  32   37666.0    265.5   0.123003036   1.07508  -0.44924   0.57746  -0.73472
  33   38224.2    261.6   0.020289313   0.17474   0.15498  -0.35293   0.16175
  34   38751.6    258.1   0.058992177   0.50116   0.10943   0.53165   0.45446
  35   39257.1    254.7   0.025314540   0.21229  -0.11836   0.27534  -0.34995
  36   39650.5    252.2   0.016176593   0.13431   0.01249   0.36324  -0.04703
  37   39953.8    250.3   0.037206407   0.30657   0.05967   0.52412   0.16827
  38   39984.6    250.1   0.019394416   0.15968  -0.21194  -0.01857  -0.33826
  39   40151.2    249.1   0.150445382   1.23355   0.59561  -0.48571   0.80180
  40   40312.2    248.1   0.038717422   0.31619   0.05196   0.48440   0.28080

FINAL SINGLE POINT ENERGY     -4812.238442005857

DIPOLE MOMENT
-------------
                                X             Y             Z
Electronic contribution:     12.73164     -28.47872      20.43278
Nuclear contribution   :    -12.72441      28.87835     -20.48122
                        -----------------------------------------
Total Dipole Moment    :      0.00723       0.39964      -0.04845
                        -----------------------------------------
Magnitude (a.u.)       :      0.40263
Magnitude (Debye)      :      1.02339

Rotational constants in cm-1:     0.003001     0.000220     0.000205
Rotational constants in MHz :    89.957166     6.598912     6.155874

                             ****ORCA TERMINATED NORMALLY****
TOTAL RUN TIME: 0 days 0 hours 7 minutes 28 seconds 204 msec
