                         Program Version 4.2.0 -  RELEASE  -
|  1> # ORCA input file
|  2> # SCF done       -175.945246958663          0.000855686872
|  3> ! CAM-B3LYP def2-SVP def2/J RIJCOSX Grid4 TightSCF
|  4> %maxcore 5000
|  5> %tddft
|  6>     Mode sTDDFT
|  7>     Ethresh 5.0
|  8>     maxcore 5000
|  9> end
| 10>
| 11> %pal
| 12>   nprocs 6
| 13>   end
| 14> * xyz 0 1
| 15>    C       -9.12769         1.96330         1.07266
| 16>    C      -10.38581         2.22207         0.60610
| 17>    F      -10.92209         3.43902         0.75555
| 18>    C      -11.13472         1.21488        -0.03696
| 19>    F      -12.36461         1.49770        -0.48361
| 20>    C      -10.61463        -0.03787        -0.20333
| 21>    C       -9.32119        -0.33629         0.26817
| 22>    C       -8.56157         0.68166         0.91613
| 23>    C       -7.26006         0.40656         1.39261
| 24>    C       -6.73390        -0.84862         1.22642
| 25>    C       -7.50329        -1.86086         0.58805
| 26>    C       -8.76292        -1.62405         0.11610
| 27>    C       -6.73749        -3.12073         0.54332
| 28>    O       -7.10966        -4.17054         0.07246
| 29>    C       -5.46514        -2.83305         1.26988
| 30>    C       -5.44271        -1.41271         1.59813
| 31>    C       -4.37118        -0.71751         2.08496
| 32>    C       -3.09485        -1.27367         2.32552
| 33>    N       -2.02861        -1.65227         2.51604
| 34>    C       -4.39340         0.66562         2.36800
| 35>    N       -4.35910         1.78474         2.61798
| 36>    C       -4.61141        -3.76603         1.75617
| 37>    C       -4.59903        -5.17080         1.43240
| 38>    C       -4.83029        -5.67758         0.15174
| 39>    C       -4.81909        -7.03363        -0.08098
| 40>    F       -5.03149        -7.43907        -1.34413
| 41>    C       -4.59928        -7.98079         0.93428
| 42>    C       -4.32355        -7.46436         2.20809
| 43>    C       -4.30575        -6.10997         2.43275
| 44>    F       -4.04979        -5.67183         3.67736
| 45>    C       -4.67312        -9.40301         0.72573
| 46>    C       -4.94418       -10.10855        -0.43036
| 47>    C       -4.99791       -11.48642        -0.20789
| 48>    C       -4.75741       -11.83404         1.13188
| 49>    S       -4.46092       -10.47489         2.10909
| 50>    C       -4.86750       -13.24452         1.26517
| 51>    C       -5.19537       -13.77970         0.00933
| 52>    C       -5.25193       -12.70141        -0.96526
| 53>    C       -5.45123       -12.83279        -2.30779
| 54>    C       -5.63165       -14.09503        -2.91319
| 55>    N       -5.76950       -15.11890        -3.41174
| 56>    C       -5.46842       -11.73018        -3.18927
| 57>    N       -5.48794       -10.84533        -3.91751
| 58>    C       -5.37314       -15.16055         0.03980
| 59>    C       -5.15242       -15.67686         1.30138
| 60>    S       -4.74281       -14.44422         2.47218
| 61>    C       -5.21314       -17.06314         1.66407
| 62>    C       -4.98589       -17.55252         2.91165
| 63>    C       -5.06754       -18.95676         3.16473
| 64>    C       -4.86817       -19.48956         4.42643
| 65>    C       -4.95501       -20.86992         4.66521
| 66>    N       -5.03131       -22.00165         4.84897
| 67>    C       -4.58064       -18.67420         5.53217
| 68>    N       -4.34987       -17.99598         6.43030
| 69>    C       -5.36237       -19.77469         2.02875
| 70>    C       -5.56741       -19.21072         0.81048
| 71>    O       -5.53382       -17.86737         0.61831
| 72>    C       -5.90409       -19.95064        -0.37882
| 73>    S       -6.81772       -21.41338        -0.22866
| 74>    C       -7.00172       -21.55816        -1.90972
| 75>    C       -6.38063       -20.53558        -2.59897
| 76>    C       -5.71913       -19.61282        -1.71796
| 77>    C       -4.94126       -18.57121        -2.30355
| 78>    C       -4.05620       -17.76636        -1.55553
| 79>    N       -3.27208       -17.12672        -1.01320
| 80>    C       -4.95849       -18.40050        -3.67073
| 81>    C       -5.68737       -19.26213        -4.51042
| 82>    C       -6.35976       -20.33267        -3.99877
| 83>    H       -8.56805         2.74605         1.56048
| 84>    H      -11.19994        -0.79782        -0.69688
| 85>    H       -6.71281         1.19466         1.88416
| 86>    H       -9.32323        -2.41022        -0.36674
| 87>    H       -3.90020        -3.47101         2.51939
| 88>    H       -5.00428        -5.01503        -0.67916
| 89>    H       -4.12472        -8.12896         3.03471
| 90>    H       -5.10525        -9.65065        -1.38810
| 91>    H       -5.64998       -15.77019        -0.79844
| 92>    H       -4.74049       -16.88080         3.71935
| 93>    H       -5.40647       -20.84616         2.14247
| 94>    H       -7.55931       -22.37565        -2.32166
| 95>    H       -4.38550       -17.59530        -4.10466
| 96>    H       -5.67641       -19.08076        -5.57378
| 97>    H       -6.87830       -21.03198        -4.63614
| 98> *
| 99>
|100>                          ****END OF INPUT****

CARTESIAN COORDINATES (ANGSTROEM)
---------------------------------
  C     -9.127690    1.963300    1.072660
  C    -10.385810    2.222070    0.606100
  F    -10.922090    3.439020    0.755550
  C    -11.134720    1.214880   -0.036960
  F    -12.364610    1.497700   -0.483610
  C    -10.614630   -0.037870   -0.203330
  C     -9.321190   -0.336290    0.268170
  C     -8.561570    0.681660    0.916130
  C     -7.260060    0.406560    1.392610
  C     -6.733900   -0.848620    1.226420
  C     -7.503290   -1.860860    0.588050
  C     -8.762920   -1.624050    0.116100
  C     -6.737490   -3.120730    0.543320
  O     -7.109660   -4.170540    0.072460
  C     -5.465140   -2.833050    1.269880
  C     -5.442710   -1.412710    1.598130
  C     -4.371180   -0.717510    2.084960
  C     -3.094850   -1.273670    2.325520
  N     -2.028610   -1.652270    2.516040
  C     -4.393400    0.665620    2.368000
  N     -4.359100    1.784740    2.617980
  C     -4.611410   -3.766030    1.756170
  C     -4.599030   -5.170800    1.432400
  C     -4.830290   -5.677580    0.151740
  C     -4.819090   -7.033630   -0.080980
  F     -5.031490   -7.439070   -1.344130
  C     -4.599280   -7.980790    0.934280
  C     -4.323550   -7.464360    2.208090
  C     -4.305750   -6.109970    2.432750
  F     -4.049790   -5.671830    3.677360
  C     -4.673120   -9.403010    0.725730
  C     -4.944180  -10.108550   -0.430360
  C     -4.997910  -11.486420   -0.207890
  C     -4.757410  -11.834040    1.131880
  S     -4.460920  -10.474890    2.109090
  C     -4.867500  -13.244520    1.265170
  C     -5.195370  -13.779700    0.009330
  C     -5.251930  -12.701410   -0.965260
  C     -5.451230  -12.832790   -2.307790
  C     -5.631650  -14.095030   -2.913190
  N     -5.769500  -15.118900   -3.411740
  C     -5.468420  -11.730180   -3.189270
  N     -5.487940  -10.845330   -3.917510
  C     -5.373140  -15.160550    0.039800
  C     -5.152420  -15.676860    1.301380
  S     -4.742810  -14.444220    2.472180
  C     -5.213140  -17.063140    1.664070
  C     -4.985890  -17.552520    2.911650
  C     -5.067540  -18.956760    3.164730
  C     -4.868170  -19.489560    4.426430
  C     -4.955010  -20.869920    4.665210
  N     -5.031310  -22.001650    4.848970
  C     -4.580640  -18.674200    5.532170
  N     -4.349870  -17.995980    6.430300
  C     -5.362370  -19.774690    2.028750
  C     -5.567410  -19.210720    0.810480
  O     -5.533820  -17.867370    0.618310
  C     -5.904090  -19.950640   -0.378820
  S     -6.817720  -21.413380   -0.228660
  C     -7.001720  -21.558160   -1.909720
  C     -6.380630  -20.535580   -2.598970
  C     -5.719130  -19.612820   -1.717960
  C     -4.941260  -18.571210   -2.303550
  C     -4.056200  -17.766360   -1.555530
  N     -3.272080  -17.126720   -1.013200
  C     -4.958490  -18.400500   -3.670730
  C     -5.687370  -19.262130   -4.510420
  C     -6.359760  -20.332670   -3.998770
  H     -8.568050    2.746050    1.560480
  H    -11.199940   -0.797820   -0.696880
  H     -6.712810    1.194660    1.884160
  H     -9.323230   -2.410220   -0.366740
  H     -3.900200   -3.471010    2.519390
  H     -5.004280   -5.015030   -0.679160
  H     -4.124720   -8.128960    3.034710
  H     -5.105250   -9.650650   -1.388100
  H     -5.649980  -15.770190   -0.798440
  H     -4.740490  -16.880800    3.719350
  H     -5.406470  -20.846160    2.142470
  H     -7.559310  -22.375650   -2.321660
  H     -4.385500  -17.595300   -4.104660
  H     -5.676410  -19.080760   -5.573780
  H     -6.878300  -21.031980   -4.636140

 Total Charge           Charge          ....    0
 Multiplicity           Mult            ....    1
 Number of Electrons    NEL             ....  476
 Basis Dimension        Dim             .... 1039

ORBITAL ENERGIES
----------------

  NO   OCC          E(Eh)            E(eV)
   0   2.0000     -89.005479     -2421.9622
   1   2.0000     -89.001861     -2421.8638
   2   2.0000     -89.001612     -2421.8570
   3   2.0000     -24.805499      -674.9919
   4   2.0000     -24.804945      -674.9769
   5   2.0000     -24.804695      -674.9701
   6   2.0000     -24.800901      -674.8668
   7   2.0000     -19.324962      -525.8589
   8   2.0000     -19.231040      -523.3032
   9   2.0000     -14.443241      -393.0206
  10   2.0000     -14.437920      -392.8758
  11   2.0000     -14.426437      -392.5633
  12   2.0000     -14.425079      -392.5264
  13   2.0000     -14.412827      -392.1930
  14   2.0000     -14.394347      -391.6901
  15   2.0000     -14.394099      -391.6833
  16   2.0000     -10.392127      -282.7842
  17   2.0000     -10.391290      -282.7614
  18   2.0000     -10.389444      -282.7112
  19   2.0000     -10.388812      -282.6939
  20   2.0000     -10.384560      -282.5782
  21   2.0000     -10.383206      -282.5414
  22   2.0000     -10.378624      -282.4167
  23   2.0000     -10.375107      -282.3210
  24   2.0000     -10.362477      -281.9773
  25   2.0000     -10.356092      -281.8036
  26   2.0000     -10.352548      -281.7071
  27   2.0000     -10.347735      -281.5762
  28   2.0000     -10.345643      -281.5193
  29   2.0000     -10.344217      -281.4804
  30   2.0000     -10.338691      -281.3301
  31   2.0000     -10.337704      -281.3032
  32   2.0000     -10.336269      -281.2642
  33   2.0000     -10.335117      -281.2328
  34   2.0000     -10.333229      -281.1814
  35   2.0000     -10.333158      -281.1795
  36   2.0000     -10.331222      -281.1269
  37   2.0000     -10.330354      -281.1032
  38   2.0000     -10.328365      -281.0491
  39   2.0000     -10.327516      -281.0260
  40   2.0000     -10.326997      -281.0119
  41   2.0000     -10.321976      -280.8752
  42   2.0000     -10.319557      -280.8094
  43   2.0000     -10.319293      -280.8022
  44   2.0000     -10.317603      -280.7563
  45   2.0000     -10.316567      -280.7281
  46   2.0000     -10.315998      -280.7126
  47   2.0000     -10.315081      -280.6876
  48   2.0000     -10.314687      -280.6769
  49   2.0000     -10.314546      -280.6731
  50   2.0000     -10.314304      -280.6665
  51   2.0000     -10.313829      -280.6535
  52   2.0000     -10.312291      -280.6117
  53   2.0000     -10.312072      -280.6057
  54   2.0000     -10.312067      -280.6056
  55   2.0000     -10.311303      -280.5848
  56   2.0000     -10.311164      -280.5810
  57   2.0000     -10.309112      -280.5252
  58   2.0000     -10.308972      -280.5214
  59   2.0000     -10.308168      -280.4995
  60   2.0000     -10.307580      -280.4835
  61   2.0000     -10.307399      -280.4786
  62   2.0000     -10.305944      -280.4390
  63   2.0000     -10.305129      -280.4168
  64   2.0000     -10.303439      -280.3708
  65   2.0000     -10.298675      -280.2412
  66   2.0000     -10.298447      -280.2350
  67   2.0000     -10.298241      -280.2294
  68   2.0000      -8.099638      -220.4024
  69   2.0000      -8.096630      -220.3205
  70   2.0000      -8.096378      -220.3137
  71   2.0000      -6.068932      -165.1440
  72   2.0000      -6.065577      -165.0527
  73   2.0000      -6.065546      -165.0519
  74   2.0000      -6.064705      -165.0290
  75   2.0000      -6.062026      -164.9561
  76   2.0000      -6.061393      -164.9389
  77   2.0000      -6.061142      -164.9321
  78   2.0000      -6.059848      -164.8968
  79   2.0000      -6.058846      -164.8696
  80   2.0000      -1.328412       -36.1479
  81   2.0000      -1.320008       -35.9193
  82   2.0000      -1.316706       -35.8294
  83   2.0000      -1.313501       -35.7422
  84   2.0000      -1.236893       -33.6576
  85   2.0000      -1.147663       -31.2295
  86   2.0000      -1.057016       -28.7629
  87   2.0000      -1.032992       -28.1091
  88   2.0000      -1.030436       -28.0396
  89   2.0000      -1.030313       -28.0362
  90   2.0000      -1.017781       -27.6952
  91   2.0000      -1.014461       -27.6049
  92   2.0000      -1.013651       -27.5828
  93   2.0000      -1.004247       -27.3270
  94   2.0000      -1.000804       -27.2333
  95   2.0000      -0.995868       -27.0990
  96   2.0000      -0.994923       -27.0732
  97   2.0000      -0.989489       -26.9254
  98   2.0000      -0.973774       -26.4977
  99   2.0000      -0.971692       -26.4411
 100   2.0000      -0.963566       -26.2200
 101   2.0000      -0.956642       -26.0315
 102   2.0000      -0.944628       -25.7046
 103   2.0000      -0.942244       -25.6398
 104   2.0000      -0.928565       -25.2675
 105   2.0000      -0.914388       -24.8818
 106   2.0000      -0.903662       -24.5899
 107   2.0000      -0.898732       -24.4557
 108   2.0000      -0.893235       -24.3062
 109   2.0000      -0.880465       -23.9587
 110   2.0000      -0.878600       -23.9079
 111   2.0000      -0.868745       -23.6398
 112   2.0000      -0.865317       -23.5465
 113   2.0000      -0.860020       -23.4023
 114   2.0000      -0.858365       -23.3573
 115   2.0000      -0.849568       -23.1179
 116   2.0000      -0.836110       -22.7517
 117   2.0000      -0.822509       -22.3816
 118   2.0000      -0.805312       -21.9136
 119   2.0000      -0.791895       -21.5486
 120   2.0000      -0.782327       -21.2882
 121   2.0000      -0.777556       -21.1584
 122   2.0000      -0.771132       -20.9836
 123   2.0000      -0.755883       -20.5686
 124   2.0000      -0.751309       -20.4442
 125   2.0000      -0.740616       -20.1532
 126   2.0000      -0.735046       -20.0016
 127   2.0000      -0.724154       -19.7052
 128   2.0000      -0.716163       -19.4878
 129   2.0000      -0.710272       -19.3275
 130   2.0000      -0.706270       -19.2186
 131   2.0000      -0.703830       -19.1522
 132   2.0000      -0.699064       -19.0225
 133   2.0000      -0.691596       -18.8193
 134   2.0000      -0.688142       -18.7253
 135   2.0000      -0.678598       -18.4656
 136   2.0000      -0.670518       -18.2457
 137   2.0000      -0.668416       -18.1885
 138   2.0000      -0.659941       -17.9579
 139   2.0000      -0.654402       -17.8072
 140   2.0000      -0.650656       -17.7052
 141   2.0000      -0.643079       -17.4991
 142   2.0000      -0.640360       -17.4251
 143   2.0000      -0.635470       -17.2920
 144   2.0000      -0.633046       -17.2261
 145   2.0000      -0.624583       -16.9958
 146   2.0000      -0.620706       -16.8903
 147   2.0000      -0.615991       -16.7620
 148   2.0000      -0.603556       -16.4236
 149   2.0000      -0.599236       -16.3060
 150   2.0000      -0.594889       -16.1877
 151   2.0000      -0.592788       -16.1306
 152   2.0000      -0.592679       -16.1276
 153   2.0000      -0.588450       -16.0125
 154   2.0000      -0.587699       -15.9921
 155   2.0000      -0.585752       -15.9391
 156   2.0000      -0.579015       -15.7558
 157   2.0000      -0.576687       -15.6925
 158   2.0000      -0.574686       -15.6380
 159   2.0000      -0.567993       -15.4559
 160   2.0000      -0.562535       -15.3074
 161   2.0000      -0.561658       -15.2835
 162   2.0000      -0.558476       -15.1969
 163   2.0000      -0.556756       -15.1501
 164   2.0000      -0.554192       -15.0803
 165   2.0000      -0.553127       -15.0514
 166   2.0000      -0.547994       -14.9117
 167   2.0000      -0.546131       -14.8610
 168   2.0000      -0.541052       -14.7228
 169   2.0000      -0.540563       -14.7095
 170   2.0000      -0.537138       -14.6163
 171   2.0000      -0.534022       -14.5315
 172   2.0000      -0.529880       -14.4188
 173   2.0000      -0.527523       -14.3546
 174   2.0000      -0.524531       -14.2732
 175   2.0000      -0.522712       -14.2237
 176   2.0000      -0.517004       -14.0684
 177   2.0000      -0.515122       -14.0172
 178   2.0000      -0.508933       -13.8488
 179   2.0000      -0.508472       -13.8362
 180   2.0000      -0.506819       -13.7913
 181   2.0000      -0.502733       -13.6801
 182   2.0000      -0.498828       -13.5738
 183   2.0000      -0.498100       -13.5540
 184   2.0000      -0.494483       -13.4556
 185   2.0000      -0.492597       -13.4043
 186   2.0000      -0.489743       -13.3266
 187   2.0000      -0.483460       -13.1556
 188   2.0000      -0.479222       -13.0403
 189   2.0000      -0.478748       -13.0274
 190   2.0000      -0.477219       -12.9858
 191   2.0000      -0.473290       -12.8789
 192   2.0000      -0.471729       -12.8364
 193   2.0000      -0.469632       -12.7793
 194   2.0000      -0.467419       -12.7191
 195   2.0000      -0.466382       -12.6909
 196   2.0000      -0.466102       -12.6833
 197   2.0000      -0.459361       -12.4999
 198   2.0000      -0.458694       -12.4817
 199   2.0000      -0.456199       -12.4138
 200   2.0000      -0.454877       -12.3778
 201   2.0000      -0.453226       -12.3329
 202   2.0000      -0.452651       -12.3173
 203   2.0000      -0.450221       -12.2511
 204   2.0000      -0.448325       -12.1995
 205   2.0000      -0.445672       -12.1274
 206   2.0000      -0.443927       -12.0799
 207   2.0000      -0.439992       -11.9728
 208   2.0000      -0.438714       -11.9380
 209   2.0000      -0.436618       -11.8810
 210   2.0000      -0.434942       -11.8354
 211   2.0000      -0.433383       -11.7929
 212   2.0000      -0.430118       -11.7041
 213   2.0000      -0.429510       -11.6876
 214   2.0000      -0.425728       -11.5846
 215   2.0000      -0.420833       -11.4514
 216   2.0000      -0.419763       -11.4223
 217   2.0000      -0.412554       -11.2262
 218   2.0000      -0.411988       -11.2108
 219   2.0000      -0.409880       -11.1534
 220   2.0000      -0.408679       -11.1207
 221   2.0000      -0.405303       -11.0289
 222   2.0000      -0.397544       -10.8177
 223   2.0000      -0.396493       -10.7891
 224   2.0000      -0.389481       -10.5983
 225   2.0000      -0.375142       -10.2081
 226   2.0000      -0.360685        -9.8147
 227   2.0000      -0.358264        -9.7488
 228   2.0000      -0.352559        -9.5936
 229   2.0000      -0.344724        -9.3804
 230   2.0000      -0.334174        -9.0933
 231   2.0000      -0.331573        -9.0225
 232   2.0000      -0.327618        -8.9150
 233   2.0000      -0.324237        -8.8229
 234   2.0000      -0.308852        -8.4043
 235   2.0000      -0.300263        -8.1706
 236   2.0000      -0.277499        -7.5511
 237   2.0000      -0.266245        -7.2449
 238   0.0000      -0.118548        -3.2259
 239   0.0000      -0.103094        -2.8053
 240   0.0000      -0.081765        -2.2249
 241   0.0000      -0.071338        -1.9412
 242   0.0000      -0.061869        -1.6835

MULLIKEN ATOMIC CHARGES
-----------------------
   0 C :   -0.108164
   1 C :    0.244086
   2 F :   -0.167879
   3 C :    0.239575
   4 F :   -0.168315
   5 C :   -0.103019
   6 C :    0.116450
   7 C :    0.115679
   8 C :   -0.085463
   9 C :    0.059383
  10 C :   -0.011760
  11 C :   -0.078537
  12 C :    0.148547
  13 O :   -0.135179
  14 C :   -0.084187
  15 C :    0.291707
  16 C :   -0.328256
  17 C :   -0.207421
  18 N :    0.173428
  19 C :   -0.180871
  20 N :    0.155910
  21 C :   -0.009677
  22 C :   -0.034776
  23 C :    0.011949
  24 C :    0.203973
  25 F :   -0.179213
  26 C :    0.114958
  27 C :   -0.125142
  28 C :    0.276388
  29 F :   -0.176244
  30 C :   -0.080766
  31 C :   -0.040222
  32 C :    0.010494
  33 C :   -0.091047
  34 S :    0.174631
  35 C :   -0.081191
  36 C :    0.004825
  37 C :    0.304770
  38 C :   -0.293170
  39 C :   -0.177122
  40 N :    0.162214
  41 C :   -0.196050
  42 N :    0.188242
  43 C :    0.008904
  44 C :   -0.093268
  45 S :    0.217095
  46 C :    0.277279
  47 C :   -0.178463
  48 C :    0.288051
  49 C :   -0.345895
  50 C :   -0.180642
  51 N :    0.124079
  52 C :   -0.176436
  53 N :    0.122517
  54 C :   -0.154307
  55 C :    0.230497
  56 O :   -0.240912
  57 C :   -0.219958
  58 S :    0.218278
  59 C :   -0.107896
  60 C :    0.053593
  61 C :    0.226573
  62 C :   -0.129661
  63 C :   -0.200508
  64 N :    0.107578
  65 C :    0.063671
  66 C :    0.014053
  67 C :    0.033592
  68 H :    0.010008
  69 H :    0.001562
  70 H :   -0.003272
  71 H :   -0.007448
  72 H :    0.045211
  73 H :    0.003029
  74 H :    0.007515
  75 H :    0.021542
  76 H :    0.016558
  77 H :    0.027012
  78 H :    0.027660
  79 H :    0.036117
  80 H :    0.007058
  81 H :    0.005507
  82 H :   -0.009413
Sum of atomic charges:   -0.0000000

LOEWDIN ATOMIC CHARGES
----------------------
   0 C :   -0.028695
   1 C :    0.068643
   2 F :   -0.045949
   3 C :    0.069190
   4 F :   -0.046542
   5 C :   -0.032150
   6 C :   -0.007840
   7 C :   -0.005037
   8 C :    0.019430
   9 C :   -0.023654
  10 C :   -0.054660
  11 C :    0.033526
  12 C :    0.083589
  13 O :   -0.128396
  14 C :   -0.080690
  15 C :    0.072874
  16 C :   -0.127435
  17 C :   -0.026265
  18 N :   -0.038947
  19 C :   -0.017102
  20 N :   -0.044518
  21 C :    0.080951
  22 C :   -0.063625
  23 C :    0.011382
  24 C :    0.081963
  25 F :   -0.051637
  26 C :   -0.039197
  27 C :   -0.055532
  28 C :    0.102024
  29 F :   -0.056091
  30 C :   -0.157655
  31 C :   -0.015852
  32 C :   -0.067844
  33 C :   -0.175449
  34 S :    0.490458
  35 C :   -0.167888
  36 C :   -0.067573
  37 C :    0.083570
  38 C :   -0.098664
  39 C :   -0.004903
  40 N :   -0.039908
  41 C :   -0.020736
  42 N :   -0.022801
  43 C :    0.007311
  44 C :   -0.186167
  45 S :    0.507446
  46 C :    0.082581
  47 C :   -0.059767
  48 C :    0.057313
  49 C :   -0.182350
  50 C :   -0.030174
  51 N :   -0.074318
  52 C :   -0.029856
  53 N :   -0.074649
  54 C :   -0.060179
  55 C :    0.073672
  56 O :    0.011295
  57 C :   -0.214211
  58 S :    0.537823
  59 C :   -0.170070
  60 C :   -0.052844
  61 C :   -0.015850
  62 C :   -0.074713
  63 C :   -0.028239
  64 N :   -0.070989
  65 C :    0.047238
  66 C :   -0.025565
  67 C :    0.016268
  68 H :    0.048586
  69 H :    0.045708
  70 H :    0.040700
  71 H :    0.041378
  72 H :    0.048954
  73 H :    0.046634
  74 H :    0.033006
  75 H :    0.041221
  76 H :    0.041826
  77 H :    0.041011
  78 H :    0.043438
  79 H :    0.032418
  80 H :    0.044743
  81 H :    0.038162
  82 H :    0.036843

  Mayer bond orders larger than 0.100000
B(  0-C ,  1-C ) :   1.4436 B(  0-C ,  5-C ) :   0.1081 B(  0-C ,  7-C ) :   1.1872
B(  0-C , 68-H ) :   1.0062 B(  1-C ,  2-F ) :   1.1378 B(  1-C ,  3-C ) :   1.1876
B(  3-C ,  4-F ) :   1.1366 B(  3-C ,  5-C ) :   1.4454 B(  5-C ,  6-C ) :   1.1910
B(  5-C , 69-H ) :   1.0065 B(  6-C ,  7-C ) :   1.2524 B(  6-C , 11-C ) :   1.1935
B(  7-C ,  8-C ) :   1.2219 B(  8-C ,  9-C ) :   1.4438 B(  8-C , 70-H ) :   0.9902
B(  9-C , 10-C ) :   1.2175 B(  9-C , 15-C ) :   0.9965 B( 10-C , 11-C ) :   1.4686
B( 10-C , 12-C ) :   0.9444 B( 11-C , 71-H ) :   1.0163 B( 12-C , 13-O ) :   2.2337
B( 12-C , 14-C ) :   0.9265 B( 14-C , 15-C ) :   1.0338 B( 14-C , 21-C ) :   1.6830
B( 15-C , 16-C ) :   1.6710 B( 16-C , 17-C ) :   1.1346 B( 16-C , 19-C ) :   1.1395
B( 17-C , 18-N ) :   3.0030 B( 19-C , 20-N ) :   2.9702 B( 21-C , 22-C ) :   1.0612
B( 21-C , 72-H ) :   0.9480 B( 22-C , 23-C ) :   1.2971 B( 22-C , 28-C ) :   1.3062
B( 23-C , 24-C ) :   1.4191 B( 23-C , 73-H ) :   0.9784 B( 24-C , 25-F ) :   1.0927
B( 24-C , 26-C ) :   1.2917 B( 26-C , 27-C ) :   1.2605 B( 26-C , 30-C ) :   1.1067
B( 27-C , 28-C ) :   1.4030 B( 27-C , 74-H ) :   0.9842 B( 28-C , 29-F ) :   1.1396
B( 30-C , 31-C ) :   1.4809 B( 30-C , 34-S ) :   1.1011 B( 31-C , 32-C ) :   1.2647
B( 31-C , 75-H ) :   0.9945 B( 32-C , 33-C ) :   1.4422 B( 32-C , 37-C ) :   0.9973
B( 33-C , 34-S ) :   1.1375 B( 33-C , 35-C ) :   1.1773 B( 35-C , 36-C ) :   1.4356
B( 35-C , 45-S ) :   1.1434 B( 36-C , 37-C ) :   0.9963 B( 36-C , 43-C ) :   1.2899
B( 37-C , 38-C ) :   1.7126 B( 38-C , 39-C ) :   1.1336 B( 38-C , 41-C ) :   1.1343
B( 39-C , 40-N ) :   2.9834 B( 41-C , 42-N ) :   3.0000 B( 43-C , 44-C ) :   1.4473
B( 43-C , 76-H ) :   0.9940 B( 44-C , 45-S ) :   1.1080 B( 44-C , 46-C ) :   1.1035
B( 46-C , 47-C ) :   1.5506 B( 46-C , 56-O ) :   1.1234 B( 47-C , 48-C ) :   1.1468
B( 47-C , 77-H ) :   0.9590 B( 48-C , 49-C ) :   1.5393 B( 48-C , 54-C ) :   1.1286
B( 49-C , 50-C ) :   1.1362 B( 49-C , 52-C ) :   1.1331 B( 50-C , 51-N ) :   3.0058
B( 52-C , 53-N ) :   3.0037 B( 54-C , 55-C ) :   1.5595 B( 54-C , 78-H ) :   0.9670
B( 55-C , 56-O ) :   1.1224 B( 55-C , 57-C ) :   1.0585 B( 57-C , 58-S ) :   1.1833
B( 57-C , 59-C ) :   0.1211 B( 57-C , 61-C ) :   1.3663 B( 58-S , 59-C ) :   1.2461
B( 59-C , 60-C ) :   1.3977 B( 59-C , 79-H ) :   0.9698 B( 60-C , 61-C ) :   1.1990
B( 60-C , 67-C ) :   1.1780 B( 61-C , 62-C ) :   1.2005 B( 62-C , 63-C ) :   1.1092
B( 62-C , 65-C ) :   1.5661 B( 63-C , 64-N ) :   2.9846 B( 65-C , 66-C ) :   1.1996
B( 65-C , 80-H ) :   0.9866 B( 66-C , 67-C ) :   1.5414 B( 66-C , 81-H ) :   0.9879
B( 67-C , 82-H ) :   1.0004

-----------------------------------------------------------------------------
         ABSORPTION SPECTRUM VIA TRANSITION ELECTRIC DIPOLE MOMENTS
-----------------------------------------------------------------------------
State   Energy  Wavelength   fosc         T2         TX        TY        TZ
        (cm-1)    (nm)                  (au**2)     (au)      (au)      (au)
-----------------------------------------------------------------------------
   0   14349.5    696.9   0.201257827   4.61733  -0.00216   2.13368  -0.25440
   1   20407.0    490.0   0.015013877   0.24221  -0.07962   0.09169  -0.47693
   2   22071.9    453.1   1.425805962  21.26648  -0.30586   4.60044   0.09432
   3   24933.8    401.1   0.097509161   1.28745   0.31015  -0.02035   1.09126
   4   25238.5    396.2   0.218696657   2.85269   0.34343  -0.15311   1.64660
   5   26301.6    380.2   0.338885041   4.24175  -0.34338  -1.94085  -0.59743
   6   26911.2    371.6   0.056043140   0.68559   0.54538  -0.25829   0.56695
   7   27679.8    361.3   0.038427392   0.45704   0.65753  -0.08180  -0.13418
   8   28113.1    355.7   0.237042137   2.77583  -0.19309   0.96945  -1.34116
   9   28879.0    346.3   0.048424164   0.55202   0.21940  -0.59891  -0.38104
  10   29230.4    342.1   0.011733831   0.13215   0.28667  -0.22081   0.03484
  11   29940.5    334.0   0.326237526   3.58716   0.69977  -1.29293   1.19408
  12   30309.1    329.9   0.093514087   1.01573  -0.76695  -0.18673   0.62662
  13   30612.6    326.7   0.021617829   0.23248  -0.35053  -0.12053  -0.30835
  14   31407.6    318.4   0.327372235   3.43149  -0.17064   0.50292  -1.77467
  15   32028.0    312.2   0.272561340   2.80162   0.76557   0.07060   1.48679
  16   32522.1    307.5   0.119469863   1.20936  -0.28449  -0.99838  -0.36285
  17   32559.4    307.1   0.096891756   0.97968  -0.09118  -0.48877  -0.85585
  18   33033.8    302.7   0.407109813   4.05721   0.19663  -1.98060  -0.30950
  19   33352.3    299.8   0.057017453   0.56280   0.59040   0.14702   0.43888
  20   33652.0    297.2   0.055474616   0.54270  -0.58631   0.37632   0.23941
  21   33917.9    294.8   0.119662627   1.16146  -0.48789  -0.48316   0.83066
  22   34125.4    293.0   0.595284916   5.74279  -2.22289   0.79244  -0.41666
  23   34529.5    289.6   0.285414578   2.72121  -0.79359  -0.52126  -1.34897
  24   35203.5    284.1   0.112197468   1.04924  -0.43770  -0.80340  -0.46065
  25   36071.1    277.2   0.246285777   2.24779   0.97966  -0.78471   0.81994
  26   36426.4    274.5   0.040634289   0.36724  -0.46243  -0.38276   0.08305
  27   36573.6    273.4   0.114719121   1.03263  -0.72168  -0.65139   0.29580
  28   37126.8    269.3   0.080812023   0.71658  -0.65383   0.18327  -0.50546
  29   37369.0    267.6   0.042522356   0.37461  -0.10810  -0.42491  -0.42706
  30   37518.5    266.5   0.034524551   0.30294   0.35891   0.14136   0.39261
  31   37753.9    264.9   0.018511530   0.16142  -0.02832  -0.19535  -0.34993
  32   38067.4    262.7   0.019578026   0.16931  -0.15344   0.24295  -0.29453
  33   39004.4    256.4   0.201410987   1.69999  -0.12535  -1.26098  -0.30694
  34   39474.0    253.3   0.074858901   0.62432  -0.39797   0.64569  -0.22141
  35   39847.8    251.0   0.176533099   1.45847   0.33067   0.16501  -1.14974

FINAL SINGLE POINT ENERGY     -4114.089666376505

DIPOLE MOMENT
-------------
                                X             Y             Z
Electronic contribution:     -4.86902      34.47808      10.86419
Nuclear contribution   :      2.18019     -34.81746     -14.11582
                        -----------------------------------------
Total Dipole Moment    :     -2.68883      -0.33938      -3.25164
                        -----------------------------------------
Magnitude (a.u.)       :      4.23298
Magnitude (Debye)      :     10.75937

Rotational constants in cm-1:     0.002130     0.000269     0.000257
Rotational constants in MHz :    63.861134     8.052135     7.692325

                             ****ORCA TERMINATED NORMALLY****
TOTAL RUN TIME: 0 days 0 hours 7 minutes 19 seconds 361 msec
