                         Program Version 4.2.0 -  RELEASE  -
|  1> # ORCA input file
|  2> # SCF done       -204.319811976258          0.000896511100
|  3> ! CAM-B3LYP def2-SVP def2/J RIJCOSX Grid4 TightSCF
|  4> %maxcore 5000
|  5> %tddft
|  6>     Mode sTDDFT
|  7>     Ethresh 5.0
|  8>     maxcore 5000
|  9> end
| 10>
| 11> %pal
| 12>   nprocs 6
| 13>   end
| 14> * xyz 0 1
| 15>    C       -3.31989         2.08808         0.42085
| 16>    C       -2.09269         2.43942         0.90879
| 17>    F       -1.76589         3.73185         1.04387
| 18>    C       -1.15699         1.45148         1.27496
| 19>    F        0.03981         1.82433         1.75017
| 20>    C       -1.46167         0.12527         1.14824
| 21>    C       -2.71733        -0.26888         0.64688
| 22>    C       -3.66489         0.72904         0.27714
| 23>    C       -4.93014         0.35693        -0.23159
| 24>    C       -5.23775        -0.97170        -0.36554
| 25>    C       -4.28484        -1.96105         0.00223
| 26>    C       -3.05499        -1.63213         0.49403
| 27>    C       -4.83239        -3.30599        -0.27565
| 28>    O       -4.22954        -4.35218        -0.17615
| 29>    C       -6.19204        -3.07293        -0.82686
| 30>    C       -6.43571        -1.64323        -0.85911
| 31>    C       -7.60564        -1.02363        -1.21390
| 32>    C       -8.78287        -1.68434        -1.62378
| 33>    N       -9.78167        -2.14655        -1.95114
| 34>    C       -7.79662         0.37379        -1.19461
| 35>    N       -8.00987         1.50193        -1.20531
| 36>    C       -6.97988        -4.03334        -1.38693
| 37>    C       -6.82383        -5.44361        -1.22558
| 38>    C       -7.11711        -6.32688        -2.26279
| 39>    C       -6.89004        -7.69189        -2.17236
| 40>    C       -6.40410        -8.31609        -1.02235
| 41>    C       -6.20474        -7.45672         0.08819
| 42>    C       -6.40427        -6.04736        -0.01932
| 43>    N       -6.18034        -5.51541         1.18821
| 44>    N       -5.85124        -6.52916         1.93227
| 45>    N       -5.84252        -7.70141         1.35820
| 46>    C       -5.51326        -6.37248         3.31301
| 47>    C       -6.11399        -9.72313        -0.97298
| 48>    C       -5.74302       -10.36382         0.18521
| 49>    C       -5.41502       -11.71300         0.28506
| 50>    C       -5.40280       -12.58636        -0.88942
| 51>    C       -5.74818       -12.17962        -2.13096
| 52>    S       -6.23464       -10.58172        -2.50686
| 53>    C       -4.97487       -13.85362        -0.41097
| 54>    C       -4.73563       -13.79113         0.96568
| 55>    C       -4.33749       -15.04760         1.47906
| 56>    C       -4.27765       -15.99361         0.50630
| 57>    S       -4.70362       -15.41577        -1.06839
| 58>    C       -5.01321       -12.45165         1.41994
| 59>    C       -4.95759       -11.93945         2.73611
| 60>    C       -4.40370       -12.57483         3.80170
| 61>    C       -4.40896       -12.12004         5.15155
| 62>    C       -5.13697       -11.03617         5.65175
| 63>    C       -5.17434       -10.70898         6.99789
| 64>    C       -4.45449       -11.40244         7.97480
| 65>    C       -3.64244       -12.45410         7.49078
| 66>    C       -3.65009       -12.82503         6.11675
| 67>    N       -2.83608       -13.88273         5.98558
| 68>    N       -2.39554       -14.10096         7.19340
| 69>    N       -2.82740       -13.30194         8.13130
| 70>    C       -1.49395       -15.17215         7.48565
| 71>    C       -4.45769       -11.09280         9.36351
| 72>    C       -5.43090       -10.50500        10.11537
| 73>    C       -5.08042        -9.90960        11.43058
| 74>    O       -4.03303       -10.02279        12.02602
| 75>    C       -6.26044        -9.11050        11.82575
| 76>    C       -6.41997        -8.29327        12.90674
| 77>    C       -7.64539        -7.61025        13.07708
| 78>    C       -8.68060        -7.78216        12.11319
| 79>    C       -9.89908        -7.09562        12.28686
| 80>    C      -10.08287        -6.28120        13.36871
| 81>    C       -9.05923        -6.11344        14.32215
| 82>    C       -7.86515        -6.76302        14.18040
| 83>    F       -9.26681        -5.30750        15.37324
| 84>    F      -11.24362        -5.63145        13.53300
| 85>    C       -8.48734        -8.63907        11.00521
| 86>    C       -7.29697        -9.30159        10.86859
| 87>    C       -6.83819       -10.27475         9.87842
| 88>    C       -7.66271       -11.01268         9.06649
| 89>    C       -7.24796       -12.14586         8.33829
| 90>    N       -6.99207       -13.10851         7.76745
| 91>    C       -9.04574       -10.77982         8.93493
| 92>    N      -10.17054       -10.61438         8.77179
| 93>    H       -4.02495         2.85687         0.14561
| 94>    H       -0.73349        -0.61862         1.43146
| 95>    H       -5.62130         1.13539        -0.51144
| 96>    H       -2.34722        -2.40254         0.76029
| 97>    H       -7.77907        -3.72855        -2.05177
| 98>    H       -7.48093        -5.92328        -3.19631
| 99>    H       -7.09585        -8.29779        -3.04233
|100>    H       -6.38557        -6.03578         3.87497
|101>    H       -4.72440        -5.62701         3.41035
|102>    H       -5.17220        -7.33315         3.69180
|103>    H       -5.69906        -9.74856         1.07201
|104>    H       -5.74333       -12.84039        -2.98349
|105>    H       -4.11454       -15.26279         2.50744
|106>    H       -4.00563       -17.02561         0.61239
|107>    H       -5.39209       -10.95836         2.87393
|108>    H       -3.88485       -13.50889         3.65197
|109>    H       -5.72781       -10.44461         4.96887
|110>    H       -5.76518        -9.85657         7.30420
|111>    H       -2.02823       -16.12386         7.47773
|112>    H       -1.07181       -14.99980         8.47288
|113>    H       -0.70934       -15.20199         6.73083
|114>    H       -3.53874       -11.32396         9.89336
|115>    H       -5.62364        -8.17214        13.62521
|116>    H      -10.69505        -7.21663        11.56876
|117>    H       -7.09148        -6.62461        14.91929
|118>    H       -9.28636        -8.74683        10.28910
|119> *
|120>
|121>                          ****END OF INPUT****

CARTESIAN COORDINATES (ANGSTROEM)
---------------------------------
  C     -3.319890    2.088080    0.420850
  C     -2.092690    2.439420    0.908790
  F     -1.765890    3.731850    1.043870
  C     -1.156990    1.451480    1.274960
  F      0.039810    1.824330    1.750170
  C     -1.461670    0.125270    1.148240
  C     -2.717330   -0.268880    0.646880
  C     -3.664890    0.729040    0.277140
  C     -4.930140    0.356930   -0.231590
  C     -5.237750   -0.971700   -0.365540
  C     -4.284840   -1.961050    0.002230
  C     -3.054990   -1.632130    0.494030
  C     -4.832390   -3.305990   -0.275650
  O     -4.229540   -4.352180   -0.176150
  C     -6.192040   -3.072930   -0.826860
  C     -6.435710   -1.643230   -0.859110
  C     -7.605640   -1.023630   -1.213900
  C     -8.782870   -1.684340   -1.623780
  N     -9.781670   -2.146550   -1.951140
  C     -7.796620    0.373790   -1.194610
  N     -8.009870    1.501930   -1.205310
  C     -6.979880   -4.033340   -1.386930
  C     -6.823830   -5.443610   -1.225580
  C     -7.117110   -6.326880   -2.262790
  C     -6.890040   -7.691890   -2.172360
  C     -6.404100   -8.316090   -1.022350
  C     -6.204740   -7.456720    0.088190
  C     -6.404270   -6.047360   -0.019320
  N     -6.180340   -5.515410    1.188210
  N     -5.851240   -6.529160    1.932270
  N     -5.842520   -7.701410    1.358200
  C     -5.513260   -6.372480    3.313010
  C     -6.113990   -9.723130   -0.972980
  C     -5.743020  -10.363820    0.185210
  C     -5.415020  -11.713000    0.285060
  C     -5.402800  -12.586360   -0.889420
  C     -5.748180  -12.179620   -2.130960
  S     -6.234640  -10.581720   -2.506860
  C     -4.974870  -13.853620   -0.410970
  C     -4.735630  -13.791130    0.965680
  C     -4.337490  -15.047600    1.479060
  C     -4.277650  -15.993610    0.506300
  S     -4.703620  -15.415770   -1.068390
  C     -5.013210  -12.451650    1.419940
  C     -4.957590  -11.939450    2.736110
  C     -4.403700  -12.574830    3.801700
  C     -4.408960  -12.120040    5.151550
  C     -5.136970  -11.036170    5.651750
  C     -5.174340  -10.708980    6.997890
  C     -4.454490  -11.402440    7.974800
  C     -3.642440  -12.454100    7.490780
  C     -3.650090  -12.825030    6.116750
  N     -2.836080  -13.882730    5.985580
  N     -2.395540  -14.100960    7.193400
  N     -2.827400  -13.301940    8.131300
  C     -1.493950  -15.172150    7.485650
  C     -4.457690  -11.092800    9.363510
  C     -5.430900  -10.505000   10.115370
  C     -5.080420   -9.909600   11.430580
  O     -4.033030  -10.022790   12.026020
  C     -6.260440   -9.110500   11.825750
  C     -6.419970   -8.293270   12.906740
  C     -7.645390   -7.610250   13.077080
  C     -8.680600   -7.782160   12.113190
  C     -9.899080   -7.095620   12.286860
  C    -10.082870   -6.281200   13.368710
  C     -9.059230   -6.113440   14.322150
  C     -7.865150   -6.763020   14.180400
  F     -9.266810   -5.307500   15.373240
  F    -11.243620   -5.631450   13.533000
  C     -8.487340   -8.639070   11.005210
  C     -7.296970   -9.301590   10.868590
  C     -6.838190  -10.274750    9.878420
  C     -7.662710  -11.012680    9.066490
  C     -7.247960  -12.145860    8.338290
  N     -6.992070  -13.108510    7.767450
  C     -9.045740  -10.779820    8.934930
  N    -10.170540  -10.614380    8.771790
  H     -4.024950    2.856870    0.145610
  H     -0.733490   -0.618620    1.431460
  H     -5.621300    1.135390   -0.511440
  H     -2.347220   -2.402540    0.760290
  H     -7.779070   -3.728550   -2.051770
  H     -7.480930   -5.923280   -3.196310
  H     -7.095850   -8.297790   -3.042330
  H     -6.385570   -6.035780    3.874970
  H     -4.724400   -5.627010    3.410350
  H     -5.172200   -7.333150    3.691800
  H     -5.699060   -9.748560    1.072010
  H     -5.743330  -12.840390   -2.983490
  H     -4.114540  -15.262790    2.507440
  H     -4.005630  -17.025610    0.612390
  H     -5.392090  -10.958360    2.873930
  H     -3.884850  -13.508890    3.651970
  H     -5.727810  -10.444610    4.968870
  H     -5.765180   -9.856570    7.304200
  H     -2.028230  -16.123860    7.477730
  H     -1.071810  -14.999800    8.472880
  H     -0.709340  -15.201990    6.730830
  H     -3.538740  -11.323960    9.893360
  H     -5.623640   -8.172140   13.625210
  H    -10.695050   -7.216630   11.568760
  H     -7.091480   -6.624610   14.919290
  H     -9.286360   -8.746830   10.289100

 Total Charge           Charge          ....    0
 Multiplicity           Mult            ....    1
 Number of Electrons    NEL             ....  540
 Basis Dimension        Dim             .... 1230

ORBITAL ENERGIES
----------------

  NO   OCC          E(Eh)            E(eV)
   0   2.0000     -88.977959     -2421.2133
   1   2.0000     -88.959187     -2420.7025
   2   2.0000     -24.799469      -674.8279
   3   2.0000     -24.798158      -674.7922
   4   2.0000     -24.795689      -674.7250
   5   2.0000     -24.795054      -674.7077
   6   2.0000     -19.215186      -522.8718
   7   2.0000     -19.209381      -522.7138
   8   2.0000     -14.553397      -396.0181
   9   2.0000     -14.543209      -395.7408
  10   2.0000     -14.455045      -393.3418
  11   2.0000     -14.449306      -393.1856
  12   2.0000     -14.443662      -393.0320
  13   2.0000     -14.441609      -392.9762
  14   2.0000     -14.417550      -392.3215
  15   2.0000     -14.417453      -392.3188
  16   2.0000     -14.412682      -392.1890
  17   2.0000     -14.409107      -392.0917
  18   2.0000     -10.382647      -282.5262
  19   2.0000     -10.381635      -282.4986
  20   2.0000     -10.378622      -282.4167
  21   2.0000     -10.378089      -282.4022
  22   2.0000     -10.367039      -282.1015
  23   2.0000     -10.360865      -281.9335
  24   2.0000     -10.344772      -281.4956
  25   2.0000     -10.342654      -281.4379
  26   2.0000     -10.338194      -281.3165
  27   2.0000     -10.337624      -281.3010
  28   2.0000     -10.332209      -281.1537
  29   2.0000     -10.332163      -281.1524
  30   2.0000     -10.325766      -280.9784
  31   2.0000     -10.323385      -280.9136
  32   2.0000     -10.320226      -280.8276
  33   2.0000     -10.320135      -280.8251
  34   2.0000     -10.319953      -280.8202
  35   2.0000     -10.318004      -280.7672
  36   2.0000     -10.315751      -280.7058
  37   2.0000     -10.315490      -280.6988
  38   2.0000     -10.312974      -280.6303
  39   2.0000     -10.311525      -280.5909
  40   2.0000     -10.311083      -280.5788
  41   2.0000     -10.311033      -280.5775
  42   2.0000     -10.310379      -280.5597
  43   2.0000     -10.307881      -280.4917
  44   2.0000     -10.307567      -280.4832
  45   2.0000     -10.307212      -280.4735
  46   2.0000     -10.304354      -280.3957
  47   2.0000     -10.303180      -280.3638
  48   2.0000     -10.302971      -280.3581
  49   2.0000     -10.302445      -280.3438
  50   2.0000     -10.302179      -280.3365
  51   2.0000     -10.302126      -280.3351
  52   2.0000     -10.301328      -280.3134
  53   2.0000     -10.300859      -280.3006
  54   2.0000     -10.300857      -280.3006
  55   2.0000     -10.300418      -280.2886
  56   2.0000     -10.300040      -280.2783
  57   2.0000     -10.299053      -280.2515
  58   2.0000     -10.298903      -280.2474
  59   2.0000     -10.298547      -280.2377
  60   2.0000     -10.298291      -280.2307
  61   2.0000     -10.297789      -280.2171
  62   2.0000     -10.297707      -280.2148
  63   2.0000     -10.294390      -280.1246
  64   2.0000     -10.293289      -280.0946
  65   2.0000     -10.292907      -280.0842
  66   2.0000     -10.291476      -280.0453
  67   2.0000     -10.290980      -280.0318
  68   2.0000     -10.290813      -280.0272
  69   2.0000     -10.290318      -280.0138
  70   2.0000     -10.289641      -279.9954
  71   2.0000     -10.288784      -279.9721
  72   2.0000     -10.285157      -279.8734
  73   2.0000     -10.281046      -279.7615
  74   2.0000     -10.280064      -279.7348
  75   2.0000     -10.277504      -279.6651
  76   2.0000     -10.275959      -279.6231
  77   2.0000     -10.273100      -279.5453
  78   2.0000      -8.073138      -219.6813
  79   2.0000      -8.054617      -219.1773
  80   2.0000      -6.042610      -164.4278
  81   2.0000      -6.038129      -164.3058
  82   2.0000      -6.035198      -164.2261
  83   2.0000      -6.024051      -163.9228
  84   2.0000      -6.019780      -163.8066
  85   2.0000      -6.016707      -163.7229
  86   2.0000      -1.321519       -35.9604
  87   2.0000      -1.317983       -35.8642
  88   2.0000      -1.306667       -35.5562
  89   2.0000      -1.303155       -35.4607
  90   2.0000      -1.230497       -33.4835
  91   2.0000      -1.219614       -33.1874
  92   2.0000      -1.130453       -30.7612
  93   2.0000      -1.124489       -30.5989
  94   2.0000      -1.021079       -27.7850
  95   2.0000      -1.015688       -27.6383
  96   2.0000      -1.010754       -27.5040
  97   2.0000      -1.005322       -27.3562
  98   2.0000      -1.003077       -27.2951
  99   2.0000      -1.000309       -27.2198
 100   2.0000      -0.996831       -27.1252
 101   2.0000      -0.995637       -27.0927
 102   2.0000      -0.992680       -27.0122
 103   2.0000      -0.990184       -26.9443
 104   2.0000      -0.982518       -26.7357
 105   2.0000      -0.981947       -26.7201
 106   2.0000      -0.976549       -26.5732
 107   2.0000      -0.971452       -26.4346
 108   2.0000      -0.939777       -25.5726
 109   2.0000      -0.935190       -25.4478
 110   2.0000      -0.931439       -25.3457
 111   2.0000      -0.928750       -25.2726
 112   2.0000      -0.923182       -25.1211
 113   2.0000      -0.913598       -24.8603
 114   2.0000      -0.905208       -24.6320
 115   2.0000      -0.898008       -24.4360
 116   2.0000      -0.893029       -24.3006
 117   2.0000      -0.891740       -24.2655
 118   2.0000      -0.886961       -24.1354
 119   2.0000      -0.878273       -23.8990
 120   2.0000      -0.867950       -23.6181
 121   2.0000      -0.846441       -23.0328
 122   2.0000      -0.846079       -23.0230
 123   2.0000      -0.841067       -22.8866
 124   2.0000      -0.837266       -22.7832
 125   2.0000      -0.827646       -22.5214
 126   2.0000      -0.826245       -22.4833
 127   2.0000      -0.818896       -22.2833
 128   2.0000      -0.810732       -22.0611
 129   2.0000      -0.797574       -21.7031
 130   2.0000      -0.790468       -21.5097
 131   2.0000      -0.773670       -21.0526
 132   2.0000      -0.767775       -20.8922
 133   2.0000      -0.761854       -20.7311
 134   2.0000      -0.750111       -20.4116
 135   2.0000      -0.745729       -20.2923
 136   2.0000      -0.740193       -20.1417
 137   2.0000      -0.730776       -19.8854
 138   2.0000      -0.729511       -19.8510
 139   2.0000      -0.726583       -19.7713
 140   2.0000      -0.718439       -19.5497
 141   2.0000      -0.716345       -19.4927
 142   2.0000      -0.713237       -19.4082
 143   2.0000      -0.710059       -19.3217
 144   2.0000      -0.699683       -19.0393
 145   2.0000      -0.695995       -18.9390
 146   2.0000      -0.684791       -18.6341
 147   2.0000      -0.678028       -18.4501
 148   2.0000      -0.676904       -18.4195
 149   2.0000      -0.661770       -18.0077
 150   2.0000      -0.658557       -17.9203
 151   2.0000      -0.656310       -17.8591
 152   2.0000      -0.653923       -17.7942
 153   2.0000      -0.650332       -17.6964
 154   2.0000      -0.644231       -17.5304
 155   2.0000      -0.639615       -17.4048
 156   2.0000      -0.638617       -17.3776
 157   2.0000      -0.632434       -17.2094
 158   2.0000      -0.629847       -17.1390
 159   2.0000      -0.620364       -16.8810
 160   2.0000      -0.617502       -16.8031
 161   2.0000      -0.615951       -16.7609
 162   2.0000      -0.614397       -16.7186
 163   2.0000      -0.611472       -16.6390
 164   2.0000      -0.608394       -16.5552
 165   2.0000      -0.607884       -16.5414
 166   2.0000      -0.604559       -16.4509
 167   2.0000      -0.592092       -16.1116
 168   2.0000      -0.591734       -16.1019
 169   2.0000      -0.586216       -15.9517
 170   2.0000      -0.584625       -15.9084
 171   2.0000      -0.583032       -15.8651
 172   2.0000      -0.582750       -15.8574
 173   2.0000      -0.579380       -15.7657
 174   2.0000      -0.577912       -15.7258
 175   2.0000      -0.571092       -15.5402
 176   2.0000      -0.568690       -15.4748
 177   2.0000      -0.564375       -15.3574
 178   2.0000      -0.556964       -15.1558
 179   2.0000      -0.555138       -15.1061
 180   2.0000      -0.551708       -15.0127
 181   2.0000      -0.550494       -14.9797
 182   2.0000      -0.547828       -14.9072
 183   2.0000      -0.546451       -14.8697
 184   2.0000      -0.544530       -14.8174
 185   2.0000      -0.539965       -14.6932
 186   2.0000      -0.537551       -14.6275
 187   2.0000      -0.533642       -14.5211
 188   2.0000      -0.532026       -14.4772
 189   2.0000      -0.531208       -14.4549
 190   2.0000      -0.530878       -14.4459
 191   2.0000      -0.528159       -14.3719
 192   2.0000      -0.526777       -14.3343
 193   2.0000      -0.520067       -14.1517
 194   2.0000      -0.519639       -14.1401
 195   2.0000      -0.518569       -14.1110
 196   2.0000      -0.516696       -14.0600
 197   2.0000      -0.514922       -14.0117
 198   2.0000      -0.513397       -13.9702
 199   2.0000      -0.511499       -13.9186
 200   2.0000      -0.510438       -13.8897
 201   2.0000      -0.509722       -13.8702
 202   2.0000      -0.509608       -13.8671
 203   2.0000      -0.506471       -13.7818
 204   2.0000      -0.503183       -13.6923
 205   2.0000      -0.501441       -13.6449
 206   2.0000      -0.498018       -13.5517
 207   2.0000      -0.494277       -13.4500
 208   2.0000      -0.490934       -13.3590
 209   2.0000      -0.487369       -13.2620
 210   2.0000      -0.486045       -13.2260
 211   2.0000      -0.483200       -13.1485
 212   2.0000      -0.481098       -13.0913
 213   2.0000      -0.476185       -12.9577
 214   2.0000      -0.474197       -12.9036
 215   2.0000      -0.471249       -12.8233
 216   2.0000      -0.470662       -12.8074
 217   2.0000      -0.465100       -12.6560
 218   2.0000      -0.464277       -12.6336
 219   2.0000      -0.460875       -12.5410
 220   2.0000      -0.458176       -12.4676
 221   2.0000      -0.455580       -12.3970
 222   2.0000      -0.451484       -12.2855
 223   2.0000      -0.450446       -12.2573
 224   2.0000      -0.449699       -12.2369
 225   2.0000      -0.447640       -12.1809
 226   2.0000      -0.446833       -12.1589
 227   2.0000      -0.445198       -12.1144
 228   2.0000      -0.442451       -12.0397
 229   2.0000      -0.440204       -11.9786
 230   2.0000      -0.437842       -11.9143
 231   2.0000      -0.433439       -11.7945
 232   2.0000      -0.432516       -11.7694
 233   2.0000      -0.430217       -11.7068
 234   2.0000      -0.429640       -11.6911
 235   2.0000      -0.427315       -11.6278
 236   2.0000      -0.424432       -11.5494
 237   2.0000      -0.423576       -11.5261
 238   2.0000      -0.422589       -11.4992
 239   2.0000      -0.421103       -11.4588
 240   2.0000      -0.417278       -11.3547
 241   2.0000      -0.415339       -11.3019
 242   2.0000      -0.411305       -11.1922
 243   2.0000      -0.409514       -11.1435
 244   2.0000      -0.400319       -10.8932
 245   2.0000      -0.398840       -10.8530
 246   2.0000      -0.394928       -10.7465
 247   2.0000      -0.393097       -10.6967
 248   2.0000      -0.387813       -10.5529
 249   2.0000      -0.383548       -10.4369
 250   2.0000      -0.380276       -10.3478
 251   2.0000      -0.376405       -10.2425
 252   2.0000      -0.376029       -10.2323
 253   2.0000      -0.375562       -10.2196
 254   2.0000      -0.360657        -9.8140
 255   2.0000      -0.348233        -9.4759
 256   2.0000      -0.343991        -9.3605
 257   2.0000      -0.341564        -9.2944
 258   2.0000      -0.332020        -9.0347
 259   2.0000      -0.328361        -8.9352
 260   2.0000      -0.327866        -8.9217
 261   2.0000      -0.326479        -8.8840
 262   2.0000      -0.316766        -8.6196
 263   2.0000      -0.313390        -8.5278
 264   2.0000      -0.306846        -8.3497
 265   2.0000      -0.298633        -8.1262
 266   2.0000      -0.296790        -8.0761
 267   2.0000      -0.285988        -7.7821
 268   2.0000      -0.270363        -7.3569
 269   2.0000      -0.228718        -6.2237
 270   0.0000      -0.106501        -2.8980
 271   0.0000      -0.092237        -2.5099
 272   0.0000      -0.067588        -1.8392
 273   0.0000      -0.057799        -1.5728
 274   0.0000      -0.050319        -1.3693

MULLIKEN ATOMIC CHARGES
-----------------------
   0 C :   -0.107952
   1 C :    0.242611
   2 F :   -0.172241
   3 C :    0.239297
   4 F :   -0.172497
   5 C :   -0.105722
   6 C :    0.116447
   7 C :    0.111403
   8 C :   -0.082223
   9 C :    0.048703
  10 C :   -0.002342
  11 C :   -0.084804
  12 C :    0.152773
  13 O :   -0.145074
  14 C :   -0.071790
  15 C :    0.304833
  16 C :   -0.343519
  17 C :   -0.200713
  18 N :    0.162781
  19 C :   -0.181767
  20 N :    0.146354
  21 C :   -0.056091
  22 C :    0.048164
  23 C :   -0.008365
  24 C :   -0.068654
  25 C :    0.099187
  26 C :   -0.007774
  27 C :    0.033979
  28 N :   -0.046934
  29 N :   -0.057672
  30 N :   -0.076457
  31 C :    0.143242
  32 C :   -0.078278
  33 C :   -0.058245
  34 C :    0.063087
  35 C :    0.066269
  36 C :   -0.118154
  37 S :    0.109203
  38 C :   -0.110820
  39 C :    0.051169
  40 C :   -0.002712
  41 C :   -0.066335
  42 S :    0.127860
  43 C :    0.085441
  44 C :    0.011856
  45 C :   -0.051441
  46 C :    0.106188
  47 C :   -0.054078
  48 C :    0.013280
  49 C :   -0.015131
  50 C :    0.017849
  51 C :   -0.020064
  52 N :   -0.063404
  53 N :   -0.072253
  54 N :   -0.048304
  55 C :    0.147295
  56 C :    0.018705
  57 C :   -0.126830
  58 C :    0.136713
  59 O :   -0.142162
  60 C :    0.015247
  61 C :   -0.090076
  62 C :    0.116271
  63 C :    0.114911
  64 C :   -0.110830
  65 C :    0.242129
  66 C :    0.238604
  67 C :   -0.108087
  68 F :   -0.173302
  69 F :   -0.172377
  70 C :   -0.087652
  71 C :    0.032197
  72 C :    0.277600
  73 C :   -0.342562
  74 C :   -0.197766
  75 N :    0.172071
  76 C :   -0.176414
  77 N :    0.144914
  78 H :    0.007435
  79 H :   -0.001651
  80 H :   -0.006720
  81 H :   -0.014444
  82 H :    0.030961
  83 H :   -0.010983
  84 H :    0.002255
  85 H :    0.057322
  86 H :    0.059506
  87 H :    0.050938
  88 H :   -0.009566
  89 H :    0.037359
  90 H :   -0.002155
  91 H :    0.026137
  92 H :   -0.023026
  93 H :   -0.020753
  94 H :   -0.027607
  95 H :   -0.016511
  96 H :    0.056333
  97 H :    0.053251
  98 H :    0.052387
  99 H :    0.031055
 100 H :   -0.009768
 101 H :    0.005845
 102 H :   -0.000910
 103 H :   -0.005449
Sum of atomic charges:   -0.0000000

LOEWDIN ATOMIC CHARGES
----------------------
   0 C :   -0.029073
   1 C :    0.066165
   2 F :   -0.049609
   3 C :    0.067809
   4 F :   -0.050212
   5 C :   -0.034646
   6 C :   -0.008435
   7 C :   -0.007464
   8 C :    0.017289
   9 C :   -0.023667
  10 C :   -0.048913
  11 C :    0.025842
  12 C :    0.082308
  13 O :   -0.138108
  14 C :   -0.084722
  15 C :    0.075452
  16 C :   -0.136444
  17 C :   -0.023471
  18 N :   -0.048898
  19 C :   -0.016927
  20 N :   -0.053017
  21 C :    0.080472
  22 C :   -0.043608
  23 C :    0.016744
  24 C :   -0.041033
  25 C :   -0.015664
  26 C :   -0.041263
  27 C :   -0.028873
  28 N :   -0.074816
  29 N :    0.164420
  30 N :   -0.092886
  31 C :    0.034237
  32 C :   -0.167588
  33 C :   -0.003027
  34 C :   -0.017174
  35 C :   -0.052576
  36 C :   -0.136498
  37 S :    0.458181
  38 C :   -0.197211
  39 C :   -0.037166
  40 C :   -0.061795
  41 C :   -0.164079
  42 S :    0.424289
  43 C :   -0.040311
  44 C :    0.010679
  45 C :   -0.033011
  46 C :    0.007678
  47 C :   -0.030700
  48 C :    0.014640
  49 C :   -0.061967
  50 C :   -0.036303
  51 C :   -0.047385
  52 N :   -0.090936
  53 N :    0.157976
  54 N :   -0.092136
  55 C :    0.033541
  56 C :    0.091186
  57 C :   -0.101397
  58 C :    0.081302
  59 O :   -0.144821
  60 C :   -0.052844
  61 C :    0.027918
  62 C :   -0.009914
  63 C :   -0.006726
  64 C :   -0.030957
  65 C :    0.065923
  66 C :    0.066213
  67 C :   -0.033626
  68 F :   -0.051108
  69 F :   -0.050535
  70 C :    0.011239
  71 C :   -0.020395
  72 C :    0.065678
  73 C :   -0.142085
  74 C :   -0.017783
  75 N :   -0.044735
  76 C :   -0.019407
  77 N :   -0.058448
  78 H :    0.047791
  79 H :    0.044303
  80 H :    0.039793
  81 H :    0.038499
  82 H :    0.047057
  83 H :    0.036860
  84 H :    0.023653
  85 H :    0.042682
  86 H :    0.044521
  87 H :    0.040770
  88 H :    0.034572
  89 H :    0.037226
  90 H :    0.033237
  91 H :    0.023967
  92 H :    0.028549
  93 H :    0.030886
  94 H :    0.027004
  95 H :    0.031187
  96 H :    0.042038
  97 H :    0.042964
  98 H :    0.041047
  99 H :    0.050225
 100 H :    0.040062
 101 H :    0.046949
 102 H :    0.044501
 103 H :    0.038867

  Mayer bond orders larger than 0.100000
B(  0-C ,  1-C ) :   1.4402 B(  0-C ,  5-C ) :   0.1092 B(  0-C ,  7-C ) :   1.1875
B(  0-C , 78-H ) :   1.0068 B(  1-C ,  2-F ) :   1.1333 B(  1-C ,  3-C ) :   1.1922
B(  3-C ,  4-F ) :   1.1323 B(  3-C ,  5-C ) :   1.4427 B(  5-C ,  6-C ) :   1.1911
B(  5-C , 79-H ) :   1.0066 B(  6-C ,  7-C ) :   1.2577 B(  6-C , 11-C ) :   1.1876
B(  7-C ,  8-C ) :   1.2184 B(  8-C ,  9-C ) :   1.4452 B(  8-C , 80-H ) :   0.9894
B(  9-C , 10-C ) :   1.2228 B(  9-C , 15-C ) :   0.9882 B( 10-C , 11-C ) :   1.4742
B( 10-C , 12-C ) :   0.9398 B( 11-C , 81-H ) :   1.0157 B( 12-C , 13-O ) :   2.2279
B( 12-C , 14-C ) :   0.9369 B( 14-C , 15-C ) :   1.0684 B( 14-C , 21-C ) :   1.6226
B( 15-C , 16-C ) :   1.6420 B( 16-C , 17-C ) :   1.1435 B( 16-C , 19-C ) :   1.1436
B( 17-C , 18-N ) :   2.9853 B( 19-C , 20-N ) :   2.9629 B( 21-C , 22-C ) :   1.1118
B( 21-C , 82-H ) :   0.9444 B( 22-C , 23-C ) :   1.3854 B( 22-C , 25-C ) :   0.1026
B( 22-C , 27-C ) :   1.1789 B( 23-C , 24-C ) :   1.3013 B( 23-C , 83-H ) :   0.9922
B( 24-C , 25-C ) :   1.3990 B( 24-C , 84-H ) :   0.9778 B( 25-C , 26-C ) :   1.1964
B( 25-C , 32-C ) :   1.1361 B( 26-C , 27-C ) :   1.2446 B( 26-C , 30-N ) :   1.4369
B( 27-C , 28-N ) :   1.4613 B( 28-N , 29-N ) :   1.2354 B( 28-N , 30-N ) :   0.1628
B( 29-N , 30-N ) :   1.2344 B( 29-N , 31-C ) :   0.9526 B( 30-N , 88-H ) :   0.1054
B( 31-C , 85-H ) :   0.9691 B( 31-C , 86-H ) :   0.9683 B( 31-C , 87-H ) :   0.9677
B( 32-C , 33-C ) :   1.5453 B( 32-C , 37-S ) :   1.0306 B( 33-C , 34-C ) :   1.2251
B( 33-C , 88-H ) :   0.9408 B( 34-C , 35-C ) :   1.0553 B( 34-C , 43-C ) :   1.3554
B( 35-C , 36-C ) :   1.5941 B( 35-C , 38-C ) :   1.1804 B( 36-C , 37-S ) :   1.1511
B( 36-C , 89-H ) :   0.9414 B( 38-C , 39-C ) :   1.4433 B( 38-C , 42-S ) :   1.0814
B( 39-C , 40-C ) :   1.2144 B( 39-C , 43-C ) :   1.0878 B( 40-C , 41-C ) :   1.5881
B( 40-C , 90-H ) :   0.9997 B( 41-C , 42-S ) :   1.1512 B( 41-C , 91-H ) :   0.9650
B( 43-C , 44-C ) :   1.1918 B( 44-C , 45-C ) :   1.5638 B( 44-C , 92-H ) :   0.9578
B( 45-C , 46-C ) :   1.1486 B( 45-C , 93-H ) :   0.9902 B( 46-C , 47-C ) :   1.3665
B( 46-C , 49-C ) :   0.1066 B( 46-C , 51-C ) :   1.1621 B( 47-C , 48-C ) :   1.3274
B( 47-C , 94-H ) :   0.9894 B( 48-C , 49-C ) :   1.3664 B( 48-C , 95-H ) :   0.9872
B( 49-C , 50-C ) :   1.1929 B( 49-C , 56-C ) :   1.1028 B( 50-C , 51-C ) :   1.2273
B( 50-C , 54-N ) :   1.5077 B( 51-C , 52-N ) :   1.4729 B( 52-N , 53-N ) :   1.2280
B( 52-N , 54-N ) :   0.1631 B( 53-N , 54-N ) :   1.2228 B( 53-N , 55-C ) :   0.9524
B( 55-C , 96-H ) :   0.9700 B( 55-C , 97-H ) :   0.9673 B( 55-C , 98-H ) :   0.9693
B( 56-C , 57-C ) :   1.6120 B( 56-C , 99-H ) :   0.9487 B( 57-C , 58-C ) :   0.9473
B( 57-C , 72-C ) :   1.0461 B( 58-C , 59-O ) :   2.2743 B( 58-C , 60-C ) :   0.9127
B( 60-C , 61-C ) :   1.4763 B( 60-C , 71-C ) :   1.2250 B( 61-C , 62-C ) :   1.1910
B( 61-C ,100-H ) :   1.0160 B( 62-C , 63-C ) :   1.2578 B( 62-C , 67-C ) :   1.1928
B( 63-C , 64-C ) :   1.1889 B( 63-C , 70-C ) :   1.2128 B( 64-C , 65-C ) :   1.4419
B( 64-C , 67-C ) :   0.1095 B( 64-C ,101-H ) :   1.0066 B( 65-C , 66-C ) :   1.1927
B( 65-C , 69-F ) :   1.1338 B( 66-C , 67-C ) :   1.4434 B( 66-C , 68-F ) :   1.1320
B( 67-C ,102-H ) :   1.0067 B( 70-C , 71-C ) :   1.4569 B( 70-C ,103-H ) :   0.9930
B( 71-C , 72-C ) :   0.9933 B( 72-C , 73-C ) :   1.6423 B( 73-C , 74-C ) :   1.1648
B( 73-C , 76-C ) :   1.1336 B( 74-C , 75-N ) :   3.0034 B( 76-C , 77-N ) :   2.9789

-----------------------------------------------------------------------------
         ABSORPTION SPECTRUM VIA TRANSITION ELECTRIC DIPOLE MOMENTS
-----------------------------------------------------------------------------
State   Energy  Wavelength   fosc         T2         TX        TY        TZ
        (cm-1)    (nm)                  (au**2)     (au)      (au)      (au)
-----------------------------------------------------------------------------
   0   12765.3    783.4   0.881572205  22.73542   0.09129   2.67096  -3.94881
   1   16410.0    609.4   0.588295389  11.80219  -0.85688   2.65929   1.99903
   2   21311.7    469.2   0.435825888   6.73240   0.89761  -2.43420  -0.03696
   3   21920.2    456.2   0.286134979   4.29736   0.31417   1.57173   1.31465
   4   23593.5    423.8   0.042029299   0.58646   0.36170   0.38937   0.55139
   5   24349.7    410.7   0.123585234   1.67089  -0.76842  -1.03363   0.10963
   6   24774.1    403.6   0.275645098   3.66293  -0.04299   0.48967   1.84968
   7   25842.9    387.0   0.045100768   0.57454  -0.48748  -0.33515  -0.47390
   8   26595.8    376.0   0.023495123   0.29083   0.13434  -0.45239   0.26101
   9   27025.7    370.0   0.049439904   0.60225  -0.05693   0.47674  -0.60969
  10   27328.9    365.9   0.130347679   1.57021  -0.96050  -0.35713  -0.72118
  11   27916.0    358.2   0.235045678   2.77189   0.33613  -1.26539  -1.02844
  12   28288.6    353.5   0.090603331   1.05441   0.25328   0.86793  -0.48677
  13   28815.7    347.0   0.021957429   0.25086   0.25997  -0.33785  -0.26293
  14   28996.9    344.9   0.029445269   0.33430   0.43330  -0.35481   0.14373
  15   29064.8    344.1   0.041620183   0.47142  -0.17355  -0.24945  -0.61569
  16   29505.1    338.9   0.102231376   1.14068   0.86324   0.29043   0.55780
  17   29993.0    333.4   0.050311097   0.55223  -0.08991   0.46815   0.57007
  18   31097.5    321.6   0.243256085   2.57521  -0.93081  -1.02441  -0.81203
  19   31599.4    316.5   0.073378693   0.76448  -0.48125   0.72810   0.05244
  20   32210.8    310.5   0.111809516   1.14276  -0.53169   0.14194   0.91647
  21   32431.1    308.3   0.041833448   0.42466   0.18436   0.02431  -0.62456
  22   33008.7    303.0   0.027550769   0.27478   0.01938  -0.21249   0.47880
  23   33443.7    299.0   0.061100535   0.60146  -0.69404  -0.20027  -0.28224
  24   33500.1    298.5   0.240520878   2.36365   0.38517   1.03935   1.06538
  25   33819.3    295.7   0.173255169   1.68654   0.11793  -0.97849  -0.84569
  26   33899.2    295.0   0.221896232   2.15495  -1.29773  -0.39813  -0.55888
  27   34054.0    293.7   0.139538333   1.34896   0.96588   0.26292   0.58899
  28   34346.1    291.2   0.226470705   2.17075   0.72435  -1.02715  -0.76879
  29   34920.7    286.4   0.086245283   0.81307   0.05727  -0.60708  -0.66426
  30   35080.6    285.1   0.105002202   0.98539  -0.59586  -0.67913  -0.41124
  31   35617.3    280.8   0.100310907   0.92718  -0.79514  -0.41947   0.34493
  32   35959.2    278.1   0.116867945   1.06994   0.70302   0.44080   0.61758
  33   36269.4    275.7   0.116787373   1.06006   0.11037   0.67993   0.76523
  34   36335.4    275.2   0.037207984   0.33712  -0.01768   0.57969  -0.02763
  35   36642.4    272.9   0.472088100   4.24145   1.37455  -1.52432   0.16882
  36   37050.6    269.9   0.053790095   0.47795  -0.67499   0.07434   0.12966
  37   37452.9    267.0   0.100837445   0.88636  -0.33992   0.49526  -0.72494
  38   37572.7    266.2   0.224650917   1.96839   0.83206  -0.04086   1.12889
  39   37835.6    264.3   0.028747617   0.25014   0.34753   0.25009   0.25849
  40   38039.7    262.9   0.039565504   0.34242  -0.11174   0.57297  -0.04052
  41   38088.9    262.5   0.004055964   0.03506   0.06890  -0.03460   0.17062
  42   38371.3    260.6   0.076982894   0.66049  -0.14882  -0.36783   0.70925
  43   38565.8    259.3   0.157891945   1.34782  -0.62161   0.96329  -0.18301
  44   38873.7    257.2   0.055093640   0.46657  -0.47339   0.49115  -0.03538
  45   38918.7    256.9   0.002439250   0.02063  -0.10423  -0.06721   0.07246
  46   39144.4    255.5   0.091202231   0.76703   0.63742  -0.43238   0.41685
  47   39550.6    252.8   0.001161334   0.00967  -0.03668  -0.03961  -0.08217
  48   39590.7    252.6   0.066471514   0.55274  -0.41168  -0.61567  -0.06489
  49   39822.9    251.1   0.034764529   0.28739  -0.22454  -0.28573  -0.39413
  50   40096.8    249.4   0.056403941   0.46310   0.36322   0.56940  -0.08344

FINAL SINGLE POINT ENERGY     -4191.169741549579

DIPOLE MOMENT
-------------
                                X             Y             Z
Electronic contribution:    -11.42566      47.06675       9.77746
Nuclear contribution   :     14.29516     -48.72035     -10.69344
                        -----------------------------------------
Total Dipole Moment    :      2.86950      -1.65359      -0.91597
                        -----------------------------------------
Magnitude (a.u.)       :      3.43619
Magnitude (Debye)      :      8.73410

Rotational constants in cm-1:     0.000606     0.000391     0.000278
Rotational constants in MHz :    18.164396    11.723747     8.341393

                             ****ORCA TERMINATED NORMALLY****
TOTAL RUN TIME: 0 days 0 hours 11 minutes 9 seconds 854 msec
