                         Program Version 4.2.0 -  RELEASE  -
|  1> # ORCA input file
|  2> # SCF done       -145.008514351893          0.000758834981
|  3> ! CAM-B3LYP def2-SVP def2/J RIJCOSX Grid4 TightSCF
|  4> %maxcore 5000
|  5> %tddft
|  6>     Mode sTDDFT
|  7>     Ethresh 5.0
|  8>     maxcore 5000
|  9> end
| 10>
| 11> %pal
| 12>   nprocs 6
| 13>   end
| 14> * xyz 0 1
| 15>    C       -3.09539        -3.09009        -1.29213
| 16>    C       -2.11082        -2.81884        -0.39091
| 17>    C       -1.98684        -1.43368        -0.17102
| 18>    C       -2.89876        -0.68997        -0.92643
| 19>    S       -3.89631        -1.67847        -1.89552
| 20>    C       -2.69914         0.69425        -0.64459
| 21>    C       -1.65943         0.81270         0.28505
| 22>    C       -1.17948        -0.52133         0.62079
| 23>    C       -0.18765        -0.84072         1.50103
| 24>    C        0.52008         0.14496         2.22074
| 25>    N        1.08987         0.94968         2.80608
| 26>    C        0.19175        -2.17564         1.75477
| 27>    N        0.50357        -3.25906         1.96336
| 28>    C       -1.37921         2.14166         0.61927
| 29>    C       -2.20254         3.02680        -0.04137
| 30>    S       -3.34475         2.20357        -1.09721
| 31>    C       -2.21304         4.45925         0.04718
| 32>    C       -1.17686         5.19953         0.64128
| 33>    N       -1.19672         6.50897         0.71270
| 34>    C       -2.24614         7.14732         0.19502
| 35>    N       -3.28511         6.54694        -0.38690
| 36>    C       -3.26528         5.23727        -0.45897
| 37>    C       -2.25740         8.59994         0.26447
| 38>    C       -1.11894         9.33493         0.61168
| 39>    N       -1.13458        10.64687         0.67841
| 40>    C       -2.27535        11.26944         0.36388
| 41>    N       -3.41405        10.66337         0.02675
| 42>    C       -3.40650         9.35025        -0.01221
| 43>    C       -2.23957        12.70525         0.38114
| 44>    C       -1.08791        13.44891         0.50206
| 45>    C       -1.36412        14.85225         0.52123
| 46>    C       -0.47142        15.91997         0.57716
| 47>    C       -0.96887        17.21354         0.59617
| 48>    C       -2.35202        17.46138         0.53636
| 49>    C       -3.24090        16.41607         0.44470
| 50>    C       -2.74826        15.11584         0.43472
| 51>    S       -3.68644        13.65797         0.31898
| 52>    C       -0.06794        18.30003         0.68085
| 53>    N        0.66779        19.17632         0.75093
| 54>    C        0.21538        12.82607         0.55502
| 55>    C        1.13787        13.07359         1.51010
| 56>    C        2.49901        12.55842         1.57995
| 57>    C        3.02453        11.54244         0.82984
| 58>    C        4.34856        11.06991         0.95918
| 59>    N        5.41419        10.64757         1.01557
| 60>    C        2.31813        10.79224        -0.13456
| 61>    N        1.82102        10.12517        -0.92614
| 62>    C        3.18121        13.28211         2.64308
| 63>    C        2.24327        14.10952         3.31427
| 64>    C        0.91854        13.95886         2.68876
| 65>    O       -0.13021        14.43533         3.06317
| 66>    C        2.59245        14.91516         4.37158
| 67>    C        3.92895        14.91437         4.78078
| 68>    C        4.85907        14.08891         4.10224
| 69>    C        4.50648        13.26807         3.03853
| 70>    S        6.45121        14.25472         4.77202
| 71>    C        5.87156        15.40178         5.92896
| 72>    C        4.54840        15.65492         5.82617
| 73>    H       -3.41077        -4.04945        -1.65057
| 74>    H       -1.51171        -3.57376         0.08434
| 75>    H       -0.62221         2.44651         1.31812
| 76>    H       -0.30345         4.71821         1.06066
| 77>    H       -4.12206         4.77332        -0.93439
| 78>    H       -0.18290         8.84113         0.83279
| 79>    H       -4.33547         8.86320        -0.27512
| 80>    H        0.59375        15.74535         0.61126
| 81>    H       -2.70475        18.48137         0.55685
| 82>    H       -4.30285        16.59346         0.38338
| 83>    H        0.44120        12.13783        -0.24785
| 84>    H        1.85578        15.53217         4.86232
| 85>    H        5.25134        12.66140         2.55085
| 86>    H        6.56939        15.82369         6.62590
| 87>    H        4.01520        16.34044         6.45954
| 88> *
| 89>
| 90>                          ****END OF INPUT****

CARTESIAN COORDINATES (ANGSTROEM)
---------------------------------
  C     -3.095390   -3.090090   -1.292130
  C     -2.110820   -2.818840   -0.390910
  C     -1.986840   -1.433680   -0.171020
  C     -2.898760   -0.689970   -0.926430
  S     -3.896310   -1.678470   -1.895520
  C     -2.699140    0.694250   -0.644590
  C     -1.659430    0.812700    0.285050
  C     -1.179480   -0.521330    0.620790
  C     -0.187650   -0.840720    1.501030
  C      0.520080    0.144960    2.220740
  N      1.089870    0.949680    2.806080
  C      0.191750   -2.175640    1.754770
  N      0.503570   -3.259060    1.963360
  C     -1.379210    2.141660    0.619270
  C     -2.202540    3.026800   -0.041370
  S     -3.344750    2.203570   -1.097210
  C     -2.213040    4.459250    0.047180
  C     -1.176860    5.199530    0.641280
  N     -1.196720    6.508970    0.712700
  C     -2.246140    7.147320    0.195020
  N     -3.285110    6.546940   -0.386900
  C     -3.265280    5.237270   -0.458970
  C     -2.257400    8.599940    0.264470
  C     -1.118940    9.334930    0.611680
  N     -1.134580   10.646870    0.678410
  C     -2.275350   11.269440    0.363880
  N     -3.414050   10.663370    0.026750
  C     -3.406500    9.350250   -0.012210
  C     -2.239570   12.705250    0.381140
  C     -1.087910   13.448910    0.502060
  C     -1.364120   14.852250    0.521230
  C     -0.471420   15.919970    0.577160
  C     -0.968870   17.213540    0.596170
  C     -2.352020   17.461380    0.536360
  C     -3.240900   16.416070    0.444700
  C     -2.748260   15.115840    0.434720
  S     -3.686440   13.657970    0.318980
  C     -0.067940   18.300030    0.680850
  N      0.667790   19.176320    0.750930
  C      0.215380   12.826070    0.555020
  C      1.137870   13.073590    1.510100
  C      2.499010   12.558420    1.579950
  C      3.024530   11.542440    0.829840
  C      4.348560   11.069910    0.959180
  N      5.414190   10.647570    1.015570
  C      2.318130   10.792240   -0.134560
  N      1.821020   10.125170   -0.926140
  C      3.181210   13.282110    2.643080
  C      2.243270   14.109520    3.314270
  C      0.918540   13.958860    2.688760
  O     -0.130210   14.435330    3.063170
  C      2.592450   14.915160    4.371580
  C      3.928950   14.914370    4.780780
  C      4.859070   14.088910    4.102240
  C      4.506480   13.268070    3.038530
  S      6.451210   14.254720    4.772020
  C      5.871560   15.401780    5.928960
  C      4.548400   15.654920    5.826170
  H     -3.410770   -4.049450   -1.650570
  H     -1.511710   -3.573760    0.084340
  H     -0.622210    2.446510    1.318120
  H     -0.303450    4.718210    1.060660
  H     -4.122060    4.773320   -0.934390
  H     -0.182900    8.841130    0.832790
  H     -4.335470    8.863200   -0.275120
  H      0.593750   15.745350    0.611260
  H     -2.704750   18.481370    0.556850
  H     -4.302850   16.593460    0.383380
  H      0.441200   12.137830   -0.247850
  H      1.855780   15.532170    4.862320
  H      5.251340   12.661400    2.550850
  H      6.569390   15.823690    6.625900
  H      4.015200   16.340440    6.459540

 Total Charge           Charge          ....    0
 Multiplicity           Mult            ....    1
 Number of Electrons    NEL             ....  414
 Basis Dimension        Dim             ....  903

ORBITAL ENERGIES
----------------

  NO   OCC          E(Eh)            E(eV)
   0   2.0000     -88.996849     -2421.7274
   1   2.0000     -88.992559     -2421.6107
   2   2.0000     -88.965078     -2420.8628
   3   2.0000     -88.963142     -2420.8102
   4   2.0000     -19.213402      -522.8233
   5   2.0000     -14.433487      -392.7551
   6   2.0000     -14.432369      -392.7247
   7   2.0000     -14.429502      -392.6467
   8   2.0000     -14.428187      -392.6109
   9   2.0000     -14.424753      -392.5175
  10   2.0000     -14.422267      -392.4498
  11   2.0000     -14.416404      -392.2903
  12   2.0000     -14.414129      -392.2284
  13   2.0000     -14.396606      -391.7516
  14   2.0000     -10.367544      -282.1152
  15   2.0000     -10.363873      -282.0153
  16   2.0000     -10.360533      -281.9244
  17   2.0000     -10.360252      -281.9168
  18   2.0000     -10.355103      -281.7767
  19   2.0000     -10.341723      -281.4126
  20   2.0000     -10.340676      -281.3841
  21   2.0000     -10.340170      -281.3703
  22   2.0000     -10.339155      -281.3427
  23   2.0000     -10.338044      -281.3125
  24   2.0000     -10.333863      -281.1987
  25   2.0000     -10.333586      -281.1912
  26   2.0000     -10.332532      -281.1625
  27   2.0000     -10.331206      -281.1264
  28   2.0000     -10.330011      -281.0939
  29   2.0000     -10.329467      -281.0791
  30   2.0000     -10.319645      -280.8118
  31   2.0000     -10.319388      -280.8048
  32   2.0000     -10.318975      -280.7936
  33   2.0000     -10.317930      -280.7652
  34   2.0000     -10.316913      -280.7375
  35   2.0000     -10.316494      -280.7261
  36   2.0000     -10.314256      -280.6652
  37   2.0000     -10.313914      -280.6559
  38   2.0000     -10.312808      -280.6258
  39   2.0000     -10.309251      -280.5290
  40   2.0000     -10.307972      -280.4942
  41   2.0000     -10.306878      -280.4644
  42   2.0000     -10.305550      -280.4283
  43   2.0000     -10.304333      -280.3952
  44   2.0000     -10.302585      -280.3476
  45   2.0000     -10.301723      -280.3241
  46   2.0000     -10.301687      -280.3231
  47   2.0000     -10.300761      -280.2980
  48   2.0000     -10.297456      -280.2080
  49   2.0000     -10.296982      -280.1951
  50   2.0000     -10.296523      -280.1826
  51   2.0000     -10.295770      -280.1621
  52   2.0000     -10.294717      -280.1335
  53   2.0000     -10.294229      -280.1202
  54   2.0000     -10.292545      -280.0744
  55   2.0000     -10.291058      -280.0339
  56   2.0000     -10.289188      -279.9830
  57   2.0000     -10.287381      -279.9339
  58   2.0000      -8.091306      -220.1756
  59   2.0000      -8.087458      -220.0709
  60   2.0000      -8.061424      -219.3625
  61   2.0000      -8.058512      -219.2833
  62   2.0000      -6.060549      -164.9159
  63   2.0000      -6.056717      -164.8116
  64   2.0000      -6.056336      -164.8013
  65   2.0000      -6.053792      -164.7321
  66   2.0000      -6.052244      -164.6899
  67   2.0000      -6.050134      -164.6325
  68   2.0000      -6.030929      -164.1099
  69   2.0000      -6.027975      -164.0295
  70   2.0000      -6.026627      -163.9928
  71   2.0000      -6.023960      -163.9203
  72   2.0000      -6.023077      -163.8963
  73   2.0000      -6.020054      -163.8140
  74   2.0000      -1.128842       -30.7173
  75   2.0000      -1.104793       -30.0630
  76   2.0000      -1.095636       -29.8138
  77   2.0000      -1.047929       -28.5156
  78   2.0000      -1.024811       -27.8865
  79   2.0000      -1.019292       -27.7363
  80   2.0000      -1.010590       -27.4996
  81   2.0000      -1.008197       -27.4344
  82   2.0000      -1.007449       -27.4141
  83   2.0000      -1.001509       -27.2525
  84   2.0000      -0.997644       -27.1473
  85   2.0000      -0.993979       -27.0475
  86   2.0000      -0.990965       -26.9655
  87   2.0000      -0.984388       -26.7865
  88   2.0000      -0.982512       -26.7355
  89   2.0000      -0.962817       -26.1996
  90   2.0000      -0.948790       -25.8179
  91   2.0000      -0.934844       -25.4384
  92   2.0000      -0.929510       -25.2933
  93   2.0000      -0.911609       -24.8061
  94   2.0000      -0.907361       -24.6906
  95   2.0000      -0.889122       -24.1942
  96   2.0000      -0.883317       -24.0363
  97   2.0000      -0.879796       -23.9405
  98   2.0000      -0.869201       -23.6522
  99   2.0000      -0.857143       -23.3240
 100   2.0000      -0.855918       -23.2907
 101   2.0000      -0.847694       -23.0669
 102   2.0000      -0.822652       -22.3855
 103   2.0000      -0.821433       -22.3523
 104   2.0000      -0.807244       -21.9662
 105   2.0000      -0.786529       -21.4025
 106   2.0000      -0.779960       -21.2238
 107   2.0000      -0.771684       -20.9986
 108   2.0000      -0.769078       -20.9277
 109   2.0000      -0.755376       -20.5548
 110   2.0000      -0.746413       -20.3109
 111   2.0000      -0.743892       -20.2423
 112   2.0000      -0.714780       -19.4502
 113   2.0000      -0.713432       -19.4135
 114   2.0000      -0.706727       -19.2310
 115   2.0000      -0.698469       -19.0063
 116   2.0000      -0.695075       -18.9140
 117   2.0000      -0.688542       -18.7362
 118   2.0000      -0.682269       -18.5655
 119   2.0000      -0.675383       -18.3781
 120   2.0000      -0.668878       -18.2011
 121   2.0000      -0.660508       -17.9733
 122   2.0000      -0.651409       -17.7257
 123   2.0000      -0.643619       -17.5138
 124   2.0000      -0.639200       -17.3935
 125   2.0000      -0.628587       -17.1047
 126   2.0000      -0.620759       -16.8917
 127   2.0000      -0.619398       -16.8547
 128   2.0000      -0.617231       -16.7957
 129   2.0000      -0.612307       -16.6617
 130   2.0000      -0.601322       -16.3628
 131   2.0000      -0.600107       -16.3297
 132   2.0000      -0.588582       -16.0161
 133   2.0000      -0.579136       -15.7591
 134   2.0000      -0.565406       -15.3855
 135   2.0000      -0.558855       -15.2072
 136   2.0000      -0.554665       -15.0932
 137   2.0000      -0.552329       -15.0296
 138   2.0000      -0.549347       -14.9485
 139   2.0000      -0.547553       -14.8997
 140   2.0000      -0.544084       -14.8053
 141   2.0000      -0.542054       -14.7500
 142   2.0000      -0.536972       -14.6117
 143   2.0000      -0.531391       -14.4599
 144   2.0000      -0.526691       -14.3320
 145   2.0000      -0.526214       -14.3190
 146   2.0000      -0.523269       -14.2389
 147   2.0000      -0.520793       -14.1715
 148   2.0000      -0.519210       -14.1284
 149   2.0000      -0.516006       -14.0412
 150   2.0000      -0.509689       -13.8694
 151   2.0000      -0.506999       -13.7961
 152   2.0000      -0.504813       -13.7367
 153   2.0000      -0.500132       -13.6093
 154   2.0000      -0.499162       -13.5829
 155   2.0000      -0.498653       -13.5690
 156   2.0000      -0.495520       -13.4838
 157   2.0000      -0.492515       -13.4020
 158   2.0000      -0.488344       -13.2885
 159   2.0000      -0.487523       -13.2662
 160   2.0000      -0.485149       -13.2016
 161   2.0000      -0.475877       -12.9493
 162   2.0000      -0.475356       -12.9351
 163   2.0000      -0.465260       -12.6604
 164   2.0000      -0.464123       -12.6294
 165   2.0000      -0.460544       -12.5320
 166   2.0000      -0.458111       -12.4658
 167   2.0000      -0.455526       -12.3955
 168   2.0000      -0.454702       -12.3731
 169   2.0000      -0.449460       -12.2304
 170   2.0000      -0.447805       -12.1854
 171   2.0000      -0.446117       -12.1395
 172   2.0000      -0.443250       -12.0614
 173   2.0000      -0.443169       -12.0593
 174   2.0000      -0.441700       -12.0193
 175   2.0000      -0.433818       -11.8048
 176   2.0000      -0.432379       -11.7656
 177   2.0000      -0.431868       -11.7517
 178   2.0000      -0.429684       -11.6923
 179   2.0000      -0.429108       -11.6766
 180   2.0000      -0.426907       -11.6167
 181   2.0000      -0.424867       -11.5612
 182   2.0000      -0.421643       -11.4735
 183   2.0000      -0.416092       -11.3224
 184   2.0000      -0.411724       -11.2036
 185   2.0000      -0.410289       -11.1645
 186   2.0000      -0.408372       -11.1124
 187   2.0000      -0.404831       -11.0160
 188   2.0000      -0.402276       -10.9465
 189   2.0000      -0.400465       -10.8972
 190   2.0000      -0.397121       -10.8062
 191   2.0000      -0.386361       -10.5134
 192   2.0000      -0.376419       -10.2429
 193   2.0000      -0.371954       -10.1214
 194   2.0000      -0.368576       -10.0295
 195   2.0000      -0.352132        -9.5820
 196   2.0000      -0.345367        -9.3979
 197   2.0000      -0.341554        -9.2942
 198   2.0000      -0.336940        -9.1686
 199   2.0000      -0.330531        -8.9942
 200   2.0000      -0.325048        -8.8450
 201   2.0000      -0.317764        -8.6468
 202   2.0000      -0.311296        -8.4708
 203   2.0000      -0.303076        -8.2471
 204   2.0000      -0.293694        -7.9918
 205   2.0000      -0.286139        -7.7862
 206   2.0000      -0.270809        -7.3691
 207   0.0000      -0.106508        -2.8982
 208   0.0000      -0.084601        -2.3021
 209   0.0000      -0.066073        -1.7979
 210   0.0000      -0.048846        -1.3292
 211   0.0000      -0.026703        -0.7266

MULLIKEN ATOMIC CHARGES
-----------------------
   0 C :   -0.078692
   1 C :    0.037371
   2 C :   -0.027894
   3 C :   -0.119228
   4 S :    0.185336
   5 C :   -0.096321
   6 C :    0.007392
   7 C :    0.295611
   8 C :   -0.295468
   9 C :   -0.187753
  10 N :    0.173572
  11 C :   -0.187709
  12 N :    0.175564
  13 C :   -0.033965
  14 C :   -0.064632
  15 S :    0.176514
  16 C :    0.036806
  17 C :    0.032262
  18 N :   -0.040056
  19 C :   -0.073036
  20 N :   -0.042545
  21 C :    0.008978
  22 C :    0.016096
  23 C :    0.088096
  24 N :   -0.093653
  25 C :   -0.072337
  26 N :   -0.051283
  27 C :    0.060453
  28 C :   -0.054304
  29 C :    0.060576
  30 C :    0.134807
  31 C :   -0.020925
  32 C :   -0.102976
  33 C :    0.044643
  34 C :    0.001438
  35 C :   -0.060836
  36 S :    0.195793
  37 C :   -0.146640
  38 N :    0.096835
  39 C :    0.012449
  40 C :   -0.101879
  41 C :    0.319847
  42 C :   -0.353876
  43 C :   -0.193762
  44 N :    0.155165
  45 C :   -0.173150
  46 N :    0.142892
  47 C :    0.011357
  48 C :   -0.010102
  49 C :    0.120014
  50 O :   -0.136369
  51 C :   -0.062962
  52 C :    0.111593
  53 C :   -0.092339
  54 C :   -0.021848
  55 S :    0.141877
  56 C :   -0.049819
  57 C :    0.028631
  58 H :    0.037389
  59 H :    0.014062
  60 H :    0.008986
  61 H :    0.017345
  62 H :    0.013144
  63 H :    0.023435
  64 H :    0.018952
  65 H :   -0.006107
  66 H :   -0.002120
  67 H :   -0.012697
  68 H :    0.040508
  69 H :   -0.008572
  70 H :   -0.005787
  71 H :    0.040101
  72 H :   -0.004246
Sum of atomic charges:   -0.0000000

LOEWDIN ATOMIC CHARGES
----------------------
   0 C :   -0.174812
   1 C :   -0.033570
   2 C :   -0.073549
   3 C :   -0.187447
   4 S :    0.481018
   5 C :   -0.174819
   6 C :   -0.071578
   7 C :    0.082389
   8 C :   -0.101499
   9 C :   -0.016356
  10 N :   -0.032832
  11 C :   -0.017154
  12 N :   -0.030426
  13 C :   -0.023484
  14 C :   -0.167853
  15 S :    0.478640
  16 C :   -0.080941
  17 C :    0.060893
  18 N :   -0.067718
  19 C :    0.029509
  20 N :   -0.072043
  21 C :    0.040410
  22 C :   -0.085011
  23 C :    0.088057
  24 N :   -0.063005
  25 C :    0.021716
  26 N :   -0.086612
  27 C :    0.077991
  28 C :   -0.161756
  29 C :   -0.033393
  30 C :   -0.030527
  31 C :    0.026716
  32 C :   -0.072846
  33 C :    0.007689
  34 C :   -0.031278
  35 C :   -0.137589
  36 S :    0.458051
  37 C :   -0.028733
  38 N :   -0.063736
  39 C :    0.093568
  40 C :   -0.094905
  41 C :    0.081208
  42 C :   -0.139157
  43 C :   -0.018786
  44 N :   -0.051869
  45 C :   -0.014223
  46 N :   -0.056588
  47 C :   -0.024051
  48 C :   -0.054251
  49 C :    0.079193
  50 O :   -0.133472
  51 C :    0.025219
  52 C :   -0.032690
  53 C :   -0.144849
  54 C :   -0.007194
  55 S :    0.430691
  56 C :   -0.147725
  57 C :   -0.056499
  58 H :    0.028449
  59 H :    0.043263
  60 H :    0.040278
  61 H :    0.030856
  62 H :    0.019944
  63 H :    0.032226
  64 H :    0.030722
  65 H :    0.037393
  66 H :    0.039868
  67 H :    0.035086
  68 H :    0.047051
  69 H :    0.041652
  70 H :    0.040798
  71 H :    0.029998
  72 H :    0.036287

  Mayer bond orders larger than 0.100000
B(  0-C ,  1-C ) :   1.5464 B(  0-C ,  4-S ) :   1.1541 B(  0-C , 58-H ) :   0.9647
B(  1-C ,  2-C ) :   1.2788 B(  1-C , 59-H ) :   0.9962 B(  2-C ,  3-C ) :   1.4627
B(  2-C ,  7-C ) :   1.0149 B(  3-C ,  4-S ) :   1.1355 B(  3-C ,  5-C ) :   1.1758
B(  5-C ,  6-C ) :   1.4677 B(  5-C , 15-S ) :   1.1323 B(  6-C ,  7-C ) :   0.9981
B(  6-C , 13-C ) :   1.2768 B(  7-C ,  8-C ) :   1.7119 B(  8-C ,  9-C ) :   1.1330
B(  8-C , 11-C ) :   1.1300 B(  9-C , 10-N ) :   2.9898 B( 11-C , 12-N ) :   3.0019
B( 13-C , 14-C ) :   1.5033 B( 13-C , 60-H ) :   0.9902 B( 14-C , 15-S ) :   1.1040
B( 14-C , 16-C ) :   1.0653 B( 16-C , 17-C ) :   1.3195 B( 16-C , 21-C ) :   1.3105
B( 17-C , 18-N ) :   1.5778 B( 17-C , 61-H ) :   0.9861 B( 18-N , 19-C ) :   1.5655
B( 19-C , 20-N ) :   1.5657 B( 19-C , 22-C ) :   0.9675 B( 20-N , 21-C ) :   1.5814
B( 21-C , 62-H ) :   0.9827 B( 22-C , 23-C ) :   1.3443 B( 22-C , 27-C ) :   1.3391
B( 23-C , 24-N ) :   1.5225 B( 23-C , 63-H ) :   0.9720 B( 24-N , 25-C ) :   1.5099
B( 25-C , 26-N ) :   1.5899 B( 25-C , 28-C ) :   1.0328 B( 26-N , 27-C ) :   1.5521
B( 27-C , 64-H ) :   0.9768 B( 28-C , 29-C ) :   1.5921 B( 28-C , 36-S ) :   1.0961
B( 29-C , 30-C ) :   1.1399 B( 29-C , 39-C ) :   1.0359 B( 30-C , 31-C ) :   1.3018
B( 30-C , 35-C ) :   1.3197 B( 31-C , 32-C ) :   1.4396 B( 31-C , 65-H ) :   0.9798
B( 32-C , 33-C ) :   1.3164 B( 32-C , 37-C ) :   1.0559 B( 33-C , 34-C ) :   1.4405
B( 33-C , 66-H ) :   0.9925 B( 34-C , 35-C ) :   1.3274 B( 34-C , 67-H ) :   0.9945
B( 35-C , 36-S ) :   1.0625 B( 37-C , 38-N ) :   3.0541 B( 39-C , 40-C ) :   1.7373
B( 39-C , 68-H ) :   0.8946 B( 40-C , 41-C ) :   1.0316 B( 40-C , 49-C ) :   0.9211
B( 41-C , 42-C ) :   1.6533 B( 41-C , 47-C ) :   1.0121 B( 42-C , 43-C ) :   1.1336
B( 42-C , 45-C ) :   1.1560 B( 43-C , 44-N ) :   2.9807 B( 45-C , 46-N ) :   2.9362
B( 47-C , 48-C ) :   1.2663 B( 47-C , 54-C ) :   1.4044 B( 48-C , 49-C ) :   0.9365
B( 48-C , 51-C ) :   1.4219 B( 49-C , 50-O ) :   2.2357 B( 51-C , 52-C ) :   1.2506
B( 51-C , 69-H ) :   1.0165 B( 52-C , 53-C ) :   1.2976 B( 52-C , 57-C ) :   1.1737
B( 53-C , 54-C ) :   1.3282 B( 53-C , 55-S ) :   1.0984 B( 54-C , 70-H ) :   0.9837
B( 55-S , 56-C ) :   1.1271 B( 56-C , 57-C ) :   1.6271 B( 56-C , 71-H ) :   0.9686
B( 57-C , 72-H ) :   0.9995

-----------------------------------------------------------------------------
         ABSORPTION SPECTRUM VIA TRANSITION ELECTRIC DIPOLE MOMENTS
-----------------------------------------------------------------------------
State   Energy  Wavelength   fosc         T2         TX        TY        TZ
        (cm-1)    (nm)                  (au**2)     (au)      (au)      (au)
-----------------------------------------------------------------------------
   0   15882.1    629.6   0.070118693   1.45346  -0.12704  -1.18642  -0.17245
   1   24866.1    402.2   0.402748478   5.33215   1.61111   1.57882   0.49379
   2   28164.7    355.1   1.421253597  16.61280  -0.50197   4.04470   0.03495
   3   28434.3    351.7   0.110608806   1.28063  -0.39608  -0.54168  -0.91123
   4   29058.0    344.1   0.086473984   0.97970   0.13356  -0.97558   0.10055
   5   29236.4    342.0   0.175136626   1.97210  -0.98721  -0.86007  -0.50773
   6   29758.0    336.0   0.064338898   0.71178  -0.41057  -0.73007  -0.10104
   7   30557.0    327.3   0.228718081   2.46414  -0.52187   1.47696  -0.10189
   8   30738.4    325.3   0.024432610   0.26168   0.19938  -0.26247   0.39119
   9   31249.6    320.0   0.120784082   1.27245   0.59842   0.67185   0.68042
  10   31800.6    314.5   0.544819961   5.64018   1.69963   0.16033   1.65098
  11   32237.7    310.2   0.065887664   0.67285   0.76178  -0.30377   0.01610
  12   32456.7    308.1   0.219464988   2.22605  -0.55654  -1.20796  -0.67612
  13   33027.5    302.8   0.078447667   0.78195   0.07800  -0.77679   0.41528
  14   33119.4    301.9   0.009066518   0.09012   0.02742   0.17414   0.24299
  15   33447.4    299.0   0.101672793   1.00073   0.13449  -0.93665   0.32454
  16   33612.1    297.5   0.190133232   1.86225   0.14755  -1.31593  -0.32985
  17   34106.8    293.2   0.147826121   1.42687   0.25494   0.35691   1.11108
  18   34351.5    291.1   0.324185515   3.10687  -0.39181   1.54472   0.75313
  19   34707.6    288.1   0.359014954   3.40536  -1.26351  -0.21957  -1.32691
  20   35793.2    279.4   0.014002383   0.12879  -0.34300   0.10529  -0.00723
  21   36157.7    276.6   0.019817435   0.18044  -0.18948   0.29476  -0.24011
  22   36270.4    275.7   0.006854972   0.06222   0.23756   0.06964   0.03057
  23   36368.8    275.0   0.016473123   0.14912  -0.13325   0.14451  -0.33238
  24   36636.3    273.0   0.025012208   0.22476   0.30120   0.24673  -0.27049
  25   37300.2    268.1   0.013433738   0.11857   0.06937  -0.33388  -0.04776
  26   37392.3    267.4   0.091546320   0.80600   0.12032   0.85055   0.26094
  27   38190.4    261.8   0.033583152   0.28950  -0.07240   0.51540   0.13644
  28   38723.4    258.2   0.095137384   0.80882   0.42240   0.23040   0.75982
  29   38939.4    256.8   0.131424390   1.11112   0.78456   0.57014   0.41295
  30   39266.6    254.7   0.180961619   1.51719  -1.06892   0.59935  -0.12397
  31   39433.1    253.6   0.185965406   1.55256  -1.07178   0.62575  -0.11079
  32   39894.5    250.7   0.071425293   0.58941   0.00632  -0.75526  -0.13766
  33   40096.1    249.4   0.007092502   0.05823   0.14298   0.08401  -0.17530

FINAL SINGLE POINT ENERGY     -3843.051931856874

DIPOLE MOMENT
-------------
                                X             Y             Z
Electronic contribution:     -3.48231     -15.60684      -6.25292
Nuclear contribution   :      1.00917      14.04862       6.16297
                        -----------------------------------------
Total Dipole Moment    :     -2.47314      -1.55822      -0.08995
                        -----------------------------------------
Magnitude (a.u.)       :      2.92448
Magnitude (Debye)      :      7.43343

Rotational constants in cm-1:     0.002203     0.000436     0.000376
Rotational constants in MHz :    66.054277    13.077520    11.260762

                             ****ORCA TERMINATED NORMALLY****
TOTAL RUN TIME: 0 days 0 hours 5 minutes 51 seconds 68 msec
