                         Program Version 4.2.0 -  RELEASE  -
|  1> # ORCA input file
|  2> # SCF done       -199.463602259115          0.007251507567
|  3> ! CAM-B3LYP def2-SVP def2/J RIJCOSX Grid4 TightSCF
|  4> %maxcore 5000
|  5> %tddft
|  6>     Mode sTDDFT
|  7>     Ethresh 5.0
|  8>     maxcore 5000
|  9> end
| 10>
| 11> %pal
| 12>   nprocs 6
| 13>   end
| 14> * xyz 0 1
| 15>    C       -0.80629         3.69106        -4.75477
| 16>    C       -1.28265         3.52349        -3.49055
| 17>    C       -2.11072         4.59757        -3.10963
| 18>    C       -2.23776         5.55733        -4.12038
| 19>    S       -1.34548         5.15097        -5.51348
| 20>    C       -3.10622         6.59304        -3.65855
| 21>    C       -3.51075         6.27856        -2.35623
| 22>    C       -2.88924         5.01893        -1.96166
| 23>    C       -3.01990         4.36759        -0.76611
| 24>    C       -3.80198         4.87668         0.29072
| 25>    N       -4.43530         5.28604         1.15550
| 26>    C       -2.39929         3.13336        -0.49586
| 27>    N       -1.90905         2.12371        -0.25044
| 28>    C       -4.40242         7.21800        -1.82801
| 29>    C       -4.68052         8.23391        -2.71978
| 30>    S       -3.79882         8.04556        -4.22494
| 31>    C       -5.59488         9.33520        -2.52490
| 32>    S       -5.01743        10.89283        -3.16866
| 33>    C       -5.64285        11.99859        -1.95254
| 34>    C       -5.02855        13.16957        -1.63567
| 35>    S       -5.89589        14.05098        -0.44126
| 36>    C       -7.08991        12.81778        -0.35084
| 37>    C       -6.83473        11.79350        -1.20819
| 38>    S       -7.90294        10.40433        -1.37841
| 39>    C       -6.78243         9.14168        -1.89037
| 40>    C       -7.19407         7.79031        -1.61713
| 41>    C       -7.80179         7.29239        -0.52438
| 42>    C       -7.74170         5.88592        -0.27430
| 43>    C       -7.78336         5.25638         0.93598
| 44>    C       -7.19698         3.96470         0.93045
| 45>    C       -6.89829         3.16225         2.05315
| 46>    C       -7.52736         3.42814         3.32420
| 47>    C       -8.80665         3.87498         3.51986
| 48>    C       -9.13175         4.01625         4.88362
| 49>    C       -8.12087         3.68825         5.74124
| 50>    S       -6.72636         3.17812         4.84968
| 51>    C       -8.11761         3.71794         7.22522
| 52>   Cl      -10.68174         4.55773         5.40728
| 53>    C       -5.95389         2.16119         1.84776
| 54>    C       -5.45440         1.82058         0.56513
| 55>    C       -5.89749         2.50523        -0.58813
| 56>    C       -6.71452         3.60599        -0.35135
| 57>    S       -7.13286         4.81496        -1.52832
| 58>    C       -5.42933         2.15283        -1.91313
| 59>    C       -5.15401         2.97523        -2.97116
| 60>    C       -4.70405         2.27589        -4.10926
| 61>    C       -4.64335         0.92145        -3.95748
| 62>    S       -5.15098         0.48891        -2.36138
| 63>    C       -4.21571        -0.10991        -4.93503
| 64>   Cl       -4.26783         3.09108        -5.56229
| 65>    C       -4.39767         0.88921         0.64872
| 66>    C       -4.05771         0.54926         1.92606
| 67>    S       -5.14436         1.26029         3.10147
| 68>    C       -2.88951        -0.16298         2.30716
| 69>    C       -2.59160        -0.68801         3.55502
| 70>    C       -1.36402        -1.32558         3.64979
| 71>    C       -0.60400        -1.33040         2.48649
| 72>   Se       -1.47957        -0.38986         1.11213
| 73>    C        0.68949        -1.84200         2.26352
| 74>    C        1.35971        -2.79735         2.98388
| 75>    C        2.80875        -2.94631         3.00059
| 76>    C        3.70842        -2.46094         2.08654
| 77>    C        3.37582        -1.77591         0.89747
| 78>    N        3.17684        -1.23163        -0.09469
| 79>    C        5.10531        -2.63115         2.18470
| 80>    N        6.24986        -2.72689         2.20099
| 81>    C        3.13607        -3.71842         4.19484
| 82>    C        1.93618        -4.16988         4.79148
| 83>    C        1.96307        -4.90691         5.96485
| 84>    C        3.19327        -5.19087         6.53990
| 85>    C        4.37303        -4.76104         5.94825
| 86>    C        4.35840        -4.02517         4.77165
| 87>    C        0.82268        -3.73549         3.95970
| 88>    C       -0.42277        -4.30917         3.92341
| 89>    C       -0.86947        -5.26787         4.85609
| 90>    N       -1.28356        -6.02858         5.61040
| 91>    C       -1.35666        -4.05883         2.89641
| 92>    N       -2.11869        -3.92189         2.04607
| 93>    H       -0.15865         3.03791        -5.30443
| 94>    H       -1.05150         2.67502        -2.87278
| 95>    H       -4.81031         7.18268        -0.83472
| 96>    H       -4.12441        13.56403        -2.05269
| 97>    H       -7.92147        12.91665         0.31677
| 98>    H       -6.84936         7.07639        -2.35544
| 99>    H       -8.16338         7.92702         0.27192
|100>    H       -8.09854         5.75126         1.83625
|101>    H       -9.50824         4.05483         2.72630
|102>    H       -9.04206         4.16262         7.58525
|103>    H       -7.27413         4.29844         7.59574
|104>    H       -8.03273         2.70892         7.62814
|105>    H       -5.23559         4.04487        -2.95291
|106>    H       -3.93700         0.36539        -5.87258
|107>    H       -5.02175        -0.81864        -5.12277
|108>    H       -3.36187        -0.66826        -4.55233
|109>    H       -3.84317         0.51273        -0.19308
|110>    H       -3.28273        -0.60910         4.37785
|111>    H       -1.00207        -1.74105         4.57619
|112>    H        1.23234        -1.36145         1.45721
|113>    H        1.05205        -5.24202         6.43509
|114>    H        3.23083        -5.75166         7.46190
|115>    H        5.31917        -4.99729         6.41102
|116>    H        5.28471        -3.69614         4.32890
|117> *
|118>
|119>                          ****END OF INPUT****

CARTESIAN COORDINATES (ANGSTROEM)
---------------------------------
  C     -0.806290    3.691060   -4.754770
  C     -1.282650    3.523490   -3.490550
  C     -2.110720    4.597570   -3.109630
  C     -2.237760    5.557330   -4.120380
  S     -1.345480    5.150970   -5.513480
  C     -3.106220    6.593040   -3.658550
  C     -3.510750    6.278560   -2.356230
  C     -2.889240    5.018930   -1.961660
  C     -3.019900    4.367590   -0.766110
  C     -3.801980    4.876680    0.290720
  N     -4.435300    5.286040    1.155500
  C     -2.399290    3.133360   -0.495860
  N     -1.909050    2.123710   -0.250440
  C     -4.402420    7.218000   -1.828010
  C     -4.680520    8.233910   -2.719780
  S     -3.798820    8.045560   -4.224940
  C     -5.594880    9.335200   -2.524900
  S     -5.017430   10.892830   -3.168660
  C     -5.642850   11.998590   -1.952540
  C     -5.028550   13.169570   -1.635670
  S     -5.895890   14.050980   -0.441260
  C     -7.089910   12.817780   -0.350840
  C     -6.834730   11.793500   -1.208190
  S     -7.902940   10.404330   -1.378410
  C     -6.782430    9.141680   -1.890370
  C     -7.194070    7.790310   -1.617130
  C     -7.801790    7.292390   -0.524380
  C     -7.741700    5.885920   -0.274300
  C     -7.783360    5.256380    0.935980
  C     -7.196980    3.964700    0.930450
  C     -6.898290    3.162250    2.053150
  C     -7.527360    3.428140    3.324200
  C     -8.806650    3.874980    3.519860
  C     -9.131750    4.016250    4.883620
  C     -8.120870    3.688250    5.741240
  S     -6.726360    3.178120    4.849680
  C     -8.117610    3.717940    7.225220
  Cl   -10.681740    4.557730    5.407280
  C     -5.953890    2.161190    1.847760
  C     -5.454400    1.820580    0.565130
  C     -5.897490    2.505230   -0.588130
  C     -6.714520    3.605990   -0.351350
  S     -7.132860    4.814960   -1.528320
  C     -5.429330    2.152830   -1.913130
  C     -5.154010    2.975230   -2.971160
  C     -4.704050    2.275890   -4.109260
  C     -4.643350    0.921450   -3.957480
  S     -5.150980    0.488910   -2.361380
  C     -4.215710   -0.109910   -4.935030
  Cl    -4.267830    3.091080   -5.562290
  C     -4.397670    0.889210    0.648720
  C     -4.057710    0.549260    1.926060
  S     -5.144360    1.260290    3.101470
  C     -2.889510   -0.162980    2.307160
  C     -2.591600   -0.688010    3.555020
  C     -1.364020   -1.325580    3.649790
  C     -0.604000   -1.330400    2.486490
  Se    -1.479570   -0.389860    1.112130
  C      0.689490   -1.842000    2.263520
  C      1.359710   -2.797350    2.983880
  C      2.808750   -2.946310    3.000590
  C      3.708420   -2.460940    2.086540
  C      3.375820   -1.775910    0.897470
  N      3.176840   -1.231630   -0.094690
  C      5.105310   -2.631150    2.184700
  N      6.249860   -2.726890    2.200990
  C      3.136070   -3.718420    4.194840
  C      1.936180   -4.169880    4.791480
  C      1.963070   -4.906910    5.964850
  C      3.193270   -5.190870    6.539900
  C      4.373030   -4.761040    5.948250
  C      4.358400   -4.025170    4.771650
  C      0.822680   -3.735490    3.959700
  C     -0.422770   -4.309170    3.923410
  C     -0.869470   -5.267870    4.856090
  N     -1.283560   -6.028580    5.610400
  C     -1.356660   -4.058830    2.896410
  N     -2.118690   -3.921890    2.046070
  H     -0.158650    3.037910   -5.304430
  H     -1.051500    2.675020   -2.872780
  H     -4.810310    7.182680   -0.834720
  H     -4.124410   13.564030   -2.052690
  H     -7.921470   12.916650    0.316770
  H     -6.849360    7.076390   -2.355440
  H     -8.163380    7.927020    0.271920
  H     -8.098540    5.751260    1.836250
  H     -9.508240    4.054830    2.726300
  H     -9.042060    4.162620    7.585250
  H     -7.274130    4.298440    7.595740
  H     -8.032730    2.708920    7.628140
  H     -5.235590    4.044870   -2.952910
  H     -3.937000    0.365390   -5.872580
  H     -5.021750   -0.818640   -5.122770
  H     -3.361870   -0.668260   -4.552330
  H     -3.843170    0.512730   -0.193080
  H     -3.282730   -0.609100    4.377850
  H     -1.002070   -1.741050    4.576190
  H      1.232340   -1.361450    1.457210
  H      1.052050   -5.242020    6.435090
  H      3.230830   -5.751660    7.461900
  H      5.319170   -4.997290    6.411020
  H      5.284710   -3.696140    4.328900

 Total Charge           Charge          ....    0
 Multiplicity           Mult            ....    1
 Number of Electrons    NEL             ....  638
 Basis Dimension        Dim             .... 1274

ORBITAL ENERGIES
----------------

  NO   OCC          E(Eh)            E(eV)
   0   2.0000    -453.933230    -12352.1512
   1   2.0000    -101.590256     -2764.4114
   2   2.0000    -101.583226     -2764.2201
   3   2.0000     -88.986925     -2421.4573
   4   2.0000     -88.983751     -2421.3710
   5   2.0000     -88.966490     -2420.9013
   6   2.0000     -88.961118     -2420.7551
   7   2.0000     -88.957464     -2420.6557
   8   2.0000     -88.955708     -2420.6079
   9   2.0000     -88.951969     -2420.5061
  10   2.0000     -88.951914     -2420.5046
  11   2.0000     -88.946725     -2420.3634
  12   2.0000     -58.147759     -1582.2810
  13   2.0000     -52.217681     -1420.9153
  14   2.0000     -52.216812     -1420.8917
  15   2.0000     -52.215972     -1420.8688
  16   2.0000     -14.435038      -392.7973
  17   2.0000     -14.426779      -392.5726
  18   2.0000     -14.416947      -392.3051
  19   2.0000     -14.415841      -392.2750
  20   2.0000     -14.413542      -392.2124
  21   2.0000     -14.412817      -392.1927
  22   2.0000     -10.360027      -281.9107
  23   2.0000     -10.350512      -281.6517
  24   2.0000     -10.343707      -281.4666
  25   2.0000     -10.342826      -281.4426
  26   2.0000     -10.342266      -281.4274
  27   2.0000     -10.340897      -281.3901
  28   2.0000     -10.338554      -281.3264
  29   2.0000     -10.329027      -281.0671
  30   2.0000     -10.327964      -281.0382
  31   2.0000     -10.326050      -280.9861
  32   2.0000     -10.322941      -280.9015
  33   2.0000     -10.322221      -280.8819
  34   2.0000     -10.321875      -280.8725
  35   2.0000     -10.321790      -280.8702
  36   2.0000     -10.320559      -280.8367
  37   2.0000     -10.320542      -280.8362
  38   2.0000     -10.319606      -280.8108
  39   2.0000     -10.318469      -280.7798
  40   2.0000     -10.317760      -280.7605
  41   2.0000     -10.316763      -280.7334
  42   2.0000     -10.314120      -280.6615
  43   2.0000     -10.312465      -280.6164
  44   2.0000     -10.311959      -280.6027
  45   2.0000     -10.311492      -280.5900
  46   2.0000     -10.311305      -280.5849
  47   2.0000     -10.309393      -280.5328
  48   2.0000     -10.308704      -280.5141
  49   2.0000     -10.308104      -280.4978
  50   2.0000     -10.308073      -280.4969
  51   2.0000     -10.308008      -280.4952
  52   2.0000     -10.307790      -280.4892
  53   2.0000     -10.307656      -280.4856
  54   2.0000     -10.307463      -280.4803
  55   2.0000     -10.306958      -280.4666
  56   2.0000     -10.306075      -280.4426
  57   2.0000     -10.304939      -280.4116
  58   2.0000     -10.303743      -280.3791
  59   2.0000     -10.303176      -280.3637
  60   2.0000     -10.302765      -280.3525
  61   2.0000     -10.300808      -280.2992
  62   2.0000     -10.298225      -280.2290
  63   2.0000     -10.297149      -280.1997
  64   2.0000     -10.296743      -280.1886
  65   2.0000     -10.296186      -280.1735
  66   2.0000     -10.295671      -280.1594
  67   2.0000     -10.295619      -280.1580
  68   2.0000     -10.294743      -280.1342
  69   2.0000     -10.294466      -280.1267
  70   2.0000     -10.292508      -280.0734
  71   2.0000     -10.292364      -280.0695
  72   2.0000     -10.292163      -280.0640
  73   2.0000     -10.290428      -280.0168
  74   2.0000     -10.288418      -279.9621
  75   2.0000     -10.283736      -279.8347
  76   2.0000     -10.281924      -279.7854
  77   2.0000     -10.280104      -279.7359
  78   2.0000     -10.279052      -279.7072
  79   2.0000     -10.278496      -279.6921
  80   2.0000     -10.278337      -279.6878
  81   2.0000     -10.275565      -279.6123
  82   2.0000      -9.544573      -259.7210
  83   2.0000      -9.537980      -259.5416
  84   2.0000      -8.081673      -219.9135
  85   2.0000      -8.078793      -219.8351
  86   2.0000      -8.062475      -219.3911
  87   2.0000      -8.056474      -219.2278
  88   2.0000      -8.053094      -219.1358
  89   2.0000      -8.050968      -219.0780
  90   2.0000      -8.047272      -218.9774
  91   2.0000      -8.047210      -218.9757
  92   2.0000      -8.042397      -218.8447
  93   2.0000      -7.921793      -215.5630
  94   2.0000      -7.314756      -199.0446
  95   2.0000      -7.308183      -198.8658
  96   2.0000      -7.304735      -198.7720
  97   2.0000      -7.304595      -198.7681
  98   2.0000      -7.298086      -198.5910
  99   2.0000      -7.297999      -198.5886
 100   2.0000      -6.050829      -164.6514
 101   2.0000      -6.048043      -164.5756
 102   2.0000      -6.046685      -164.5387
 103   2.0000      -6.044167      -164.4702
 104   2.0000      -6.043599      -164.4547
 105   2.0000      -6.041399      -164.3948
 106   2.0000      -6.031831      -164.1345
 107   2.0000      -6.027483      -164.0162
 108   2.0000      -6.025827      -163.9711
 109   2.0000      -6.024634      -163.9386
 110   2.0000      -6.022436      -163.8788
 111   2.0000      -6.021620      -163.8566
 112   2.0000      -6.020718      -163.8321
 113   2.0000      -6.018517      -163.7722
 114   2.0000      -6.018176      -163.7629
 115   2.0000      -6.017575      -163.7466
 116   2.0000      -6.016928      -163.7289
 117   2.0000      -6.016485      -163.7169
 118   2.0000      -6.015157      -163.6807
 119   2.0000      -6.013334      -163.6311
 120   2.0000      -6.012886      -163.6189
 121   2.0000      -6.012773      -163.6159
 122   2.0000      -6.012182      -163.5998
 123   2.0000      -6.008877      -163.5099
 124   2.0000      -6.008575      -163.5016
 125   2.0000      -6.007130      -163.4623
 126   2.0000      -6.001811      -163.3176
 127   2.0000      -5.870526      -159.7451
 128   2.0000      -5.866498      -159.6355
 129   2.0000      -5.861931      -159.5113
 130   2.0000      -2.225123       -60.5487
 131   2.0000      -2.224618       -60.5349
 132   2.0000      -2.220163       -60.4137
 133   2.0000      -2.216893       -60.3247
 134   2.0000      -2.216564       -60.3158
 135   2.0000      -1.040757       -28.3204
 136   2.0000      -1.029720       -28.0201
 137   2.0000      -1.024251       -27.8713
 138   2.0000      -1.015730       -27.6394
 139   2.0000      -1.011545       -27.5255
 140   2.0000      -1.008190       -27.4342
 141   2.0000      -1.006569       -27.3901
 142   2.0000      -1.004102       -27.3230
 143   2.0000      -1.001002       -27.2387
 144   2.0000      -0.997081       -27.1320
 145   2.0000      -0.993633       -27.0381
 146   2.0000      -0.993351       -27.0305
 147   2.0000      -0.992222       -26.9997
 148   2.0000      -0.986702       -26.8495
 149   2.0000      -0.969796       -26.3895
 150   2.0000      -0.962845       -26.2004
 151   2.0000      -0.952209       -25.9109
 152   2.0000      -0.949350       -25.8331
 153   2.0000      -0.947774       -25.7902
 154   2.0000      -0.941398       -25.6167
 155   2.0000      -0.933321       -25.3970
 156   2.0000      -0.923426       -25.1277
 157   2.0000      -0.908221       -24.7139
 158   2.0000      -0.902150       -24.5488
 159   2.0000      -0.898950       -24.4617
 160   2.0000      -0.892604       -24.2890
 161   2.0000      -0.886491       -24.1227
 162   2.0000      -0.881295       -23.9812
 163   2.0000      -0.865972       -23.5643
 164   2.0000      -0.862360       -23.4660
 165   2.0000      -0.861102       -23.4318
 166   2.0000      -0.854229       -23.2448
 167   2.0000      -0.852831       -23.2067
 168   2.0000      -0.848453       -23.0876
 169   2.0000      -0.843335       -22.9483
 170   2.0000      -0.834004       -22.6944
 171   2.0000      -0.827135       -22.5075
 172   2.0000      -0.816806       -22.2264
 173   2.0000      -0.812374       -22.1058
 174   2.0000      -0.806416       -21.9437
 175   2.0000      -0.798810       -21.7367
 176   2.0000      -0.794489       -21.6191
 177   2.0000      -0.789720       -21.4894
 178   2.0000      -0.784744       -21.3540
 179   2.0000      -0.782135       -21.2830
 180   2.0000      -0.774231       -21.0679
 181   2.0000      -0.772000       -21.0072
 182   2.0000      -0.761008       -20.7081
 183   2.0000      -0.747634       -20.3442
 184   2.0000      -0.731623       -19.9085
 185   2.0000      -0.714630       -19.4461
 186   2.0000      -0.711464       -19.3599
 187   2.0000      -0.706235       -19.2176
 188   2.0000      -0.701541       -19.0899
 189   2.0000      -0.700204       -19.0535
 190   2.0000      -0.694142       -18.8886
 191   2.0000      -0.680632       -18.5209
 192   2.0000      -0.674646       -18.3580
 193   2.0000      -0.671344       -18.2682
 194   2.0000      -0.667066       -18.1518
 195   2.0000      -0.661124       -17.9901
 196   2.0000      -0.660300       -17.9677
 197   2.0000      -0.655211       -17.8292
 198   2.0000      -0.649768       -17.6811
 199   2.0000      -0.644381       -17.5345
 200   2.0000      -0.641384       -17.4529
 201   2.0000      -0.636542       -17.3212
 202   2.0000      -0.633142       -17.2287
 203   2.0000      -0.630278       -17.1507
 204   2.0000      -0.622920       -16.9505
 205   2.0000      -0.616766       -16.7830
 206   2.0000      -0.611484       -16.6393
 207   2.0000      -0.608180       -16.5494
 208   2.0000      -0.601643       -16.3715
 209   2.0000      -0.597450       -16.2574
 210   2.0000      -0.594278       -16.1711
 211   2.0000      -0.587388       -15.9836
 212   2.0000      -0.582404       -15.8480
 213   2.0000      -0.580171       -15.7873
 214   2.0000      -0.579311       -15.7639
 215   2.0000      -0.576117       -15.6770
 216   2.0000      -0.574680       -15.6378
 217   2.0000      -0.561673       -15.2839
 218   2.0000      -0.552877       -15.0446
 219   2.0000      -0.547754       -14.9051
 220   2.0000      -0.544468       -14.8157
 221   2.0000      -0.542450       -14.7608
 222   2.0000      -0.539266       -14.6742
 223   2.0000      -0.537927       -14.6377
 224   2.0000      -0.534822       -14.5532
 225   2.0000      -0.532366       -14.4864
 226   2.0000      -0.526672       -14.3315
 227   2.0000      -0.526578       -14.3289
 228   2.0000      -0.522852       -14.2275
 229   2.0000      -0.520788       -14.1714
 230   2.0000      -0.520043       -14.1511
 231   2.0000      -0.517423       -14.0798
 232   2.0000      -0.512098       -13.9349
 233   2.0000      -0.508743       -13.8436
 234   2.0000      -0.507501       -13.8098
 235   2.0000      -0.504822       -13.7369
 236   2.0000      -0.503667       -13.7055
 237   2.0000      -0.501294       -13.6409
 238   2.0000      -0.498183       -13.5562
 239   2.0000      -0.497350       -13.5336
 240   2.0000      -0.495752       -13.4901
 241   2.0000      -0.494288       -13.4502
 242   2.0000      -0.493009       -13.4155
 243   2.0000      -0.490791       -13.3551
 244   2.0000      -0.489208       -13.3120
 245   2.0000      -0.488711       -13.2985
 246   2.0000      -0.482838       -13.1387
 247   2.0000      -0.481245       -13.0953
 248   2.0000      -0.479358       -13.0440
 249   2.0000      -0.477741       -13.0000
 250   2.0000      -0.477180       -12.9847
 251   2.0000      -0.473937       -12.8965
 252   2.0000      -0.471312       -12.8250
 253   2.0000      -0.468232       -12.7412
 254   2.0000      -0.467376       -12.7180
 255   2.0000      -0.466256       -12.6875
 256   2.0000      -0.460359       -12.5270
 257   2.0000      -0.459113       -12.4931
 258   2.0000      -0.456958       -12.4345
 259   2.0000      -0.456854       -12.4316
 260   2.0000      -0.454688       -12.3727
 261   2.0000      -0.453589       -12.3428
 262   2.0000      -0.451664       -12.2904
 263   2.0000      -0.449641       -12.2354
 264   2.0000      -0.448580       -12.2065
 265   2.0000      -0.447367       -12.1735
 266   2.0000      -0.443667       -12.0728
 267   2.0000      -0.443373       -12.0648
 268   2.0000      -0.442407       -12.0385
 269   2.0000      -0.441801       -12.0220
 270   2.0000      -0.440712       -11.9924
 271   2.0000      -0.440491       -11.9864
 272   2.0000      -0.439622       -11.9627
 273   2.0000      -0.437344       -11.9007
 274   2.0000      -0.435227       -11.8431
 275   2.0000      -0.433750       -11.8029
 276   2.0000      -0.430073       -11.7029
 277   2.0000      -0.429130       -11.6772
 278   2.0000      -0.426972       -11.6185
 279   2.0000      -0.426573       -11.6076
 280   2.0000      -0.423495       -11.5239
 281   2.0000      -0.423098       -11.5131
 282   2.0000      -0.422604       -11.4996
 283   2.0000      -0.420861       -11.4522
 284   2.0000      -0.417692       -11.3660
 285   2.0000      -0.413217       -11.2442
 286   2.0000      -0.410356       -11.1664
 287   2.0000      -0.409658       -11.1474
 288   2.0000      -0.407497       -11.0886
 289   2.0000      -0.406461       -11.0604
 290   2.0000      -0.401589       -10.9278
 291   2.0000      -0.399993       -10.8844
 292   2.0000      -0.396979       -10.8023
 293   2.0000      -0.391159       -10.6440
 294   2.0000      -0.385140       -10.4802
 295   2.0000      -0.379894       -10.3374
 296   2.0000      -0.379106       -10.3160
 297   2.0000      -0.378744       -10.3061
 298   2.0000      -0.376196       -10.2368
 299   2.0000      -0.369256       -10.0480
 300   2.0000      -0.364230        -9.9112
 301   2.0000      -0.353721        -9.6252
 302   2.0000      -0.343253        -9.3404
 303   2.0000      -0.338691        -9.2162
 304   2.0000      -0.330080        -8.9819
 305   2.0000      -0.328499        -8.9389
 306   2.0000      -0.322359        -8.7718
 307   2.0000      -0.316779        -8.6200
 308   2.0000      -0.315492        -8.5850
 309   2.0000      -0.313367        -8.5272
 310   2.0000      -0.308461        -8.3937
 311   2.0000      -0.303336        -8.2542
 312   2.0000      -0.302162        -8.2222
 313   2.0000      -0.294971        -8.0266
 314   2.0000      -0.287737        -7.8297
 315   2.0000      -0.275882        -7.5071
 316   2.0000      -0.263335        -7.1657
 317   2.0000      -0.255743        -6.9591
 318   2.0000      -0.235604        -6.4111
 319   0.0000      -0.101688        -2.7671
 320   0.0000      -0.095298        -2.5932
 321   0.0000      -0.082083        -2.2336
 322   0.0000      -0.057605        -1.5675
 323   0.0000      -0.029288        -0.7970

MULLIKEN ATOMIC CHARGES
-----------------------
   0 C :   -0.080574
   1 C :    0.042495
   2 C :   -0.033473
   3 C :   -0.114037
   4 S :    0.180712
   5 C :   -0.098452
   6 C :   -0.003291
   7 C :    0.299030
   8 C :   -0.326203
   9 C :   -0.193276
  10 N :    0.185769
  11 C :   -0.138177
  12 N :    0.150292
  13 C :   -0.016769
  14 C :   -0.119880
  15 S :    0.202487
  16 C :   -0.069893
  17 S :    0.088014
  18 C :   -0.007770
  19 C :   -0.116269
  20 S :    0.129454
  21 C :   -0.120760
  22 C :   -0.012899
  23 S :    0.117180
  24 C :   -0.031735
  25 C :   -0.081809
  26 C :    0.053401
  27 C :   -0.040991
  28 C :   -0.031363
  29 C :    0.097140
  30 C :    0.156782
  31 C :   -0.186013
  32 C :    0.013238
  33 C :    0.081712
  34 C :   -0.251535
  35 S :    0.134466
  36 C :    0.121474
  37 Cl:   -0.089676
  38 C :   -0.147567
  39 C :    0.069081
  40 C :    0.142444
  41 C :   -0.161582
  42 S :    0.068045
  43 C :   -0.223621
  44 C :    0.042801
  45 C :    0.087637
  46 C :   -0.271778
  47 S :    0.149340
  48 C :    0.125343
  49 Cl:   -0.084680
  50 C :   -0.069890
  51 C :   -0.002416
  52 S :    0.116547
  53 C :   -0.065291
  54 C :   -0.022847
  55 C :    0.060769
  56 C :   -0.165438
  57 Se:    0.281641
  58 C :    0.088582
  59 C :   -0.075065
  60 C :    0.295176
  61 C :   -0.347527
  62 C :   -0.176937
  63 N :    0.144875
  64 C :   -0.186125
  65 N :    0.149450
  66 C :    0.013823
  67 C :    0.006672
  68 C :   -0.033532
  69 C :    0.045997
  70 C :    0.045920
  71 C :   -0.033457
  72 C :    0.209736
  73 C :   -0.331473
  74 C :   -0.177289
  75 N :    0.154816
  76 C :   -0.197271
  77 N :    0.180920
  78 H :    0.035337
  79 H :    0.007172
  80 H :    0.020742
  81 H :    0.028004
  82 H :    0.028813
  83 H :    0.060875
  84 H :    0.001509
  85 H :   -0.005407
  86 H :   -0.008014
  87 H :    0.023870
  88 H :    0.032543
  89 H :    0.037535
  90 H :   -0.006676
  91 H :    0.022357
  92 H :    0.038320
  93 H :    0.036967
  94 H :    0.011798
  95 H :   -0.001032
  96 H :    0.008112
  97 H :    0.017276
  98 H :    0.004698
  99 H :    0.003579
 100 H :    0.002240
 101 H :    0.004751
Sum of atomic charges:   -0.0000000

LOEWDIN ATOMIC CHARGES
----------------------
   0 C :   -0.176969
   1 C :   -0.034325
   2 C :   -0.079795
   3 C :   -0.184614
   4 S :    0.481997
   5 C :   -0.178132
   6 C :   -0.080069
   7 C :    0.088479
   8 C :   -0.111536
   9 C :   -0.014671
  10 N :   -0.035894
  11 C :    0.014382
  12 N :   -0.052954
  13 C :   -0.021984
  14 C :   -0.187855
  15 S :    0.479451
  16 C :   -0.205431
  17 S :    0.333125
  18 C :   -0.211104
  19 C :   -0.203002
  20 S :    0.451851
  21 C :   -0.202225
  22 C :   -0.214931
  23 S :    0.369273
  24 C :   -0.167007
  25 C :   -0.050552
  26 C :   -0.028463
  27 C :   -0.145560
  28 C :   -0.040750
  29 C :   -0.030778
  30 C :   -0.041462
  31 C :   -0.171522
  32 C :   -0.066901
  33 C :   -0.178149
  34 C :   -0.197033
  35 S :    0.437317
  36 C :   -0.060962
  37 Cl:    0.126372
  38 C :   -0.144741
  39 C :   -0.047742
  40 C :   -0.061480
  41 C :   -0.142259
  42 S :    0.420360
  43 C :   -0.173247
  44 C :   -0.084089
  45 C :   -0.179026
  46 C :   -0.196706
  47 S :    0.460314
  48 C :   -0.060452
  49 Cl:    0.136738
  50 C :   -0.051227
  51 C :   -0.171820
  52 S :    0.402579
  53 C :   -0.129704
  54 C :   -0.055564
  55 C :   -0.010923
  56 C :   -0.177592
  57 Se:    0.487763
  58 C :    0.049790
  59 C :   -0.070811
  60 C :    0.080580
  61 C :   -0.140913
  62 C :   -0.020501
  63 N :   -0.052112
  64 C :   -0.019258
  65 N :   -0.053429
  66 C :   -0.013123
  67 C :   -0.010419
  68 C :   -0.000043
  69 C :    0.002071
  70 C :   -0.000213
  71 C :    0.004118
  72 C :    0.067112
  73 C :   -0.135272
  74 C :   -0.020706
  75 N :   -0.051051
  76 C :   -0.019194
  77 N :   -0.039657
  78 H :    0.027456
  79 H :    0.040484
  80 H :    0.043896
  81 H :    0.026709
  82 H :    0.026650
  83 H :    0.024842
  84 H :    0.033579
  85 H :    0.034204
  86 H :    0.034615
  87 H :    0.033841
  88 H :    0.038362
  89 H :    0.040155
  90 H :    0.017060
  91 H :    0.033477
  92 H :    0.041118
  93 H :    0.040371
  94 H :    0.011910
  95 H :    0.031590
  96 H :    0.033365
  97 H :    0.045107
  98 H :    0.040393
  99 H :    0.037035
 100 H :    0.036793
 101 H :    0.041219

  Mayer bond orders larger than 0.100000
B(  0-C ,  1-C ) :   1.5484 B(  0-C ,  4-S ) :   1.1514 B(  0-C , 78-H ) :   0.9644
B(  1-C ,  2-C ) :   1.2762 B(  1-C , 79-H ) :   0.9974 B(  2-C ,  3-C ) :   1.4608
B(  2-C ,  7-C ) :   1.0156 B(  3-C ,  4-S ) :   1.1405 B(  3-C ,  5-C ) :   1.1722
B(  5-C ,  6-C ) :   1.4582 B(  5-C , 15-S ) :   1.1370 B(  6-C ,  7-C ) :   0.9980
B(  6-C , 13-C ) :   1.2666 B(  7-C ,  8-C ) :   1.6946 B(  8-C ,  9-C ) :   1.1500
B(  8-C , 11-C ) :   1.1509 B(  9-C , 10-N ) :   2.9572 B( 11-C , 12-N ) :   2.9127
B( 13-C , 14-C ) :   1.4948 B( 13-C , 80-H ) :   0.9983 B( 14-C , 15-S ) :   1.1061
B( 14-C , 16-C ) :   1.0738 B( 16-C , 17-S ) :   0.9924 B( 16-C , 24-C ) :   1.6870
B( 17-S , 18-C ) :   0.9871 B( 18-C , 19-C ) :   1.5968 B( 18-C , 22-C ) :   1.2665
B( 19-C , 20-S ) :   1.1740 B( 19-C , 81-H ) :   0.9695 B( 20-S , 21-C ) :   1.1795
B( 21-C , 22-C ) :   1.5953 B( 21-C , 82-H ) :   0.9695 B( 22-C , 23-S ) :   0.9725
B( 23-S , 24-C ) :   1.0398 B( 24-C , 25-C ) :   1.1340 B( 25-C , 26-C ) :   1.7211
B( 25-C , 83-H ) :   0.9338 B( 26-C , 27-C ) :   1.1206 B( 26-C , 84-H ) :   0.9807
B( 27-C , 28-C ) :   1.5492 B( 27-C , 42-S ) :   1.0537 B( 28-C , 29-C ) :   1.1782
B( 28-C , 85-H ) :   0.9948 B( 29-C , 30-C ) :   1.3064 B( 29-C , 41-C ) :   1.2729
B( 30-C , 31-C ) :   1.0170 B( 30-C , 38-C ) :   1.3966 B( 31-C , 32-C ) :   1.5286
B( 31-C , 35-S ) :   1.1313 B( 32-C , 33-C ) :   1.2221 B( 32-C , 86-H ) :   1.0111
B( 33-C , 34-C ) :   1.5984 B( 33-C , 37-Cl) :   1.0055 B( 34-C , 35-S ) :   1.1275
B( 34-C , 36-C ) :   1.0830 B( 36-C , 87-H ) :   0.9446 B( 36-C , 88-H ) :   0.9487
B( 36-C , 89-H ) :   0.9483 B( 38-C , 39-C ) :   1.2787 B( 38-C , 52-S ) :   1.0625
B( 39-C , 40-C ) :   1.2763 B( 39-C , 50-C ) :   1.1997 B( 40-C , 41-C ) :   1.4331
B( 40-C , 43-C ) :   1.0096 B( 41-C , 42-S ) :   1.0611 B( 43-C , 44-C ) :   1.5426
B( 43-C , 46-C ) :   0.1004 B( 43-C , 47-S ) :   1.1333 B( 44-C , 45-C ) :   1.2343
B( 44-C , 90-H ) :   0.9687 B( 45-C , 46-C ) :   1.5989 B( 45-C , 49-Cl) :   1.0041
B( 46-C , 47-S ) :   1.1337 B( 46-C , 48-C ) :   1.0840 B( 48-C , 91-H ) :   0.9445
B( 48-C , 92-H ) :   0.9473 B( 48-C , 93-H ) :   0.9477 B( 50-C , 51-C ) :   1.5571
B( 50-C , 94-H ) :   0.9564 B( 51-C , 52-S ) :   1.0585 B( 51-C , 53-C ) :   1.1562
B( 53-C , 54-C ) :   1.4299 B( 53-C , 57-Se) :   1.1705 B( 54-C , 55-C ) :   1.3459
B( 54-C , 95-H ) :   0.9977 B( 55-C , 56-C ) :   1.4120 B( 55-C , 96-H ) :   0.9894
B( 56-C , 57-Se) :   1.0704 B( 56-C , 58-C ) :   1.2100 B( 58-C , 59-C ) :   1.5750
B( 58-C , 97-H ) :   0.9181 B( 59-C , 60-C ) :   1.0729 B( 59-C , 72-C ) :   1.0274
B( 60-C , 61-C ) :   1.6237 B( 60-C , 66-C ) :   0.9963 B( 61-C , 62-C ) :   1.1368
B( 61-C , 64-C ) :   1.1460 B( 62-C , 63-N ) :   2.9701 B( 64-C , 65-N ) :   2.9743
B( 66-C , 67-C ) :   1.3150 B( 66-C , 71-C ) :   1.3835 B( 67-C , 68-C ) :   1.3825
B( 67-C , 72-C ) :   1.0092 B( 68-C , 69-C ) :   1.3639 B( 68-C , 98-H ) :   0.9882
B( 69-C , 70-C ) :   1.3787 B( 69-C , 99-H ) :   0.9864 B( 70-C , 71-C ) :   1.3688
B( 70-C ,100-H ) :   0.9863 B( 71-C ,101-H ) :   0.9839 B( 72-C , 73-C ) :   1.6519
B( 73-C , 74-C ) :   1.1365 B( 73-C , 76-C ) :   1.1549 B( 74-C , 75-N ) :   2.9920
B( 76-C , 77-N ) :   3.0114

-----------------------------------------------------------------------------
         ABSORPTION SPECTRUM VIA TRANSITION ELECTRIC DIPOLE MOMENTS
-----------------------------------------------------------------------------
State   Energy  Wavelength   fosc         T2         TX        TY        TZ
        (cm-1)    (nm)                  (au**2)     (au)      (au)      (au)
-----------------------------------------------------------------------------
   0   11924.0    838.6   0.016028231   0.44253   0.40263  -0.52908   0.02218
   1   15350.5    651.4   0.029122810   0.62458   0.28224   0.17397  -0.71739
   2   16624.8    601.5   0.915276611  18.12468  -2.58953   2.92710  -1.68852
   3   19015.2    525.9   0.005188876   0.08984   0.28413   0.06923  -0.06567
   4   20573.5    486.1   0.025709209   0.41139   0.30892   0.42829   0.36404
   5   21062.8    474.8   0.040141193   0.62741   0.62073  -0.48934   0.05140
   6   21488.0    465.4   0.357102261   5.47107  -2.06007   0.87788   0.67565
   7   22727.2    440.0   0.223514892   3.23769   1.27909   0.82306  -0.96136
   8   24233.3    412.7   0.042060634   0.57140   0.02031  -0.40319   0.63908
   9   24361.0    410.5   0.239599716   3.23793   0.38023   0.63906  -1.63858
  10   26240.7    381.1   0.018579020   0.23309   0.04967  -0.34700   0.33199
  11   26293.6    380.3   0.076951987   0.96349   0.87585   0.18564  -0.40237
  12   27300.3    366.3   0.086282024   1.04047  -0.71039   0.66755  -0.30032
  13   27517.1    363.4   0.231514657   2.76982  -1.23107   0.36709  -1.05808
  14   27893.7    358.5   0.006611225   0.07803  -0.14183  -0.22988   0.07121
  15   28083.0    356.1   0.031514889   0.36944   0.07866   0.23348   0.55565
  16   28815.7    347.0   0.104628235   1.19535  -0.31560   0.15944  -1.03456
  17   28960.9    345.3   0.108044400   1.22819   0.26995  -0.92653   0.54485
  18   29427.2    339.8   0.029276013   0.32752  -0.26978  -0.16049   0.47852
  19   29621.3    337.6   0.030312561   0.33689  -0.20920   0.45640   0.29126
  20   29707.1    336.6   0.009151052   0.10141   0.14277   0.20999  -0.19218
  21   29759.6    336.0   0.050135675   0.55462   0.11814  -0.70108  -0.22169
  22   30212.3    331.0   0.085917052   0.93620   0.45301   0.24735  -0.81842
  23   30375.8    329.2   0.049901180   0.54083   0.56937  -0.33228  -0.32594
  24   31219.8    320.3   0.168710446   1.77905   1.25629   0.23189  -0.38342
  25   31415.9    318.3   0.036880473   0.38648   0.36108   0.50482  -0.03544
  26   31499.9    317.5   0.307267045   3.21131   1.14101  -1.38050  -0.06021
  27   31861.8    313.9   0.204869151   2.11681   1.21624  -0.79845  -0.00693
  28   32044.7    312.1   0.407103694   4.18239   0.76291   0.53341  -1.82095
  29   32453.7    308.1   0.021039599   0.21343  -0.31360   0.33773   0.03188
  30   32620.3    306.6   0.037673387   0.38021   0.34542  -0.16524   0.48331
  31   32794.5    304.9   0.191525131   1.92265   0.04717   0.72967  -1.17814
  32   33043.2    302.6   0.048181548   0.48004  -0.28810   0.46369  -0.42664
  33   33559.3    298.0   0.898759675   8.81671  -1.49669   2.47381   0.67596
  34   33727.8    296.5   0.478605333   4.67159   1.92344   0.73985  -0.65161
  35   33858.5    295.3   0.037835884   0.36788  -0.38518   0.31720   0.34483
  36   33908.7    294.9   0.005457297   0.05298   0.20575  -0.06117   0.08311
  37   34194.0    292.4   0.004537569   0.04369   0.20029  -0.05973  -0.00202
  38   34635.3    288.7   0.422523317   4.01612   0.00756   1.09842  -1.67617
  39   34777.3    287.5   0.032286029   0.30563  -0.37762  -0.15696   0.37202
  40   34861.7    286.8   0.038712532   0.36558  -0.24017   0.53385   0.15131
  41   34963.4    286.0   0.136751789   1.28764  -0.48482  -1.02310  -0.07655
  42   35437.8    282.2   0.157713339   1.46513  -0.79883   0.62656  -0.65910
  43   35551.4    281.3   0.004401553   0.04076   0.12027  -0.14894  -0.06412
  44   35896.3    278.6   0.060496140   0.55482   0.51988  -0.51356   0.14423
  45   36040.8    277.5   0.017263256   0.15769   0.27416  -0.18070  -0.22332
  46   36436.3    274.5   0.008406005   0.07595   0.05282  -0.06660   0.26215
  47   36552.9    273.6   0.032219508   0.29018  -0.33128   0.18686   0.38147
  48   36559.7    273.5   0.028722019   0.25864  -0.00184  -0.30696  -0.40547
  49   36847.1    271.4   0.018470023   0.16502  -0.19334  -0.02748  -0.35621
  50   36987.2    270.4   0.005003971   0.04454  -0.08736  -0.05760  -0.18327
  51   37092.7    269.6   0.006285774   0.05579   0.13258  -0.19546   0.00264
  52   37452.6    267.0   0.106168496   0.93323  -0.05353   0.04367  -0.96357
  53   37701.2    265.2   0.068510569   0.59824   0.14815  -0.66694  -0.36261
  54   37838.2    264.3   0.078367114   0.68183  -0.17414  -0.66162  -0.46235
  55   37873.6    264.0   0.029469122   0.25616  -0.38529  -0.19933  -0.26072
  56   38379.0    260.6   0.001243610   0.01067  -0.03308   0.04669   0.08599
  57   38716.7    258.3   0.046993406   0.39959  -0.16289   0.57897   0.19455
  58   38816.9    257.6   0.087614543   0.74307   0.17331  -0.78938   0.29986
  59   39355.3    254.1   0.022193458   0.18565   0.40070   0.00793  -0.15819
  60   39651.5    252.2   0.058699564   0.48736  -0.17005  -0.12390   0.66565
  61   39859.6    250.9   0.022870613   0.18889   0.00468   0.36257   0.23962
  62   40124.6    249.2   0.013951333   0.11447   0.12806  -0.09944  -0.29695

FINAL SINGLE POINT ENERGY     -9529.904507042191

DIPOLE MOMENT
-------------
                                X             Y             Z
Electronic contribution:      8.89208     -13.75881     -14.52030
Nuclear contribution   :     -9.38551      16.28656      14.54252
                        -----------------------------------------
Total Dipole Moment    :     -0.49344       2.52775       0.02222
                        -----------------------------------------
Magnitude (a.u.)       :      2.57556
Magnitude (Debye)      :      6.54654

Rotational constants in cm-1:     0.000933     0.000348     0.000297
Rotational constants in MHz :    27.980840    10.419276     8.897274

                             ****ORCA TERMINATED NORMALLY****
TOTAL RUN TIME: 0 days 0 hours 14 minutes 47 seconds 160 msec
