                         Program Version 4.2.0 -  RELEASE  -
|  1> # ORCA input file
|  2> # SCF done       -185.521742617473          0.000600100798
|  3> ! CAM-B3LYP def2-SVP def2/J RIJCOSX Grid4 TightSCF
|  4> %maxcore 5000
|  5> %tddft
|  6>     Mode sTDDFT
|  7>     Ethresh 5.0
|  8>     maxcore 5000
|  9> end
| 10>
| 11> %pal
| 12>   nprocs 6
| 13>   end
| 14> * xyz 0 1
| 15>    C       -1.68925         0.32119         6.79352
| 16>    C       -1.34667         1.57923         7.18392
| 17>    C       -1.26829         2.45500         6.08347
| 18>    C       -1.56105         1.81564         4.87058
| 19>    S       -1.92689         0.16158         5.08307
| 20>    C       -1.46067         2.76637         3.81962
| 21>    C       -1.10311         4.00534         4.37246
| 22>    C       -0.97173         3.84752         5.81863
| 23>    C       -0.64173         4.81684         6.72070
| 24>    C       -0.37615         6.14587         6.33056
| 25>    N       -0.16093         7.22772         6.01617
| 26>    C       -0.54500         4.55435         8.10322
| 27>    N       -0.46546         4.34638         9.22808
| 28>    C       -0.98060         5.01215         3.42031
| 29>    C       -1.24443         4.55259         2.13711
| 30>    S       -1.64745         2.84099         2.12301
| 31>    C       -1.22170         5.31402         0.95009
| 32>    S       -0.81254         7.00891         1.00724
| 33>    C       -1.01975         7.22079        -0.71521
| 34>    C       -1.38638         6.01424        -1.28442
| 35>    C       -1.49776         4.93401        -0.36359
| 36>    C       -1.85113         3.72679        -1.01080
| 37>    C       -1.99491         3.88935        -2.35625
| 38>    C       -2.33174         2.88036        -3.36297
| 39>    O       -2.42264         3.10318        -4.54390
| 40>    O       -2.52334         1.67204        -2.80927
| 41>    C       -2.84772         0.62993        -3.71893
| 42>    S       -1.71789         5.52340        -2.91346
| 43>    C       -0.82290         8.47579        -1.33470
| 44>    C       -1.10266         8.81731        -2.64852
| 45>    C       -0.78771        10.14738        -2.91658
| 46>    C       -0.25135        10.82371        -1.80340
| 47>    S       -0.15357         9.82221        -0.42213
| 48>    C        0.04089        12.15335        -2.17944
| 49>    C       -0.31989        12.33011        -3.52890
| 50>    C       -0.85552        11.07394        -4.03412
| 51>    C       -1.32972        10.82741        -5.28848
| 52>    C       -1.34733        11.82029        -6.29077
| 53>    N       -1.36297        12.62722        -7.10530
| 54>    C       -1.84164         9.56783        -5.66683
| 55>    N       -2.26485         8.54953        -5.97984
| 56>    C       -0.07060        13.61543        -3.99500
| 57>    C        0.48998        14.42810        -3.01796
| 58>    S        0.70002        13.57427        -1.49337
| 59>    C        0.86395        15.77860        -3.16405
| 60>    S        0.52420        16.62315        -4.65299
| 61>    C        1.23530        18.11528        -4.08743
| 62>    C        1.71215        17.93771        -2.80101
| 63>    C        1.50797        16.63300        -2.26834
| 64>    C        2.02137        16.51429        -0.95616
| 65>    C        2.58465        17.67605        -0.51899
| 66>    C        3.22291        17.94442         0.77189
| 67>    O        3.69247        19.00760         1.09048
| 68>    O        3.22399        16.85603         1.55835
| 69>    C        3.83003        17.02462         2.83232
| 70>    S        2.52071        18.98295        -1.67841
| 71>    C        1.26285        19.27208        -4.90126
| 72>    C        1.82477        20.50218        -4.59884
| 73>    C        1.65712        21.41556        -5.63854
| 74>    C        0.96376        20.88216        -6.73487
| 75>    S        0.51955        19.25202        -6.49304
| 76>    C        0.84364        21.89320        -7.72840
| 77>    C        1.46151        23.05895        -7.25820
| 78>    C        1.99716        22.80363        -5.93496
| 79>    C        2.68103        23.67038        -5.13410
| 80>    C        2.95720        24.99669        -5.52754
| 81>    N        3.18389        26.07575        -5.84261
| 82>    C        3.16353        23.30058        -3.86072
| 83>    N        3.56164        23.00872        -2.82600
| 84>    C        1.38642        24.11722        -8.18424
| 85>    C        0.72650        23.74109        -9.31415
| 86>    S        0.17947        22.09639        -9.28762
| 87>    H       -1.82185        -0.54523         7.40989
| 88>    H       -1.16183         1.85780         8.20520
| 89>    H       -0.71725         6.03481         3.62292
| 90>    H       -1.98951         2.77951        -0.52435
| 91>    H       -2.98160        -0.26526        -3.11754
| 92>    H       -2.03992         0.49205        -4.44059
| 93>    H       -3.76414         0.87134        -4.26118
| 94>    H       -1.52217         8.12599        -3.35568
| 95>    H       -0.27096        13.96817        -4.99081
| 96>    H        1.98682        15.62541        -0.35464
| 97>    H        3.75067        16.06387         3.33391
| 98>    H        3.31097        17.79986         3.39955
| 99>    H        4.87642        17.31521         2.71867
|100>    H        2.32584        20.70485        -3.67051
|101>    H        1.79342        25.09964        -8.02951
|102>    H        0.51948        24.33434       -10.18215
|103> *
|104>
|105>                          ****END OF INPUT****

CARTESIAN COORDINATES (ANGSTROEM)
---------------------------------
  C     -1.689250    0.321190    6.793520
  C     -1.346670    1.579230    7.183920
  C     -1.268290    2.455000    6.083470
  C     -1.561050    1.815640    4.870580
  S     -1.926890    0.161580    5.083070
  C     -1.460670    2.766370    3.819620
  C     -1.103110    4.005340    4.372460
  C     -0.971730    3.847520    5.818630
  C     -0.641730    4.816840    6.720700
  C     -0.376150    6.145870    6.330560
  N     -0.160930    7.227720    6.016170
  C     -0.545000    4.554350    8.103220
  N     -0.465460    4.346380    9.228080
  C     -0.980600    5.012150    3.420310
  C     -1.244430    4.552590    2.137110
  S     -1.647450    2.840990    2.123010
  C     -1.221700    5.314020    0.950090
  S     -0.812540    7.008910    1.007240
  C     -1.019750    7.220790   -0.715210
  C     -1.386380    6.014240   -1.284420
  C     -1.497760    4.934010   -0.363590
  C     -1.851130    3.726790   -1.010800
  C     -1.994910    3.889350   -2.356250
  C     -2.331740    2.880360   -3.362970
  O     -2.422640    3.103180   -4.543900
  O     -2.523340    1.672040   -2.809270
  C     -2.847720    0.629930   -3.718930
  S     -1.717890    5.523400   -2.913460
  C     -0.822900    8.475790   -1.334700
  C     -1.102660    8.817310   -2.648520
  C     -0.787710   10.147380   -2.916580
  C     -0.251350   10.823710   -1.803400
  S     -0.153570    9.822210   -0.422130
  C      0.040890   12.153350   -2.179440
  C     -0.319890   12.330110   -3.528900
  C     -0.855520   11.073940   -4.034120
  C     -1.329720   10.827410   -5.288480
  C     -1.347330   11.820290   -6.290770
  N     -1.362970   12.627220   -7.105300
  C     -1.841640    9.567830   -5.666830
  N     -2.264850    8.549530   -5.979840
  C     -0.070600   13.615430   -3.995000
  C      0.489980   14.428100   -3.017960
  S      0.700020   13.574270   -1.493370
  C      0.863950   15.778600   -3.164050
  S      0.524200   16.623150   -4.652990
  C      1.235300   18.115280   -4.087430
  C      1.712150   17.937710   -2.801010
  C      1.507970   16.633000   -2.268340
  C      2.021370   16.514290   -0.956160
  C      2.584650   17.676050   -0.518990
  C      3.222910   17.944420    0.771890
  O      3.692470   19.007600    1.090480
  O      3.223990   16.856030    1.558350
  C      3.830030   17.024620    2.832320
  S      2.520710   18.982950   -1.678410
  C      1.262850   19.272080   -4.901260
  C      1.824770   20.502180   -4.598840
  C      1.657120   21.415560   -5.638540
  C      0.963760   20.882160   -6.734870
  S      0.519550   19.252020   -6.493040
  C      0.843640   21.893200   -7.728400
  C      1.461510   23.058950   -7.258200
  C      1.997160   22.803630   -5.934960
  C      2.681030   23.670380   -5.134100
  C      2.957200   24.996690   -5.527540
  N      3.183890   26.075750   -5.842610
  C      3.163530   23.300580   -3.860720
  N      3.561640   23.008720   -2.826000
  C      1.386420   24.117220   -8.184240
  C      0.726500   23.741090   -9.314150
  S      0.179470   22.096390   -9.287620
  H     -1.821850   -0.545230    7.409890
  H     -1.161830    1.857800    8.205200
  H     -0.717250    6.034810    3.622920
  H     -1.989510    2.779510   -0.524350
  H     -2.981600   -0.265260   -3.117540
  H     -2.039920    0.492050   -4.440590
  H     -3.764140    0.871340   -4.261180
  H     -1.522170    8.125990   -3.355680
  H     -0.270960   13.968170   -4.990810
  H      1.986820   15.625410   -0.354640
  H      3.750670   16.063870    3.333910
  H      3.310970   17.799860    3.399550
  H      4.876420   17.315210    2.718670
  H      2.325840   20.704850   -3.670510
  H      1.793420   25.099640   -8.029510
  H      0.519480   24.334340  -10.182150

 Total Charge           Charge          ....    0
 Multiplicity           Mult            ....    1
 Number of Electrons    NEL             ....  562
 Basis Dimension        Dim             .... 1128

ORBITAL ENERGIES
----------------

  NO   OCC          E(Eh)            E(eV)
   0   2.0000     -88.995495     -2421.6905
   1   2.0000     -88.992798     -2421.6171
   2   2.0000     -88.991232     -2421.5745
   3   2.0000     -88.990203     -2421.5465
   4   2.0000     -88.985779     -2421.4261
   5   2.0000     -88.982387     -2421.3338
   6   2.0000     -88.981774     -2421.3172
   7   2.0000     -88.977937     -2421.2128
   8   2.0000     -88.966915     -2420.9128
   9   2.0000     -88.963121     -2420.8096
  10   2.0000     -19.267520      -524.2959
  11   2.0000     -19.263538      -524.1875
  12   2.0000     -19.211773      -522.7789
  13   2.0000     -19.207816      -522.6712
  14   2.0000     -14.432470      -392.7275
  15   2.0000     -14.431404      -392.6985
  16   2.0000     -14.431248      -392.6942
  17   2.0000     -14.429579      -392.6488
  18   2.0000     -14.423974      -392.4963
  19   2.0000     -14.422965      -392.4688
  20   2.0000     -10.411194      -283.3030
  21   2.0000     -10.407242      -283.1955
  22   2.0000     -10.365972      -282.0724
  23   2.0000     -10.365656      -282.0638
  24   2.0000     -10.357743      -281.8485
  25   2.0000     -10.353600      -281.7358
  26   2.0000     -10.352328      -281.7012
  27   2.0000     -10.345213      -281.5075
  28   2.0000     -10.333847      -281.1983
  29   2.0000     -10.332956      -281.1740
  30   2.0000     -10.332926      -281.1732
  31   2.0000     -10.332807      -281.1700
  32   2.0000     -10.332695      -281.1669
  33   2.0000     -10.332508      -281.1618
  34   2.0000     -10.331816      -281.1430
  35   2.0000     -10.331662      -281.1388
  36   2.0000     -10.331452      -281.1331
  37   2.0000     -10.331160      -281.1252
  38   2.0000     -10.330743      -281.1138
  39   2.0000     -10.329396      -281.0771
  40   2.0000     -10.328817      -281.0614
  41   2.0000     -10.328745      -281.0594
  42   2.0000     -10.328075      -281.0412
  43   2.0000     -10.325568      -280.9730
  44   2.0000     -10.325193      -280.9628
  45   2.0000     -10.325148      -280.9615
  46   2.0000     -10.324579      -280.9461
  47   2.0000     -10.324358      -280.9401
  48   2.0000     -10.324073      -280.9323
  49   2.0000     -10.323095      -280.9057
  50   2.0000     -10.319651      -280.8120
  51   2.0000     -10.317579      -280.7556
  52   2.0000     -10.315845      -280.7084
  53   2.0000     -10.313798      -280.6527
  54   2.0000     -10.313622      -280.6479
  55   2.0000     -10.306346      -280.4499
  56   2.0000     -10.306153      -280.4447
  57   2.0000     -10.304946      -280.4118
  58   2.0000     -10.304414      -280.3974
  59   2.0000     -10.303711      -280.3782
  60   2.0000     -10.303218      -280.3648
  61   2.0000     -10.302887      -280.3558
  62   2.0000     -10.302515      -280.3457
  63   2.0000     -10.301736      -280.3245
  64   2.0000     -10.301250      -280.3113
  65   2.0000     -10.299810      -280.2721
  66   2.0000     -10.299519      -280.2642
  67   2.0000     -10.298985      -280.2496
  68   2.0000     -10.297568      -280.2111
  69   2.0000     -10.296424      -280.1799
  70   2.0000     -10.293521      -280.1009
  71   2.0000     -10.292384      -280.0700
  72   2.0000      -8.089584      -220.1288
  73   2.0000      -8.086837      -220.0540
  74   2.0000      -8.085872      -220.0278
  75   2.0000      -8.085175      -220.0088
  76   2.0000      -8.080563      -219.8833
  77   2.0000      -8.077444      -219.7984
  78   2.0000      -8.076586      -219.7751
  79   2.0000      -8.072716      -219.6698
  80   2.0000      -8.061583      -219.3668
  81   2.0000      -8.057687      -219.2608
  82   2.0000      -6.058949      -164.8724
  83   2.0000      -6.056235      -164.7985
  84   2.0000      -6.055230      -164.7712
  85   2.0000      -6.054727      -164.7575
  86   2.0000      -6.054447      -164.7499
  87   2.0000      -6.051980      -164.6828
  88   2.0000      -6.051854      -164.6793
  89   2.0000      -6.050989      -164.6558
  90   2.0000      -6.049975      -164.6282
  91   2.0000      -6.049889      -164.6259
  92   2.0000      -6.049076      -164.6037
  93   2.0000      -6.048086      -164.5768
  94   2.0000      -6.047784      -164.5686
  95   2.0000      -6.046717      -164.5395
  96   2.0000      -6.046089      -164.5224
  97   2.0000      -6.045672      -164.5111
  98   2.0000      -6.042783      -164.4325
  99   2.0000      -6.042245      -164.4178
 100   2.0000      -6.042231      -164.4175
 101   2.0000      -6.041874      -164.4077
 102   2.0000      -6.040034      -164.3577
 103   2.0000      -6.038437      -164.3142
 104   2.0000      -6.038003      -164.3024
 105   2.0000      -6.034579      -164.2092
 106   2.0000      -6.031433      -164.1236
 107   2.0000      -6.027536      -164.0176
 108   2.0000      -6.027094      -164.0056
 109   2.0000      -6.023200      -163.8996
 110   2.0000      -6.022773      -163.8880
 111   2.0000      -6.018902      -163.7826
 112   2.0000      -1.198668       -32.6174
 113   2.0000      -1.194745       -32.5107
 114   2.0000      -1.105614       -30.0853
 115   2.0000      -1.101688       -29.9784
 116   2.0000      -1.046398       -28.4739
 117   2.0000      -1.045525       -28.4502
 118   2.0000      -1.038188       -28.2505
 119   2.0000      -1.027828       -27.9686
 120   2.0000      -1.024171       -27.8691
 121   2.0000      -1.022915       -27.8349
 122   2.0000      -1.020015       -27.7560
 123   2.0000      -1.014746       -27.6126
 124   2.0000      -1.009416       -27.4676
 125   2.0000      -1.007915       -27.4268
 126   2.0000      -1.001098       -27.2413
 127   2.0000      -0.998756       -27.1775
 128   2.0000      -0.995151       -27.0794
 129   2.0000      -0.989111       -26.9151
 130   2.0000      -0.967536       -26.3280
 131   2.0000      -0.962234       -26.1837
 132   2.0000      -0.957820       -26.0636
 133   2.0000      -0.953427       -25.9441
 134   2.0000      -0.947974       -25.7957
 135   2.0000      -0.921477       -25.0747
 136   2.0000      -0.912361       -24.8266
 137   2.0000      -0.903816       -24.5941
 138   2.0000      -0.885669       -24.1003
 139   2.0000      -0.879292       -23.9267
 140   2.0000      -0.870377       -23.6842
 141   2.0000      -0.866085       -23.5674
 142   2.0000      -0.861896       -23.4534
 143   2.0000      -0.857726       -23.3399
 144   2.0000      -0.855962       -23.2919
 145   2.0000      -0.853520       -23.2255
 146   2.0000      -0.852653       -23.2019
 147   2.0000      -0.845524       -23.0079
 148   2.0000      -0.833571       -22.6826
 149   2.0000      -0.826757       -22.4972
 150   2.0000      -0.810431       -22.0530
 151   2.0000      -0.807073       -21.9616
 152   2.0000      -0.803230       -21.8570
 153   2.0000      -0.790792       -21.5185
 154   2.0000      -0.779563       -21.2130
 155   2.0000      -0.776255       -21.1230
 156   2.0000      -0.770436       -20.9646
 157   2.0000      -0.761572       -20.7234
 158   2.0000      -0.742877       -20.2147
 159   2.0000      -0.727311       -19.7911
 160   2.0000      -0.722438       -19.6585
 161   2.0000      -0.716398       -19.4942
 162   2.0000      -0.705776       -19.2052
 163   2.0000      -0.701194       -19.0804
 164   2.0000      -0.696800       -18.9609
 165   2.0000      -0.693291       -18.8654
 166   2.0000      -0.684821       -18.6349
 167   2.0000      -0.681868       -18.5546
 168   2.0000      -0.675638       -18.3850
 169   2.0000      -0.665521       -18.1098
 170   2.0000      -0.656198       -17.8560
 171   2.0000      -0.650117       -17.6906
 172   2.0000      -0.645158       -17.5556
 173   2.0000      -0.641309       -17.4509
 174   2.0000      -0.640647       -17.4329
 175   2.0000      -0.638169       -17.3655
 176   2.0000      -0.632910       -17.2224
 177   2.0000      -0.625631       -17.0243
 178   2.0000      -0.619625       -16.8608
 179   2.0000      -0.616532       -16.7767
 180   2.0000      -0.613676       -16.6990
 181   2.0000      -0.609869       -16.5954
 182   2.0000      -0.607366       -16.5273
 183   2.0000      -0.604809       -16.4577
 184   2.0000      -0.590575       -16.0704
 185   2.0000      -0.587109       -15.9761
 186   2.0000      -0.580965       -15.8089
 187   2.0000      -0.577932       -15.7263
 188   2.0000      -0.574019       -15.6198
 189   2.0000      -0.572816       -15.5871
 190   2.0000      -0.562476       -15.3057
 191   2.0000      -0.560201       -15.2439
 192   2.0000      -0.555425       -15.1139
 193   2.0000      -0.551331       -15.0025
 194   2.0000      -0.549488       -14.9523
 195   2.0000      -0.548139       -14.9156
 196   2.0000      -0.543089       -14.7782
 197   2.0000      -0.540734       -14.7141
 198   2.0000      -0.540088       -14.6966
 199   2.0000      -0.530599       -14.4383
 200   2.0000      -0.528381       -14.3780
 201   2.0000      -0.523614       -14.2483
 202   2.0000      -0.522196       -14.2097
 203   2.0000      -0.515020       -14.0144
 204   2.0000      -0.511799       -13.9268
 205   2.0000      -0.507713       -13.8156
 206   2.0000      -0.506032       -13.7698
 207   2.0000      -0.504907       -13.7392
 208   2.0000      -0.503762       -13.7081
 209   2.0000      -0.503693       -13.7062
 210   2.0000      -0.500223       -13.6118
 211   2.0000      -0.499096       -13.5811
 212   2.0000      -0.497633       -13.5413
 213   2.0000      -0.496110       -13.4998
 214   2.0000      -0.493320       -13.4239
 215   2.0000      -0.492681       -13.4065
 216   2.0000      -0.489581       -13.3222
 217   2.0000      -0.488754       -13.2997
 218   2.0000      -0.485707       -13.2168
 219   2.0000      -0.485389       -13.2081
 220   2.0000      -0.483629       -13.1602
 221   2.0000      -0.476912       -12.9774
 222   2.0000      -0.475938       -12.9509
 223   2.0000      -0.473888       -12.8951
 224   2.0000      -0.469369       -12.7722
 225   2.0000      -0.467610       -12.7243
 226   2.0000      -0.464818       -12.6483
 227   2.0000      -0.463362       -12.6087
 228   2.0000      -0.461561       -12.5597
 229   2.0000      -0.459489       -12.5033
 230   2.0000      -0.457915       -12.4605
 231   2.0000      -0.454819       -12.3762
 232   2.0000      -0.453901       -12.3513
 233   2.0000      -0.451344       -12.2817
 234   2.0000      -0.450888       -12.2693
 235   2.0000      -0.449751       -12.2383
 236   2.0000      -0.444365       -12.0918
 237   2.0000      -0.442810       -12.0495
 238   2.0000      -0.442157       -12.0317
 239   2.0000      -0.440876       -11.9968
 240   2.0000      -0.440558       -11.9882
 241   2.0000      -0.440518       -11.9871
 242   2.0000      -0.439523       -11.9600
 243   2.0000      -0.438381       -11.9290
 244   2.0000      -0.436960       -11.8903
 245   2.0000      -0.436089       -11.8666
 246   2.0000      -0.433861       -11.8060
 247   2.0000      -0.433332       -11.7916
 248   2.0000      -0.432273       -11.7627
 249   2.0000      -0.430101       -11.7036
 250   2.0000      -0.428733       -11.6664
 251   2.0000      -0.428439       -11.6584
 252   2.0000      -0.426546       -11.6069
 253   2.0000      -0.424734       -11.5576
 254   2.0000      -0.422068       -11.4851
 255   2.0000      -0.420582       -11.4446
 256   2.0000      -0.417391       -11.3578
 257   2.0000      -0.412149       -11.2151
 258   2.0000      -0.404925       -11.0186
 259   2.0000      -0.397403       -10.8139
 260   2.0000      -0.391108       -10.6426
 261   2.0000      -0.385493       -10.4898
 262   2.0000      -0.381533       -10.3821
 263   2.0000      -0.367689       -10.0053
 264   2.0000      -0.365299        -9.9403
 265   2.0000      -0.361379        -9.8336
 266   2.0000      -0.357242        -9.7211
 267   2.0000      -0.352047        -9.5797
 268   2.0000      -0.350989        -9.5509
 269   2.0000      -0.346906        -9.4398
 270   2.0000      -0.342378        -9.3166
 271   2.0000      -0.325760        -8.8644
 272   2.0000      -0.324069        -8.8184
 273   2.0000      -0.322554        -8.7772
 274   2.0000      -0.319828        -8.7030
 275   2.0000      -0.317454        -8.6384
 276   2.0000      -0.314436        -8.5562
 277   2.0000      -0.301429        -8.2023
 278   2.0000      -0.283895        -7.7252
 279   2.0000      -0.248697        -6.7674
 280   2.0000      -0.224551        -6.1103
 281   0.0000      -0.110858        -3.0166
 282   0.0000      -0.104165        -2.8345
 283   0.0000      -0.096598        -2.6286
 284   0.0000      -0.071351        -1.9416
 285   0.0000      -0.061171        -1.6645

MULLIKEN ATOMIC CHARGES
-----------------------
   0 C :   -0.081447
   1 C :    0.035561
   2 C :   -0.031677
   3 C :   -0.110508
   4 S :    0.180142
   5 C :   -0.094212
   6 C :    0.027394
   7 C :    0.294563
   8 C :   -0.297384
   9 C :   -0.182729
  10 N :    0.170370
  11 C :   -0.191294
  12 N :    0.174056
  13 C :   -0.073962
  14 C :   -0.064967
  15 S :    0.164528
  16 C :   -0.075184
  17 S :    0.152212
  18 C :   -0.115494
  19 C :   -0.045080
  20 C :    0.092329
  21 C :   -0.008647
  22 C :   -0.134400
  23 C :    0.207733
  24 O :   -0.191795
  25 O :   -0.306246
  26 C :    0.190434
  27 S :    0.171482
  28 C :   -0.067521
  29 C :   -0.061532
  30 C :    0.008093
  31 C :   -0.094561
  32 S :    0.186871
  33 C :   -0.095661
  34 C :    0.030266
  35 C :    0.303456
  36 C :   -0.300016
  37 C :   -0.187046
  38 N :    0.174248
  39 C :   -0.190931
  40 N :    0.183842
  41 C :   -0.076803
  42 C :   -0.064443
  43 S :    0.167966
  44 C :   -0.079112
  45 S :    0.150912
  46 C :   -0.114454
  47 C :   -0.047283
  48 C :    0.098431
  49 C :   -0.013377
  50 C :   -0.132069
  51 C :    0.205675
  52 O :   -0.190438
  53 O :   -0.305190
  54 C :    0.189678
  55 S :    0.170809
  56 C :   -0.066348
  57 C :   -0.059205
  58 C :    0.006578
  59 C :   -0.102243
  60 S :    0.183997
  61 C :   -0.117103
  62 C :   -0.031464
  63 C :    0.300737
  64 C :   -0.304102
  65 C :   -0.191096
  66 N :    0.173865
  67 C :   -0.187220
  68 N :    0.180122
  69 C :    0.036017
  70 C :   -0.082299
  71 S :    0.179888
  72 H :    0.037216
  73 H :    0.012765
  74 H :    0.014043
  75 H :    0.006807
  76 H :    0.033704
  77 H :    0.036916
  78 H :    0.036796
  79 H :    0.011744
  80 H :    0.013632
  81 H :    0.007062
  82 H :    0.035014
  83 H :    0.036796
  84 H :    0.036705
  85 H :    0.009783
  86 H :    0.010696
  87 H :    0.034609
Sum of atomic charges:   -0.0000000

LOEWDIN ATOMIC CHARGES
----------------------
   0 C :   -0.177876
   1 C :   -0.033391
   2 C :   -0.078804
   3 C :   -0.181701
   4 S :    0.475839
   5 C :   -0.185121
   6 C :   -0.065775
   7 C :    0.083564
   8 C :   -0.102830
   9 C :   -0.015786
  10 N :   -0.035349
  11 C :   -0.016949
  12 N :   -0.031919
  13 C :   -0.035909
  14 C :   -0.178994
  15 S :    0.482175
  16 C :   -0.179978
  17 S :    0.454941
  18 C :   -0.211476
  19 C :   -0.181106
  20 C :   -0.081164
  21 C :   -0.026782
  22 C :   -0.191961
  23 C :    0.064225
  24 O :   -0.168216
  25 O :   -0.095813
  26 C :    0.083275
  27 S :    0.449004
  28 C :   -0.180452
  29 C :   -0.035305
  30 C :   -0.068157
  31 C :   -0.181223
  32 S :    0.465617
  33 C :   -0.183840
  34 C :   -0.066365
  35 C :    0.082169
  36 C :   -0.098570
  37 C :   -0.015512
  38 N :   -0.032426
  39 C :   -0.019195
  40 N :   -0.024962
  41 C :   -0.035934
  42 C :   -0.177799
  43 S :    0.480561
  44 C :   -0.181748
  45 S :    0.454095
  46 C :   -0.209619
  47 C :   -0.181626
  48 C :   -0.080419
  49 C :   -0.027668
  50 C :   -0.191908
  51 C :    0.063700
  52 O :   -0.168000
  53 O :   -0.095402
  54 C :    0.083221
  55 S :    0.449549
  56 C :   -0.182012
  57 C :   -0.035688
  58 C :   -0.067048
  59 C :   -0.183945
  60 S :    0.467109
  61 C :   -0.182547
  62 C :   -0.078684
  63 C :    0.082926
  64 C :   -0.102616
  65 C :   -0.016130
  66 N :   -0.034401
  67 C :   -0.019253
  68 N :   -0.028926
  69 C :   -0.034110
  70 C :   -0.179633
  71 S :    0.475619
  72 H :    0.027906
  73 H :    0.042876
  74 H :    0.035442
  75 H :    0.026845
  76 H :    0.025910
  77 H :    0.025305
  78 H :    0.025404
  79 H :    0.031441
  80 H :    0.035573
  81 H :    0.026951
  82 H :    0.026346
  83 H :    0.025210
  84 H :    0.025325
  85 H :    0.030653
  86 H :    0.042228
  87 H :    0.027016

  Mayer bond orders larger than 0.100000
B(  0-C ,  1-C ) :   1.5517 B(  0-C ,  4-S ) :   1.1448 B(  0-C , 72-H ) :   0.9644
B(  1-C ,  2-C ) :   1.2732 B(  1-C , 73-H ) :   0.9967 B(  2-C ,  3-C ) :   1.4476
B(  2-C ,  7-C ) :   1.0221 B(  3-C ,  4-S ) :   1.1360 B(  3-C ,  5-C ) :   1.1858
B(  5-C ,  6-C ) :   1.4504 B(  5-C , 15-S ) :   1.1170 B(  6-C ,  7-C ) :   0.9863
B(  6-C , 13-C ) :   1.3102 B(  7-C ,  8-C ) :   1.7130 B(  8-C ,  9-C ) :   1.1324
B(  8-C , 11-C ) :   1.1305 B(  9-C , 10-N ) :   2.9893 B( 11-C , 12-N ) :   3.0027
B( 13-C , 14-C ) :   1.4268 B( 13-C , 74-H ) :   0.9878 B( 14-C , 15-S ) :   1.1063
B( 14-C , 16-C ) :   1.1987 B( 16-C , 17-S ) :   1.1348 B( 16-C , 18-C ) :   0.1165
B( 16-C , 20-C ) :   1.3849 B( 17-S , 18-C ) :   1.1076 B( 18-C , 19-C ) :   1.5366
B( 18-C , 28-C ) :   1.1589 B( 19-C , 20-C ) :   1.2422 B( 19-C , 27-S ) :   1.0566
B( 20-C , 21-C ) :   1.1258 B( 21-C , 22-C ) :   1.6254 B( 21-C , 75-H ) :   0.9907
B( 22-C , 23-C ) :   0.9591 B( 22-C , 27-S ) :   1.0742 B( 23-C , 24-O ) :   2.1471
B( 23-C , 25-O ) :   1.2380 B( 25-O , 26-C ) :   0.9187 B( 26-C , 76-H ) :   0.9810
B( 26-C , 77-H ) :   0.9765 B( 26-C , 78-H ) :   0.9762 B( 28-C , 29-C ) :   1.4701
B( 28-C , 32-S ) :   1.0909 B( 29-C , 30-C ) :   1.3093 B( 29-C , 79-H ) :   0.9807
B( 30-C , 31-C ) :   1.4319 B( 30-C , 35-C ) :   0.9969 B( 31-C , 32-S ) :   1.1146
B( 31-C , 33-C ) :   1.1997 B( 33-C , 34-C ) :   1.4311 B( 33-C , 43-S ) :   1.1134
B( 34-C , 35-C ) :   0.9883 B( 34-C , 41-C ) :   1.3128 B( 35-C , 36-C ) :   1.7154
B( 36-C , 37-C ) :   1.1341 B( 36-C , 39-C ) :   1.1360 B( 37-C , 38-N ) :   2.9918
B( 39-C , 40-N ) :   2.9917 B( 41-C , 42-C ) :   1.4211 B( 41-C , 80-H ) :   0.9876
B( 42-C , 43-S ) :   1.1020 B( 42-C , 44-C ) :   1.2029 B( 44-C , 45-S ) :   1.1328
B( 44-C , 46-C ) :   0.1163 B( 44-C , 48-C ) :   1.3830 B( 45-S , 46-C ) :   1.1091
B( 46-C , 47-C ) :   1.5416 B( 46-C , 56-C ) :   1.1571 B( 47-C , 48-C ) :   1.2404
B( 47-C , 55-S ) :   1.0562 B( 48-C , 49-C ) :   1.1267 B( 49-C , 50-C ) :   1.6250
B( 49-C , 81-H ) :   0.9903 B( 50-C , 51-C ) :   0.9582 B( 50-C , 55-S ) :   1.0749
B( 51-C , 52-O ) :   2.1486 B( 51-C , 53-O ) :   1.2401 B( 53-O , 54-C ) :   0.9180
B( 54-C , 82-H ) :   0.9811 B( 54-C , 83-H ) :   0.9762 B( 54-C , 84-H ) :   0.9763
B( 56-C , 57-C ) :   1.4736 B( 56-C , 60-S ) :   1.0971 B( 57-C , 58-C ) :   1.3056
B( 57-C , 85-H ) :   0.9819 B( 58-C , 59-C ) :   1.4600 B( 58-C , 63-C ) :   0.9910
B( 59-C , 60-S ) :   1.1192 B( 59-C , 61-C ) :   1.1868 B( 61-C , 62-C ) :   1.4536
B( 61-C , 71-S ) :   1.1369 B( 62-C , 63-C ) :   1.0191 B( 62-C , 69-C ) :   1.2744
B( 63-C , 64-C ) :   1.7094 B( 64-C , 65-C ) :   1.1332 B( 64-C , 67-C ) :   1.1346
B( 65-C , 66-N ) :   3.0024 B( 67-C , 68-N ) :   2.9902 B( 69-C , 70-C ) :   1.5515
B( 69-C , 86-H ) :   0.9959 B( 70-C , 71-S ) :   1.1468 B( 70-C , 87-H ) :   0.9642

-----------------------------------------------------------------------------
         ABSORPTION SPECTRUM VIA TRANSITION ELECTRIC DIPOLE MOMENTS
-----------------------------------------------------------------------------
State   Energy  Wavelength   fosc         T2         TX        TY        TZ
        (cm-1)    (nm)                  (au**2)     (au)      (au)      (au)
-----------------------------------------------------------------------------
   0    9011.6   1109.7   0.357920259  13.07550   0.63338   3.27533  -1.39518
   1   11674.8    856.5   0.156396537   4.41016   0.06887   1.27799  -1.66498
   2   12327.2    811.2   0.099153824   2.64802   0.06155   1.40284  -0.82235
   3   16763.1    596.5   0.012142789   0.23847  -0.13388  -0.43089  -0.18678
   4   18137.5    551.3   1.483706850  26.93057   0.85764   4.59212  -2.25996
   5   20006.6    499.8   0.160029479   2.63331  -0.36131  -1.53538   0.38128
   6   21371.6    467.9   0.240493581   3.70460   0.37310   0.31580   1.86163
   7   21895.8    456.7   0.048123138   0.72355   0.24453   0.64522   0.49744
   8   24126.0    414.5   0.011504684   0.15699   0.12701   0.08023   0.36663
   9   24862.1    402.2   0.019017827   0.25183   0.02448  -0.15309   0.47727
  10   25846.7    386.9   0.003066269   0.03906   0.09299  -0.12062   0.12594
  11   26923.6    371.4   0.039179746   0.47908   0.02724  -0.15111   0.67491
  12   28033.1    356.7   0.127717455   1.49988  -0.35260  -0.66662  -0.96497
  13   29234.3    342.1   0.039764160   0.44779   0.19463   0.61215  -0.18756
  14   29759.2    336.0   0.417291333   4.61629  -0.05662   1.55260  -1.48409
  15   30072.4    332.5   0.107452370   1.17632   0.18367  -0.16453   1.05618
  16   30807.7    324.6   0.022227506   0.23752  -0.04093  -0.44732   0.18908
  17   30939.9    323.2   0.229282798   2.43965   0.44577  -0.20155   1.48335
  18   31103.9    321.5   0.204263737   2.16198  -0.31984  -1.40418   0.29660
  19   31684.5    315.6   0.311203757   3.23350   0.48838   1.33747   1.09825
  20   31829.9    314.2   0.262663248   2.71669   0.56506   1.41973   0.61788
  21   31966.4    312.8   0.104538132   1.07661  -0.57450   0.39517  -0.76838
  22   32473.9    307.9   0.404489657   4.10060   0.75302   1.28107   1.37566
  23   32757.7    305.3   0.404078632   4.06095   0.71875   0.37944   1.84401
  24   32989.5    303.1   0.168877044   1.68527  -0.40562   0.39289  -1.16892
  25   33199.8    301.2   0.208900241   2.07147   0.61907   1.16816   0.56887
  26   33264.4    300.6   0.010059627   0.09956   0.08016   0.30200   0.04392
  27   33616.5    297.5   0.007421460   0.07268  -0.10168  -0.05393  -0.24379
  28   34033.3    293.8   0.164211816   1.58846   0.57081   0.50619   1.00320
  29   34138.1    292.9   0.129532896   1.24916  -0.00210  -1.02535   0.44477
  30   34347.2    291.1   0.055161787   0.52872  -0.00627  -0.19248   0.70116
  31   34469.4    290.1   0.144638552   1.38142   0.49246   0.84638   0.65003
  32   34560.4    289.3   0.093152854   0.88735   0.11428   0.40957  -0.84056
  33   35487.8    281.8   0.047142514   0.43733  -0.33440  -0.40377  -0.40308
  34   35881.8    278.7   0.002217000   0.02034  -0.07144  -0.11834  -0.03511
  35   35990.6    277.9   0.019187151   0.17551   0.04011   0.41538  -0.03684
  36   36548.9    273.6   0.137142074   1.23530  -0.35452  -0.39879  -0.97498
  37   36687.1    272.6   0.275011244   2.46781   0.41475   0.55871   1.40842
  38   36922.4    270.8   0.046215487   0.41207   0.07021   0.46124  -0.44090
  39   37264.6    268.4   0.008010814   0.07077   0.05536   0.07478   0.24923
  40   37477.8    266.8   0.098826545   0.86811   0.30435  -0.25797   0.84198
  41   37753.9    264.9   0.103042941   0.89853   0.32544   0.87373  -0.17091
  42   38101.9    262.5   0.132485018   1.14471   0.20671  -0.07630   1.04698
  43   38242.0    261.5   0.004043292   0.03481  -0.00854  -0.06275  -0.17549
  44   38487.5    259.8   0.097802418   0.83658  -0.40435  -0.15670  -0.80531
  45   39241.0    254.8   0.071594144   0.60064   0.33520   0.02706   0.69825
  46   39638.0    252.3   0.097018329   0.80578   0.29566  -0.18719   0.82664
  47   39781.7    251.4   0.064445335   0.53331  -0.01511   0.58452   0.43751
  48   40024.9    249.8   0.295573953   2.43115  -0.53417  -0.66169  -1.30689
  49   40095.8    249.4   0.070650077   0.58008   0.07496   0.75471  -0.06981
  50   40239.2    248.5   0.043714214   0.35764   0.26969   0.13851   0.51549

FINAL SINGLE POINT ENERGY     -6597.836778255652

DIPOLE MOMENT
-------------
                                X             Y             Z
Electronic contribution:     -2.79358      13.55179      -9.10497
Nuclear contribution   :      1.72743     -17.55440       9.36786
                        -----------------------------------------
Total Dipole Moment    :     -1.06615      -4.00261       0.26288
                        -----------------------------------------
Magnitude (a.u.)       :      4.15050
Magnitude (Debye)      :     10.54974

Rotational constants in cm-1:     0.001429     0.000216     0.000189
Rotational constants in MHz :    42.847413     6.481916     5.658052

                             ****ORCA TERMINATED NORMALLY****
TOTAL RUN TIME: 0 days 0 hours 8 minutes 2 seconds 265 msec
