                         Program Version 4.2.0 -  RELEASE  -
|  1> # ORCA input file
|  2> # SCF done       -216.513207352485          0.000690848859
|  3> ! CAM-B3LYP def2-SVP def2/J RIJCOSX Grid4 TightSCF
|  4> %maxcore 5000
|  5> %tddft
|  6>     Mode sTDDFT
|  7>     Ethresh 5.0
|  8>     maxcore 5000
|  9> end
| 10>
| 11> %pal
| 12>   nprocs 6
| 13>   end
| 14> * xyz 0 1
| 15>    C       -1.22333        -2.94213         1.81319
| 16>    C       -0.62157        -2.64525         0.62873
| 17>    C       -0.66005        -1.26180         0.36714
| 18>    C       -1.30247        -0.54396         1.38215
| 19>    S       -1.85165        -1.55522         2.64180
| 20>    C       -1.29207         0.83966         1.03890
| 21>    C       -0.64241         0.98406        -0.19343
| 22>    C       -0.22385        -0.33258        -0.65860
| 23>    C        0.43876        -0.61977        -1.81642
| 24>    C        0.80467         0.38287        -2.73841
| 25>    N        1.10341         1.19612        -3.49004
| 26>    C        0.80139        -1.93637        -2.16913
| 27>    N        1.09626        -3.00482        -2.46272
| 28>    C       -0.57145         2.31173        -0.62015
| 29>    C       -1.16174         3.17452         0.28291
| 30>    S       -1.81781         2.33266         1.67465
| 31>    C       -1.25819         4.59165         0.18359
| 32>    C       -0.73671         5.39116        -0.79418
| 33>    C       -0.99286         6.76919        -0.60020
| 34>    C       -0.55015         7.85255        -1.38762
| 35>    C        0.18016         7.66826        -2.62464
| 36>    C        1.20902         8.42175        -3.11428
| 37>    C        1.65382         7.98421        -4.38042
| 38>    C        0.97285         6.91237        -4.88060
| 39>    S       -0.24784         6.41464        -3.76026
| 40>    C        1.16945         6.19761        -6.16606
| 41>   Cl        2.95140         8.75231        -5.21099
| 42>    C       -0.85898         9.12457        -0.91600
| 43>    C       -1.59627         9.36160         0.27111
| 44>    C       -2.04877         8.27842         1.05194
| 45>    C       -1.73142         7.00750         0.58531
| 46>    S       -2.11028         5.51619         1.40126
| 47>    C       -2.78049         8.45378         2.28968
| 48>    C       -3.80614         7.69067         2.76994
| 49>    C       -4.24494         8.10374         4.04656
| 50>    C       -3.56296         9.16602         4.56353
| 51>    S       -2.34773         9.68625         3.44598
| 52>    C       -3.74918         9.85054         5.86748
| 53>   Cl       -5.53632         7.31727         4.87053
| 54>    C       -1.81426        10.74179         0.48832
| 55>    C       -1.25897        11.54369        -0.46752
| 56>    S       -0.44130        10.61967        -1.70948
| 57>    C       -1.26295        12.96459        -0.51011
| 58>    C       -0.67275        13.78694        -1.44756
| 59>    C       -0.84652        15.13891        -1.14012
| 60>    C       -1.58013        15.33916         0.03892
| 61>    S       -2.05626        13.87171         0.76943
| 62>    C       -1.68037        16.73458         0.27932
| 63>    C       -1.00530        17.41610        -0.74444
| 64>    C       -0.46824        16.43692        -1.67805
| 65>    C        0.23712        16.68436        -2.81825
| 66>    C        0.54120        17.99488        -3.24388
| 67>    N        0.78610        19.05866        -3.59433
| 68>    C        0.70628        15.64711        -3.65222
| 69>    N        1.09132        14.80950        -4.33377
| 70>    C       -1.02310        18.80287        -0.57674
| 71>    C       -1.71056        19.17641         0.56023
| 72>    S       -2.34945        17.79486         1.43813
| 73>    C       -1.91199        20.48954         1.06601
| 74>    C       -2.67573        20.87325         2.14132
| 75>    C       -2.63301        22.25553         2.37780
| 76>   Cl       -3.59844        23.00013         3.58288
| 77>    C       -1.82275        22.94962         1.50416
| 78>    S       -1.12942        21.86100         0.33464
| 79>    C       -1.50983        24.34562         1.45681
| 80>    C       -1.19965        25.21132         2.48432
| 81>   Cl       -1.04080        24.73298         4.12260
| 82>    C       -0.92458        26.52149         2.06372
| 83>    C       -1.00445        26.67557         0.70196
| 84>    S       -1.43135        25.17734        -0.07155
| 85>    C       -0.77289        27.85663        -0.05635
| 86>    C       -0.82243        28.01450        -1.41895
| 87>    C       -0.52719        29.32236        -1.82401
| 88>   Cl       -0.51776        29.78625        -3.47532
| 89>    C       -0.24705        30.19369        -0.78658
| 90>    S       -0.35850        29.35010         0.73308
| 91>    C        0.09289        31.57450        -0.85023
| 92>    C        0.36763        32.44041         0.18968
| 93>   Cl        0.34101        31.97556         1.83973
| 94>    C        0.67562        33.75321        -0.21972
| 95>    C        0.63580        33.88869        -1.56946
| 96>    S        0.22415        32.42593        -2.36491
| 97>    H       -1.34212        -3.90550         2.26702
| 98>    H       -0.17594        -3.38073        -0.01571
| 99>    H       -0.11887         2.63940        -1.53713
|100>    H       -0.16508         5.00385        -1.61541
|101>    H        1.66853         9.23579        -2.58554
|102>    H        1.99977         6.64282        -6.70809
|103>    H        0.27210         6.25824        -6.78127
|104>    H        1.38360         5.14404        -5.98975
|105>    H       -4.26566         6.88534         2.22797
|106>    H       -4.58812         9.40591         6.39683
|107>    H       -3.94385        10.91220         5.71990
|108>    H       -2.85404         9.75641         6.48197
|109>    H       -2.36844        11.13975         1.31840
|110>    H       -0.14076        13.40469        -2.30018
|111>    H       -0.56382        19.51755        -1.23570
|112>    H       -3.25815        20.19055         2.73285
|113>    H       -0.66234        27.31854         2.73516
|114>    H       -1.05928        27.21944        -2.10194
|115>    H        0.91211        34.54246         0.46905
|116>    H        0.82552        34.76759        -2.15181
|117> *
|118>
|119>                          ****END OF INPUT****

CARTESIAN COORDINATES (ANGSTROEM)
---------------------------------
  C     -1.223330   -2.942130    1.813190
  C     -0.621570   -2.645250    0.628730
  C     -0.660050   -1.261800    0.367140
  C     -1.302470   -0.543960    1.382150
  S     -1.851650   -1.555220    2.641800
  C     -1.292070    0.839660    1.038900
  C     -0.642410    0.984060   -0.193430
  C     -0.223850   -0.332580   -0.658600
  C      0.438760   -0.619770   -1.816420
  C      0.804670    0.382870   -2.738410
  N      1.103410    1.196120   -3.490040
  C      0.801390   -1.936370   -2.169130
  N      1.096260   -3.004820   -2.462720
  C     -0.571450    2.311730   -0.620150
  C     -1.161740    3.174520    0.282910
  S     -1.817810    2.332660    1.674650
  C     -1.258190    4.591650    0.183590
  C     -0.736710    5.391160   -0.794180
  C     -0.992860    6.769190   -0.600200
  C     -0.550150    7.852550   -1.387620
  C      0.180160    7.668260   -2.624640
  C      1.209020    8.421750   -3.114280
  C      1.653820    7.984210   -4.380420
  C      0.972850    6.912370   -4.880600
  S     -0.247840    6.414640   -3.760260
  C      1.169450    6.197610   -6.166060
  Cl     2.951400    8.752310   -5.210990
  C     -0.858980    9.124570   -0.916000
  C     -1.596270    9.361600    0.271110
  C     -2.048770    8.278420    1.051940
  C     -1.731420    7.007500    0.585310
  S     -2.110280    5.516190    1.401260
  C     -2.780490    8.453780    2.289680
  C     -3.806140    7.690670    2.769940
  C     -4.244940    8.103740    4.046560
  C     -3.562960    9.166020    4.563530
  S     -2.347730    9.686250    3.445980
  C     -3.749180    9.850540    5.867480
  Cl    -5.536320    7.317270    4.870530
  C     -1.814260   10.741790    0.488320
  C     -1.258970   11.543690   -0.467520
  S     -0.441300   10.619670   -1.709480
  C     -1.262950   12.964590   -0.510110
  C     -0.672750   13.786940   -1.447560
  C     -0.846520   15.138910   -1.140120
  C     -1.580130   15.339160    0.038920
  S     -2.056260   13.871710    0.769430
  C     -1.680370   16.734580    0.279320
  C     -1.005300   17.416100   -0.744440
  C     -0.468240   16.436920   -1.678050
  C      0.237120   16.684360   -2.818250
  C      0.541200   17.994880   -3.243880
  N      0.786100   19.058660   -3.594330
  C      0.706280   15.647110   -3.652220
  N      1.091320   14.809500   -4.333770
  C     -1.023100   18.802870   -0.576740
  C     -1.710560   19.176410    0.560230
  S     -2.349450   17.794860    1.438130
  C     -1.911990   20.489540    1.066010
  C     -2.675730   20.873250    2.141320
  C     -2.633010   22.255530    2.377800
  Cl    -3.598440   23.000130    3.582880
  C     -1.822750   22.949620    1.504160
  S     -1.129420   21.861000    0.334640
  C     -1.509830   24.345620    1.456810
  C     -1.199650   25.211320    2.484320
  Cl    -1.040800   24.732980    4.122600
  C     -0.924580   26.521490    2.063720
  C     -1.004450   26.675570    0.701960
  S     -1.431350   25.177340   -0.071550
  C     -0.772890   27.856630   -0.056350
  C     -0.822430   28.014500   -1.418950
  C     -0.527190   29.322360   -1.824010
  Cl    -0.517760   29.786250   -3.475320
  C     -0.247050   30.193690   -0.786580
  S     -0.358500   29.350100    0.733080
  C      0.092890   31.574500   -0.850230
  C      0.367630   32.440410    0.189680
  Cl     0.341010   31.975560    1.839730
  C      0.675620   33.753210   -0.219720
  C      0.635800   33.888690   -1.569460
  S      0.224150   32.425930   -2.364910
  H     -1.342120   -3.905500    2.267020
  H     -0.175940   -3.380730   -0.015710
  H     -0.118870    2.639400   -1.537130
  H     -0.165080    5.003850   -1.615410
  H      1.668530    9.235790   -2.585540
  H      1.999770    6.642820   -6.708090
  H      0.272100    6.258240   -6.781270
  H      1.383600    5.144040   -5.989750
  H     -4.265660    6.885340    2.227970
  H     -4.588120    9.405910    6.396830
  H     -3.943850   10.912200    5.719900
  H     -2.854040    9.756410    6.481970
  H     -2.368440   11.139750    1.318400
  H     -0.140760   13.404690   -2.300180
  H     -0.563820   19.517550   -1.235700
  H     -3.258150   20.190550    2.732850
  H     -0.662340   27.318540    2.735160
  H     -1.059280   27.219440   -2.101940
  H      0.912110   34.542460    0.469050
  H      0.825520   34.767590   -2.151810

 Total Charge           Charge          ....    0
 Multiplicity           Mult            ....    1
 Number of Electrons    NEL             ....  702
 Basis Dimension        Dim             .... 1320

ORBITAL ENERGIES
----------------

  NO   OCC          E(Eh)            E(eV)
   0   2.0000    -101.595076     -2764.5426
   1   2.0000    -101.594911     -2764.5381
   2   2.0000    -101.588109     -2764.3530
   3   2.0000    -101.586961     -2764.3217
   4   2.0000    -101.586347     -2764.3050
   5   2.0000    -101.579013     -2764.1055
   6   2.0000     -88.990706     -2421.5602
   7   2.0000     -88.989532     -2421.5283
   8   2.0000     -88.988225     -2421.4927
   9   2.0000     -88.985352     -2421.4145
  10   2.0000     -88.970815     -2421.0190
  11   2.0000     -88.967424     -2420.9267
  12   2.0000     -88.964438     -2420.8454
  13   2.0000     -88.962327     -2420.7880
  14   2.0000     -88.960833     -2420.7473
  15   2.0000     -88.958984     -2420.6970
  16   2.0000     -88.958231     -2420.6765
  17   2.0000     -88.956293     -2420.6238
  18   2.0000     -14.429597      -392.6493
  19   2.0000     -14.429032      -392.6339
  20   2.0000     -14.428147      -392.6098
  21   2.0000     -14.426782      -392.5727
  22   2.0000     -10.364316      -282.0274
  23   2.0000     -10.360584      -281.9258
  24   2.0000     -10.351342      -281.6743
  25   2.0000     -10.348691      -281.6022
  26   2.0000     -10.333721      -281.1949
  27   2.0000     -10.332049      -281.1494
  28   2.0000     -10.331776      -281.1419
  29   2.0000     -10.331540      -281.1355
  30   2.0000     -10.330113      -281.0967
  31   2.0000     -10.329777      -281.0875
  32   2.0000     -10.329096      -281.0690
  33   2.0000     -10.328894      -281.0635
  34   2.0000     -10.328522      -281.0534
  35   2.0000     -10.327779      -281.0332
  36   2.0000     -10.327547      -281.0268
  37   2.0000     -10.327335      -281.0211
  38   2.0000     -10.327251      -281.0188
  39   2.0000     -10.325739      -280.9776
  40   2.0000     -10.323806      -280.9250
  41   2.0000     -10.323652      -280.9209
  42   2.0000     -10.322299      -280.8840
  43   2.0000     -10.320148      -280.8255
  44   2.0000     -10.319362      -280.8041
  45   2.0000     -10.318808      -280.7890
  46   2.0000     -10.318643      -280.7845
  47   2.0000     -10.317717      -280.7594
  48   2.0000     -10.317514      -280.7538
  49   2.0000     -10.315738      -280.7055
  50   2.0000     -10.315382      -280.6958
  51   2.0000     -10.312808      -280.6258
  52   2.0000     -10.311344      -280.5859
  53   2.0000     -10.310987      -280.5762
  54   2.0000     -10.310313      -280.5579
  55   2.0000     -10.309380      -280.5325
  56   2.0000     -10.307913      -280.4926
  57   2.0000     -10.305879      -280.4372
  58   2.0000     -10.303249      -280.3657
  59   2.0000     -10.302665      -280.3498
  60   2.0000     -10.302161      -280.3360
  61   2.0000     -10.302019      -280.3322
  62   2.0000     -10.301569      -280.3200
  63   2.0000     -10.301458      -280.3169
  64   2.0000     -10.300620      -280.2941
  65   2.0000     -10.299232      -280.2564
  66   2.0000     -10.297884      -280.2197
  67   2.0000     -10.296991      -280.1954
  68   2.0000     -10.296695      -280.1873
  69   2.0000     -10.295374      -280.1514
  70   2.0000     -10.294061      -280.1156
  71   2.0000     -10.293064      -280.0885
  72   2.0000     -10.290918      -280.0301
  73   2.0000     -10.285593      -279.8852
  74   2.0000     -10.285443      -279.8811
  75   2.0000     -10.283045      -279.8159
  76   2.0000     -10.282562      -279.8027
  77   2.0000     -10.280660      -279.7510
  78   2.0000     -10.280585      -279.7489
  79   2.0000     -10.280137      -279.7368
  80   2.0000     -10.277992      -279.6784
  81   2.0000     -10.271485      -279.5013
  82   2.0000      -9.549848      -259.8646
  83   2.0000      -9.549653      -259.8593
  84   2.0000      -9.542965      -259.6773
  85   2.0000      -9.541751      -259.6443
  86   2.0000      -9.541263      -259.6310
  87   2.0000      -9.533800      -259.4279
  88   2.0000      -8.085326      -220.0129
  89   2.0000      -8.084044      -219.9780
  90   2.0000      -8.082835      -219.9451
  91   2.0000      -8.080464      -219.8806
  92   2.0000      -8.066298      -219.4951
  93   2.0000      -8.062959      -219.4043
  94   2.0000      -8.059185      -219.3016
  95   2.0000      -8.057954      -219.2681
  96   2.0000      -8.056031      -219.2158
  97   2.0000      -8.054435      -219.1723
  98   2.0000      -8.053317      -219.1419
  99   2.0000      -8.051867      -219.1024
 100   2.0000      -7.319920      -199.1852
 101   2.0000      -7.319779      -199.1813
 102   2.0000      -7.313357      -199.0066
 103   2.0000      -7.311997      -198.9696
 104   2.0000      -7.311639      -198.9598
 105   2.0000      -7.309927      -198.9132
 106   2.0000      -7.309912      -198.9128
 107   2.0000      -7.309724      -198.9077
 108   2.0000      -7.309673      -198.9063
 109   2.0000      -7.304069      -198.7538
 110   2.0000      -7.303101      -198.7275
 111   2.0000      -7.302657      -198.7154
 112   2.0000      -7.301811      -198.6924
 113   2.0000      -7.301742      -198.6905
 114   2.0000      -7.301411      -198.6815
 115   2.0000      -7.300948      -198.6689
 116   2.0000      -7.293844      -198.4756
 117   2.0000      -7.293777      -198.4738
 118   2.0000      -6.054617      -164.7545
 119   2.0000      -6.053353      -164.7201
 120   2.0000      -6.052104      -164.6861
 121   2.0000      -6.050441      -164.6409
 122   2.0000      -6.049718      -164.6212
 123   2.0000      -6.049137      -164.6054
 124   2.0000      -6.047842      -164.5702
 125   2.0000      -6.047590      -164.5633
 126   2.0000      -6.046347      -164.5295
 127   2.0000      -6.045268      -164.5001
 128   2.0000      -6.045256      -164.4998
 129   2.0000      -6.043062      -164.4401
 130   2.0000      -6.035683      -164.2393
 131   2.0000      -6.032364      -164.1490
 132   2.0000      -6.031606      -164.1283
 133   2.0000      -6.028790      -164.0517
 134   2.0000      -6.028273      -164.0377
 135   2.0000      -6.028074      -164.0322
 136   2.0000      -6.027287      -164.0108
 137   2.0000      -6.025613      -163.9653
 138   2.0000      -6.024736      -163.9414
 139   2.0000      -6.024421      -163.9328
 140   2.0000      -6.024182      -163.9263
 141   2.0000      -6.023096      -163.8968
 142   2.0000      -6.023079      -163.8963
 143   2.0000      -6.021212      -163.8455
 144   2.0000      -6.020965      -163.8388
 145   2.0000      -6.020818      -163.8348
 146   2.0000      -6.020001      -163.8126
 147   2.0000      -6.019927      -163.8105
 148   2.0000      -6.018826      -163.7806
 149   2.0000      -6.017982      -163.7576
 150   2.0000      -6.017000      -163.7309
 151   2.0000      -6.015680      -163.6950
 152   2.0000      -6.014546      -163.6641
 153   2.0000      -6.013911      -163.6468
 154   2.0000      -1.044633       -28.4259
 155   2.0000      -1.040645       -28.3174
 156   2.0000      -1.024111       -27.8675
 157   2.0000      -1.021493       -27.7962
 158   2.0000      -1.019722       -27.7480
 159   2.0000      -1.018976       -27.7278
 160   2.0000      -1.016957       -27.6728
 161   2.0000      -1.007143       -27.4058
 162   2.0000      -1.005443       -27.3595
 163   2.0000      -1.005139       -27.3512
 164   2.0000      -1.003739       -27.3131
 165   2.0000      -0.999019       -27.1847
 166   2.0000      -0.997880       -27.1537
 167   2.0000      -0.994106       -27.0510
 168   2.0000      -0.990482       -26.9524
 169   2.0000      -0.979946       -26.6657
 170   2.0000      -0.960777       -26.1441
 171   2.0000      -0.957533       -26.0558
 172   2.0000      -0.953542       -25.9472
 173   2.0000      -0.949209       -25.8293
 174   2.0000      -0.946737       -25.7620
 175   2.0000      -0.945006       -25.7149
 176   2.0000      -0.939511       -25.5654
 177   2.0000      -0.938084       -25.5266
 178   2.0000      -0.923034       -25.1170
 179   2.0000      -0.910278       -24.7699
 180   2.0000      -0.902204       -24.5502
 181   2.0000      -0.899588       -24.4790
 182   2.0000      -0.885296       -24.0901
 183   2.0000      -0.870800       -23.6957
 184   2.0000      -0.866618       -23.5819
 185   2.0000      -0.865240       -23.5444
 186   2.0000      -0.862974       -23.4827
 187   2.0000      -0.856408       -23.3040
 188   2.0000      -0.852236       -23.1905
 189   2.0000      -0.848720       -23.0949
 190   2.0000      -0.844560       -22.9816
 191   2.0000      -0.841613       -22.9015
 192   2.0000      -0.830843       -22.6084
 193   2.0000      -0.825742       -22.4696
 194   2.0000      -0.822490       -22.3811
 195   2.0000      -0.813692       -22.1417
 196   2.0000      -0.812256       -22.1026
 197   2.0000      -0.810251       -22.0481
 198   2.0000      -0.806668       -21.9506
 199   2.0000      -0.802794       -21.8451
 200   2.0000      -0.799962       -21.7681
 201   2.0000      -0.784739       -21.3538
 202   2.0000      -0.778569       -21.1859
 203   2.0000      -0.773718       -21.0539
 204   2.0000      -0.773141       -21.0382
 205   2.0000      -0.763835       -20.7850
 206   2.0000      -0.746987       -20.3265
 207   2.0000      -0.741841       -20.1865
 208   2.0000      -0.723059       -19.6754
 209   2.0000      -0.706209       -19.2169
 210   2.0000      -0.701008       -19.0754
 211   2.0000      -0.700594       -19.0641
 212   2.0000      -0.698866       -19.0171
 213   2.0000      -0.688843       -18.7444
 214   2.0000      -0.685850       -18.6629
 215   2.0000      -0.680371       -18.5138
 216   2.0000      -0.674928       -18.3657
 217   2.0000      -0.671345       -18.2682
 218   2.0000      -0.665505       -18.1093
 219   2.0000      -0.656644       -17.8682
 220   2.0000      -0.653439       -17.7810
 221   2.0000      -0.647983       -17.6325
 222   2.0000      -0.643298       -17.5050
 223   2.0000      -0.635081       -17.2814
 224   2.0000      -0.632493       -17.2110
 225   2.0000      -0.626411       -17.0455
 226   2.0000      -0.623962       -16.9789
 227   2.0000      -0.619270       -16.8512
 228   2.0000      -0.618188       -16.8217
 229   2.0000      -0.616884       -16.7863
 230   2.0000      -0.612545       -16.6682
 231   2.0000      -0.607831       -16.5399
 232   2.0000      -0.607241       -16.5239
 233   2.0000      -0.602812       -16.4033
 234   2.0000      -0.598934       -16.2978
 235   2.0000      -0.597427       -16.2568
 236   2.0000      -0.589242       -16.0341
 237   2.0000      -0.587631       -15.9902
 238   2.0000      -0.581509       -15.8237
 239   2.0000      -0.579486       -15.7686
 240   2.0000      -0.568691       -15.4749
 241   2.0000      -0.561700       -15.2846
 242   2.0000      -0.553692       -15.0667
 243   2.0000      -0.547425       -14.8962
 244   2.0000      -0.546813       -14.8795
 245   2.0000      -0.543031       -14.7766
 246   2.0000      -0.542595       -14.7648
 247   2.0000      -0.538033       -14.6406
 248   2.0000      -0.534171       -14.5355
 249   2.0000      -0.527365       -14.3503
 250   2.0000      -0.525411       -14.2972
 251   2.0000      -0.522967       -14.2307
 252   2.0000      -0.522368       -14.2144
 253   2.0000      -0.520474       -14.1628
 254   2.0000      -0.519483       -14.1359
 255   2.0000      -0.516908       -14.0658
 256   2.0000      -0.513782       -13.9807
 257   2.0000      -0.511300       -13.9132
 258   2.0000      -0.509475       -13.8635
 259   2.0000      -0.507834       -13.8189
 260   2.0000      -0.507285       -13.8039
 261   2.0000      -0.505028       -13.7425
 262   2.0000      -0.503973       -13.7138
 263   2.0000      -0.502634       -13.6774
 264   2.0000      -0.501653       -13.6507
 265   2.0000      -0.498692       -13.5701
 266   2.0000      -0.498197       -13.5566
 267   2.0000      -0.497115       -13.5272
 268   2.0000      -0.495394       -13.4804
 269   2.0000      -0.493827       -13.4377
 270   2.0000      -0.492576       -13.4037
 271   2.0000      -0.489420       -13.3178
 272   2.0000      -0.487876       -13.2758
 273   2.0000      -0.485554       -13.2126
 274   2.0000      -0.483498       -13.1566
 275   2.0000      -0.482781       -13.1371
 276   2.0000      -0.480462       -13.0740
 277   2.0000      -0.477054       -12.9813
 278   2.0000      -0.475871       -12.9491
 279   2.0000      -0.474464       -12.9108
 280   2.0000      -0.471970       -12.8429
 281   2.0000      -0.469651       -12.7799
 282   2.0000      -0.467677       -12.7261
 283   2.0000      -0.465225       -12.6594
 284   2.0000      -0.462361       -12.5815
 285   2.0000      -0.461329       -12.5534
 286   2.0000      -0.460253       -12.5241
 287   2.0000      -0.459588       -12.5060
 288   2.0000      -0.458596       -12.4790
 289   2.0000      -0.456950       -12.4342
 290   2.0000      -0.456139       -12.4122
 291   2.0000      -0.455471       -12.3940
 292   2.0000      -0.453159       -12.3311
 293   2.0000      -0.450315       -12.2537
 294   2.0000      -0.447609       -12.1801
 295   2.0000      -0.446094       -12.1388
 296   2.0000      -0.442383       -12.0378
 297   2.0000      -0.441104       -12.0031
 298   2.0000      -0.440348       -11.9825
 299   2.0000      -0.439339       -11.9550
 300   2.0000      -0.438465       -11.9312
 301   2.0000      -0.437932       -11.9167
 302   2.0000      -0.437624       -11.9083
 303   2.0000      -0.436981       -11.8909
 304   2.0000      -0.435652       -11.8547
 305   2.0000      -0.431982       -11.7548
 306   2.0000      -0.431076       -11.7302
 307   2.0000      -0.426360       -11.6018
 308   2.0000      -0.425825       -11.5873
 309   2.0000      -0.424465       -11.5503
 310   2.0000      -0.423252       -11.5173
 311   2.0000      -0.420547       -11.4437
 312   2.0000      -0.419554       -11.4167
 313   2.0000      -0.418150       -11.3784
 314   2.0000      -0.416817       -11.3422
 315   2.0000      -0.414825       -11.2880
 316   2.0000      -0.408748       -11.1226
 317   2.0000      -0.407348       -11.0845
 318   2.0000      -0.406801       -11.0696
 319   2.0000      -0.404911       -11.0182
 320   2.0000      -0.395350       -10.7580
 321   2.0000      -0.390401       -10.6233
 322   2.0000      -0.384867       -10.4728
 323   2.0000      -0.382117       -10.3979
 324   2.0000      -0.379798       -10.3348
 325   2.0000      -0.379153       -10.3173
 326   2.0000      -0.374194       -10.1823
 327   2.0000      -0.371732       -10.1153
 328   2.0000      -0.366261        -9.9665
 329   2.0000      -0.364757        -9.9256
 330   2.0000      -0.361337        -9.8325
 331   2.0000      -0.349437        -9.5087
 332   2.0000      -0.345603        -9.4043
 333   2.0000      -0.342470        -9.3191
 334   2.0000      -0.331260        -9.0140
 335   2.0000      -0.327301        -8.9063
 336   2.0000      -0.322361        -8.7719
 337   2.0000      -0.320391        -8.7183
 338   2.0000      -0.319751        -8.7009
 339   2.0000      -0.319363        -8.6903
 340   2.0000      -0.316576        -8.6145
 341   2.0000      -0.315109        -8.5745
 342   2.0000      -0.314287        -8.5522
 343   2.0000      -0.309213        -8.4141
 344   2.0000      -0.303920        -8.2701
 345   2.0000      -0.297595        -8.0980
 346   2.0000      -0.289288        -7.8719
 347   2.0000      -0.267052        -7.2669
 348   2.0000      -0.261646        -7.1198
 349   2.0000      -0.245958        -6.6928
 350   2.0000      -0.234819        -6.3898
 351   0.0000      -0.104813        -2.8521
 352   0.0000      -0.099463        -2.7065
 353   0.0000      -0.061506        -1.6737
 354   0.0000      -0.051715        -1.4072
 355   0.0000      -0.032017        -0.8712

MULLIKEN ATOMIC CHARGES
-----------------------
   0 C :   -0.084166
   1 C :    0.040462
   2 C :   -0.035798
   3 C :   -0.117965
   4 S :    0.180115
   5 C :   -0.102884
   6 C :    0.012659
   7 C :    0.300907
   8 C :   -0.301017
   9 C :   -0.183311
  10 N :    0.163299
  11 C :   -0.190039
  12 N :    0.174915
  13 C :   -0.050774
  14 C :   -0.048489
  15 S :    0.192666
  16 C :   -0.012726
  17 C :   -0.087249
  18 C :    0.088306
  19 C :    0.144641
  20 C :   -0.213220
  21 C :    0.032535
  22 C :    0.088306
  23 C :   -0.263091
  24 S :    0.136465
  25 C :    0.118488
  26 Cl:   -0.084872
  27 C :   -0.141744
  28 C :    0.089610
  29 C :    0.142624
  30 C :   -0.140927
  31 S :    0.106702
  32 C :   -0.210746
  33 C :    0.030367
  34 C :    0.088452
  35 C :   -0.265359
  36 S :    0.133688
  37 C :    0.120740
  38 Cl:   -0.088877
  39 C :   -0.100727
  40 C :   -0.006786
  41 S :    0.122236
  42 C :   -0.045551
  43 C :   -0.061382
  44 C :    0.015784
  45 C :   -0.095763
  46 S :    0.182492
  47 C :   -0.101173
  48 C :    0.010860
  49 C :    0.297689
  50 C :   -0.295955
  51 C :   -0.187287
  52 N :    0.175301
  53 C :   -0.191569
  54 N :    0.178733
  55 C :   -0.061174
  56 C :   -0.026891
  57 S :    0.185941
  58 C :   -0.047064
  59 C :   -0.038284
  60 C :    0.115553
  61 Cl:   -0.063984
  62 C :   -0.139663
  63 S :    0.161393
  64 C :   -0.144940
  65 C :    0.123219
  66 Cl:   -0.065971
  67 C :   -0.039476
  68 C :   -0.028153
  69 S :    0.152821
  70 C :   -0.013289
  71 C :   -0.022188
  72 C :    0.060735
  73 Cl:   -0.067995
  74 C :   -0.086051
  75 S :    0.143636
  76 C :   -0.111586
  77 C :    0.040857
  78 Cl:   -0.072238
  79 C :    0.048303
  80 C :   -0.055909
  81 S :    0.147163
  82 H :    0.035169
  83 H :    0.011682
  84 H :    0.006171
  85 H :   -0.006712
  86 H :   -0.005764
  87 H :    0.025480
  88 H :    0.036615
  89 H :    0.042994
  90 H :   -0.005746
  91 H :    0.025794
  92 H :    0.031889
  93 H :    0.038251
  94 H :   -0.011890
  95 H :    0.016176
  96 H :    0.013043
  97 H :   -0.011389
  98 H :   -0.006802
  99 H :   -0.011325
 100 H :   -0.011550
 101 H :    0.033552
Sum of atomic charges:   -0.0000000

LOEWDIN ATOMIC CHARGES
----------------------
   0 C :   -0.179001
   1 C :   -0.033843
   2 C :   -0.078793
   3 C :   -0.182453
   4 S :    0.476941
   5 C :   -0.183930
   6 C :   -0.069878
   7 C :    0.084884
   8 C :   -0.105731
   9 C :   -0.014643
  10 N :   -0.038867
  11 C :   -0.017194
  12 N :   -0.034282
  13 C :   -0.023305
  14 C :   -0.181592
  15 S :    0.476050
  16 C :   -0.170669
  17 C :   -0.059577
  18 C :   -0.040152
  19 C :   -0.051779
  20 C :   -0.175340
  21 C :   -0.074102
  22 C :   -0.177214
  23 C :   -0.194015
  24 S :    0.448729
  25 C :   -0.061315
  26 Cl:    0.131717
  27 C :   -0.141431
  28 C :   -0.039830
  29 C :   -0.056484
  30 C :   -0.141212
  31 S :    0.406264
  32 C :   -0.171413
  33 C :   -0.076372
  34 C :   -0.177037
  35 C :   -0.198332
  36 S :    0.444892
  37 C :   -0.061373
  38 Cl:    0.128727
  39 C :   -0.074176
  40 C :   -0.168355
  41 S :    0.427665
  42 C :   -0.176226
  43 C :   -0.031785
  44 C :   -0.070622
  45 C :   -0.178552
  46 S :    0.478914
  47 C :   -0.181145
  48 C :   -0.068438
  49 C :    0.082157
  50 C :   -0.099549
  51 C :   -0.016626
  52 N :   -0.031356
  53 C :   -0.017803
  54 N :   -0.028560
  55 C :   -0.034703
  56 C :   -0.176599
  57 S :    0.477632
  58 C :   -0.181524
  59 C :   -0.078534
  60 C :   -0.159510
  61 Cl:    0.148807
  62 C :   -0.217049
  63 S :    0.451284
  64 C :   -0.222673
  65 C :   -0.157153
  66 Cl:    0.148009
  67 C :   -0.075509
  68 C :   -0.174428
  69 S :    0.444711
  70 C :   -0.187353
  71 C :   -0.073506
  72 C :   -0.171876
  73 Cl:    0.154106
  74 C :   -0.204602
  75 S :    0.451690
  76 C :   -0.215856
  77 C :   -0.175443
  78 Cl:    0.152940
  79 C :   -0.076965
  80 C :   -0.180934
  81 S :    0.451245
  82 H :    0.027275
  83 H :    0.042438
  84 H :    0.040401
  85 H :    0.019115
  86 H :    0.026418
  87 H :    0.034564
  88 H :    0.040065
  89 H :    0.042547
  90 H :    0.026895
  91 H :    0.034511
  92 H :    0.038013
  93 H :    0.040292
  94 H :    0.010642
  95 H :    0.038484
  96 H :    0.037502
  97 H :    0.029207
  98 H :    0.031483
  99 H :    0.030621
 100 H :    0.033680
 101 H :    0.027049

  Mayer bond orders larger than 0.100000
B(  0-C ,  1-C ) :   1.5499 B(  0-C ,  4-S ) :   1.1483 B(  0-C , 82-H ) :   0.9649
B(  1-C ,  2-C ) :   1.2758 B(  1-C , 83-H ) :   0.9962 B(  2-C ,  3-C ) :   1.4600
B(  2-C ,  7-C ) :   1.0159 B(  3-C ,  4-S ) :   1.1382 B(  3-C ,  5-C ) :   1.1796
B(  5-C ,  6-C ) :   1.4575 B(  5-C , 15-S ) :   1.1282 B(  6-C ,  7-C ) :   0.9936
B(  6-C , 13-C ) :   1.2821 B(  7-C ,  8-C ) :   1.7093 B(  8-C ,  9-C ) :   1.1344
B(  8-C , 11-C ) :   1.1289 B(  9-C , 10-N ) :   2.9862 B( 11-C , 12-N ) :   3.0044
B( 13-C , 14-C ) :   1.4990 B( 13-C , 84-H ) :   0.9936 B( 14-C , 15-S ) :   1.1034
B( 14-C , 16-C ) :   1.1033 B( 16-C , 17-C ) :   1.6070 B( 16-C , 31-S ) :   1.0558
B( 17-C , 18-C ) :   1.1711 B( 17-C , 85-H ) :   0.9755 B( 18-C , 19-C ) :   1.2919
B( 18-C , 30-C ) :   1.2721 B( 19-C , 20-C ) :   0.9898 B( 19-C , 27-C ) :   1.4211
B( 20-C , 21-C ) :   1.5488 B( 20-C , 24-S ) :   1.1277 B( 21-C , 22-C ) :   1.2220
B( 21-C , 86-H ) :   0.9935 B( 22-C , 23-C ) :   1.6038 B( 22-C , 26-Cl) :   1.0084
B( 23-C , 24-S ) :   1.1307 B( 23-C , 25-C ) :   1.0825 B( 25-C , 87-H ) :   0.9437
B( 25-C , 88-H ) :   0.9484 B( 25-C , 89-H ) :   0.9479 B( 27-C , 28-C ) :   1.2704
B( 27-C , 41-S ) :   1.0549 B( 28-C , 29-C ) :   1.2952 B( 28-C , 39-C ) :   1.1869
B( 29-C , 30-C ) :   1.4207 B( 29-C , 32-C ) :   0.9859 B( 30-C , 31-S ) :   1.0587
B( 32-C , 33-C ) :   1.5531 B( 32-C , 36-S ) :   1.1288 B( 33-C , 34-C ) :   1.2185
B( 33-C , 90-H ) :   0.9946 B( 34-C , 35-C ) :   1.6074 B( 34-C , 38-Cl) :   1.0049
B( 35-C , 36-S ) :   1.1274 B( 35-C , 37-C ) :   1.0820 B( 37-C , 91-H ) :   0.9440
B( 37-C , 92-H ) :   0.9484 B( 37-C , 93-H ) :   0.9493 B( 39-C , 40-C ) :   1.5715
B( 39-C , 94-H ) :   0.9672 B( 40-C , 41-S ) :   1.0705 B( 40-C , 42-C ) :   1.1530
B( 42-C , 43-C ) :   1.4722 B( 42-C , 46-S ) :   1.1022 B( 43-C , 44-C ) :   1.2828
B( 43-C , 95-H ) :   0.9910 B( 44-C , 45-C ) :   1.4525 B( 44-C , 49-C ) :   0.9955
B( 45-C , 46-S ) :   1.1232 B( 45-C , 47-C ) :   1.1808 B( 47-C , 48-C ) :   1.4550
B( 47-C , 57-S ) :   1.1198 B( 48-C , 49-C ) :   0.9927 B( 48-C , 55-C ) :   1.2891
B( 49-C , 50-C ) :   1.7173 B( 50-C , 51-C ) :   1.1318 B( 50-C , 53-C ) :   1.1325
B( 51-C , 52-N ) :   2.9947 B( 53-C , 54-N ) :   2.9951 B( 55-C , 56-C ) :   1.4706
B( 55-C , 96-H ) :   0.9911 B( 56-C , 57-S ) :   1.1078 B( 56-C , 58-C ) :   1.1469
B( 58-C , 59-C ) :   1.4910 B( 58-C , 62-C ) :   0.1085 B( 58-C , 63-S ) :   1.1232
B( 59-C , 60-C ) :   1.2342 B( 59-C , 97-H ) :   1.0016 B( 60-C , 61-Cl) :   1.0525
B( 60-C , 62-C ) :   1.5669 B( 62-C , 63-S ) :   1.1214 B( 62-C , 64-C ) :   1.0424
B( 64-C , 65-C ) :   1.5650 B( 64-C , 68-C ) :   0.1070 B( 64-C , 69-S ) :   1.1194
B( 65-C , 66-Cl) :   1.0509 B( 65-C , 67-C ) :   1.2285 B( 67-C , 68-C ) :   1.5006
B( 67-C , 98-H ) :   1.0019 B( 68-C , 69-S ) :   1.1198 B( 68-C , 70-C ) :   1.1448
B( 70-C , 71-C ) :   1.4909 B( 70-C , 75-S ) :   1.1080 B( 71-C , 72-C ) :   1.2572
B( 71-C , 99-H ) :   1.0022 B( 72-C , 73-Cl) :   1.0253 B( 72-C , 74-C ) :   1.5036
B( 74-C , 75-S ) :   1.1226 B( 74-C , 76-C ) :   1.1668 B( 76-C , 77-C ) :   1.4922
B( 76-C , 81-S ) :   1.1389 B( 77-C , 78-Cl) :   1.0265 B( 77-C , 79-C ) :   1.2650
B( 79-C , 80-C ) :   1.5594 B( 79-C ,100-H ) :   1.0003 B( 80-C , 81-S ) :   1.1554
B( 80-C ,101-H ) :   0.9692

-----------------------------------------------------------------------------
         ABSORPTION SPECTRUM VIA TRANSITION ELECTRIC DIPOLE MOMENTS
-----------------------------------------------------------------------------
State   Energy  Wavelength   fosc         T2         TX        TY        TZ
        (cm-1)    (nm)                  (au**2)     (au)      (au)      (au)
-----------------------------------------------------------------------------
   0   11837.3    844.8   0.212675695   5.91480  -0.01948   2.42897   0.12055
   1   13931.0    717.8   0.110640389   2.61462  -0.01641  -1.58484   0.32039
   2   18727.9    534.0   0.010296987   0.18101  -0.09278  -0.21386   0.35590
   3   20729.1    482.4   0.228258381   3.62511  -0.27055  -1.82513   0.46992
   4   21614.7    462.6   0.292293567   4.45191   0.25419   2.08547  -0.19528
   5   23122.3    432.5   2.491915515  35.47946   0.26578   5.93387  -0.44501
   6   24681.8    405.2   0.194148263   2.58960  -0.32333  -1.48287   0.53493
   7   25035.2    399.4   0.052622086   0.69198  -0.34901  -0.10361   0.74796
   8   25576.9    391.0   0.300041247   3.86196   0.09178   1.79035   0.80511
   9   27456.6    364.2   0.154781649   1.85587  -0.53741   0.91246   0.85702
  10   27763.5    360.2   0.034301826   0.40674  -0.41580   0.12672   0.46668
  11   28576.2    349.9   0.029230313   0.33675   0.21783   0.41833  -0.33807
  12   29128.8    343.3   0.142745851   1.61330   0.50202   0.66073  -0.96162
  13   29951.2    333.9   0.074150554   0.81503  -0.49186   0.34133   0.67572
  14   30356.1    329.4   0.149469690   1.62100  -0.42744   1.03462   0.60650
  15   30572.4    327.1   0.057043889   0.61426  -0.01231   0.78022   0.07331
  16   30723.8    325.5   0.687717417   7.36903   0.71379  -2.38573  -1.08065
  17   30814.6    324.5   0.131714729   1.40719  -0.26318  -1.05108   0.48288
  18   31032.8    322.2   0.106557695   1.13042  -0.04946  -1.06042   0.05896
  19   31588.0    316.6   0.230810468   2.40552   0.81342   0.30391  -1.28511
  20   31857.5    313.9   0.084142840   0.86952  -0.39842   0.57695   0.61475
  21   32209.6    310.5   0.604606434   6.17963  -1.23878  -0.76329   2.01555
  22   32461.3    308.1   0.155649133   1.57854   0.69432   0.32601  -0.99508
  23   32640.5    306.4   0.186122283   1.87723  -0.48829  -0.55780   1.15224
  24   33081.9    302.3   0.012996474   0.12933  -0.19135   0.10586   0.28550
  25   33348.6    299.9   0.552324862   5.45246   1.11965  -0.64334  -1.94550
  26   33731.5    296.5   0.022951998   0.22401  -0.15006   0.04971   0.44611
  27   34184.6    292.5   0.053987109   0.51992  -0.30466   0.53527   0.37494
  28   34258.9    291.9   0.196074496   1.88418  -0.46502   1.10476   0.66892
  29   34456.5    290.2   0.055091136   0.52636  -0.06241  -0.72046  -0.05837
  30   34558.9    289.4   0.024256318   0.23107  -0.07590   0.47369   0.03038
  31   34746.6    287.8   0.019361056   0.18344  -0.08023  -0.40336   0.11958
  32   34813.3    287.2   0.001852568   0.01752   0.02043   0.07231  -0.10896
  33   35336.8    283.0   0.008749464   0.08151   0.04573   0.26758   0.08845
  34   35995.0    277.8   0.021340431   0.19518   0.19271   0.35281  -0.18322
  35   36155.7    276.6   0.036057209   0.32832   0.23877  -0.22578  -0.46939
  36   36696.9    272.5   0.038224757   0.34292  -0.09422   0.30223   0.49264
  37   37056.6    269.9   0.015725620   0.13971   0.15052  -0.27977  -0.19692
  38   37108.5    269.5   0.090387412   0.80188  -0.00595   0.86699   0.22399
  39   37356.1    267.7   0.006205831   0.05469   0.08721   0.00030  -0.21699
  40   37727.6    265.1   0.002629610   0.02295  -0.12636  -0.06925   0.04673
  41   37852.0    264.2   0.002967561   0.02581  -0.05127   0.01545  -0.15147
  42   37980.3    263.3   0.040041242   0.34708  -0.26987  -0.29449   0.43304
  43   38088.9    262.5   0.025799267   0.22299  -0.05885   0.10540   0.45653
  44   38581.9    259.2   0.031557316   0.26927  -0.13770   0.25501   0.43044
  45   38636.2    258.8   0.001162159   0.00990  -0.09423  -0.00559  -0.03151
  46   39070.2    255.9   0.057032840   0.48057  -0.05165  -0.66824   0.17707
  47   39495.3    253.2   0.019221339   0.16022   0.05818   0.39602  -0.00156
  48   39543.4    252.9   0.022967902   0.19122  -0.10665   0.42362   0.01970
  49   39570.0    252.7   0.012488839   0.10390  -0.04169  -0.24995   0.19923
  50   39784.5    251.4   0.030266888   0.25045  -0.23929   0.36337   0.24729
  51   39954.2    250.3   0.055621659   0.45831  -0.18434  -0.52449   0.38630
  52   40083.8    249.5   0.057098597   0.46896   0.03066   0.64826   0.21857

FINAL SINGLE POINT ENERGY    -10051.351494355193

DIPOLE MOMENT
-------------
                                X             Y             Z
Electronic contribution:     -5.00670      87.15734      12.99597
Nuclear contribution   :      3.45658     -86.89540     -10.31898
                        -----------------------------------------
Total Dipole Moment    :     -1.55012       0.26194       2.67699
                        -----------------------------------------
Magnitude (a.u.)       :      3.10448
Magnitude (Debye)      :      7.89096

Rotational constants in cm-1:     0.001317     0.000106     0.000099
Rotational constants in MHz :    39.491436     3.180797     2.971159

                             ****ORCA TERMINATED NORMALLY****
TOTAL RUN TIME: 0 days 0 hours 10 minutes 34 seconds 340 msec
