                         Program Version 4.2.0 -  RELEASE  -
|  1> # ORCA input file
|  2> # SCF done       -169.686873488103          0.000748653489
|  3> ! CAM-B3LYP def2-SVP def2/J RIJCOSX Grid4 TightSCF
|  4> %maxcore 5000
|  5> %tddft
|  6>     Mode sTDDFT
|  7>     Ethresh 5.0
|  8>     maxcore 5000
|  9> end
| 10>
| 11> %pal
| 12>   nprocs 6
| 13>   end
| 14> * xyz 0 1
| 15>    C       -0.01608        -1.57662        -5.02508
| 16>    C       -0.91498        -0.79633        -5.68602
| 17>    C       -1.06731         0.45436        -5.05689
| 18>    C       -0.26222         0.58122        -3.91868
| 19>    S        0.66924        -0.81798        -3.62545
| 20>    C       -0.48039         1.86834        -3.34824
| 21>    C       -1.42346         2.54613        -4.13115
| 22>    C       -1.82347         1.67962        -5.23410
| 23>    C       -2.71932         1.97040        -6.22102
| 24>    C       -3.38936         3.21009        -6.28327
| 25>    N       -3.93588         4.21676        -6.33847
| 26>    C       -3.03410         1.05373        -7.24596
| 27>    N       -3.29454         0.31307        -8.08153
| 28>    C       -1.71224         3.82460        -3.65096
| 29>    C       -0.99293         4.12069        -2.50879
| 30>    S        0.05719         2.79844        -2.02123
| 31>    C       -1.03235         5.31713        -1.74710
| 32>    C       -0.30408         5.62369        -0.61375
| 33>    C       -0.60768         6.89599        -0.12635
| 34>    C       -1.57652         7.55920        -0.89647
| 35>    S       -2.11194         6.62243        -2.22043
| 36>    C       -1.81938         8.83162        -0.31989
| 37>    C       -1.00180         8.97610         0.81246
| 38>    C       -0.21484         7.76232         0.97415
| 39>    C        0.69075         7.48844         1.95598
| 40>    C        0.98645         8.40787         2.98481
| 41>    N        1.22466         9.15091         3.82466
| 42>    C        1.38782         6.26296         2.00993
| 43>    N        1.95611         5.26796         2.05500
| 44>    C       -1.17528        10.20239         1.45576
| 45>    C       -2.12218        10.98784         0.82576
| 46>    S       -2.80450        10.19997        -0.59112
| 47>    C       -2.57739        12.27629         1.20485
| 48>    C       -3.58007        13.02575         0.62355
| 49>    C       -3.80033        14.24329         1.26170
| 50>    C       -2.96593        14.45503         2.34047
| 51>    S       -1.88338        13.10992         2.56736
| 52>    C       -2.93598        15.57380         3.21162
| 53>    C       -2.04537        15.82930         4.23715
| 54>    C       -2.33613        17.02496         4.89585
| 55>    C       -3.46189        17.67927         4.37048
| 56>    S       -4.15365        16.83383         3.05797
| 57>    C       -3.68852        18.86370         5.11626
| 58>    C       -2.70212        18.96259         6.11059
| 59>    C       -1.81390        17.81578         6.00064
| 60>    C       -0.71922        17.54490         6.76701
| 61>    C       -0.30966        18.39709         7.81428
| 62>    N        0.02624        19.08788         8.66567
| 63>    C        0.07898        16.39960         6.56104
| 64>    N        0.73214        15.47244         6.39392
| 65>    C       -2.85095        20.09550         6.91237
| 66>    C       -3.94394        20.85333         6.53821
| 67>    S       -4.79921        20.16014         5.16668
| 68>    C       -4.41373        22.05396         7.13068
| 69>    C       -5.53200        22.78561         6.77876
| 70>    C       -5.69642        23.90836         7.59166
| 71>    C       -4.69559        24.03050         8.56386
| 72>    S       -3.55025        22.76670         8.48527
| 73>    C       -4.95685        25.19918         9.33558
| 74>    C       -6.12042        25.80599         8.84800
| 75>    C       -6.62849        25.02049         7.73929
| 76>    C       -7.74401        25.25941         6.99120
| 77>    C       -8.58311        26.36914         7.22420
| 78>    N       -9.27005        27.26839         7.40904
| 79>    C       -8.13382        24.41038         5.93438
| 80>    N       -8.45298        23.72102         5.07526
| 81>    C       -6.45480        26.97506         9.55841
| 82>    C       -5.55623        27.22566        10.55012
| 83>    S       -4.28273        26.05407        10.64938
| 84>    H        0.29732        -2.57107        -5.27214
| 85>    H       -1.43637        -1.10602        -6.57318
| 86>    H       -2.40612         4.51400        -4.09759
| 87>    H        0.40685         4.94525        -0.17728
| 88>    H       -0.65329        10.52172         2.33991
| 89>    H       -4.13307        12.68668        -0.23452
| 90>    H       -4.54289        14.95854         0.95493
| 91>    H       -1.23290        15.16712         4.47712
| 92>    H       -2.20882        20.36466         7.73177
| 93>    H       -6.18419        22.50141         5.97248
| 94>    H       -7.30699        27.59673         9.35325
| 95>    H       -5.55644        28.04011        11.24642
| 96> *
| 97>
| 98>                          ****END OF INPUT****

CARTESIAN COORDINATES (ANGSTROEM)
---------------------------------
  C     -0.016080   -1.576620   -5.025080
  C     -0.914980   -0.796330   -5.686020
  C     -1.067310    0.454360   -5.056890
  C     -0.262220    0.581220   -3.918680
  S      0.669240   -0.817980   -3.625450
  C     -0.480390    1.868340   -3.348240
  C     -1.423460    2.546130   -4.131150
  C     -1.823470    1.679620   -5.234100
  C     -2.719320    1.970400   -6.221020
  C     -3.389360    3.210090   -6.283270
  N     -3.935880    4.216760   -6.338470
  C     -3.034100    1.053730   -7.245960
  N     -3.294540    0.313070   -8.081530
  C     -1.712240    3.824600   -3.650960
  C     -0.992930    4.120690   -2.508790
  S      0.057190    2.798440   -2.021230
  C     -1.032350    5.317130   -1.747100
  C     -0.304080    5.623690   -0.613750
  C     -0.607680    6.895990   -0.126350
  C     -1.576520    7.559200   -0.896470
  S     -2.111940    6.622430   -2.220430
  C     -1.819380    8.831620   -0.319890
  C     -1.001800    8.976100    0.812460
  C     -0.214840    7.762320    0.974150
  C      0.690750    7.488440    1.955980
  C      0.986450    8.407870    2.984810
  N      1.224660    9.150910    3.824660
  C      1.387820    6.262960    2.009930
  N      1.956110    5.267960    2.055000
  C     -1.175280   10.202390    1.455760
  C     -2.122180   10.987840    0.825760
  S     -2.804500   10.199970   -0.591120
  C     -2.577390   12.276290    1.204850
  C     -3.580070   13.025750    0.623550
  C     -3.800330   14.243290    1.261700
  C     -2.965930   14.455030    2.340470
  S     -1.883380   13.109920    2.567360
  C     -2.935980   15.573800    3.211620
  C     -2.045370   15.829300    4.237150
  C     -2.336130   17.024960    4.895850
  C     -3.461890   17.679270    4.370480
  S     -4.153650   16.833830    3.057970
  C     -3.688520   18.863700    5.116260
  C     -2.702120   18.962590    6.110590
  C     -1.813900   17.815780    6.000640
  C     -0.719220   17.544900    6.767010
  C     -0.309660   18.397090    7.814280
  N      0.026240   19.087880    8.665670
  C      0.078980   16.399600    6.561040
  N      0.732140   15.472440    6.393920
  C     -2.850950   20.095500    6.912370
  C     -3.943940   20.853330    6.538210
  S     -4.799210   20.160140    5.166680
  C     -4.413730   22.053960    7.130680
  C     -5.532000   22.785610    6.778760
  C     -5.696420   23.908360    7.591660
  C     -4.695590   24.030500    8.563860
  S     -3.550250   22.766700    8.485270
  C     -4.956850   25.199180    9.335580
  C     -6.120420   25.805990    8.848000
  C     -6.628490   25.020490    7.739290
  C     -7.744010   25.259410    6.991200
  C     -8.583110   26.369140    7.224200
  N     -9.270050   27.268390    7.409040
  C     -8.133820   24.410380    5.934380
  N     -8.452980   23.721020    5.075260
  C     -6.454800   26.975060    9.558410
  C     -5.556230   27.225660   10.550120
  S     -4.282730   26.054070   10.649380
  H      0.297320   -2.571070   -5.272140
  H     -1.436370   -1.106020   -6.573180
  H     -2.406120    4.514000   -4.097590
  H      0.406850    4.945250   -0.177280
  H     -0.653290   10.521720    2.339910
  H     -4.133070   12.686680   -0.234520
  H     -4.542890   14.958540    0.954930
  H     -1.232900   15.167120    4.477120
  H     -2.208820   20.364660    7.731770
  H     -6.184190   22.501410    5.972480
  H     -7.306990   27.596730    9.353250
  H     -5.556440   28.040110   11.246420

 Total Charge           Charge          ....    0
 Multiplicity           Mult            ....    1
 Number of Electrons    NEL             ....  524
 Basis Dimension        Dim             .... 1062

ORBITAL ENERGIES
----------------

  NO   OCC          E(Eh)            E(eV)
   0   2.0000     -88.992399     -2421.6063
   1   2.0000     -88.992127     -2421.5989
   2   2.0000     -88.991767     -2421.5891
   3   2.0000     -88.991441     -2421.5802
   4   2.0000     -88.990880     -2421.5650
   5   2.0000     -88.990752     -2421.5615
   6   2.0000     -88.987720     -2421.4790
   7   2.0000     -88.987457     -2421.4718
   8   2.0000     -88.971694     -2421.0429
   9   2.0000     -14.432082      -392.7169
  10   2.0000     -14.432027      -392.7154
  11   2.0000     -14.430629      -392.6774
  12   2.0000     -14.430625      -392.6773
  13   2.0000     -14.430477      -392.6732
  14   2.0000     -14.430380      -392.6706
  15   2.0000     -14.429279      -392.6407
  16   2.0000     -14.429238      -392.6395
  17   2.0000     -10.366088      -282.0756
  18   2.0000     -10.365979      -282.0726
  19   2.0000     -10.363611      -282.0082
  20   2.0000     -10.363522      -282.0058
  21   2.0000     -10.352987      -281.7191
  22   2.0000     -10.352959      -281.7183
  23   2.0000     -10.351334      -281.6741
  24   2.0000     -10.351325      -281.6739
  25   2.0000     -10.333256      -281.1822
  26   2.0000     -10.333248      -281.1820
  27   2.0000     -10.332450      -281.1602
  28   2.0000     -10.332376      -281.1582
  29   2.0000     -10.332237      -281.1545
  30   2.0000     -10.332188      -281.1531
  31   2.0000     -10.331358      -281.1306
  32   2.0000     -10.331296      -281.1289
  33   2.0000     -10.331270      -281.1281
  34   2.0000     -10.331268      -281.1281
  35   2.0000     -10.330817      -281.1158
  36   2.0000     -10.330785      -281.1150
  37   2.0000     -10.330496      -281.1071
  38   2.0000     -10.330386      -281.1041
  39   2.0000     -10.330085      -281.0959
  40   2.0000     -10.330065      -281.0953
  41   2.0000     -10.329646      -281.0840
  42   2.0000     -10.329644      -281.0839
  43   2.0000     -10.329591      -281.0825
  44   2.0000     -10.329587      -281.0824
  45   2.0000     -10.328749      -281.0596
  46   2.0000     -10.328707      -281.0584
  47   2.0000     -10.321826      -280.8712
  48   2.0000     -10.321792      -280.8702
  49   2.0000     -10.311534      -280.5911
  50   2.0000     -10.311402      -280.5875
  51   2.0000     -10.304319      -280.3948
  52   2.0000     -10.304299      -280.3942
  53   2.0000     -10.303842      -280.3818
  54   2.0000     -10.303816      -280.3811
  55   2.0000     -10.303377      -280.3691
  56   2.0000     -10.303367      -280.3689
  57   2.0000     -10.302999      -280.3589
  58   2.0000     -10.302973      -280.3582
  59   2.0000     -10.302487      -280.3449
  60   2.0000     -10.302476      -280.3446
  61   2.0000     -10.301322      -280.3132
  62   2.0000     -10.301298      -280.3126
  63   2.0000     -10.299011      -280.2503
  64   2.0000     -10.298997      -280.2500
  65   2.0000     -10.297407      -280.2067
  66   2.0000     -10.297396      -280.2064
  67   2.0000     -10.290356      -280.0148
  68   2.0000     -10.289999      -280.0051
  69   2.0000      -8.086780      -220.0525
  70   2.0000      -8.086628      -220.0483
  71   2.0000      -8.086140      -220.0350
  72   2.0000      -8.085948      -220.0298
  73   2.0000      -8.085447      -220.0162
  74   2.0000      -8.085377      -220.0143
  75   2.0000      -8.082692      -219.9412
  76   2.0000      -8.082545      -219.9372
  77   2.0000      -8.066997      -219.5141
  78   2.0000      -6.056072      -164.7941
  79   2.0000      -6.055930      -164.7902
  80   2.0000      -6.055415      -164.7762
  81   2.0000      -6.055233      -164.7713
  82   2.0000      -6.054763      -164.7585
  83   2.0000      -6.054686      -164.7564
  84   2.0000      -6.051957      -164.6821
  85   2.0000      -6.051933      -164.6815
  86   2.0000      -6.051794      -164.6777
  87   2.0000      -6.051771      -164.6771
  88   2.0000      -6.051293      -164.6640
  89   2.0000      -6.051092      -164.6586
  90   2.0000      -6.050569      -164.6444
  91   2.0000      -6.050510      -164.6427
  92   2.0000      -6.049052      -164.6031
  93   2.0000      -6.048852      -164.5976
  94   2.0000      -6.048440      -164.5864
  95   2.0000      -6.048197      -164.5798
  96   2.0000      -6.047702      -164.5663
  97   2.0000      -6.047609      -164.5638
  98   2.0000      -6.047475      -164.5602
  99   2.0000      -6.047343      -164.5566
 100   2.0000      -6.045326      -164.5017
 101   2.0000      -6.045138      -164.4966
 102   2.0000      -6.036427      -164.2595
 103   2.0000      -6.032306      -164.1474
 104   2.0000      -6.028812      -164.0523
 105   2.0000      -1.046682       -28.4817
 106   2.0000      -1.046423       -28.4746
 107   2.0000      -1.042697       -28.3732
 108   2.0000      -1.042593       -28.3704
 109   2.0000      -1.023460       -27.8498
 110   2.0000      -1.023218       -27.8432
 111   2.0000      -1.021605       -27.7993
 112   2.0000      -1.021447       -27.7950
 113   2.0000      -1.011803       -27.5325
 114   2.0000      -1.008949       -27.4549
 115   2.0000      -1.008497       -27.4426
 116   2.0000      -1.007683       -27.4204
 117   2.0000      -1.007525       -27.4161
 118   2.0000      -1.004467       -27.3329
 119   2.0000      -0.997822       -27.1521
 120   2.0000      -0.990387       -26.9498
 121   2.0000      -0.983513       -26.7627
 122   2.0000      -0.962626       -26.1944
 123   2.0000      -0.959022       -26.0963
 124   2.0000      -0.953999       -25.9596
 125   2.0000      -0.953329       -25.9414
 126   2.0000      -0.921491       -25.0750
 127   2.0000      -0.917219       -24.9588
 128   2.0000      -0.905438       -24.6382
 129   2.0000      -0.901297       -24.5255
 130   2.0000      -0.876824       -23.8596
 131   2.0000      -0.872441       -23.7403
 132   2.0000      -0.868918       -23.6445
 133   2.0000      -0.868663       -23.6375
 134   2.0000      -0.861059       -23.4306
 135   2.0000      -0.860296       -23.4098
 136   2.0000      -0.856480       -23.3060
 137   2.0000      -0.850500       -23.1433
 138   2.0000      -0.849270       -23.1098
 139   2.0000      -0.843682       -22.9578
 140   2.0000      -0.828598       -22.5473
 141   2.0000      -0.818684       -22.2775
 142   2.0000      -0.792855       -21.5747
 143   2.0000      -0.779493       -21.2111
 144   2.0000      -0.776127       -21.1195
 145   2.0000      -0.775942       -21.1145
 146   2.0000      -0.774675       -21.0800
 147   2.0000      -0.766324       -20.8527
 148   2.0000      -0.745820       -20.2948
 149   2.0000      -0.729379       -19.8474
 150   2.0000      -0.712176       -19.3793
 151   2.0000      -0.703389       -19.1402
 152   2.0000      -0.702924       -19.1275
 153   2.0000      -0.701644       -19.0927
 154   2.0000      -0.691374       -18.8132
 155   2.0000      -0.688495       -18.7349
 156   2.0000      -0.684842       -18.6355
 157   2.0000      -0.682791       -18.5797
 158   2.0000      -0.675730       -18.3875
 159   2.0000      -0.674157       -18.3448
 160   2.0000      -0.658977       -17.9317
 161   2.0000      -0.656115       -17.8538
 162   2.0000      -0.635893       -17.3035
 163   2.0000      -0.633758       -17.2454
 164   2.0000      -0.629813       -17.1381
 165   2.0000      -0.627682       -17.0801
 166   2.0000      -0.623440       -16.9647
 167   2.0000      -0.620800       -16.8928
 168   2.0000      -0.620508       -16.8849
 169   2.0000      -0.619588       -16.8598
 170   2.0000      -0.618425       -16.8282
 171   2.0000      -0.614818       -16.7300
 172   2.0000      -0.611482       -16.6393
 173   2.0000      -0.608064       -16.5463
 174   2.0000      -0.590327       -16.0636
 175   2.0000      -0.573126       -15.5955
 176   2.0000      -0.570602       -15.5269
 177   2.0000      -0.558111       -15.1870
 178   2.0000      -0.549901       -14.9636
 179   2.0000      -0.549798       -14.9608
 180   2.0000      -0.549393       -14.9497
 181   2.0000      -0.544859       -14.8264
 182   2.0000      -0.544655       -14.8208
 183   2.0000      -0.537814       -14.6347
 184   2.0000      -0.536106       -14.5882
 185   2.0000      -0.525035       -14.2869
 186   2.0000      -0.518611       -14.1121
 187   2.0000      -0.515001       -14.0139
 188   2.0000      -0.513255       -13.9664
 189   2.0000      -0.512233       -13.9386
 190   2.0000      -0.509214       -13.8564
 191   2.0000      -0.509130       -13.8541
 192   2.0000      -0.506047       -13.7702
 193   2.0000      -0.503686       -13.7060
 194   2.0000      -0.500157       -13.6100
 195   2.0000      -0.499306       -13.5868
 196   2.0000      -0.498143       -13.5552
 197   2.0000      -0.494922       -13.4675
 198   2.0000      -0.494743       -13.4626
 199   2.0000      -0.494165       -13.4469
 200   2.0000      -0.491641       -13.3782
 201   2.0000      -0.487440       -13.2639
 202   2.0000      -0.486275       -13.2322
 203   2.0000      -0.484261       -13.1774
 204   2.0000      -0.483353       -13.1527
 205   2.0000      -0.479899       -13.0587
 206   2.0000      -0.479227       -13.0404
 207   2.0000      -0.473364       -12.8809
 208   2.0000      -0.472717       -12.8633
 209   2.0000      -0.468541       -12.7496
 210   2.0000      -0.462473       -12.5845
 211   2.0000      -0.462340       -12.5809
 212   2.0000      -0.461775       -12.5655
 213   2.0000      -0.461629       -12.5616
 214   2.0000      -0.461566       -12.5598
 215   2.0000      -0.460013       -12.5176
 216   2.0000      -0.458275       -12.4703
 217   2.0000      -0.458063       -12.4645
 218   2.0000      -0.457356       -12.4453
 219   2.0000      -0.457343       -12.4449
 220   2.0000      -0.452888       -12.3237
 221   2.0000      -0.448215       -12.1966
 222   2.0000      -0.443125       -12.0580
 223   2.0000      -0.442454       -12.0398
 224   2.0000      -0.441602       -12.0166
 225   2.0000      -0.441481       -12.0133
 226   2.0000      -0.441394       -12.0109
 227   2.0000      -0.441274       -12.0077
 228   2.0000      -0.440359       -11.9828
 229   2.0000      -0.440291       -11.9809
 230   2.0000      -0.439083       -11.9480
 231   2.0000      -0.438922       -11.9437
 232   2.0000      -0.437784       -11.9127
 233   2.0000      -0.437070       -11.8933
 234   2.0000      -0.436890       -11.8884
 235   2.0000      -0.430232       -11.7072
 236   2.0000      -0.429593       -11.6898
 237   2.0000      -0.426961       -11.6182
 238   2.0000      -0.425523       -11.5791
 239   2.0000      -0.424967       -11.5639
 240   2.0000      -0.422985       -11.5100
 241   2.0000      -0.419131       -11.4051
 242   2.0000      -0.408648       -11.1199
 243   2.0000      -0.407042       -11.0762
 244   2.0000      -0.394073       -10.7233
 245   2.0000      -0.387640       -10.5482
 246   2.0000      -0.375749       -10.2247
 247   2.0000      -0.357484        -9.7276
 248   2.0000      -0.352849        -9.6015
 249   2.0000      -0.352087        -9.5808
 250   2.0000      -0.346863        -9.4386
 251   2.0000      -0.346591        -9.4312
 252   2.0000      -0.338346        -9.2069
 253   2.0000      -0.333628        -9.0785
 254   2.0000      -0.323490        -8.8026
 255   2.0000      -0.323236        -8.7957
 256   2.0000      -0.321302        -8.7431
 257   2.0000      -0.320653        -8.7254
 258   2.0000      -0.304575        -8.2879
 259   2.0000      -0.278780        -7.5860
 260   2.0000      -0.253807        -6.9064
 261   2.0000      -0.234144        -6.3714
 262   0.0000      -0.108743        -2.9591
 263   0.0000      -0.105160        -2.8616
 264   0.0000      -0.101357        -2.7581
 265   0.0000      -0.101271        -2.7557
 266   0.0000      -0.056769        -1.5448

MULLIKEN ATOMIC CHARGES
-----------------------
   0 C :   -0.080671
   1 C :    0.037546
   2 C :   -0.033912
   3 C :   -0.116872
   4 S :    0.184661
   5 C :   -0.099725
   6 C :    0.015608
   7 C :    0.297788
   8 C :   -0.297940
   9 C :   -0.186819
  10 N :    0.169482
  11 C :   -0.189889
  12 N :    0.173026
  13 C :   -0.069598
  14 C :   -0.051113
  15 S :    0.192720
  16 C :   -0.048555
  17 C :   -0.069812
  18 C :    0.015964
  19 C :   -0.096803
  20 S :    0.192066
  21 C :   -0.102669
  22 C :    0.014574
  23 C :    0.298149
  24 C :   -0.294951
  25 C :   -0.189505
  26 N :    0.177958
  27 C :   -0.187524
  28 N :    0.172189
  29 C :   -0.064208
  30 C :   -0.031274
  31 S :    0.184557
  32 C :   -0.050181
  33 C :   -0.011228
  34 C :   -0.011212
  35 C :   -0.049171
  36 S :    0.144275
  37 C :   -0.034581
  38 C :   -0.061552
  39 C :    0.011463
  40 C :   -0.100006
  41 S :    0.184799
  42 C :   -0.098127
  43 C :    0.014496
  44 C :    0.299442
  45 C :   -0.294819
  46 C :   -0.186303
  47 N :    0.169286
  48 C :   -0.191369
  49 N :    0.180292
  50 C :   -0.067713
  51 C :   -0.048126
  52 S :    0.191567
  53 C :   -0.050791
  54 C :   -0.067136
  55 C :    0.014040
  56 C :   -0.100639
  57 S :    0.192642
  58 C :   -0.116058
  59 C :   -0.034392
  60 C :    0.298444
  61 C :   -0.297569
  62 C :   -0.191447
  63 N :    0.174741
  64 C :   -0.185426
  65 N :    0.166107
  66 C :    0.039688
  67 C :   -0.083853
  68 S :    0.184590
  69 H :    0.036105
  70 H :    0.011495
  71 H :    0.010698
  72 H :    0.010734
  73 H :    0.014230
  74 H :   -0.008347
  75 H :   -0.008414
  76 H :    0.014972
  77 H :    0.010086
  78 H :    0.010136
  79 H :    0.012358
  80 H :    0.037327
Sum of atomic charges:   -0.0000000

LOEWDIN ATOMIC CHARGES
----------------------
   0 C :   -0.177890
   1 C :   -0.033701
   2 C :   -0.078066
   3 C :   -0.183710
   4 S :    0.479947
   5 C :   -0.180456
   6 C :   -0.069176
   7 C :    0.084145
   8 C :   -0.104238
   9 C :   -0.015737
  10 N :   -0.036702
  11 C :   -0.017087
  12 N :   -0.032746
  13 C :   -0.040710
  14 C :   -0.181262
  15 S :    0.483843
  16 C :   -0.179399
  17 C :   -0.040227
  18 C :   -0.069647
  19 C :   -0.179585
  20 S :    0.482396
  21 C :   -0.182183
  22 C :   -0.068580
  23 C :    0.082708
  24 C :   -0.100030
  25 C :   -0.018034
  26 N :   -0.027598
  27 C :   -0.015582
  28 N :   -0.033547
  29 C :   -0.036493
  30 C :   -0.175012
  31 S :    0.476188
  32 C :   -0.183919
  33 C :   -0.060095
  34 C :   -0.060357
  35 C :   -0.184006
  36 S :    0.453052
  37 C :   -0.175169
  38 C :   -0.036503
  39 C :   -0.068666
  40 C :   -0.181954
  41 S :    0.476391
  42 C :   -0.179846
  43 C :   -0.069789
  44 C :    0.082688
  45 C :   -0.100044
  46 C :   -0.015448
  47 N :   -0.033719
  48 C :   -0.018302
  49 N :   -0.027402
  50 C :   -0.040056
  51 C :   -0.179339
  52 S :    0.482673
  53 C :   -0.181299
  54 C :   -0.040499
  55 C :   -0.069382
  56 C :   -0.180609
  57 S :    0.484057
  58 C :   -0.183545
  59 C :   -0.078106
  60 C :    0.084199
  61 C :   -0.104316
  62 C :   -0.017294
  63 N :   -0.032678
  64 C :   -0.015486
  65 N :   -0.036990
  66 C :   -0.033737
  67 C :   -0.178130
  68 S :    0.480004
  69 H :    0.027690
  70 H :    0.042519
  71 H :    0.034815
  72 H :    0.035398
  73 H :    0.037677
  74 H :    0.027551
  75 H :    0.027629
  76 H :    0.037925
  77 H :    0.035331
  78 H :    0.034735
  79 H :    0.042647
  80 H :    0.027874

  Mayer bond orders larger than 0.100000
B(  0-C ,  1-C ) :   1.5498 B(  0-C ,  4-S ) :   1.1496 B(  0-C , 69-H ) :   0.9642
B(  1-C ,  2-C ) :   1.2756 B(  1-C , 70-H ) :   0.9967 B(  2-C ,  3-C ) :   1.4578
B(  2-C ,  7-C ) :   1.0164 B(  3-C ,  4-S ) :   1.1385 B(  3-C ,  5-C ) :   1.1782
B(  5-C ,  6-C ) :   1.4661 B(  5-C , 15-S ) :   1.1219 B(  6-C ,  7-C ) :   0.9929
B(  6-C , 13-C ) :   1.2935 B(  7-C ,  8-C ) :   1.7102 B(  8-C ,  9-C ) :   1.1337
B(  8-C , 11-C ) :   1.1294 B(  9-C , 10-N ) :   2.9897 B( 11-C , 12-N ) :   3.0025
B( 13-C , 14-C ) :   1.4654 B( 13-C , 71-H ) :   0.9872 B( 14-C , 15-S ) :   1.1102
B( 14-C , 16-C ) :   1.1649 B( 16-C , 17-C ) :   1.4653 B( 16-C , 20-S ) :   1.1064
B( 17-C , 18-C ) :   1.2940 B( 17-C , 72-H ) :   0.9874 B( 18-C , 19-C ) :   1.4506
B( 18-C , 23-C ) :   0.9961 B( 19-C , 20-S ) :   1.1188 B( 19-C , 21-C ) :   1.1844
B( 21-C , 22-C ) :   1.4513 B( 21-C , 31-S ) :   1.1183 B( 22-C , 23-C ) :   0.9925
B( 22-C , 29-C ) :   1.2923 B( 23-C , 24-C ) :   1.7160 B( 24-C , 25-C ) :   1.1307
B( 24-C , 27-C ) :   1.1337 B( 25-C , 26-N ) :   2.9948 B( 27-C , 28-N ) :   2.9906
B( 29-C , 30-C ) :   1.4626 B( 29-C , 73-H ) :   0.9905 B( 30-C , 31-S ) :   1.1039
B( 30-C , 32-C ) :   1.1574 B( 32-C , 33-C ) :   1.4978 B( 32-C , 35-C ) :   0.1020
B( 32-C , 36-S ) :   1.1234 B( 33-C , 34-C ) :   1.2744 B( 33-C , 74-H ) :   0.9919
B( 34-C , 35-C ) :   1.4973 B( 34-C , 75-H ) :   0.9917 B( 35-C , 36-S ) :   1.1234
B( 35-C , 37-C ) :   1.1572 B( 37-C , 38-C ) :   1.4635 B( 37-C , 41-S ) :   1.1042
B( 38-C , 39-C ) :   1.2928 B( 38-C , 76-H ) :   0.9898 B( 39-C , 40-C ) :   1.4519
B( 39-C , 44-C ) :   0.9951 B( 40-C , 41-S ) :   1.1182 B( 40-C , 42-C ) :   1.1837
B( 42-C , 43-C ) :   1.4517 B( 42-C , 52-S ) :   1.1189 B( 43-C , 44-C ) :   0.9947
B( 43-C , 50-C ) :   1.2960 B( 44-C , 45-C ) :   1.7141 B( 45-C , 46-C ) :   1.1336
B( 45-C , 48-C ) :   1.1317 B( 46-C , 47-N ) :   2.9897 B( 48-C , 49-N ) :   2.9961
B( 50-C , 51-C ) :   1.4644 B( 50-C , 77-H ) :   0.9879 B( 51-C , 52-S ) :   1.1064
B( 51-C , 53-C ) :   1.1636 B( 53-C , 54-C ) :   1.4645 B( 53-C , 57-S ) :   1.1099
B( 54-C , 55-C ) :   1.2954 B( 54-C , 78-H ) :   0.9875 B( 55-C , 56-C ) :   1.4672
B( 55-C , 60-C ) :   0.9926 B( 56-C , 57-S ) :   1.1221 B( 56-C , 58-C ) :   1.1783
B( 58-C , 59-C ) :   1.4579 B( 58-C , 68-S ) :   1.1380 B( 59-C , 60-C ) :   1.0193
B( 59-C , 66-C ) :   1.2753 B( 60-C , 61-C ) :   1.7079 B( 61-C , 62-C ) :   1.1304
B( 61-C , 64-C ) :   1.1333 B( 62-C , 63-N ) :   3.0033 B( 64-C , 65-N ) :   2.9887
B( 66-C , 67-C ) :   1.5488 B( 66-C , 79-H ) :   0.9962 B( 67-C , 68-S ) :   1.1501
B( 67-C , 80-H ) :   0.9645

-----------------------------------------------------------------------------
         ABSORPTION SPECTRUM VIA TRANSITION ELECTRIC DIPOLE MOMENTS
-----------------------------------------------------------------------------
State   Energy  Wavelength   fosc         T2         TX        TY        TZ
        (cm-1)    (nm)                  (au**2)     (au)      (au)      (au)
-----------------------------------------------------------------------------
   0   10730.0    932.0   0.415113678  12.73630  -0.59816   3.09493   1.67329
   1   11282.4    886.3   0.000649612   0.01896  -0.12613   0.01081   0.05413
   2   13470.9    742.3   0.168251380   4.11185  -0.35867   1.74686   0.96524
   3   13500.3    740.7   0.001574264   0.03839   0.16613   0.09144   0.04929
   4   19439.2    514.4   0.000324789   0.00550   0.01854   0.04466  -0.05623
   5   19879.1    503.0   0.193590321   3.20599   0.28079  -1.56729  -0.81899
   6   22098.3    452.5   0.832070815  12.39585  -0.58274   3.05662   1.64723
   7   22400.6    446.4   0.000758552   0.01115  -0.00691  -0.10529  -0.00382
   8   23300.9    429.2   1.475686966  20.84959  -0.75821   3.96333   2.13698
   9   25489.0    392.3   0.076248081   0.98481   0.25493  -0.85983  -0.42486
  10   25501.6    392.1   0.266193785   3.43641  -0.24626   1.61552   0.87514
  11   27354.3    365.6   0.040768717   0.49066   0.64000  -0.03976   0.28192
  12   27744.3    360.4   0.011233443   0.13330   0.05876  -0.30041  -0.19899
  13   28306.6    353.3   0.086343837   1.00420  -0.87017   0.09968  -0.48690
  14   30154.0    331.6   0.350050975   3.82175   0.45923  -1.58928  -1.04166
  15   30478.5    328.1   0.028459794   0.30741   0.44068  -0.09135   0.32383
  16   30799.3    324.7   0.143732383   1.53635  -0.39614   0.90227   0.75189
  17   31399.7    318.5   0.029822328   0.31267   0.43214  -0.09680   0.34141
  18   31896.8    313.5   0.060804680   0.62757  -0.58346   0.17690  -0.50582
  19   31954.7    312.9   0.003581954   0.03690  -0.12032   0.09716   0.11396
  20   32416.2    308.5   2.464099239  25.02486   3.67446  -1.01238   3.24011
  21   32567.8    307.1   0.070538196   0.71304  -0.18635  -0.81653  -0.10762
  22   33171.8    301.5   0.221784743   2.20109  -0.00892  -1.25147  -0.79677
  23   33194.6    301.3   0.099602556   0.98782  -0.64119   0.62464  -0.43187
  24   33688.4    296.8   0.047409207   0.46329  -0.51446  -0.01802  -0.44531
  25   33727.5    296.5   0.247294559   2.41383  -0.33368   1.32582   0.73803
  26   34350.8    291.1   0.038967422   0.37346   0.45638  -0.10385   0.39293
  27   34511.5    289.8   0.034109930   0.32538   0.10835  -0.48870  -0.27353
  28   34722.6    288.0   0.269362095   2.55387  -0.36558   1.33604   0.79701
  29   34800.1    287.4   0.178853490   1.69197   1.02429  -0.19567   0.77751
  30   35111.0    284.8   0.085212879   0.79898  -0.19955   0.73046   0.47496
  31   35481.2    281.8   0.013140710   0.12193  -0.19851   0.09750  -0.27021
  32   35628.1    280.7   0.015209529   0.14054  -0.21008   0.10336  -0.29279
  33   35824.3    279.1   0.149798608   1.37659   0.22092  -1.00409  -0.56533
  34   35956.7    278.1   0.020675216   0.18930   0.04828  -0.39685  -0.17168
  35   36762.8    272.0   0.098258825   0.87991   0.66735  -0.42273   0.50583
  36   36790.1    271.8   0.146986962   1.31530  -0.00124   0.96164   0.62494
  37   37454.9    267.0   0.013870082   0.12191  -0.26136   0.04549  -0.22701
  38   37546.6    266.3   0.008852162   0.07762   0.06049  -0.25715  -0.08851
  39   37913.9    263.8   0.033831354   0.29376   0.43277  -0.09608   0.31183
  40   38379.7    260.6   0.030361007   0.26043   0.08048  -0.43491  -0.25456
  41   39021.6    256.3   0.005357699   0.04520   0.09035   0.07726   0.17626
  42   39035.9    256.2   0.028302599   0.23869   0.08400  -0.44919  -0.17282
  43   39428.3    253.6   0.000246387   0.00206  -0.04422  -0.01008  -0.00054
  44   39557.5    252.8   0.034838010   0.28993   0.39346  -0.16568   0.32814
  45   39579.1    252.7   0.015674024   0.13037  -0.04301  -0.30713  -0.18492

FINAL SINGLE POINT ENERGY     -6006.070773238889

DIPOLE MOMENT
-------------
                                X             Y             Z
Electronic contribution:      3.21927      -0.50493       2.14349
Nuclear contribution   :     -3.19440       0.47853      -2.06475
                        -----------------------------------------
Total Dipole Moment    :      0.02487      -0.02640       0.07874
                        -----------------------------------------
Magnitude (a.u.)       :      0.08669
Magnitude (Debye)      :      0.22034

Rotational constants in cm-1:     0.002923     0.000158     0.000150
Rotational constants in MHz :    87.624292     4.722384     4.491553

                             ****ORCA TERMINATED NORMALLY****
TOTAL RUN TIME: 0 days 0 hours 7 minutes 9 seconds 938 msec
