                         Program Version 4.2.0 -  RELEASE  -
|  1> # ORCA input file
|  2> # SCF done       -184.046463602603          0.000862202441
|  3> ! CAM-B3LYP def2-SVP def2/J RIJCOSX Grid4 TightSCF
|  4> %maxcore 5000
|  5> %tddft
|  6>     Mode sTDDFT
|  7>     Ethresh 5.0
|  8>     maxcore 5000
|  9> end
| 10>
| 11> %pal
| 12>   nprocs 6
| 13>   end
| 14> * xyz 0 1
| 15>    C       -8.97749         1.92300         6.04836
| 16>    C       -8.13979         2.71752         6.77955
| 17>    F       -8.59332         3.85911         7.31801
| 18>    C       -6.79463         2.34990         6.97783
| 19>    F       -5.99540         3.14893         7.70067
| 20>    C       -6.30515         1.19127         6.44304
| 21>    C       -7.14398         0.34987         5.68720
| 22>    C       -8.50403         0.72181         5.48361
| 23>    C       -9.36530        -0.10594         4.72674
| 24>    C       -8.88109        -1.27157         4.19520
| 25>    C       -7.52570        -1.63898         4.41246
| 26>    C       -6.66823        -0.85951         5.13215
| 27>    C       -7.25851        -2.94263         3.76845
| 28>    O       -6.19893        -3.53421         3.78790
| 29>    C       -8.54443        -3.36524         3.17753
| 30>    C       -9.51462        -2.31168         3.38857
| 31>    C      -10.78679        -2.23968         2.87460
| 32>    C      -11.38627        -3.18266         2.01515
| 33>    N      -11.94404        -3.88724         1.29881
| 34>    C      -11.67324        -1.17009         3.11339
| 35>    N      -12.44703        -0.33615         3.27224
| 36>    C       -8.85989        -4.59350         2.64458
| 37>    C       -8.05048        -5.68077         2.29581
| 38>    C       -6.67146        -5.83933         2.17060
| 39>    C       -6.32214        -7.10947         1.74629
| 40>    C       -7.44311        -7.96012         1.54728
| 41>    S       -8.91644        -7.17139         1.85700
| 42>    C       -6.98220        -9.22429         1.15090
| 43>    C       -5.57356        -9.19816         1.08375
| 44>    C       -5.11782        -7.86191         1.44414
| 45>    C       -3.82785        -7.41755         1.46651
| 46>    C       -2.73737        -8.25786         1.15659
| 47>    N       -1.83877        -8.92719         0.91158
| 48>    C       -3.47687        -6.08567         1.77546
| 49>    N       -3.15492        -5.00821         1.99873
| 50>    C       -5.02455       -10.41460         0.69734
| 51>    C       -5.99616       -11.38012         0.47202
| 52>    S       -7.62201       -10.76077         0.73906
| 53>    C       -5.80280       -12.72940         0.07638
| 54>    C       -6.87289       -13.61805        -0.07511
| 55>    N       -6.77483       -14.87349        -0.43368
| 56>    C       -5.59589       -15.45488        -0.70475
| 57>    C       -4.41291       -14.66424        -0.59128
| 58>    C       -4.51935       -13.28609        -0.19348
| 59>    N       -3.33145       -12.69595        -0.13515
| 60>    S       -2.19188       -13.76604        -0.53964
| 61>    N       -3.15924       -15.03167        -0.80840
| 62>    C       -5.63550       -16.80236        -1.07639
| 63>    C       -6.85470       -17.45370        -1.13545
| 64>    C       -7.11460       -18.79501        -1.48339
| 65>    C       -8.44023       -19.13439        -1.44068
| 66>    C       -9.26813       -18.06713        -1.05555
| 67>    S       -8.32442       -16.61091        -0.74911
| 68>    C      -10.64658       -18.03764        -0.90042
| 69>    C      -11.59786       -19.05190        -1.13457
| 70>    C      -12.87680       -18.66429        -0.86468
| 71>    C      -13.00879       -17.32602        -0.41247
| 72>    S      -11.42371       -16.58118        -0.34713
| 73>    C      -14.20596       -16.76826        -0.01839
| 74>    C      -14.53893       -15.50166         0.49647
| 75>    C      -13.75003       -14.36472         0.50275
| 76>    C      -14.32701       -13.20612         1.17244
| 77>    O      -13.67023       -12.01957         1.20794
| 78>    C      -12.62093       -11.89873         0.26637
| 79>    C      -11.76525       -13.15865         0.25370
| 80>    O      -12.55264       -14.28176        -0.10267
| 81>    C      -15.53890       -13.39565         1.74856
| 82>   Si      -16.14664       -15.11230         1.40129
| 83>    C      -17.64369       -15.16519         0.27429
| 84>    C      -16.38006       -16.20026         2.90897
| 85>    H      -10.00466         2.21981         5.90450
| 86>    H       -5.27274         0.92321         6.60404
| 87>    H      -10.38968         0.20247         4.59487
| 88>    H       -5.64258        -1.16299         5.27700
| 89>    H       -9.91516        -4.77770         2.47819
| 90>    H       -5.98105        -5.04700         2.39655
| 91>    H       -3.97853       -10.63034         0.57653
| 92>    H       -7.88259       -13.27378         0.11500
| 93>    H       -4.71819       -17.31737        -1.31011
| 94>    H       -6.32137       -19.46982        -1.75391
| 95>    H       -8.81837       -20.11485        -1.67257
| 96>    H      -11.32100       -20.02491        -1.49903
| 97>    H      -13.73793       -19.29975        -0.97933
| 98>    H      -15.04213       -17.45829        -0.06119
| 99>    H      -13.04203       -11.72894        -0.73421
|100>    H      -12.03685       -11.02804         0.56754
|101>    H      -11.32636       -13.32409         1.24606
|102>    H      -10.96995       -13.09768        -0.49008
|103>    H      -16.01332       -12.57937         2.26437
|104>    H      -17.51252       -14.55075        -0.61420
|105>    H      -18.53674       -14.80614         0.78117
|106>    H      -17.86001       -16.17627        -0.06536
|107>    H      -15.50946       -16.19120         3.56176
|108>    H      -16.56276       -17.23784         2.63609
|109>    H      -17.23008       -15.87853         3.50682
|110> *
|111>
|112>                          ****END OF INPUT****

CARTESIAN COORDINATES (ANGSTROEM)
---------------------------------
  C     -8.977490    1.923000    6.048360
  C     -8.139790    2.717520    6.779550
  F     -8.593320    3.859110    7.318010
  C     -6.794630    2.349900    6.977830
  F     -5.995400    3.148930    7.700670
  C     -6.305150    1.191270    6.443040
  C     -7.143980    0.349870    5.687200
  C     -8.504030    0.721810    5.483610
  C     -9.365300   -0.105940    4.726740
  C     -8.881090   -1.271570    4.195200
  C     -7.525700   -1.638980    4.412460
  C     -6.668230   -0.859510    5.132150
  C     -7.258510   -2.942630    3.768450
  O     -6.198930   -3.534210    3.787900
  C     -8.544430   -3.365240    3.177530
  C     -9.514620   -2.311680    3.388570
  C    -10.786790   -2.239680    2.874600
  C    -11.386270   -3.182660    2.015150
  N    -11.944040   -3.887240    1.298810
  C    -11.673240   -1.170090    3.113390
  N    -12.447030   -0.336150    3.272240
  C     -8.859890   -4.593500    2.644580
  C     -8.050480   -5.680770    2.295810
  C     -6.671460   -5.839330    2.170600
  C     -6.322140   -7.109470    1.746290
  C     -7.443110   -7.960120    1.547280
  S     -8.916440   -7.171390    1.857000
  C     -6.982200   -9.224290    1.150900
  C     -5.573560   -9.198160    1.083750
  C     -5.117820   -7.861910    1.444140
  C     -3.827850   -7.417550    1.466510
  C     -2.737370   -8.257860    1.156590
  N     -1.838770   -8.927190    0.911580
  C     -3.476870   -6.085670    1.775460
  N     -3.154920   -5.008210    1.998730
  C     -5.024550  -10.414600    0.697340
  C     -5.996160  -11.380120    0.472020
  S     -7.622010  -10.760770    0.739060
  C     -5.802800  -12.729400    0.076380
  C     -6.872890  -13.618050   -0.075110
  N     -6.774830  -14.873490   -0.433680
  C     -5.595890  -15.454880   -0.704750
  C     -4.412910  -14.664240   -0.591280
  C     -4.519350  -13.286090   -0.193480
  N     -3.331450  -12.695950   -0.135150
  S     -2.191880  -13.766040   -0.539640
  N     -3.159240  -15.031670   -0.808400
  C     -5.635500  -16.802360   -1.076390
  C     -6.854700  -17.453700   -1.135450
  C     -7.114600  -18.795010   -1.483390
  C     -8.440230  -19.134390   -1.440680
  C     -9.268130  -18.067130   -1.055550
  S     -8.324420  -16.610910   -0.749110
  C    -10.646580  -18.037640   -0.900420
  C    -11.597860  -19.051900   -1.134570
  C    -12.876800  -18.664290   -0.864680
  C    -13.008790  -17.326020   -0.412470
  S    -11.423710  -16.581180   -0.347130
  C    -14.205960  -16.768260   -0.018390
  C    -14.538930  -15.501660    0.496470
  C    -13.750030  -14.364720    0.502750
  C    -14.327010  -13.206120    1.172440
  O    -13.670230  -12.019570    1.207940
  C    -12.620930  -11.898730    0.266370
  C    -11.765250  -13.158650    0.253700
  O    -12.552640  -14.281760   -0.102670
  C    -15.538900  -13.395650    1.748560
  Si   -16.146640  -15.112300    1.401290
  C    -17.643690  -15.165190    0.274290
  C    -16.380060  -16.200260    2.908970
  H    -10.004660    2.219810    5.904500
  H     -5.272740    0.923210    6.604040
  H    -10.389680    0.202470    4.594870
  H     -5.642580   -1.162990    5.277000
  H     -9.915160   -4.777700    2.478190
  H     -5.981050   -5.047000    2.396550
  H     -3.978530  -10.630340    0.576530
  H     -7.882590  -13.273780    0.115000
  H     -4.718190  -17.317370   -1.310110
  H     -6.321370  -19.469820   -1.753910
  H     -8.818370  -20.114850   -1.672570
  H    -11.321000  -20.024910   -1.499030
  H    -13.737930  -19.299750   -0.979330
  H    -15.042130  -17.458290   -0.061190
  H    -13.042030  -11.728940   -0.734210
  H    -12.036850  -11.028040    0.567540
  H    -11.326360  -13.324090    1.246060
  H    -10.969950  -13.097680   -0.490080
  H    -16.013320  -12.579370    2.264370
  H    -17.512520  -14.550750   -0.614200
  H    -18.536740  -14.806140    0.781170
  H    -17.860010  -16.176270   -0.065360
  H    -15.509460  -16.191200    3.561760
  H    -16.562760  -17.237840    2.636090
  H    -17.230080  -15.878530    3.506820

 Total Charge           Charge          ....    0
 Multiplicity           Mult            ....    1
 Number of Electrons    NEL             ....  522
 Basis Dimension        Dim             .... 1129

ORBITAL ENERGIES
----------------

  NO   OCC          E(Eh)            E(eV)
   0   2.0000     -89.017441     -2422.2877
   1   2.0000     -88.987154     -2421.4636
   2   2.0000     -88.983978     -2421.3771
   3   2.0000     -88.951772     -2420.5008
   4   2.0000     -88.945809     -2420.3385
   5   2.0000     -66.197979     -1801.3386
   6   2.0000     -24.790984      -674.5970
   7   2.0000     -24.790235      -674.5766
   8   2.0000     -19.286489      -524.8120
   9   2.0000     -19.267565      -524.2971
  10   2.0000     -19.209197      -522.7088
  11   2.0000     -14.440552      -392.9474
  12   2.0000     -14.433249      -392.7487
  13   2.0000     -14.423539      -392.4845
  14   2.0000     -14.422388      -392.4531
  15   2.0000     -14.409468      -392.1016
  16   2.0000     -14.406477      -392.0202
  17   2.0000     -14.406356      -392.0169
  18   2.0000     -10.373773      -282.2847
  19   2.0000     -10.373028      -282.2644
  20   2.0000     -10.366961      -282.0994
  21   2.0000     -10.360936      -281.9354
  22   2.0000     -10.360366      -281.9199
  23   2.0000     -10.356465      -281.8137
  24   2.0000     -10.354699      -281.7657
  25   2.0000     -10.352378      -281.7025
  26   2.0000     -10.346597      -281.5452
  27   2.0000     -10.341469      -281.4057
  28   2.0000     -10.333606      -281.1917
  29   2.0000     -10.331784      -281.1421
  30   2.0000     -10.326389      -280.9953
  31   2.0000     -10.326312      -280.9932
  32   2.0000     -10.323329      -280.9121
  33   2.0000     -10.322512      -280.8898
  34   2.0000     -10.321832      -280.8713
  35   2.0000     -10.321814      -280.8708
  36   2.0000     -10.321558      -280.8639
  37   2.0000     -10.321504      -280.8624
  38   2.0000     -10.321399      -280.8595
  39   2.0000     -10.320090      -280.8239
  40   2.0000     -10.319022      -280.7949
  41   2.0000     -10.313246      -280.6377
  42   2.0000     -10.312611      -280.6204
  43   2.0000     -10.310237      -280.5558
  44   2.0000     -10.309688      -280.5409
  45   2.0000     -10.304870      -280.4098
  46   2.0000     -10.304697      -280.4051
  47   2.0000     -10.302174      -280.3364
  48   2.0000     -10.301894      -280.3288
  49   2.0000     -10.301398      -280.3153
  50   2.0000     -10.299664      -280.2681
  51   2.0000     -10.299522      -280.2642
  52   2.0000     -10.298296      -280.2309
  53   2.0000     -10.293703      -280.1059
  54   2.0000     -10.293428      -280.0984
  55   2.0000     -10.292961      -280.0857
  56   2.0000     -10.292919      -280.0846
  57   2.0000     -10.291048      -280.0337
  58   2.0000     -10.290652      -280.0229
  59   2.0000     -10.290221      -280.0112
  60   2.0000     -10.288977      -279.9773
  61   2.0000     -10.287802      -279.9453
  62   2.0000     -10.286067      -279.8981
  63   2.0000     -10.283840      -279.8375
  64   2.0000     -10.277002      -279.6514
  65   2.0000     -10.267938      -279.4048
  66   2.0000     -10.266649      -279.3697
  67   2.0000     -10.258227      -279.1406
  68   2.0000     -10.257227      -279.1133
  69   2.0000     -10.256663      -279.0980
  70   2.0000      -8.109452      -220.6694
  71   2.0000      -8.082055      -219.9239
  72   2.0000      -8.078412      -219.8248
  73   2.0000      -8.047287      -218.9778
  74   2.0000      -8.038303      -218.7333
  75   2.0000      -6.080851      -165.4684
  76   2.0000      -6.073073      -165.2567
  77   2.0000      -6.071404      -165.2113
  78   2.0000      -6.051197      -164.6614
  79   2.0000      -6.047775      -164.5683
  80   2.0000      -6.047141      -164.5511
  81   2.0000      -6.044442      -164.4776
  82   2.0000      -6.043686      -164.4571
  83   2.0000      -6.040583      -164.3726
  84   2.0000      -6.016940      -163.7293
  85   2.0000      -6.012674      -163.6132
  86   2.0000      -6.008501      -163.4996
  87   2.0000      -6.008399      -163.4969
  88   2.0000      -6.003333      -163.3590
  89   2.0000      -5.999985      -163.2679
  90   2.0000      -5.365461      -146.0016
  91   2.0000      -3.729001      -101.4713
  92   2.0000      -3.727131      -101.4204
  93   2.0000      -3.726649      -101.4073
  94   2.0000      -1.312932       -35.7267
  95   2.0000      -1.298116       -35.3235
  96   2.0000      -1.207647       -32.8618
  97   2.0000      -1.164876       -31.6979
  98   2.0000      -1.124544       -30.6004
  99   2.0000      -1.121278       -30.5115
 100   2.0000      -1.048071       -28.5195
 101   2.0000      -1.040829       -28.3224
 102   2.0000      -1.015168       -27.6241
 103   2.0000      -1.012082       -27.5402
 104   2.0000      -0.999773       -27.2052
 105   2.0000      -0.998046       -27.1582
 106   2.0000      -0.996653       -27.1203
 107   2.0000      -0.994694       -27.0670
 108   2.0000      -0.986647       -26.8480
 109   2.0000      -0.977587       -26.6015
 110   2.0000      -0.973107       -26.4796
 111   2.0000      -0.972123       -26.4528
 112   2.0000      -0.954593       -25.9758
 113   2.0000      -0.943130       -25.6639
 114   2.0000      -0.925777       -25.1917
 115   2.0000      -0.916881       -24.9496
 116   2.0000      -0.902067       -24.5465
 117   2.0000      -0.896004       -24.3815
 118   2.0000      -0.889813       -24.2130
 119   2.0000      -0.885581       -24.0979
 120   2.0000      -0.883181       -24.0326
 121   2.0000      -0.871526       -23.7154
 122   2.0000      -0.863081       -23.4856
 123   2.0000      -0.857747       -23.3405
 124   2.0000      -0.854298       -23.2466
 125   2.0000      -0.849806       -23.1244
 126   2.0000      -0.842490       -22.9253
 127   2.0000      -0.832368       -22.6499
 128   2.0000      -0.831014       -22.6130
 129   2.0000      -0.819230       -22.2924
 130   2.0000      -0.812355       -22.1053
 131   2.0000      -0.803568       -21.8662
 132   2.0000      -0.799504       -21.7556
 133   2.0000      -0.775940       -21.1144
 134   2.0000      -0.775340       -21.0981
 135   2.0000      -0.773619       -21.0512
 136   2.0000      -0.760568       -20.6961
 137   2.0000      -0.759159       -20.6578
 138   2.0000      -0.741694       -20.1825
 139   2.0000      -0.736544       -20.0424
 140   2.0000      -0.730919       -19.8893
 141   2.0000      -0.719631       -19.5822
 142   2.0000      -0.717879       -19.5345
 143   2.0000      -0.709407       -19.3039
 144   2.0000      -0.704237       -19.1633
 145   2.0000      -0.698438       -19.0055
 146   2.0000      -0.686196       -18.6723
 147   2.0000      -0.680424       -18.5153
 148   2.0000      -0.678502       -18.4630
 149   2.0000      -0.671559       -18.2741
 150   2.0000      -0.657444       -17.8900
 151   2.0000      -0.655134       -17.8271
 152   2.0000      -0.654881       -17.8202
 153   2.0000      -0.648042       -17.6341
 154   2.0000      -0.642321       -17.4784
 155   2.0000      -0.635278       -17.2868
 156   2.0000      -0.634350       -17.2615
 157   2.0000      -0.629739       -17.1361
 158   2.0000      -0.628639       -17.1061
 159   2.0000      -0.624385       -16.9904
 160   2.0000      -0.620553       -16.8861
 161   2.0000      -0.612444       -16.6654
 162   2.0000      -0.609240       -16.5783
 163   2.0000      -0.604565       -16.4511
 164   2.0000      -0.596712       -16.2373
 165   2.0000      -0.590533       -16.0692
 166   2.0000      -0.583636       -15.8815
 167   2.0000      -0.579526       -15.7697
 168   2.0000      -0.577812       -15.7231
 169   2.0000      -0.573702       -15.6112
 170   2.0000      -0.566629       -15.4188
 171   2.0000      -0.566006       -15.4018
 172   2.0000      -0.563567       -15.3354
 173   2.0000      -0.558036       -15.1849
 174   2.0000      -0.553027       -15.0486
 175   2.0000      -0.551268       -15.0008
 176   2.0000      -0.548868       -14.9355
 177   2.0000      -0.545938       -14.8557
 178   2.0000      -0.542793       -14.7702
 179   2.0000      -0.541580       -14.7371
 180   2.0000      -0.539541       -14.6816
 181   2.0000      -0.532447       -14.4886
 182   2.0000      -0.529613       -14.4115
 183   2.0000      -0.526205       -14.3188
 184   2.0000      -0.523151       -14.2357
 185   2.0000      -0.521524       -14.1914
 186   2.0000      -0.516800       -14.0628
 187   2.0000      -0.516211       -14.0468
 188   2.0000      -0.514894       -14.0110
 189   2.0000      -0.508589       -13.8394
 190   2.0000      -0.507257       -13.8032
 191   2.0000      -0.505293       -13.7497
 192   2.0000      -0.502272       -13.6675
 193   2.0000      -0.500622       -13.6226
 194   2.0000      -0.499481       -13.5916
 195   2.0000      -0.497249       -13.5308
 196   2.0000      -0.496239       -13.5033
 197   2.0000      -0.495035       -13.4706
 198   2.0000      -0.492072       -13.3900
 199   2.0000      -0.490609       -13.3502
 200   2.0000      -0.489209       -13.3120
 201   2.0000      -0.487651       -13.2697
 202   2.0000      -0.485868       -13.2211
 203   2.0000      -0.485252       -13.2044
 204   2.0000      -0.483015       -13.1435
 205   2.0000      -0.481412       -13.0999
 206   2.0000      -0.478969       -13.0334
 207   2.0000      -0.476120       -12.9559
 208   2.0000      -0.475143       -12.9293
 209   2.0000      -0.468803       -12.7568
 210   2.0000      -0.462213       -12.5774
 211   2.0000      -0.461715       -12.5639
 212   2.0000      -0.460346       -12.5267
 213   2.0000      -0.457902       -12.4601
 214   2.0000      -0.454964       -12.3802
 215   2.0000      -0.453752       -12.3472
 216   2.0000      -0.449918       -12.2429
 217   2.0000      -0.446847       -12.1593
 218   2.0000      -0.442809       -12.0495
 219   2.0000      -0.441834       -12.0229
 220   2.0000      -0.438938       -11.9441
 221   2.0000      -0.436775       -11.8853
 222   2.0000      -0.435934       -11.8624
 223   2.0000      -0.435084       -11.8392
 224   2.0000      -0.432354       -11.7649
 225   2.0000      -0.432175       -11.7601
 226   2.0000      -0.430976       -11.7275
 227   2.0000      -0.429250       -11.6805
 228   2.0000      -0.423125       -11.5138
 229   2.0000      -0.419541       -11.4163
 230   2.0000      -0.418570       -11.3899
 231   2.0000      -0.415469       -11.3055
 232   2.0000      -0.413549       -11.2532
 233   2.0000      -0.411757       -11.2045
 234   2.0000      -0.407453       -11.0874
 235   2.0000      -0.404599       -11.0097
 236   2.0000      -0.401065       -10.9135
 237   2.0000      -0.397138       -10.8067
 238   2.0000      -0.395932       -10.7739
 239   2.0000      -0.394334       -10.7304
 240   2.0000      -0.390428       -10.6241
 241   2.0000      -0.383003       -10.4220
 242   2.0000      -0.380570       -10.3558
 243   2.0000      -0.371282       -10.1031
 244   2.0000      -0.366797        -9.9811
 245   2.0000      -0.359348        -9.7783
 246   2.0000      -0.355897        -9.6845
 247   2.0000      -0.346171        -9.4198
 248   2.0000      -0.342537        -9.3209
 249   2.0000      -0.338981        -9.2241
 250   2.0000      -0.333636        -9.0787
 251   2.0000      -0.328792        -8.9469
 252   2.0000      -0.318176        -8.6580
 253   2.0000      -0.317151        -8.6301
 254   2.0000      -0.311392        -8.4734
 255   2.0000      -0.310442        -8.4476
 256   2.0000      -0.304537        -8.2869
 257   2.0000      -0.293069        -7.9748
 258   2.0000      -0.279140        -7.5958
 259   2.0000      -0.251524        -6.8443
 260   2.0000      -0.213311        -5.8045
 261   0.0000      -0.111301        -3.0287
 262   0.0000      -0.094336        -2.5670
 263   0.0000      -0.083576        -2.2742
 264   0.0000      -0.054482        -1.4825
 265   0.0000      -0.050948        -1.3864

MULLIKEN ATOMIC CHARGES
-----------------------
   0 C :   -0.109073
   1 C :    0.241109
   2 F :   -0.174485
   3 C :    0.238820
   4 F :   -0.174798
   5 C :   -0.106297
   6 C :    0.117599
   7 C :    0.113330
   8 C :   -0.086324
   9 C :    0.045958
  10 C :   -0.001141
  11 C :   -0.085526
  12 C :    0.153765
  13 O :   -0.154567
  14 C :   -0.102884
  15 C :    0.317553
  16 C :   -0.360842
  17 C :   -0.199835
  18 N :    0.146492
  19 C :   -0.183794
  20 N :    0.139480
  21 C :    0.033058
  22 C :   -0.114027
  23 C :    0.005831
  24 C :   -0.018013
  25 C :   -0.069740
  26 S :    0.183918
  27 C :   -0.104466
  28 C :    0.052654
  29 C :    0.310522
  30 C :   -0.301182
  31 C :   -0.190843
  32 N :    0.177829
  33 C :   -0.190980
  34 N :    0.191029
  35 C :   -0.082130
  36 C :   -0.073234
  37 S :    0.132124
  38 C :    0.039248
  39 C :   -0.013607
  40 N :   -0.165901
  41 C :    0.070120
  42 C :    0.011865
  43 C :    0.051937
  44 N :   -0.290070
  45 S :    0.503604
  46 N :   -0.249775
  47 C :   -0.086184
  48 C :    0.025931
  49 C :    0.013857
  50 C :    0.038457
  51 C :   -0.064386
  52 S :    0.131649
  53 C :   -0.017475
  54 C :    0.020213
  55 C :    0.043099
  56 C :   -0.020496
  57 S :    0.107421
  58 C :    0.004782
  59 C :   -0.234715
  60 C :    0.124762
  61 C :    0.158969
  62 O :   -0.284218
  63 C :    0.185374
  64 C :    0.172215
  65 O :   -0.291761
  66 C :   -0.211140
  67 Si:    0.484216
  68 C :   -0.186883
  69 C :   -0.190922
  70 H :    0.005370
  71 H :   -0.000970
  72 H :   -0.007117
  73 H :   -0.008987
  74 H :    0.011039
  75 H :    0.038348
  76 H :    0.022375
  77 H :   -0.017943
  78 H :   -0.016482
  79 H :   -0.015954
  80 H :   -0.019671
  81 H :   -0.013208
  82 H :   -0.007657
  83 H :   -0.011666
  84 H :    0.034952
  85 H :    0.038841
  86 H :    0.040643
  87 H :    0.049411
  88 H :    0.004601
  89 H :    0.052364
  90 H :    0.046545
  91 H :    0.038935
  92 H :    0.053913
  93 H :    0.039114
  94 H :    0.046130
Sum of atomic charges:   -0.0000000

LOEWDIN ATOMIC CHARGES
----------------------
   0 C :   -0.030086
   1 C :    0.065142
   2 F :   -0.052104
   3 C :    0.066541
   4 F :   -0.052160
   5 C :   -0.033398
   6 C :   -0.009114
   7 C :   -0.007828
   8 C :    0.015216
   9 C :   -0.022759
  10 C :   -0.049625
  11 C :    0.027959
  12 C :    0.083729
  13 O :   -0.143545
  14 C :   -0.110604
  15 C :    0.077463
  16 C :   -0.152462
  17 C :   -0.024524
  18 N :   -0.063015
  19 C :   -0.017718
  20 N :   -0.062868
  21 C :    0.043007
  22 C :   -0.182139
  23 C :    0.025952
  24 C :   -0.082740
  25 C :   -0.145637
  26 S :    0.475324
  27 C :   -0.210825
  28 C :   -0.039965
  29 C :    0.075561
  30 C :   -0.092917
  31 C :   -0.016982
  32 N :   -0.027459
  33 C :   -0.021369
  34 N :   -0.019352
  35 C :   -0.039054
  36 C :   -0.121960
  37 S :    0.444737
  38 C :   -0.118294
  39 C :    0.031573
  40 N :   -0.120251
  41 C :    0.014977
  42 C :   -0.064674
  43 C :   -0.031662
  44 N :   -0.288878
  45 S :    0.631486
  46 N :   -0.268042
  47 C :   -0.086620
  48 C :   -0.109271
  49 C :   -0.057627
  50 C :   -0.016438
  51 C :   -0.226114
  52 S :    0.446484
  53 C :   -0.140038
  54 C :   -0.052389
  55 C :   -0.006226
  56 C :   -0.169937
  57 S :    0.415975
  58 C :   -0.019090
  59 C :   -0.232349
  60 C :    0.048591
  61 C :    0.023048
  62 O :   -0.095359
  63 C :    0.074533
  64 C :    0.073584
  65 O :   -0.075521
  66 C :   -0.211460
  67 Si:    0.663565
  68 C :   -0.241676
  69 C :   -0.243624
  70 H :    0.046903
  71 H :    0.044674
  72 H :    0.039351
  73 H :    0.040648
  74 H :    0.042011
  75 H :    0.044530
  76 H :    0.040389
  77 H :    0.008547
  78 H :    0.036000
  79 H :    0.031561
  80 H :    0.028106
  81 H :    0.031681
  82 H :    0.034310
  83 H :    0.032763
  84 H :    0.024533
  85 H :    0.036508
  86 H :    0.026305
  87 H :    0.037184
  88 H :    0.027930
  89 H :    0.040759
  90 H :    0.038345
  91 H :    0.035247
  92 H :    0.041319
  93 H :    0.035510
  94 H :    0.038189

  Mayer bond orders larger than 0.100000
B(  0-C ,  1-C ) :   1.4381 B(  0-C ,  5-C ) :   0.1092 B(  0-C ,  7-C ) :   1.1894
B(  0-C , 70-H ) :   1.0071 B(  1-C ,  2-F ) :   1.1314 B(  1-C ,  3-C ) :   1.1944
B(  3-C ,  4-F ) :   1.1298 B(  3-C ,  5-C ) :   1.4403 B(  5-C ,  6-C ) :   1.1939
B(  5-C , 71-H ) :   1.0074 B(  6-C ,  7-C ) :   1.2602 B(  6-C , 11-C ) :   1.1811
B(  7-C ,  8-C ) :   1.2115 B(  8-C ,  9-C ) :   1.4541 B(  8-C , 72-H ) :   0.9897
B(  9-C , 10-C ) :   1.2239 B(  9-C , 15-C ) :   0.9767 B( 10-C , 11-C ) :   1.4768
B( 10-C , 12-C ) :   0.9438 B( 11-C , 73-H ) :   1.0170 B( 12-C , 13-O ) :   2.1756
B( 12-C , 14-C ) :   0.9550 B( 14-C , 15-C ) :   1.1038 B( 14-C , 21-C ) :   1.5285
B( 15-C , 16-C ) :   1.6034 B( 16-C , 17-C ) :   1.1433 B( 16-C , 19-C ) :   1.1515
B( 17-C , 18-N ) :   2.9805 B( 19-C , 20-N ) :   2.9598 B( 21-C , 22-C ) :   1.2670
B( 21-C , 74-H ) :   0.9153 B( 22-C , 23-C ) :   1.3633 B( 22-C , 26-S ) :   1.0503
B( 23-C , 24-C ) :   1.3477 B( 23-C , 75-H ) :   0.9708 B( 24-C , 25-C ) :   1.3393
B( 24-C , 29-C ) :   0.9965 B( 25-C , 26-S ) :   1.1644 B( 25-C , 27-C ) :   1.2459
B( 27-C , 28-C ) :   1.4118 B( 27-C , 37-S ) :   1.0734 B( 28-C , 29-C ) :   0.9883
B( 28-C , 35-C ) :   1.2679 B( 29-C , 30-C ) :   1.7151 B( 30-C , 31-C ) :   1.1413
B( 30-C , 33-C ) :   1.1357 B( 31-C , 32-N ) :   2.9866 B( 33-C , 34-N ) :   2.9972
B( 35-C , 36-C ) :   1.4399 B( 35-C , 76-H ) :   0.9874 B( 36-C , 37-S ) :   1.1074
B( 36-C , 38-C ) :   1.1518 B( 38-C , 39-C ) :   1.3692 B( 38-C , 43-C ) :   1.1821
B( 39-C , 40-N ) :   1.4920 B( 39-C , 77-H ) :   0.9673 B( 40-N , 41-C ) :   1.3840
B( 40-N , 52-S ) :   0.1388 B( 41-C , 42-C ) :   1.0783 B( 41-C , 47-C ) :   1.3386
B( 42-C , 43-C ) :   1.1858 B( 42-C , 46-N ) :   1.6182 B( 43-C , 44-N ) :   1.5544
B( 44-N , 45-S ) :   1.2226 B( 44-N , 46-N ) :   0.1324 B( 45-S , 46-N ) :   1.2507
B( 47-C , 48-C ) :   1.3678 B( 47-C , 78-H ) :   0.9931 B( 48-C , 49-C ) :   1.2026
B( 48-C , 52-S ) :   1.1292 B( 49-C , 50-C ) :   1.5090 B( 49-C , 79-H ) :   1.0007
B( 50-C , 51-C ) :   1.2465 B( 50-C , 80-H ) :   0.9951 B( 51-C , 52-S ) :   0.9720
B( 51-C , 53-C ) :   1.4395 B( 53-C , 54-C ) :   1.2084 B( 53-C , 57-S ) :   1.0835
B( 54-C , 55-C ) :   1.5540 B( 54-C , 81-H ) :   0.9952 B( 55-C , 56-C ) :   1.1620
B( 55-C , 82-H ) :   0.9996 B( 56-C , 57-S ) :   1.0300 B( 56-C , 58-C ) :   1.5405
B( 58-C , 59-C ) :   1.1988 B( 58-C , 83-H ) :   0.9526 B( 59-C , 60-C ) :   1.5765
B( 59-C , 67-Si) :   0.8747 B( 60-C , 61-C ) :   1.0235 B( 60-C , 65-O ) :   1.1632
B( 61-C , 62-O ) :   1.1406 B( 61-C , 66-C ) :   1.7748 B( 62-O , 63-C ) :   0.9524
B( 63-C , 64-C ) :   1.0825 B( 63-C , 84-H ) :   0.9424 B( 63-C , 85-H ) :   0.9530
B( 64-C , 65-O ) :   0.9108 B( 64-C , 86-H ) :   0.9441 B( 64-C , 87-H ) :   0.9503
B( 66-C , 67-Si) :   0.9256 B( 66-C , 88-H ) :   0.9325 B( 67-Si, 68-C ) :   1.0498
B( 67-Si, 69-C ) :   1.0470 B( 68-C , 89-H ) :   0.9514 B( 68-C , 90-H ) :   0.9543
B( 68-C , 91-H ) :   0.9509 B( 69-C , 92-H ) :   0.9521 B( 69-C , 93-H ) :   0.9502
B( 69-C , 94-H ) :   0.9553

-----------------------------------------------------------------------------
         ABSORPTION SPECTRUM VIA TRANSITION ELECTRIC DIPOLE MOMENTS
-----------------------------------------------------------------------------
State   Energy  Wavelength   fosc         T2         TX        TY        TZ
        (cm-1)    (nm)                  (au**2)     (au)      (au)      (au)
-----------------------------------------------------------------------------
   0    8291.7   1206.0   0.537747733  21.35067  -2.10901  -4.01780  -0.87178
   1   12119.1    825.1   0.456816383  12.40931  -3.49407  -0.19947   0.40126
   2   15821.8    632.0   0.000685455   0.01426  -0.10724   0.04850   0.02024
   3   17496.8    571.5   1.387040019  26.09786  -2.63159   4.10651   1.51961
   4   19722.4    507.0   0.058855655   0.98243   0.66472  -0.67977  -0.28019
   5   21230.1    471.0   0.743568725  11.53042  -1.08301   3.02366   1.10226
   6   23033.1    434.2   0.060763342   0.86849   0.60662  -0.67446  -0.21356
   7   23429.9    426.8   0.026623357   0.37408  -0.58382  -0.14958  -0.10422
   8   24633.5    406.0   0.000864773   0.01156  -0.00717  -0.07687   0.07481
   9   24802.1    403.2   0.040565931   0.53845   0.33657   0.51089   0.40518
  10   25543.0    391.5   0.010588314   0.13647   0.14652  -0.33474  -0.05432
  11   27154.0    368.3   0.031421223   0.38095   0.01542  -0.40193  -0.46815
  12   27644.0    361.7   0.172188303   2.05059   0.56972   1.22407   0.47713
  13   28125.4    355.6   0.023168255   0.27119   0.24831   0.44946   0.08672
  14   28505.3    350.8   0.112717998   1.30180  -0.03928   1.06659   0.40329
  15   28891.9    346.1   0.074087878   0.84420  -0.43393  -0.79130  -0.17251
  16   29241.9    342.0   0.047555505   0.53539  -0.34073  -0.64683   0.03007
  17   29507.6    338.9   0.024586448   0.27431  -0.22571  -0.46891  -0.05901
  18   29708.7    336.6   0.163855709   1.81574  -1.19199  -0.62829   0.01202
  19   30374.9    329.2   0.005198068   0.05634   0.02458  -0.22119   0.08251
  20   30773.9    325.0   0.141149296   1.50998  -0.67277  -0.84825  -0.58124
  21   30817.4    324.5   0.051786438   0.55322   0.59346   0.37276   0.24914
  22   31092.8    321.6   0.237917561   2.51909   1.49247   0.45567   0.28980
  23   31501.9    317.4   0.519962194   5.43389   0.33339  -1.99526  -1.15831
  24   31641.4    316.0   0.030221440   0.31444  -0.48935   0.20757  -0.17856
  25   32505.6    307.6   0.031949900   0.32358   0.46974  -0.31923   0.03194
  26   33010.9    302.9   0.056370709   0.56217   0.15201   0.61812   0.39622
  27   33091.6    302.2   0.058174873   0.57875  -0.03077  -0.60541  -0.45966
  28   33363.9    299.7   0.012498445   0.12333  -0.01064   0.34575   0.06056
  29   33859.3    295.3   0.000913486   0.00888   0.02036   0.09192  -0.00428
  30   34077.3    293.5   0.018664760   0.18032  -0.07511  -0.28652  -0.30427
  31   34290.8    291.6   0.031342195   0.30090  -0.51878  -0.16134  -0.07574
  32   34796.2    287.4   0.144708136   1.36911  -0.86804  -0.56663  -0.54272
  33   34925.4    286.3   0.322353055   3.03855  -1.54010  -0.72522  -0.37508
  34   35218.3    283.9   0.054481514   0.50928   0.68772   0.14034  -0.12894
  35   35345.6    282.9   0.242049431   2.25447  -0.88550  -0.71963  -0.97596
  36   35433.6    282.2   0.002425252   0.02253   0.06223   0.12748   0.04909
  37   35775.8    279.5   0.049782014   0.45810   0.32174   0.55436   0.21740
  38   36247.5    275.9   0.009461640   0.08593  -0.27200   0.10902   0.00792
  39   36460.8    274.3   0.007891673   0.07126   0.21995  -0.06609   0.13604
  40   36531.9    273.7   0.043729292   0.39407  -0.47263  -0.41029  -0.04848
  41   36940.6    270.7   0.080366193   0.71622  -0.40186   0.74279   0.05463
  42   37163.3    269.1   0.135316829   1.19871   1.05229   0.15098   0.26191
  43   37243.0    268.5   0.001130058   0.00999   0.08711  -0.01214   0.04748
  44   37651.2    265.6   0.011667773   0.10202   0.25273  -0.19508   0.00968
  45   37978.0    263.3   0.071568901   0.62039   0.64674  -0.43962  -0.09409
  46   38604.7    259.0   0.019980007   0.17038  -0.34661  -0.12043  -0.18906
  47   38772.7    257.9   0.070317910   0.59706   0.68583  -0.27311  -0.22827
  48   38988.2    256.5   0.118836758   1.00345  -0.74164   0.67336  -0.00133
  49   39605.1    252.5   0.086789156   0.72142  -0.58040   0.59594   0.17152
  50   39782.4    251.4   0.058283018   0.48231   0.57275  -0.30018  -0.25331
  51   39869.6    250.8   0.014554656   0.12018  -0.32255   0.04855   0.11741
  52   40161.4    249.0   0.068128471   0.55846  -0.19852  -0.66585  -0.27513
  53   40287.9    248.2   0.007410289   0.06055  -0.17602   0.07705   0.15373

FINAL SINGLE POINT ENERGY     -5081.314574020813

DIPOLE MOMENT
-------------
                                X             Y             Z
Electronic contribution:     64.31653      78.68535      16.60728
Nuclear contribution   :    -66.99334     -83.99639     -17.10709
                        -----------------------------------------
Total Dipole Moment    :     -2.67682      -5.31104      -0.49981
                        -----------------------------------------
Magnitude (a.u.)       :      5.96844
Magnitude (Debye)      :     15.17057

Rotational constants in cm-1:     0.001145     0.000324     0.000257
Rotational constants in MHz :    34.333881     9.703169     7.707587

                             ****ORCA TERMINATED NORMALLY****
TOTAL RUN TIME: 0 days 0 hours 10 minutes 3 seconds 894 msec
