                         Program Version 4.2.0 -  RELEASE  -
|  1> # ORCA input file
|  2> # SCF done       -174.957291030119          0.000700529656
|  3> ! CAM-B3LYP def2-SVP def2/J RIJCOSX Grid4 TightSCF
|  4> %maxcore 5000
|  5> %tddft
|  6>     Mode sTDDFT
|  7>     Ethresh 5.0
|  8>     maxcore 5000
|  9> end
| 10>
| 11> %pal
| 12>   nprocs 6
| 13>   end
| 14> * xyz 0 1
| 15>    C       -3.34433        -1.85699        -5.16377
| 16>    C       -2.07825        -1.86393        -4.67380
| 17>    C       -1.60435        -0.55647        -4.43433
| 18>    C       -2.56184         0.42674        -4.76571
| 19>    S       -4.01062        -0.26030        -5.36473
| 20>    C       -2.01611         1.69838        -4.51181
| 21>    C       -0.70091         1.52827        -4.02636
| 22>    C       -0.41370         0.09369        -3.96866
| 23>    C        0.75499        -0.49083        -3.54480
| 24>    C        1.87907         0.26573        -3.17237
| 25>    N        2.81268         0.87420        -2.89404
| 26>    C        0.90072        -1.88820        -3.46891
| 27>    N        1.00847        -3.02922        -3.38887
| 28>    C       -0.06559         2.71571        -3.72383
| 29>    C       -0.87150         3.83420        -3.97786
| 30>    S       -2.45593         3.35185        -4.59758
| 31>    C       -0.61003         5.19715        -3.83113
| 32>    C        0.54410         5.80549        -3.37273
| 33>    C        0.75246         7.19676        -3.25902
| 34>    C        1.98473         7.55013        -2.77383
| 35>    C        2.80643         6.45295        -2.47911
| 36>    S        1.97669         4.95757        -2.83871
| 37>    C        4.09946         6.39764        -1.96142
| 38>    C        4.99217         7.40540        -1.57209
| 39>    C        6.18330         6.92541        -1.08316
| 40>    C        6.28613         5.52126        -1.06154
| 41>    S        4.81436         4.83034        -1.70444
| 42>    C        7.33071         4.76606        -0.54044
| 43>    C        7.37647         3.37799        -0.49006
| 44>    C        6.50539         2.45294        -1.08881
| 45>    C        6.73531         1.16701        -0.69301
| 46>    C        7.81766         1.02259         0.20644
| 47>    S        8.56760         2.54346         0.52706
| 48>    C        7.89932        -0.31741         0.59335
| 49>    C        6.86259        -1.03533        -0.04792
| 50>    C        6.02132        -0.13600        -0.90580
| 51>    C        4.60168        -0.04405        -0.33510
| 52>    C        5.98105        -0.56875        -2.37034
| 53>    C        6.79599        -2.35235         0.30472
| 54>    C        7.77092        -2.72246         1.24537
| 55>    S        8.82229        -1.34582         1.62714
| 56>    C        7.93963        -3.95237         1.87002
| 57>    C        7.03267        -5.00594         1.83372
| 58>    C        7.20573        -6.29390         2.37422
| 59>    C        6.12734        -7.13046         2.21531
| 60>    C        5.04322        -6.53008         1.56096
| 61>    S        5.43036        -4.88427         1.14206
| 62>    C        3.78995        -7.02913         1.20792
| 63>    C        3.27097        -8.32857         1.29657
| 64>    C        1.99591        -8.44377         0.80701
| 65>    C        1.44019        -7.23716         0.33100
| 66>    S        2.60921        -5.94841         0.50752
| 67>    C        0.16601        -7.08667        -0.18606
| 68>    C       -0.47570        -5.91080        -0.57696
| 69>    C       -0.04712        -4.57757        -0.51964
| 70>    C       -1.02712        -3.69086        -0.91746
| 71>    C       -2.22950        -4.31684        -1.31371
| 72>    S       -2.13375        -6.02268        -1.18290
| 73>    C       -3.15638        -3.31539        -1.65751
| 74>    C       -2.55389        -2.05193        -1.47460
| 75>    C       -1.20835        -2.24144        -1.01631
| 76>    C       -0.27273        -1.28168        -0.71823
| 77>    C       -0.54539         0.09210        -0.84224
| 78>    N       -0.76436         1.21425        -0.95694
| 79>    C        1.01585        -1.62318        -0.27157
| 80>    N        2.06674        -1.91010         0.09087
| 81>    C       -3.43639        -0.99205        -1.77102
| 82>    C       -4.65151        -1.44789        -2.16999
| 83>    S       -4.77708        -3.18434        -2.19272
| 84>    H       -3.95236        -2.69763        -5.43245
| 85>    H       -1.51441        -2.76102        -4.49041
| 86>    H        0.93147         2.78705        -3.33285
| 87>    H       -1.41259         5.86737        -4.11362
| 88>    H       -0.01076         7.90215        -3.53753
| 89>    H        2.30839         8.56462        -2.62330
| 90>    H        4.74868         8.45031        -1.64693
| 91>    H        6.98341         7.55292        -0.73103
| 92>    H        8.14054         5.31423        -0.07766
| 93>    H        5.74685         2.71547        -1.79860
| 94>    H        4.62670         0.30671         0.69420
| 95>    H        4.12354        -1.01870        -0.35672
| 96>    H        4.01024         0.64701        -0.92948
| 97>    H        6.98376        -0.59784        -2.79145
| 98>    H        5.37358         0.12972        -2.93928
| 99>    H        5.53597        -1.55712        -2.44856
|100>    H        6.08967        -3.03738        -0.11982
|101>    H        8.83324        -4.10089         2.46155
|102>    H        8.12213        -6.58167         2.85931
|103>    H        6.09580        -8.14652         2.56646
|104>    H        3.84100        -9.14643         1.69992
|105>    H        1.43967        -9.36445         0.78405
|106>    H       -0.41485        -7.99661        -0.27326
|107>    H        0.93223        -4.28999        -0.18827
|108>    H       -3.18617         0.05079        -1.69313
|109>    H       -5.50916        -0.87374        -2.45881
|110> *
|111>
|112>                          ****END OF INPUT****

CARTESIAN COORDINATES (ANGSTROEM)
---------------------------------
  C     -3.344330   -1.856990   -5.163770
  C     -2.078250   -1.863930   -4.673800
  C     -1.604350   -0.556470   -4.434330
  C     -2.561840    0.426740   -4.765710
  S     -4.010620   -0.260300   -5.364730
  C     -2.016110    1.698380   -4.511810
  C     -0.700910    1.528270   -4.026360
  C     -0.413700    0.093690   -3.968660
  C      0.754990   -0.490830   -3.544800
  C      1.879070    0.265730   -3.172370
  N      2.812680    0.874200   -2.894040
  C      0.900720   -1.888200   -3.468910
  N      1.008470   -3.029220   -3.388870
  C     -0.065590    2.715710   -3.723830
  C     -0.871500    3.834200   -3.977860
  S     -2.455930    3.351850   -4.597580
  C     -0.610030    5.197150   -3.831130
  C      0.544100    5.805490   -3.372730
  C      0.752460    7.196760   -3.259020
  C      1.984730    7.550130   -2.773830
  C      2.806430    6.452950   -2.479110
  S      1.976690    4.957570   -2.838710
  C      4.099460    6.397640   -1.961420
  C      4.992170    7.405400   -1.572090
  C      6.183300    6.925410   -1.083160
  C      6.286130    5.521260   -1.061540
  S      4.814360    4.830340   -1.704440
  C      7.330710    4.766060   -0.540440
  C      7.376470    3.377990   -0.490060
  C      6.505390    2.452940   -1.088810
  C      6.735310    1.167010   -0.693010
  C      7.817660    1.022590    0.206440
  S      8.567600    2.543460    0.527060
  C      7.899320   -0.317410    0.593350
  C      6.862590   -1.035330   -0.047920
  C      6.021320   -0.136000   -0.905800
  C      4.601680   -0.044050   -0.335100
  C      5.981050   -0.568750   -2.370340
  C      6.795990   -2.352350    0.304720
  C      7.770920   -2.722460    1.245370
  S      8.822290   -1.345820    1.627140
  C      7.939630   -3.952370    1.870020
  C      7.032670   -5.005940    1.833720
  C      7.205730   -6.293900    2.374220
  C      6.127340   -7.130460    2.215310
  C      5.043220   -6.530080    1.560960
  S      5.430360   -4.884270    1.142060
  C      3.789950   -7.029130    1.207920
  C      3.270970   -8.328570    1.296570
  C      1.995910   -8.443770    0.807010
  C      1.440190   -7.237160    0.331000
  S      2.609210   -5.948410    0.507520
  C      0.166010   -7.086670   -0.186060
  C     -0.475700   -5.910800   -0.576960
  C     -0.047120   -4.577570   -0.519640
  C     -1.027120   -3.690860   -0.917460
  C     -2.229500   -4.316840   -1.313710
  S     -2.133750   -6.022680   -1.182900
  C     -3.156380   -3.315390   -1.657510
  C     -2.553890   -2.051930   -1.474600
  C     -1.208350   -2.241440   -1.016310
  C     -0.272730   -1.281680   -0.718230
  C     -0.545390    0.092100   -0.842240
  N     -0.764360    1.214250   -0.956940
  C      1.015850   -1.623180   -0.271570
  N      2.066740   -1.910100    0.090870
  C     -3.436390   -0.992050   -1.771020
  C     -4.651510   -1.447890   -2.169990
  S     -4.777080   -3.184340   -2.192720
  H     -3.952360   -2.697630   -5.432450
  H     -1.514410   -2.761020   -4.490410
  H      0.931470    2.787050   -3.332850
  H     -1.412590    5.867370   -4.113620
  H     -0.010760    7.902150   -3.537530
  H      2.308390    8.564620   -2.623300
  H      4.748680    8.450310   -1.646930
  H      6.983410    7.552920   -0.731030
  H      8.140540    5.314230   -0.077660
  H      5.746850    2.715470   -1.798600
  H      4.626700    0.306710    0.694200
  H      4.123540   -1.018700   -0.356720
  H      4.010240    0.647010   -0.929480
  H      6.983760   -0.597840   -2.791450
  H      5.373580    0.129720   -2.939280
  H      5.535970   -1.557120   -2.448560
  H      6.089670   -3.037380   -0.119820
  H      8.833240   -4.100890    2.461550
  H      8.122130   -6.581670    2.859310
  H      6.095800   -8.146520    2.566460
  H      3.841000   -9.146430    1.699920
  H      1.439670   -9.364450    0.784050
  H     -0.414850   -7.996610   -0.273260
  H      0.932230   -4.289990   -0.188270
  H     -3.186170    0.050790   -1.693130
  H     -5.509160   -0.873740   -2.458810

 Total Charge           Charge          ....    0
 Multiplicity           Mult            ....    1
 Number of Electrons    NEL             ....  544
 Basis Dimension        Dim             .... 1136

ORBITAL ENERGIES
----------------

  NO   OCC          E(Eh)            E(eV)
   0   2.0000     -88.971301     -2421.0322
   1   2.0000     -88.970885     -2421.0209
   2   2.0000     -88.965708     -2420.8800
   3   2.0000     -88.965486     -2420.8739
   4   2.0000     -88.952499     -2420.5206
   5   2.0000     -88.952282     -2420.5147
   6   2.0000     -88.939395     -2420.1640
   7   2.0000     -88.939255     -2420.1602
   8   2.0000     -88.938779     -2420.1472
   9   2.0000     -88.938506     -2420.1398
  10   2.0000     -14.419825      -392.3834
  11   2.0000     -14.417414      -392.3178
  12   2.0000     -14.417373      -392.3167
  13   2.0000     -14.416354      -392.2889
  14   2.0000     -10.345868      -281.5254
  15   2.0000     -10.345111      -281.5048
  16   2.0000     -10.335979      -281.2563
  17   2.0000     -10.334551      -281.2174
  18   2.0000     -10.321720      -280.8683
  19   2.0000     -10.318641      -280.7845
  20   2.0000     -10.318513      -280.7810
  21   2.0000     -10.317635      -280.7571
  22   2.0000     -10.317009      -280.7401
  23   2.0000     -10.315935      -280.7109
  24   2.0000     -10.306443      -280.4526
  25   2.0000     -10.305897      -280.4377
  26   2.0000     -10.304040      -280.3872
  27   2.0000     -10.303820      -280.3812
  28   2.0000     -10.303259      -280.3659
  29   2.0000     -10.303011      -280.3592
  30   2.0000     -10.302357      -280.3414
  31   2.0000     -10.301941      -280.3301
  32   2.0000     -10.300629      -280.2944
  33   2.0000     -10.300155      -280.2815
  34   2.0000     -10.299165      -280.2545
  35   2.0000     -10.299030      -280.2509
  36   2.0000     -10.298378      -280.2331
  37   2.0000     -10.297992      -280.2226
  38   2.0000     -10.297757      -280.2162
  39   2.0000     -10.297700      -280.2147
  40   2.0000     -10.294555      -280.1291
  41   2.0000     -10.294324      -280.1228
  42   2.0000     -10.284417      -279.8532
  43   2.0000     -10.284377      -279.8521
  44   2.0000     -10.284054      -279.8433
  45   2.0000     -10.283851      -279.8378
  46   2.0000     -10.282495      -279.8009
  47   2.0000     -10.281779      -279.7814
  48   2.0000     -10.280194      -279.7383
  49   2.0000     -10.279898      -279.7302
  50   2.0000     -10.279853      -279.7290
  51   2.0000     -10.279805      -279.7277
  52   2.0000     -10.279647      -279.7234
  53   2.0000     -10.279397      -279.7166
  54   2.0000     -10.279197      -279.7112
  55   2.0000     -10.278977      -279.7052
  56   2.0000     -10.278743      -279.6988
  57   2.0000     -10.278714      -279.6980
  58   2.0000     -10.277807      -279.6733
  59   2.0000     -10.277806      -279.6733
  60   2.0000     -10.275978      -279.6236
  61   2.0000     -10.275536      -279.6116
  62   2.0000     -10.271369      -279.4981
  63   2.0000     -10.264093      -279.3002
  64   2.0000     -10.263901      -279.2949
  65   2.0000     -10.263387      -279.2810
  66   2.0000     -10.263311      -279.2789
  67   2.0000     -10.242407      -278.7101
  68   2.0000     -10.227475      -278.3037
  69   2.0000      -8.065964      -219.4860
  70   2.0000      -8.065636      -219.4771
  71   2.0000      -8.060269      -219.3311
  72   2.0000      -8.060054      -219.3252
  73   2.0000      -8.047179      -218.9749
  74   2.0000      -8.046982      -218.9695
  75   2.0000      -8.035187      -218.6485
  76   2.0000      -8.034984      -218.6430
  77   2.0000      -8.034847      -218.6393
  78   2.0000      -8.034646      -218.6338
  79   2.0000      -6.035307      -164.2291
  80   2.0000      -6.035007      -164.2209
  81   2.0000      -6.030984      -164.1114
  82   2.0000      -6.030613      -164.1013
  83   2.0000      -6.029550      -164.0724
  84   2.0000      -6.029317      -164.0660
  85   2.0000      -6.028376      -164.0405
  86   2.0000      -6.028039      -164.0313
  87   2.0000      -6.025568      -163.9640
  88   2.0000      -6.025379      -163.9589
  89   2.0000      -6.022445      -163.8791
  90   2.0000      -6.022229      -163.8732
  91   2.0000      -6.016632      -163.7209
  92   2.0000      -6.016467      -163.7164
  93   2.0000      -6.012704      -163.6140
  94   2.0000      -6.012506      -163.6086
  95   2.0000      -6.008940      -163.5116
  96   2.0000      -6.008719      -163.5056
  97   2.0000      -6.004910      -163.4019
  98   2.0000      -6.004704      -163.3963
  99   2.0000      -6.004527      -163.3915
 100   2.0000      -6.004309      -163.3856
 101   2.0000      -6.000723      -163.2880
 102   2.0000      -6.000520      -163.2825
 103   2.0000      -6.000281      -163.2760
 104   2.0000      -6.000094      -163.2708
 105   2.0000      -5.996323      -163.1682
 106   2.0000      -5.996136      -163.1632
 107   2.0000      -5.996029      -163.1602
 108   2.0000      -5.995812      -163.1543
 109   2.0000      -1.027295       -27.9541
 110   2.0000      -1.022046       -27.8113
 111   2.0000      -1.009094       -27.4588
 112   2.0000      -1.005860       -27.3708
 113   2.0000      -1.000920       -27.2364
 114   2.0000      -0.996616       -27.1193
 115   2.0000      -0.994546       -27.0630
 116   2.0000      -0.990397       -26.9501
 117   2.0000      -0.989503       -26.9257
 118   2.0000      -0.975363       -26.5410
 119   2.0000      -0.974117       -26.5071
 120   2.0000      -0.967458       -26.3259
 121   2.0000      -0.965418       -26.2704
 122   2.0000      -0.957706       -26.0605
 123   2.0000      -0.940126       -25.5821
 124   2.0000      -0.938132       -25.5279
 125   2.0000      -0.915127       -24.9019
 126   2.0000      -0.899057       -24.4646
 127   2.0000      -0.897335       -24.4177
 128   2.0000      -0.880745       -23.9663
 129   2.0000      -0.879895       -23.9432
 130   2.0000      -0.865845       -23.5609
 131   2.0000      -0.859514       -23.3886
 132   2.0000      -0.849947       -23.1282
 133   2.0000      -0.845613       -23.0103
 134   2.0000      -0.838753       -22.8236
 135   2.0000      -0.838043       -22.8043
 136   2.0000      -0.835013       -22.7219
 137   2.0000      -0.832742       -22.6601
 138   2.0000      -0.829921       -22.5833
 139   2.0000      -0.822341       -22.3770
 140   2.0000      -0.814262       -22.1572
 141   2.0000      -0.811903       -22.0930
 142   2.0000      -0.806303       -21.9406
 143   2.0000      -0.806027       -21.9331
 144   2.0000      -0.796894       -21.6846
 145   2.0000      -0.775515       -21.1028
 146   2.0000      -0.765248       -20.8234
 147   2.0000      -0.761249       -20.7146
 148   2.0000      -0.758855       -20.6495
 149   2.0000      -0.749301       -20.3895
 150   2.0000      -0.743546       -20.2329
 151   2.0000      -0.735470       -20.0132
 152   2.0000      -0.712245       -19.3812
 153   2.0000      -0.694794       -18.9063
 154   2.0000      -0.689973       -18.7751
 155   2.0000      -0.688208       -18.7271
 156   2.0000      -0.687590       -18.7103
 157   2.0000      -0.678725       -18.4690
 158   2.0000      -0.667805       -18.1719
 159   2.0000      -0.667104       -18.1528
 160   2.0000      -0.656926       -17.8759
 161   2.0000      -0.656504       -17.8644
 162   2.0000      -0.654932       -17.8216
 163   2.0000      -0.641898       -17.4669
 164   2.0000      -0.632190       -17.2028
 165   2.0000      -0.626813       -17.0564
 166   2.0000      -0.624374       -16.9901
 167   2.0000      -0.618405       -16.8276
 168   2.0000      -0.617347       -16.7989
 169   2.0000      -0.615544       -16.7498
 170   2.0000      -0.613346       -16.6900
 171   2.0000      -0.611924       -16.6513
 172   2.0000      -0.610444       -16.6110
 173   2.0000      -0.602458       -16.3937
 174   2.0000      -0.596686       -16.2367
 175   2.0000      -0.595060       -16.1924
 176   2.0000      -0.593619       -16.1532
 177   2.0000      -0.580892       -15.8069
 178   2.0000      -0.578579       -15.7439
 179   2.0000      -0.565012       -15.3747
 180   2.0000      -0.555621       -15.1192
 181   2.0000      -0.553501       -15.0615
 182   2.0000      -0.550610       -14.9829
 183   2.0000      -0.546241       -14.8640
 184   2.0000      -0.545307       -14.8386
 185   2.0000      -0.535330       -14.5671
 186   2.0000      -0.533423       -14.5152
 187   2.0000      -0.517797       -14.0900
 188   2.0000      -0.517180       -14.0732
 189   2.0000      -0.516896       -14.0654
 190   2.0000      -0.516327       -14.0500
 191   2.0000      -0.511667       -13.9232
 192   2.0000      -0.508556       -13.8385
 193   2.0000      -0.508455       -13.8358
 194   2.0000      -0.503643       -13.7048
 195   2.0000      -0.499416       -13.5898
 196   2.0000      -0.496185       -13.5019
 197   2.0000      -0.491948       -13.3866
 198   2.0000      -0.491014       -13.3612
 199   2.0000      -0.489461       -13.3189
 200   2.0000      -0.488178       -13.2840
 201   2.0000      -0.485514       -13.2115
 202   2.0000      -0.484020       -13.1708
 203   2.0000      -0.483157       -13.1474
 204   2.0000      -0.481631       -13.1058
 205   2.0000      -0.476756       -12.9732
 206   2.0000      -0.475788       -12.9469
 207   2.0000      -0.475042       -12.9266
 208   2.0000      -0.473822       -12.8933
 209   2.0000      -0.470986       -12.8162
 210   2.0000      -0.470033       -12.7902
 211   2.0000      -0.467592       -12.7238
 212   2.0000      -0.464894       -12.6504
 213   2.0000      -0.463488       -12.6121
 214   2.0000      -0.459054       -12.4915
 215   2.0000      -0.456496       -12.4219
 216   2.0000      -0.453308       -12.3351
 217   2.0000      -0.452205       -12.3051
 218   2.0000      -0.451324       -12.2811
 219   2.0000      -0.448370       -12.2008
 220   2.0000      -0.446861       -12.1597
 221   2.0000      -0.446351       -12.1458
 222   2.0000      -0.444670       -12.1001
 223   2.0000      -0.443431       -12.0664
 224   2.0000      -0.441303       -12.0085
 225   2.0000      -0.441136       -12.0039
 226   2.0000      -0.436984       -11.8909
 227   2.0000      -0.433466       -11.7952
 228   2.0000      -0.432341       -11.7646
 229   2.0000      -0.431294       -11.7361
 230   2.0000      -0.429611       -11.6903
 231   2.0000      -0.426948       -11.6179
 232   2.0000      -0.426265       -11.5993
 233   2.0000      -0.423018       -11.5109
 234   2.0000      -0.422202       -11.4887
 235   2.0000      -0.421141       -11.4598
 236   2.0000      -0.420358       -11.4385
 237   2.0000      -0.418374       -11.3845
 238   2.0000      -0.414306       -11.2738
 239   2.0000      -0.413819       -11.2606
 240   2.0000      -0.412809       -11.2331
 241   2.0000      -0.411577       -11.1996
 242   2.0000      -0.408714       -11.1217
 243   2.0000      -0.404358       -11.0032
 244   2.0000      -0.401422       -10.9233
 245   2.0000      -0.398291       -10.8381
 246   2.0000      -0.389946       -10.6110
 247   2.0000      -0.385267       -10.4837
 248   2.0000      -0.383479       -10.4350
 249   2.0000      -0.381961       -10.3937
 250   2.0000      -0.380389       -10.3509
 251   2.0000      -0.379555       -10.3282
 252   2.0000      -0.369732       -10.0609
 253   2.0000      -0.359088        -9.7713
 254   2.0000      -0.343037        -9.3345
 255   2.0000      -0.332417        -9.0455
 256   2.0000      -0.330372        -8.9899
 257   2.0000      -0.329823        -8.9749
 258   2.0000      -0.324530        -8.8309
 259   2.0000      -0.323210        -8.7950
 260   2.0000      -0.316452        -8.6111
 261   2.0000      -0.315399        -8.5825
 262   2.0000      -0.313291        -8.5251
 263   2.0000      -0.310391        -8.4462
 264   2.0000      -0.308589        -8.3971
 265   2.0000      -0.304141        -8.2761
 266   2.0000      -0.295397        -8.0382
 267   2.0000      -0.278637        -7.5821
 268   2.0000      -0.259237        -7.0542
 269   2.0000      -0.238611        -6.4929
 270   2.0000      -0.202328        -5.5056
 271   2.0000      -0.179668        -4.8890
 272   0.0000      -0.099983        -2.7207
 273   0.0000      -0.097629        -2.6566
 274   0.0000      -0.075785        -2.0622
 275   0.0000      -0.062838        -1.7099
 276   0.0000      -0.019991        -0.5440

MULLIKEN ATOMIC CHARGES
-----------------------
   0 C :   -0.093167
   1 C :    0.072352
   2 C :   -0.066461
   3 C :   -0.110333
   4 S :    0.153545
   5 C :   -0.112666
   6 C :    0.007626
   7 C :    0.306929
   8 C :   -0.337748
   9 C :   -0.144766
  10 N :    0.161158
  11 C :   -0.205692
  12 N :    0.182770
  13 C :   -0.022754
  14 C :   -0.088955
  15 S :    0.158217
  16 C :    0.025838
  17 C :   -0.024976
  18 C :    0.024213
  19 C :    0.023756
  20 C :   -0.026195
  21 S :    0.056756
  22 C :   -0.018123
  23 C :    0.013132
  24 C :    0.037232
  25 C :   -0.047362
  26 S :    0.052631
  27 C :    0.045538
  28 C :   -0.097934
  29 C :   -0.034311
  30 C :   -0.001783
  31 C :   -0.086420
  32 S :    0.136854
  33 C :   -0.084763
  34 C :    0.006072
  35 C :   -0.111523
  36 C :    0.098624
  37 C :    0.100126
  38 C :   -0.032882
  39 C :   -0.096501
  40 S :    0.138500
  41 C :    0.041423
  42 C :   -0.051321
  43 C :    0.036507
  44 C :    0.020328
  45 C :   -0.030291
  46 S :    0.068298
  47 C :   -0.032952
  48 C :    0.030342
  49 C :    0.020590
  50 C :   -0.026481
  51 S :    0.061851
  52 C :    0.023158
  53 C :   -0.087533
  54 C :   -0.028151
  55 C :    0.008518
  56 C :   -0.115767
  57 S :    0.158506
  58 C :   -0.111173
  59 C :   -0.050834
  60 C :    0.310256
  61 C :   -0.324651
  62 C :   -0.199270
  63 N :    0.181041
  64 C :   -0.171829
  65 N :    0.174732
  66 C :    0.054836
  67 C :   -0.088228
  68 S :    0.151967
  69 H :    0.024602
  70 H :    0.005281
  71 H :    0.020870
  72 H :   -0.023022
  73 H :   -0.016982
  74 H :   -0.015765
  75 H :   -0.016980
  76 H :   -0.014358
  77 H :   -0.016598
  78 H :    0.019579
  79 H :    0.003056
  80 H :    0.021994
  81 H :    0.022744
  82 H :    0.008787
  83 H :    0.026542
  84 H :    0.011676
  85 H :    0.010152
  86 H :   -0.015959
  87 H :   -0.015039
  88 H :   -0.018060
  89 H :   -0.016444
  90 H :   -0.016892
  91 H :   -0.022631
  92 H :    0.022310
  93 H :    0.006152
  94 H :    0.024562
Sum of atomic charges:   -0.0000000

LOEWDIN ATOMIC CHARGES
----------------------
   0 C :   -0.186966
   1 C :   -0.030805
   2 C :   -0.094727
   3 C :   -0.163891
   4 S :    0.457518
   5 C :   -0.211878
   6 C :   -0.053475
   7 C :    0.090985
   8 C :   -0.124949
   9 C :   -0.001062
  10 N :   -0.039600
  11 C :   -0.018190
  12 N :   -0.043689
  13 C :   -0.029472
  14 C :   -0.152010
  15 S :    0.451026
  16 C :   -0.089028
  17 C :   -0.143992
  18 C :   -0.042148
  19 C :   -0.035998
  20 C :   -0.187070
  21 S :    0.401687
  22 C :   -0.171827
  23 C :   -0.050581
  24 C :   -0.028574
  25 C :   -0.159812
  26 S :    0.414080
  27 C :   -0.061099
  28 C :   -0.164546
  29 C :   -0.057269
  30 C :   -0.018693
  31 C :   -0.187566
  32 S :    0.414867
  33 C :   -0.186889
  34 C :   -0.019594
  35 C :   -0.036956
  36 C :   -0.027655
  37 C :   -0.025423
  38 C :   -0.057057
  39 C :   -0.164802
  40 S :    0.415660
  41 C :   -0.061828
  42 C :   -0.158819
  43 C :   -0.029534
  44 C :   -0.049245
  45 C :   -0.172854
  46 S :    0.415129
  47 C :   -0.187987
  48 C :   -0.036176
  49 C :   -0.042856
  50 C :   -0.144423
  51 S :    0.403648
  52 C :   -0.089316
  53 C :   -0.153824
  54 C :   -0.031331
  55 C :   -0.053524
  56 C :   -0.210423
  57 S :    0.450114
  58 C :   -0.165948
  59 C :   -0.091755
  60 C :    0.089617
  61 C :   -0.122296
  62 C :   -0.017388
  63 N :   -0.042553
  64 C :   -0.007672
  65 N :   -0.031111
  66 C :   -0.032343
  67 C :   -0.188875
  68 S :    0.454722
  69 H :    0.020162
  70 H :    0.039587
  71 H :    0.023789
  72 H :    0.031440
  73 H :    0.031050
  74 H :    0.031724
  75 H :    0.030430
  76 H :    0.032368
  77 H :    0.034024
  78 H :    0.019765
  79 H :    0.024711
  80 H :    0.020891
  81 H :    0.021525
  82 H :    0.024333
  83 H :    0.027538
  84 H :    0.025876
  85 H :    0.017806
  86 H :    0.034022
  87 H :    0.032193
  88 H :    0.030326
  89 H :    0.031510
  90 H :    0.030893
  91 H :    0.031312
  92 H :    0.024187
  93 H :    0.039182
  94 H :    0.019676

  Mayer bond orders larger than 0.100000
B(  0-C ,  1-C ) :   1.5678 B(  0-C ,  4-S ) :   1.1106 B(  0-C , 69-H ) :   0.9614
B(  1-C ,  2-C ) :   1.2552 B(  1-C , 70-H ) :   0.9934 B(  2-C ,  3-C ) :   1.4092
B(  2-C ,  7-C ) :   1.0629 B(  3-C ,  4-S ) :   1.1345 B(  3-C ,  5-C ) :   1.2355
B(  5-C ,  6-C ) :   1.4201 B(  5-C , 15-S ) :   1.0854 B(  6-C ,  7-C ) :   0.9869
B(  6-C , 13-C ) :   1.3777 B(  7-C ,  8-C ) :   1.6604 B(  8-C ,  9-C ) :   1.1678
B(  8-C , 11-C ) :   1.1373 B(  9-C , 10-N ) :   2.8709 B( 11-C , 12-N ) :   2.9688
B( 13-C , 14-C ) :   1.3631 B( 13-C , 71-H ) :   0.9651 B( 14-C , 15-S ) :   1.0992
B( 14-C , 16-C ) :   1.2171 B( 16-C , 17-C ) :   1.5329 B( 16-C , 72-H ) :   0.9493
B( 17-C , 18-C ) :   1.1856 B( 17-C , 21-S ) :   1.0591 B( 18-C , 19-C ) :   1.5351
B( 18-C , 73-H ) :   0.9991 B( 19-C , 20-C ) :   1.2377 B( 19-C , 74-H ) :   0.9958
B( 20-C , 21-S ) :   1.0493 B( 20-C , 22-C ) :   1.4225 B( 22-C , 23-C ) :   1.2362
B( 22-C , 26-S ) :   1.0642 B( 23-C , 24-C ) :   1.5267 B( 23-C , 75-H ) :   0.9960
B( 24-C , 25-C ) :   1.2044 B( 24-C , 76-H ) :   0.9973 B( 25-C , 26-S ) :   1.0485
B( 25-C , 27-C ) :   1.4964 B( 27-C , 28-C ) :   1.2579 B( 27-C , 77-H ) :   0.9579
B( 28-C , 29-C ) :   1.3270 B( 28-C , 32-S ) :   1.0696 B( 29-C , 30-C ) :   1.4347
B( 29-C , 78-H ) :   0.9654 B( 30-C , 31-C ) :   1.4333 B( 30-C , 35-C ) :   0.9374
B( 31-C , 32-S ) :   1.0710 B( 31-C , 33-C ) :   1.2711 B( 33-C , 34-C ) :   1.4329
B( 33-C , 40-S ) :   1.0715 B( 34-C , 35-C ) :   0.9369 B( 34-C , 38-C ) :   1.4338
B( 35-C , 36-C ) :   1.0357 B( 35-C , 37-C ) :   1.0366 B( 36-C , 79-H ) :   0.9539
B( 36-C , 80-H ) :   0.9511 B( 36-C , 81-H ) :   0.9489 B( 37-C , 82-H ) :   0.9620
B( 37-C , 83-H ) :   0.9597 B( 37-C , 84-H ) :   0.9639 B( 38-C , 39-C ) :   1.3363
B( 38-C , 85-H ) :   0.9622 B( 39-C , 40-S ) :   1.0694 B( 39-C , 41-C ) :   1.2538
B( 41-C , 42-C ) :   1.4951 B( 41-C , 86-H ) :   0.9586 B( 42-C , 43-C ) :   1.2061
B( 42-C , 46-S ) :   1.0479 B( 43-C , 44-C ) :   1.5257 B( 43-C , 87-H ) :   0.9969
B( 44-C , 45-C ) :   1.2386 B( 44-C , 88-H ) :   0.9945 B( 45-C , 46-S ) :   1.0679
B( 45-C , 47-C ) :   1.4188 B( 47-C , 48-C ) :   1.2398 B( 47-C , 51-S ) :   1.0518
B( 48-C , 49-C ) :   1.5349 B( 48-C , 89-H ) :   0.9946 B( 49-C , 50-C ) :   1.1867
B( 49-C , 90-H ) :   0.9990 B( 50-C , 51-S ) :   1.0585 B( 50-C , 52-C ) :   1.5302
B( 52-C , 53-C ) :   1.2160 B( 52-C , 91-H ) :   0.9509 B( 53-C , 54-C ) :   1.3627
B( 53-C , 57-S ) :   1.0971 B( 54-C , 55-C ) :   1.3791 B( 54-C , 92-H ) :   0.9651
B( 55-C , 56-C ) :   1.4182 B( 55-C , 60-C ) :   0.9887 B( 56-C , 57-S ) :   1.0872
B( 56-C , 58-C ) :   1.2363 B( 58-C , 59-C ) :   1.4127 B( 58-C , 68-S ) :   1.1306
B( 59-C , 60-C ) :   1.0567 B( 59-C , 66-C ) :   1.2559 B( 60-C , 61-C ) :   1.6754
B( 61-C , 62-C ) :   1.1361 B( 61-C , 64-C ) :   1.1539 B( 62-C , 63-N ) :   2.9639
B( 64-C , 65-N ) :   2.9021 B( 66-C , 67-C ) :   1.5705 B( 66-C , 93-H ) :   0.9917
B( 67-C , 68-S ) :   1.1113 B( 67-C , 94-H ) :   0.9602

-----------------------------------------------------------------------------
         ABSORPTION SPECTRUM VIA TRANSITION ELECTRIC DIPOLE MOMENTS
-----------------------------------------------------------------------------
State   Energy  Wavelength   fosc         T2         TX        TY        TZ
        (cm-1)    (nm)                  (au**2)     (au)      (au)      (au)
-----------------------------------------------------------------------------
   0    3481.7   2872.1   0.043587240   4.12135   1.85924   0.23590   0.78034
   1    4440.3   2252.1   0.044390871   3.29123  -0.33605  -1.46785   1.01179
   2    8113.2   1232.6   0.299368508  12.14760  -0.05418   3.36108  -0.92078
   3    9269.5   1078.8   0.114524229   4.06738  -0.31711   1.90669  -0.57564
   4    9852.2   1015.0   0.155963642   5.21151  -2.10538  -0.21107  -0.85693
   5   13013.6    768.4   0.189424049   4.79194   2.07711   0.29559   0.62465
   6   14385.8    695.1   1.354663973  31.00084   5.22458   0.90365   1.69940
   7   15340.0    651.9   0.015247851   0.32723  -0.53467   0.07278  -0.18990
   8   16404.7    609.6   0.097511813   1.95688  -0.17769   1.36936  -0.22395
   9   18993.7    526.5   0.508128374   8.80725  -0.28272   2.90617  -0.53055
  10   19379.1    516.0   0.032039492   0.54429   0.01208   0.72352  -0.14371
  11   20595.2    485.5   0.004485424   0.07170  -0.01806  -0.24791   0.09956
  12   20777.0    481.3   0.026635644   0.42204  -0.62202  -0.04644  -0.18160
  13   22535.9    443.7   1.663325866  24.29842  -0.56217   4.81831  -0.87538
  14   23857.1    419.2   0.001415470   0.01953   0.02540   0.09519  -0.09913
  15   24678.2    405.2   0.002624010   0.03500  -0.05914  -0.17715   0.01117
  16   25325.4    394.9   0.028059459   0.36475  -0.23219   0.43746  -0.34564
  17   25502.6    392.1   0.007492455   0.09672   0.23043   0.20676   0.02953
  18   26076.1    383.5   0.021165405   0.26721  -0.03014  -0.42505   0.29264
  19   27058.8    369.6   0.035452649   0.43134   0.31403   0.17510   0.54960
  20   27571.6    362.7   0.013863492   0.16553  -0.20771  -0.11710  -0.32966
  21   27620.2    362.1   0.005866174   0.06992  -0.18082  -0.18915  -0.03807
  22   28530.6    350.5   0.003220314   0.03716   0.04211   0.18454  -0.03647
  23   29495.8    339.0   0.070068797   0.78206   0.35667   0.80670   0.06389
  24   29661.1    337.1   0.032547176   0.36124  -0.21208   0.50853  -0.24014
  25   30250.9    330.6   0.001829324   0.01991  -0.08783  -0.00390  -0.11036
  26   30507.0    327.8   0.133628111   1.44203   1.13906   0.02088   0.37965
  27   30580.1    327.0   0.067406254   0.72567  -0.43622  -0.73127   0.02498
  28   30935.9    323.2   0.015467660   0.16460   0.06745   0.35182  -0.19047
  29   31127.1    321.3   0.304714943   3.22279  -0.02439   1.79401   0.06108
  30   31356.2    318.9   0.345649620   3.62901  -1.72522   0.04290  -0.80671
  31   31481.0    317.7   0.116322283   1.21644   0.29808  -1.06187   0.00242
  32   31690.4    315.6   0.054144491   0.56247   0.70926   0.07973   0.23036
  33   31859.9    313.9   0.039337461   0.40648  -0.15803  -0.52440  -0.32636
  34   32238.9    310.2   0.088134047   0.89999   0.83982   0.22524   0.37942
  35   32506.8    307.6   0.031084431   0.31481   0.11969  -0.54373   0.06960
  36   32556.8    307.2   0.051759215   0.52339   0.62611  -0.01022   0.36231
  37   32846.6    304.4   0.025901365   0.25960  -0.49248  -0.10475  -0.07807
  38   32964.7    303.4   0.011416890   0.11402  -0.28281   0.14951  -0.10807
  39   33034.2    302.7   0.029953990   0.29852  -0.48929   0.16107  -0.18211
  40   33273.7    300.5   0.073756033   0.72975  -0.79415  -0.19156  -0.24975
  41   33375.8    299.6   0.040365523   0.39816  -0.32027   0.53908  -0.07059
  42   33563.7    297.9   0.012093886   0.11862   0.01278  -0.34399   0.01152
  43   33661.5    297.1   0.296494029   2.89973   1.58025   0.22007   0.59507
  44   33838.4    295.5   0.096995428   0.94366   0.38601   0.87554   0.16760
  45   34259.3    291.9   0.112103231   1.07725   0.96018   0.13616   0.36982
  46   34365.6    291.0   0.239817130   2.29738   1.42463   0.11740   0.50399
  47   34410.7    290.6   0.013816411   0.13218   0.08221   0.35320   0.02602
  48   34449.3    290.3   0.018726715   0.17896   0.22493  -0.35813   0.01041
  49   34785.1    287.5   0.023442432   0.22186   0.41601   0.08247   0.20493
  50   34871.7    286.8   0.111518692   1.05281  -0.17834   1.00796   0.07083
  51   35065.4    285.2   0.001222598   0.01148  -0.08451  -0.06455  -0.01302
  52   35286.9    283.4   0.000943933   0.00881  -0.05836   0.07105   0.01878
  53   35461.3    282.0   0.002743412   0.02547  -0.02952  -0.15072  -0.04337
  54   35625.3    280.7   0.007705064   0.07120   0.07573   0.24371   0.07793
  55   35929.8    278.3   0.114576614   1.04982   0.13518  -1.01367  -0.06346
  56   36176.2    276.4   0.005278291   0.04803   0.03710  -0.21572   0.01099
  57   36220.1    276.1   0.004657760   0.04234  -0.06985   0.17868   0.07435
  58   36279.0    275.6   0.003926853   0.03563   0.10754  -0.14006   0.06672
  59   36749.6    272.1   0.004144085   0.03712  -0.05738   0.17948  -0.04024
  60   37138.9    269.3   0.006715699   0.05953  -0.22475  -0.08026  -0.05077
  61   37387.3    267.5   0.001891342   0.01665  -0.12721  -0.01132   0.01854
  62   37447.3    267.0   0.008163672   0.07177  -0.08582   0.25361  -0.00928
  63   37502.3    266.7   0.014986288   0.13156  -0.00009  -0.35815   0.05729
  64   37693.7    265.3   0.000480315   0.00420   0.05175   0.02023   0.03328
  65   37850.7    264.2   0.004185003   0.03640   0.18293  -0.04896   0.02326
  66   37977.3    263.3   0.025399943   0.22018  -0.03730  -0.46571  -0.04364
  67   38179.4    261.9   0.006669492   0.05751   0.03756   0.23676  -0.00663
  68   38225.5    261.6   0.033103058   0.28510   0.23754  -0.32989   0.34618
  69   38410.4    260.3   0.009437036   0.08088  -0.25764  -0.06456  -0.10168
  70   38661.5    258.7   0.016383005   0.13951  -0.06889   0.36517   0.03757
  71   38730.2    258.2   0.025744633   0.21883   0.40655   0.16075   0.16645
  72   38821.4    257.6   0.003652864   0.03098   0.04672   0.15410   0.07104
  73   38918.7    256.9   0.006137548   0.05192   0.12232   0.18878   0.03630
  74   39021.6    256.3   0.006872941   0.05798  -0.21597   0.04616  -0.09598
  75   39756.5    251.5   0.005084627   0.04210   0.06666  -0.19342   0.01581
  76   39795.1    251.3   0.023964772   0.19825  -0.40101  -0.13066  -0.14273
  77   39856.2    250.9   0.007590549   0.06270  -0.05448   0.24414   0.01127
  78   39937.1    250.4   0.010193112   0.08402  -0.24423  -0.04856  -0.14838

FINAL SINGLE POINT ENERGY     -6307.983717298131

DIPOLE MOMENT
-------------
                                X             Y             Z
Electronic contribution:    -23.52862      -2.92547      -5.15077
Nuclear contribution   :     22.53902       2.81482       4.98425
                        -----------------------------------------
Total Dipole Moment    :     -0.98960      -0.11065      -0.16652
                        -----------------------------------------
Magnitude (a.u.)       :      1.00959
Magnitude (Debye)      :      2.56618

Rotational constants in cm-1:     0.000825     0.000800     0.000423
Rotational constants in MHz :    24.747359    23.993982    12.692412

                             ****ORCA TERMINATED NORMALLY****
TOTAL RUN TIME: 0 days 0 hours 13 minutes 29 seconds 160 msec
