                         Program Version 4.2.0 -  RELEASE  -
|  1> # ORCA input file
|  2> # SCF done       -207.524630225969          0.000659242930
|  3> ! CAM-B3LYP def2-SVP def2/J RIJCOSX Grid4 TightSCF
|  4> %maxcore 5000
|  5> %tddft
|  6>     Mode sTDDFT
|  7>     Ethresh 5.0
|  8>     maxcore 5000
|  9> end
| 10>
| 11> %pal
| 12>   nprocs 6
| 13>   end
| 14> * xyz 0 1
| 15>    C      -10.71577         2.29662         2.19969
| 16>    C      -11.62755         2.74694         3.11272
| 17>    F      -11.99131         4.03744         3.12162
| 18>    C      -12.19604         1.86539         4.05283
| 19>    F      -13.08939         2.33418         4.93674
| 20>    C      -11.84451         0.54470         4.06764
| 21>    C      -10.90801         0.05046         3.13959
| 22>    C      -10.33239         0.94057         2.18805
| 23>    C       -9.39127         0.46666         1.24475
| 24>    C       -9.03852        -0.85693         1.25229
| 25>    C       -9.62033        -1.73684         2.20375
| 26>    C      -10.52844        -1.31046         3.12806
| 27>    C       -9.09398        -3.10273         1.99841
| 28>    O       -9.38725        -4.07210         2.66971
| 29>    C       -8.18698        -3.01281         0.83800
| 30>    C       -8.12118        -1.62802         0.41550
| 31>    C       -7.32921        -1.08586        -0.56904
| 32>    C       -6.40659        -1.77897        -1.37729
| 33>    N       -5.63075        -2.26260        -2.07522
| 34>    C       -7.31574         0.28287        -0.90771
| 35>    N       -7.25087         1.38021        -1.24057
| 36>    C       -7.54100        -4.03483         0.17981
| 37>    C       -7.46444        -5.41192         0.41927
| 38>    N       -6.77985        -6.19857        -0.50363
| 39>    C       -6.83132        -7.48594        -0.09949
| 40>    C       -6.46277        -8.78464        -0.42929
| 41>    C       -6.96284        -9.60137         0.59510
| 42>    N       -7.61042        -8.82363         1.52949
| 43>    C       -7.55806        -7.52537         1.12676
| 44>    C       -7.95181        -6.24138         1.45113
| 45>    C       -6.90326       -11.01078         0.74777
| 46>    C       -6.38800       -11.86544        -0.17049
| 47>    C       -6.37103       -13.27706        -0.04111
| 48>    C       -6.76185       -14.07234         1.02442
| 49>    C       -6.63462       -15.43087         0.74417
| 50>    C       -6.14275       -15.68274        -0.54947
| 51>    S       -5.82472       -14.24288        -1.40838
| 52>    C       -6.08454       -17.08391        -0.74239
| 53>    C       -6.53114       -17.72214         0.42670
| 54>    C       -6.88401       -16.70353         1.40335
| 55>    C       -7.35287       -16.89859         2.66949
| 56>    C       -7.54367       -18.18756         3.20981
| 57>    N       -7.69345       -19.23484         3.65184
| 58>    C       -7.67094       -15.82023         3.52102
| 59>    N       -7.93129       -14.94054         4.20911
| 60>    C       -6.54004       -19.11314         0.32275
| 61>    C       -6.10779       -19.54518        -0.91765
| 62>    S       -5.67371       -18.19970        -1.96817
| 63>    C       -6.03134       -20.87964        -1.39277
| 64>    N       -5.59833       -21.17824        -2.66479
| 65>    C       -5.70395       -22.52184        -2.84736
| 66>    C       -5.57710       -23.53622        -3.78217
| 67>    C       -5.98330       -24.72047        -3.13593
| 68>    N       -6.31001       -24.42196        -1.82244
| 69>    C       -6.19407       -23.08512        -1.63807
| 70>    C       -6.39427       -22.05427        -0.72514
| 71>    C       -6.06368       -26.05183        -3.59211
| 72>    C       -6.08173       -26.55965        -4.86615
| 73>    C       -6.25413       -25.97102        -6.13084
| 74>    C       -6.78414       -24.78558        -6.59117
| 75>    C       -6.49806       -24.41545        -8.00240
| 76>    O       -6.01497       -25.12299        -8.85797
| 77>    C       -6.87418       -22.98931        -8.12370
| 78>    C       -6.73132       -22.14720        -9.18629
| 79>    C       -7.13232       -20.79719        -9.05176
| 80>    C       -7.67642       -20.35188        -7.81309
| 81>    C       -8.06444       -19.00403        -7.68106
| 82>    C       -7.92242       -18.13957        -8.73036
| 83>    C       -7.38795       -18.58167        -9.95558
| 84>    C       -7.00060       -19.88336       -10.11436
| 85>    F       -7.25916       -17.71201       -10.96823
| 86>    F       -8.29082       -16.85658        -8.59844
| 87>    C       -7.82696       -21.25503        -6.73437
| 88>    C       -7.43204       -22.55607        -6.88822
| 89>    C       -7.48912       -23.70137        -5.98035
| 90>    C       -8.18606       -23.72569        -4.78990
| 91>    C       -8.56124       -24.90968        -4.13491
| 92>    N       -8.93957       -25.85281        -3.59817
| 93>    C       -8.65661       -22.57570        -4.13288
| 94>    N       -8.97369       -21.66579        -3.50625
| 95>    H      -10.28962         2.98516         1.48681
| 96>    H      -12.28906        -0.11789         4.79365
| 97>    H       -8.97894         1.16713         0.53721
| 98>    H      -10.95337        -2.00284         3.83885
| 99>    H       -6.99662        -3.73706        -0.70851
|100>    H       -6.32915        -5.83950        -1.32862
|101>    H       -5.90752        -9.11472        -1.28300
|102>    H       -8.06658        -9.17724         2.35306
|103>    H       -8.51596        -5.90099         2.29404
|104>    H       -7.33124       -11.40688         1.65868
|105>    H       -5.98195       -11.47042        -1.09051
|106>    H       -7.11904       -13.67520         1.95609
|107>    H       -6.85076       -19.78584         1.09966
|108>    H       -5.32225       -20.49558        -3.34967
|109>    H       -5.19316       -23.47478        -4.78063
|110>    H       -6.71958       -25.08234        -1.18345
|111>    H       -6.76629       -22.11799         0.27617
|112>    H       -6.08671       -26.78654        -2.79515
|113>    H       -5.92894       -27.63168        -4.92017
|114>    H       -5.89758       -26.58927        -6.95278
|115>    H       -6.31625       -22.50192       -10.11733
|116>    H       -8.48000       -18.64933        -6.75069
|117>    H       -6.59275       -20.20653       -11.05928
|118>    H       -8.24807       -20.89092        -5.81084
|119> *
|120>
|121>                          ****END OF INPUT****

CARTESIAN COORDINATES (ANGSTROEM)
---------------------------------
  C    -10.715770    2.296620    2.199690
  C    -11.627550    2.746940    3.112720
  F    -11.991310    4.037440    3.121620
  C    -12.196040    1.865390    4.052830
  F    -13.089390    2.334180    4.936740
  C    -11.844510    0.544700    4.067640
  C    -10.908010    0.050460    3.139590
  C    -10.332390    0.940570    2.188050
  C     -9.391270    0.466660    1.244750
  C     -9.038520   -0.856930    1.252290
  C     -9.620330   -1.736840    2.203750
  C    -10.528440   -1.310460    3.128060
  C     -9.093980   -3.102730    1.998410
  O     -9.387250   -4.072100    2.669710
  C     -8.186980   -3.012810    0.838000
  C     -8.121180   -1.628020    0.415500
  C     -7.329210   -1.085860   -0.569040
  C     -6.406590   -1.778970   -1.377290
  N     -5.630750   -2.262600   -2.075220
  C     -7.315740    0.282870   -0.907710
  N     -7.250870    1.380210   -1.240570
  C     -7.541000   -4.034830    0.179810
  C     -7.464440   -5.411920    0.419270
  N     -6.779850   -6.198570   -0.503630
  C     -6.831320   -7.485940   -0.099490
  C     -6.462770   -8.784640   -0.429290
  C     -6.962840   -9.601370    0.595100
  N     -7.610420   -8.823630    1.529490
  C     -7.558060   -7.525370    1.126760
  C     -7.951810   -6.241380    1.451130
  C     -6.903260  -11.010780    0.747770
  C     -6.388000  -11.865440   -0.170490
  C     -6.371030  -13.277060   -0.041110
  C     -6.761850  -14.072340    1.024420
  C     -6.634620  -15.430870    0.744170
  C     -6.142750  -15.682740   -0.549470
  S     -5.824720  -14.242880   -1.408380
  C     -6.084540  -17.083910   -0.742390
  C     -6.531140  -17.722140    0.426700
  C     -6.884010  -16.703530    1.403350
  C     -7.352870  -16.898590    2.669490
  C     -7.543670  -18.187560    3.209810
  N     -7.693450  -19.234840    3.651840
  C     -7.670940  -15.820230    3.521020
  N     -7.931290  -14.940540    4.209110
  C     -6.540040  -19.113140    0.322750
  C     -6.107790  -19.545180   -0.917650
  S     -5.673710  -18.199700   -1.968170
  C     -6.031340  -20.879640   -1.392770
  N     -5.598330  -21.178240   -2.664790
  C     -5.703950  -22.521840   -2.847360
  C     -5.577100  -23.536220   -3.782170
  C     -5.983300  -24.720470   -3.135930
  N     -6.310010  -24.421960   -1.822440
  C     -6.194070  -23.085120   -1.638070
  C     -6.394270  -22.054270   -0.725140
  C     -6.063680  -26.051830   -3.592110
  C     -6.081730  -26.559650   -4.866150
  C     -6.254130  -25.971020   -6.130840
  C     -6.784140  -24.785580   -6.591170
  C     -6.498060  -24.415450   -8.002400
  O     -6.014970  -25.122990   -8.857970
  C     -6.874180  -22.989310   -8.123700
  C     -6.731320  -22.147200   -9.186290
  C     -7.132320  -20.797190   -9.051760
  C     -7.676420  -20.351880   -7.813090
  C     -8.064440  -19.004030   -7.681060
  C     -7.922420  -18.139570   -8.730360
  C     -7.387950  -18.581670   -9.955580
  C     -7.000600  -19.883360  -10.114360
  F     -7.259160  -17.712010  -10.968230
  F     -8.290820  -16.856580   -8.598440
  C     -7.826960  -21.255030   -6.734370
  C     -7.432040  -22.556070   -6.888220
  C     -7.489120  -23.701370   -5.980350
  C     -8.186060  -23.725690   -4.789900
  C     -8.561240  -24.909680   -4.134910
  N     -8.939570  -25.852810   -3.598170
  C     -8.656610  -22.575700   -4.132880
  N     -8.973690  -21.665790   -3.506250
  H    -10.289620    2.985160    1.486810
  H    -12.289060   -0.117890    4.793650
  H     -8.978940    1.167130    0.537210
  H    -10.953370   -2.002840    3.838850
  H     -6.996620   -3.737060   -0.708510
  H     -6.329150   -5.839500   -1.328620
  H     -5.907520   -9.114720   -1.283000
  H     -8.066580   -9.177240    2.353060
  H     -8.515960   -5.900990    2.294040
  H     -7.331240  -11.406880    1.658680
  H     -5.981950  -11.470420   -1.090510
  H     -7.119040  -13.675200    1.956090
  H     -6.850760  -19.785840    1.099660
  H     -5.322250  -20.495580   -3.349670
  H     -5.193160  -23.474780   -4.780630
  H     -6.719580  -25.082340   -1.183450
  H     -6.766290  -22.117990    0.276170
  H     -6.086710  -26.786540   -2.795150
  H     -5.928940  -27.631680   -4.920170
  H     -5.897580  -26.589270   -6.952780
  H     -6.316250  -22.501920  -10.117330
  H     -8.480000  -18.649330   -6.750690
  H     -6.592750  -20.206530  -11.059280
  H     -8.248070  -20.890920   -5.810840

 Total Charge           Charge          ....    0
 Multiplicity           Mult            ....    1
 Number of Electrons    NEL             ....  550
 Basis Dimension        Dim             .... 1248

ORBITAL ENERGIES
----------------

  NO   OCC          E(Eh)            E(eV)
   0   2.0000     -88.999597     -2421.8021
   1   2.0000     -88.995621     -2421.6940
   2   2.0000     -24.798758      -674.8085
   3   2.0000     -24.797776      -674.7818
   4   2.0000     -24.792028      -674.6254
   5   2.0000     -24.790675      -674.5886
   6   2.0000     -19.210730      -522.7505
   7   2.0000     -19.208298      -522.6844
   8   2.0000     -14.480240      -394.0274
   9   2.0000     -14.475152      -393.8889
  10   2.0000     -14.473845      -393.8533
  11   2.0000     -14.470626      -393.7657
  12   2.0000     -14.438500      -392.8916
  13   2.0000     -14.437302      -392.8589
  14   2.0000     -14.418437      -392.3456
  15   2.0000     -14.411444      -392.1553
  16   2.0000     -14.410560      -392.1313
  17   2.0000     -14.404410      -391.9639
  18   2.0000     -10.380962      -282.4803
  19   2.0000     -10.380141      -282.4580
  20   2.0000     -10.374327      -282.2998
  21   2.0000     -10.373308      -282.2721
  22   2.0000     -10.372133      -282.2401
  23   2.0000     -10.360366      -281.9199
  24   2.0000     -10.359570      -281.8982
  25   2.0000     -10.359359      -281.8925
  26   2.0000     -10.339342      -281.3478
  27   2.0000     -10.338990      -281.3382
  28   2.0000     -10.338842      -281.3342
  29   2.0000     -10.338546      -281.3261
  30   2.0000     -10.338113      -281.3144
  31   2.0000     -10.337544      -281.2989
  32   2.0000     -10.334863      -281.2259
  33   2.0000     -10.333748      -281.1956
  34   2.0000     -10.332447      -281.1602
  35   2.0000     -10.329668      -281.0846
  36   2.0000     -10.329603      -281.0828
  37   2.0000     -10.329193      -281.0716
  38   2.0000     -10.322839      -280.8987
  39   2.0000     -10.321225      -280.8548
  40   2.0000     -10.319323      -280.8030
  41   2.0000     -10.318650      -280.7848
  42   2.0000     -10.318519      -280.7812
  43   2.0000     -10.315096      -280.6880
  44   2.0000     -10.314719      -280.6778
  45   2.0000     -10.313385      -280.6415
  46   2.0000     -10.313039      -280.6321
  47   2.0000     -10.310893      -280.5737
  48   2.0000     -10.310005      -280.5495
  49   2.0000     -10.309434      -280.5340
  50   2.0000     -10.309091      -280.5246
  51   2.0000     -10.308851      -280.5181
  52   2.0000     -10.308664      -280.5130
  53   2.0000     -10.308298      -280.5031
  54   2.0000     -10.308088      -280.4973
  55   2.0000     -10.307818      -280.4900
  56   2.0000     -10.307118      -280.4709
  57   2.0000     -10.304982      -280.4128
  58   2.0000     -10.304908      -280.4108
  59   2.0000     -10.303416      -280.3702
  60   2.0000     -10.302289      -280.3395
  61   2.0000     -10.301818      -280.3267
  62   2.0000     -10.300970      -280.3036
  63   2.0000     -10.300796      -280.2989
  64   2.0000     -10.300499      -280.2908
  65   2.0000     -10.298777      -280.2440
  66   2.0000     -10.297621      -280.2125
  67   2.0000     -10.294069      -280.1159
  68   2.0000     -10.293482      -280.0999
  69   2.0000     -10.293257      -280.0938
  70   2.0000     -10.293154      -280.0909
  71   2.0000     -10.292931      -280.0849
  72   2.0000     -10.289798      -279.9996
  73   2.0000     -10.287428      -279.9351
  74   2.0000     -10.287004      -279.9236
  75   2.0000     -10.285453      -279.8814
  76   2.0000     -10.283316      -279.8233
  77   2.0000     -10.282806      -279.8094
  78   2.0000     -10.280159      -279.7374
  79   2.0000     -10.279691      -279.7246
  80   2.0000      -8.094367      -220.2589
  81   2.0000      -8.090452      -220.1524
  82   2.0000      -6.063646      -165.0002
  83   2.0000      -6.059646      -164.8913
  84   2.0000      -6.059565      -164.8891
  85   2.0000      -6.056618      -164.8089
  86   2.0000      -6.055528      -164.7793
  87   2.0000      -6.052847      -164.7063
  88   2.0000      -1.320714       -35.9384
  89   2.0000      -1.313792       -35.7501
  90   2.0000      -1.305946       -35.5366
  91   2.0000      -1.298970       -35.3468
  92   2.0000      -1.125412       -30.6240
  93   2.0000      -1.122924       -30.5563
  94   2.0000      -1.111981       -30.2585
  95   2.0000      -1.107327       -30.1319
  96   2.0000      -1.075486       -29.2655
  97   2.0000      -1.070196       -29.1215
  98   2.0000      -1.050927       -28.5972
  99   2.0000      -1.029234       -28.0069
 100   2.0000      -1.017420       -27.6854
 101   2.0000      -1.015487       -27.6328
 102   2.0000      -1.011413       -27.5219
 103   2.0000      -1.003444       -27.3051
 104   2.0000      -1.002799       -27.2876
 105   2.0000      -0.996791       -27.1241
 106   2.0000      -0.993929       -27.0462
 107   2.0000      -0.986222       -26.8365
 108   2.0000      -0.977985       -26.6123
 109   2.0000      -0.972634       -26.4667
 110   2.0000      -0.966893       -26.3105
 111   2.0000      -0.931922       -25.3589
 112   2.0000      -0.931383       -25.3442
 113   2.0000      -0.924529       -25.1577
 114   2.0000      -0.915289       -24.9063
 115   2.0000      -0.911453       -24.8019
 116   2.0000      -0.901529       -24.5318
 117   2.0000      -0.899513       -24.4770
 118   2.0000      -0.892811       -24.2946
 119   2.0000      -0.887846       -24.1595
 120   2.0000      -0.887279       -24.1441
 121   2.0000      -0.886192       -24.1145
 122   2.0000      -0.881972       -23.9997
 123   2.0000      -0.879993       -23.9458
 124   2.0000      -0.873075       -23.7576
 125   2.0000      -0.865277       -23.5454
 126   2.0000      -0.861238       -23.4355
 127   2.0000      -0.855126       -23.2692
 128   2.0000      -0.839060       -22.8320
 129   2.0000      -0.836419       -22.7601
 130   2.0000      -0.832147       -22.6439
 131   2.0000      -0.820425       -22.3249
 132   2.0000      -0.807747       -21.9799
 133   2.0000      -0.798547       -21.7296
 134   2.0000      -0.782624       -21.2963
 135   2.0000      -0.770254       -20.9597
 136   2.0000      -0.762120       -20.7383
 137   2.0000      -0.758755       -20.6468
 138   2.0000      -0.756344       -20.5812
 139   2.0000      -0.744050       -20.2466
 140   2.0000      -0.731990       -19.9185
 141   2.0000      -0.724175       -19.7058
 142   2.0000      -0.716267       -19.4906
 143   2.0000      -0.713519       -19.4158
 144   2.0000      -0.712698       -19.3935
 145   2.0000      -0.708363       -19.2755
 146   2.0000      -0.706963       -19.2374
 147   2.0000      -0.705678       -19.2025
 148   2.0000      -0.704412       -19.1680
 149   2.0000      -0.693087       -18.8599
 150   2.0000      -0.692591       -18.8464
 151   2.0000      -0.687119       -18.6975
 152   2.0000      -0.680490       -18.5171
 153   2.0000      -0.678575       -18.4650
 154   2.0000      -0.670899       -18.2561
 155   2.0000      -0.665004       -18.0957
 156   2.0000      -0.659135       -17.9360
 157   2.0000      -0.654172       -17.8009
 158   2.0000      -0.649566       -17.6756
 159   2.0000      -0.647637       -17.6231
 160   2.0000      -0.640903       -17.4398
 161   2.0000      -0.636357       -17.3161
 162   2.0000      -0.635927       -17.3045
 163   2.0000      -0.635306       -17.2876
 164   2.0000      -0.629811       -17.1380
 165   2.0000      -0.622395       -16.9362
 166   2.0000      -0.619004       -16.8440
 167   2.0000      -0.612311       -16.6618
 168   2.0000      -0.608860       -16.5679
 169   2.0000      -0.604787       -16.4571
 170   2.0000      -0.600010       -16.3271
 171   2.0000      -0.589831       -16.0501
 172   2.0000      -0.585564       -15.9340
 173   2.0000      -0.585454       -15.9310
 174   2.0000      -0.581245       -15.8165
 175   2.0000      -0.580211       -15.7883
 176   2.0000      -0.578541       -15.7429
 177   2.0000      -0.575602       -15.6629
 178   2.0000      -0.570941       -15.5361
 179   2.0000      -0.565900       -15.3989
 180   2.0000      -0.564007       -15.3474
 181   2.0000      -0.560277       -15.2459
 182   2.0000      -0.558967       -15.2103
 183   2.0000      -0.553778       -15.0691
 184   2.0000      -0.553216       -15.0538
 185   2.0000      -0.552667       -15.0388
 186   2.0000      -0.551726       -15.0132
 187   2.0000      -0.547338       -14.8938
 188   2.0000      -0.546349       -14.8669
 189   2.0000      -0.543776       -14.7969
 190   2.0000      -0.540375       -14.7044
 191   2.0000      -0.539018       -14.6674
 192   2.0000      -0.537049       -14.6139
 193   2.0000      -0.535407       -14.5692
 194   2.0000      -0.531068       -14.4511
 195   2.0000      -0.530182       -14.4270
 196   2.0000      -0.529418       -14.4062
 197   2.0000      -0.527649       -14.3581
 198   2.0000      -0.524685       -14.2774
 199   2.0000      -0.522870       -14.2280
 200   2.0000      -0.517463       -14.0809
 201   2.0000      -0.515181       -14.0188
 202   2.0000      -0.514403       -13.9976
 203   2.0000      -0.513772       -13.9804
 204   2.0000      -0.510943       -13.9035
 205   2.0000      -0.510358       -13.8876
 206   2.0000      -0.508080       -13.8256
 207   2.0000      -0.504586       -13.7305
 208   2.0000      -0.504051       -13.7159
 209   2.0000      -0.502375       -13.6703
 210   2.0000      -0.497569       -13.5395
 211   2.0000      -0.493086       -13.4175
 212   2.0000      -0.490146       -13.3375
 213   2.0000      -0.489076       -13.3084
 214   2.0000      -0.487118       -13.2552
 215   2.0000      -0.486009       -13.2250
 216   2.0000      -0.483454       -13.1555
 217   2.0000      -0.477665       -12.9979
 218   2.0000      -0.477547       -12.9947
 219   2.0000      -0.475667       -12.9436
 220   2.0000      -0.474292       -12.9061
 221   2.0000      -0.469767       -12.7830
 222   2.0000      -0.468095       -12.7375
 223   2.0000      -0.466104       -12.6833
 224   2.0000      -0.465122       -12.6566
 225   2.0000      -0.463889       -12.6231
 226   2.0000      -0.462050       -12.5730
 227   2.0000      -0.457227       -12.4418
 228   2.0000      -0.456792       -12.4299
 229   2.0000      -0.455518       -12.3953
 230   2.0000      -0.453595       -12.3429
 231   2.0000      -0.452572       -12.3151
 232   2.0000      -0.451875       -12.2961
 233   2.0000      -0.449156       -12.2221
 234   2.0000      -0.448050       -12.1921
 235   2.0000      -0.445507       -12.1228
 236   2.0000      -0.445227       -12.1153
 237   2.0000      -0.443905       -12.0793
 238   2.0000      -0.443335       -12.0638
 239   2.0000      -0.438909       -11.9433
 240   2.0000      -0.437997       -11.9185
 241   2.0000      -0.435605       -11.8534
 242   2.0000      -0.433579       -11.7983
 243   2.0000      -0.430729       -11.7207
 244   2.0000      -0.425504       -11.5786
 245   2.0000      -0.424892       -11.5619
 246   2.0000      -0.423647       -11.5280
 247   2.0000      -0.419074       -11.4036
 248   2.0000      -0.415665       -11.3108
 249   2.0000      -0.415492       -11.3061
 250   2.0000      -0.407589       -11.0911
 251   2.0000      -0.401983       -10.9385
 252   2.0000      -0.401090       -10.9142
 253   2.0000      -0.398409       -10.8413
 254   2.0000      -0.391008       -10.6399
 255   2.0000      -0.386605       -10.5201
 256   2.0000      -0.380059       -10.3419
 257   2.0000      -0.376708       -10.2508
 258   2.0000      -0.365292        -9.9401
 259   2.0000      -0.356801        -9.7090
 260   2.0000      -0.351131        -9.5548
 261   2.0000      -0.336660        -9.1610
 262   2.0000      -0.332479        -9.0472
 263   2.0000      -0.330817        -9.0020
 264   2.0000      -0.330282        -8.9874
 265   2.0000      -0.318998        -8.6804
 266   2.0000      -0.316611        -8.6154
 267   2.0000      -0.310157        -8.4398
 268   2.0000      -0.307421        -8.3653
 269   2.0000      -0.304538        -8.2869
 270   2.0000      -0.295146        -8.0313
 271   2.0000      -0.291700        -7.9375
 272   2.0000      -0.287178        -7.8145
 273   2.0000      -0.251441        -6.8421
 274   2.0000      -0.231635        -6.3031
 275   0.0000      -0.114047        -3.1034
 276   0.0000      -0.091951        -2.5021
 277   0.0000      -0.088454        -2.4070
 278   0.0000      -0.058269        -1.5856
 279   0.0000      -0.054601        -1.4858

MULLIKEN ATOMIC CHARGES
-----------------------
   0 C :   -0.108517
   1 C :    0.238770
   2 F :   -0.174633
   3 C :    0.237774
   4 F :   -0.175395
   5 C :   -0.108710
   6 C :    0.119728
   7 C :    0.114135
   8 C :   -0.085709
   9 C :    0.045781
  10 C :    0.002633
  11 C :   -0.090825
  12 C :    0.153318
  13 O :   -0.167468
  14 C :   -0.106112
  15 C :    0.328384
  16 C :   -0.376434
  17 C :   -0.180879
  18 N :    0.127407
  19 C :   -0.184552
  20 N :    0.138225
  21 C :   -0.010913
  22 C :    0.087167
  23 N :   -0.039370
  24 C :    0.141209
  25 C :   -0.181155
  26 C :    0.120861
  27 N :   -0.034916
  28 C :    0.120298
  29 C :   -0.138997
  30 C :    0.001170
  31 C :    0.044996
  32 C :   -0.074054
  33 C :   -0.034483
  34 C :    0.001328
  35 C :   -0.098725
  36 S :    0.187661
  37 C :   -0.101459
  38 C :    0.019576
  39 C :    0.305473
  40 C :   -0.295050
  41 C :   -0.184536
  42 N :    0.173492
  43 C :   -0.182959
  44 N :    0.165881
  45 C :   -0.049604
  46 C :   -0.054903
  47 S :    0.160908
  48 C :    0.106567
  49 N :   -0.048948
  50 C :    0.074597
  51 C :   -0.039216
  52 C :    0.008137
  53 N :   -0.019298
  54 C :    0.141684
  55 C :   -0.160912
  56 C :    0.044747
  57 C :   -0.019981
  58 C :    0.018125
  59 C :   -0.140921
  60 C :    0.135161
  61 O :   -0.146611
  62 C :    0.015688
  63 C :   -0.091699
  64 C :    0.113891
  65 C :    0.122513
  66 C :   -0.116465
  67 C :    0.239525
  68 C :    0.235696
  69 C :   -0.104925
  70 F :   -0.175173
  71 F :   -0.175841
  72 C :   -0.119778
  73 C :    0.054311
  74 C :    0.262038
  75 C :   -0.318111
  76 C :   -0.199933
  77 N :    0.160155
  78 C :   -0.179482
  79 N :    0.124833
  80 H :    0.005395
  81 H :   -0.003008
  82 H :   -0.008807
  83 H :   -0.015692
  84 H :   -0.024262
  85 H :    0.138663
  86 H :   -0.028599
  87 H :    0.130849
  88 H :    0.002328
  89 H :   -0.017340
  90 H :   -0.013473
  91 H :    0.003056
  92 H :    0.008019
  93 H :    0.128603
  94 H :   -0.017378
  95 H :    0.131800
  96 H :   -0.021177
  97 H :   -0.000047
  98 H :    0.010978
  99 H :    0.026288
 100 H :   -0.011892
 101 H :   -0.000729
 102 H :   -0.001804
 103 H :   -0.017962
Sum of atomic charges:   -0.0000000

LOEWDIN ATOMIC CHARGES
----------------------
   0 C :   -0.029753
   1 C :    0.064042
   2 F :   -0.052200
   3 C :    0.065796
   4 F :   -0.052709
   5 C :   -0.035283
   6 C :   -0.009521
   7 C :   -0.008321
   8 C :    0.014788
   9 C :   -0.022282
  10 C :   -0.048804
  11 C :    0.023258
  12 C :    0.083939
  13 O :   -0.156025
  14 C :   -0.115660
  15 C :    0.078472
  16 C :   -0.159154
  17 C :   -0.019900
  18 N :   -0.073637
  19 C :   -0.018333
  20 N :   -0.066084
  21 C :    0.049483
  22 C :   -0.012198
  23 N :    0.073498
  24 C :    0.012884
  25 C :   -0.102754
  26 C :    0.028131
  27 N :    0.072488
  28 C :   -0.023204
  29 C :   -0.032138
  30 C :   -0.032127
  31 C :   -0.030951
  32 C :   -0.165303
  33 C :   -0.026762
  34 C :   -0.068580
  35 C :   -0.183673
  36 S :    0.474120
  37 C :   -0.182682
  38 C :   -0.066127
  39 C :    0.084065
  40 C :   -0.100663
  41 C :   -0.016175
  42 N :   -0.030922
  43 C :   -0.013970
  44 N :   -0.035493
  45 C :   -0.021604
  46 C :   -0.162906
  47 S :    0.456081
  48 C :    0.009068
  49 N :    0.067924
  50 C :   -0.025441
  51 C :   -0.038890
  52 C :   -0.017179
  53 N :    0.080202
  54 C :    0.008347
  55 C :   -0.085978
  56 C :    0.019499
  57 C :   -0.062415
  58 C :    0.046880
  59 C :   -0.110946
  60 C :    0.081710
  61 O :   -0.146278
  62 C :   -0.053530
  63 C :    0.027453
  64 C :   -0.013609
  65 C :   -0.007958
  66 C :   -0.036530
  67 C :    0.064415
  68 C :    0.062916
  69 C :   -0.032535
  70 F :   -0.052529
  71 F :   -0.053297
  72 C :   -0.005430
  73 C :   -0.017246
  74 C :    0.047904
  75 C :   -0.138101
  76 C :   -0.011558
  77 N :   -0.063428
  78 C :   -0.013237
  79 N :   -0.068126
  80 H :    0.046998
  81 H :    0.043544
  82 H :    0.039157
  83 H :    0.037756
  84 H :    0.042189
  85 H :    0.096714
  86 H :    0.025299
  87 H :    0.094440
  88 H :    0.032168
  89 H :    0.031401
  90 H :    0.030419
  91 H :    0.037737
  92 H :    0.041803
  93 H :    0.083007
  94 H :    0.033134
  95 H :    0.096206
  96 H :    0.030810
  97 H :    0.039969
  98 H :    0.040665
  99 H :    0.046520
 100 H :    0.039555
 101 H :    0.044012
 102 H :    0.044288
 103 H :    0.034983

  Mayer bond orders larger than 0.100000
B(  0-C ,  1-C ) :   1.4385 B(  0-C ,  5-C ) :   0.1093 B(  0-C ,  7-C ) :   1.1901
B(  0-C , 80-H ) :   1.0067 B(  1-C ,  2-F ) :   1.1312 B(  1-C ,  3-C ) :   1.1965
B(  3-C ,  4-F ) :   1.1299 B(  3-C ,  5-C ) :   1.4403 B(  5-C ,  6-C ) :   1.1935
B(  5-C , 81-H ) :   1.0071 B(  6-C ,  7-C ) :   1.2599 B(  6-C , 11-C ) :   1.1808
B(  7-C ,  8-C ) :   1.2109 B(  8-C ,  9-C ) :   1.4568 B(  8-C , 82-H ) :   0.9888
B(  9-C , 10-C ) :   1.2234 B(  9-C , 15-C ) :   0.9731 B( 10-C , 11-C ) :   1.4777
B( 10-C , 12-C ) :   0.9455 B( 11-C , 83-H ) :   1.0159 B( 12-C , 13-O ) :   2.1636
B( 12-C , 14-C ) :   0.9554 B( 14-C , 15-C ) :   1.1183 B( 14-C , 21-C ) :   1.4830
B( 15-C , 16-C ) :   1.5820 B( 16-C , 17-C ) :   1.1492 B( 16-C , 19-C ) :   1.1545
B( 17-C , 18-N ) :   2.9560 B( 19-C , 20-N ) :   2.9556 B( 21-C , 22-C ) :   1.2437
B( 21-C , 84-H ) :   0.9166 B( 22-C , 23-N ) :   1.1209 B( 22-C , 29-C ) :   1.3227
B( 23-N , 24-C ) :   1.2162 B( 23-N , 85-H ) :   0.9303 B( 24-C , 25-C ) :   1.2591
B( 24-C , 28-C ) :   1.2547 B( 25-C , 26-C ) :   1.3916 B( 25-C , 86-H ) :   1.0321
B( 26-C , 27-N ) :   1.1956 B( 26-C , 30-C ) :   1.1123 B( 27-N , 28-C ) :   1.1419
B( 27-N , 87-H ) :   0.9341 B( 28-C , 29-C ) :   1.2745 B( 29-C , 88-H ) :   1.0290
B( 30-C , 31-C ) :   1.6912 B( 30-C , 89-H ) :   0.9624 B( 31-C , 32-C ) :   1.1252
B( 31-C , 90-H ) :   0.9611 B( 32-C , 33-C ) :   1.4505 B( 32-C , 36-S ) :   1.0996
B( 33-C , 34-C ) :   1.3077 B( 33-C , 91-H ) :   0.9886 B( 34-C , 35-C ) :   1.4275
B( 34-C , 39-C ) :   1.0008 B( 35-C , 36-S ) :   1.1228 B( 35-C , 37-C ) :   1.1957
B( 37-C , 38-C ) :   1.4418 B( 37-C , 47-S ) :   1.1218 B( 38-C , 39-C ) :   0.9913
B( 38-C , 45-C ) :   1.2868 B( 39-C , 40-C ) :   1.7127 B( 40-C , 41-C ) :   1.1319
B( 40-C , 43-C ) :   1.1349 B( 41-C , 42-N ) :   2.9903 B( 43-C , 44-N ) :   2.9853
B( 45-C , 46-C ) :   1.4878 B( 45-C , 92-H ) :   0.9909 B( 46-C , 47-S ) :   1.0797
B( 46-C , 48-C ) :   1.0914 B( 48-C , 49-N ) :   1.2151 B( 48-C , 55-C ) :   1.4247
B( 49-N , 50-C ) :   1.1408 B( 49-N , 93-H ) :   0.9291 B( 50-C , 51-C ) :   1.3377
B( 50-C , 54-C ) :   1.2857 B( 51-C , 52-C ) :   1.2977 B( 51-C , 94-H ) :   1.0204
B( 52-C , 53-N ) :   1.1560 B( 52-C , 56-C ) :   1.2093 B( 53-N , 54-C ) :   1.2008
B( 53-N , 95-H ) :   0.9284 B( 54-C , 55-C ) :   1.2573 B( 55-C , 96-H ) :   1.0260
B( 56-C , 57-C ) :   1.5563 B( 56-C , 97-H ) :   0.9456 B( 57-C , 58-C ) :   1.2870
B( 57-C , 98-H ) :   0.9398 B( 58-C , 59-C ) :   1.5227 B( 58-C , 99-H ) :   0.9231
B( 59-C , 60-C ) :   0.9528 B( 59-C , 74-C ) :   1.1387 B( 60-C , 61-O ) :   2.2554
B( 60-C , 62-C ) :   0.9100 B( 62-C , 63-C ) :   1.4864 B( 62-C , 73-C ) :   1.2181
B( 63-C , 64-C ) :   1.1785 B( 63-C ,100-H ) :   1.0160 B( 64-C , 65-C ) :   1.2653
B( 64-C , 69-C ) :   1.1977 B( 65-C , 66-C ) :   1.1926 B( 65-C , 72-C ) :   1.1965
B( 66-C , 67-C ) :   1.4351 B( 66-C , 69-C ) :   0.1091 B( 66-C ,101-H ) :   1.0067
B( 67-C , 68-C ) :   1.1995 B( 67-C , 71-F ) :   1.1301 B( 68-C , 69-C ) :   1.4373
B( 68-C , 70-F ) :   1.1297 B( 69-C ,102-H ) :   1.0068 B( 72-C , 73-C ) :   1.4651
B( 72-C ,103-H ) :   0.9933 B( 73-C , 74-C ) :   1.0020 B( 74-C , 75-C ) :   1.5327
B( 75-C , 76-C ) :   1.1871 B( 75-C , 78-C ) :   1.1415 B( 76-C , 77-N ) :   2.9752
B( 78-C , 79-N ) :   2.9300

-----------------------------------------------------------------------------
         ABSORPTION SPECTRUM VIA TRANSITION ELECTRIC DIPOLE MOMENTS
-----------------------------------------------------------------------------
State   Energy  Wavelength   fosc         T2         TX        TY        TZ
        (cm-1)    (nm)                  (au**2)     (au)      (au)      (au)
-----------------------------------------------------------------------------
   0    9682.0   1032.8   0.383918001  13.05414  -0.11115   3.43460   1.11593
   1   14979.9    667.6   0.731265035  16.07099   0.61121   3.03825   2.54292
   2   16908.3    591.4   0.976206176  19.00719   0.81194  -4.27356   0.29096
   3   17939.4    557.4   1.037767810  19.04440   0.80261  -4.27748   0.32150
   4   22994.3    434.9   0.224484860   3.21398  -0.12765   1.25278   1.27602
   5   23605.1    423.6   0.004986974   0.06955   0.01540  -0.22153  -0.14227
   6   24213.3    413.0   0.110662833   1.50461  -0.47118   1.08137  -0.33649
   7   24609.8    406.3   0.071411521   0.95529  -0.41396   0.81626   0.34300
   8   24919.4    401.3   0.046574810   0.61530   0.58072  -0.47162  -0.23588
   9   25330.8    394.8   0.019703327   0.25607  -0.07883  -0.34432   0.36236
  10   27015.2    370.2   0.003697579   0.04506   0.13571  -0.11072  -0.11993
  11   27584.6    362.5   0.242707821   2.89662   0.01444  -1.66924  -0.33172
  12   28239.0    354.1   0.006003196   0.06999  -0.22464  -0.13887   0.01544
  13   28281.6    353.6   0.151739366   1.76632  -0.04195   1.32071   0.14242
  14   28644.7    349.1   0.087860127   1.00977  -0.75687   0.63501   0.18354
  15   29159.0    342.9   0.135913222   1.53449   0.49060  -0.40563  -1.06267
  16   29599.5    337.8   0.002935962   0.03265   0.01145  -0.08654   0.15822
  17   29667.8    337.1   0.020438363   0.22680  -0.11221   0.32750  -0.32703
  18   30077.7    332.5   0.148142946   1.62148  -0.66200   0.91441   0.58914
  19   30296.0    330.1   0.184472754   2.00458   0.50616  -1.11870  -0.70490
  20   30619.5    326.6   0.034015856   0.36573   0.24254   0.38859  -0.39485
  21   30832.3    324.3   0.009069605   0.09684  -0.11293   0.26873   0.10896
  22   31225.4    320.3   0.199044738   2.09855  -0.76528   0.09260   1.22650
  23   31519.2    317.3   0.077578584   0.81029   0.40018  -0.55836  -0.58171
  24   31639.4    316.1   0.117272612   1.22023  -0.16514  -0.52550   0.95750
  25   32089.2    311.6   0.214679083   2.20245   0.46646   0.67327  -1.23757
  26   32394.0    308.7   0.011481518   0.11668  -0.06544  -0.33496  -0.01433
  27   32608.9    306.7   0.109987600   1.11041  -0.46742   0.57493   0.74926
  28   32810.7    304.8   0.184966911   1.85590   0.26523  -0.06423  -1.33470
  29   33167.3    301.5   0.393322058   3.90404  -1.02759  -0.26408   1.66684
  30   33301.0    300.3   0.188692202   1.86540   0.37954  -1.28312  -0.27377
  31   33589.2    297.7   0.056766264   0.55637   0.17766  -0.71828  -0.09424
  32   33849.4    295.4   0.007083089   0.06889  -0.13153  -0.12270   0.19113
  33   34063.5    293.6   0.076941586   0.74361  -0.24289   0.75815  -0.33140
  34   34406.0    290.6   0.501705915   4.80055   1.11221   0.31180  -1.86180
  35   34556.4    289.4   0.358265252   3.41312   0.85145  -1.60486   0.33551
  36   35112.4    284.8   0.007599243   0.07125   0.19923   0.09229  -0.15179
  37   35483.3    281.8   0.020251570   0.18789   0.25102   0.13653  -0.32595
  38   35893.9    278.6   0.203034635   1.86220   0.40531   1.04390  -0.77987
  39   35979.9    277.9   0.034209834   0.31302  -0.11145   0.54823   0.00654
  40   36225.6    276.0   0.049598233   0.45074   0.43894  -0.28307  -0.42183
  41   36780.3    271.9   0.039152391   0.35044  -0.37921  -0.00808   0.45450
  42   36895.5    271.0   0.184655661   1.64765  -0.84432  -0.11116   0.96042
  43   37342.1    267.8   0.014922911   0.13156  -0.16064  -0.30244   0.11951
  44   37498.3    266.7   0.055839060   0.49023  -0.12097   0.68901  -0.02932
  45   38136.8    262.2   0.105698024   0.91243   0.38082  -0.85682  -0.18238
  46   38192.7    261.8   0.100093495   0.86278   0.21052  -0.83983   0.33637
  47   38444.6    260.1   0.197278223   1.68935   0.21113   1.00918  -0.79141
  48   38731.1    258.2   0.016374928   0.13919  -0.10663   0.26460  -0.24042
  49   39003.4    256.4   0.054594773   0.46081  -0.01810   0.60737  -0.30264
  50   39140.3    255.5   0.071539411   0.60172   0.01561  -0.54413   0.55263
  51   39292.8    254.5   0.098132316   0.82219  -0.07969   0.85029  -0.30471
  52   39378.3    253.9   0.000713905   0.00597   0.00180  -0.01244  -0.07623
  53   39480.2    253.3   0.024049327   0.20054  -0.24197  -0.35268   0.13268
  54   39647.4    252.2   0.007333370   0.06089   0.18538  -0.15716  -0.04275
  55   39840.6    251.0   0.006538539   0.05403   0.05953   0.18965  -0.12049

FINAL SINGLE POINT ENERGY     -4266.061829037694

DIPOLE MOMENT
-------------
                                X             Y             Z
Electronic contribution:    -13.48092      39.80886      -2.70646
Nuclear contribution   :     14.92060     -42.70010       2.80666
                        -----------------------------------------
Total Dipole Moment    :      1.43968      -2.89124       0.10020
                        -----------------------------------------
Magnitude (a.u.)       :      3.23141
Magnitude (Debye)      :      8.21359

Rotational constants in cm-1:     0.001438     0.000156     0.000146
Rotational constants in MHz :    43.117909     4.684826     4.373072

                             ****ORCA TERMINATED NORMALLY****
TOTAL RUN TIME: 0 days 0 hours 12 minutes 39 seconds 587 msec
