                         Program Version 4.2.0 -  RELEASE  -
|  1> # ORCA input file
|  2> # SCF done       -222.969322109317          0.000490405010
|  3> ! CAM-B3LYP def2-SVP def2/J RIJCOSX Grid4 TightSCF
|  4> %maxcore 5000
|  5> %tddft
|  6>     Mode sTDDFT
|  7>     Ethresh 5.0
|  8>     maxcore 5000
|  9> end
| 10>
| 11> %pal
| 12>   nprocs 6
| 13>   end
| 14> * xyz 0 1
| 15>    C       -6.50482       -10.27783        15.51965
| 16>    C       -6.41730        -9.14690        16.28184
| 17>    F       -6.63410        -9.20613        17.60255
| 18>    C       -6.09905        -7.90719        15.69196
| 19>    F       -6.02093        -6.81400        16.46343
| 20>    C       -5.87188        -7.81585        14.34739
| 21>    C       -5.95481        -8.96329        13.53492
| 22>    C       -6.27616       -10.21775        14.13004
| 23>    C       -6.36349       -11.38283        13.33438
| 24>    C       -6.13310       -11.29629        11.98615
| 25>    C       -5.81798       -10.03898        11.39957
| 26>    C       -5.73014        -8.89672        12.14186
| 27>    C       -5.63788       -10.20130         9.94253
| 28>    O       -5.42616        -9.31801         9.14229
| 29>    C       -5.88692       -11.64313         9.67308
| 30>    C       -6.14258       -12.30921        10.93633
| 31>    C       -6.27540       -13.65912        11.12530
| 32>    C       -6.17599       -14.62661        10.10242
| 33>    N       -6.08481       -15.47140         9.33053
| 34>    C       -6.49156       -14.26231        12.38182
| 35>    N       -6.67423       -14.80564        13.37642
| 36>    C       -6.05213       -12.17009         8.43239
| 37>    C       -5.68001       -11.52620         7.19986
| 38>    C       -6.56040       -11.59724         6.11075
| 39>    F       -7.71833       -12.26719         6.33422
| 40>    C       -6.31782       -10.97910         4.89824
| 41>    O       -7.10967       -10.97672         3.80016
| 42>    C       -8.36845       -11.62080         3.81846
| 43>    C       -5.08572       -10.28404         4.75018
| 44>    C       -4.19747       -10.24131         5.83119
| 45>    C       -4.44151       -10.85872         7.05350
| 46>    O       -3.59796       -10.96082         8.09500
| 47>    C       -2.34098       -10.31532         8.08509
| 48>    F       -3.09086        -9.47519         5.67945
| 49>    C       -4.85427        -9.61014         3.50467
| 50>    C       -3.69216        -9.39443         2.82669
| 51>    C       -3.60364        -8.64371         1.61429
| 52>    C       -2.36495        -8.60265         1.06824
| 53>    C       -1.39319        -9.33859         1.79260
| 54>    S       -2.11604       -10.06968         3.20834
| 55>    C       -0.06225        -9.48647         1.47853
| 56>    C        0.90736       -10.24924         2.17451
| 57>    C        2.13850       -10.20733         1.60881
| 58>    C        2.23132        -9.38481         0.44513
| 59>    S        0.66799        -8.68169         0.10239
| 60>    C        3.36935        -9.28159        -0.30548
| 61>    C        3.65554        -8.52475        -1.48194
| 62>    C        4.67861        -8.98908        -2.32756
| 63>    F        5.30242       -10.12850        -1.93315
| 64>    C        5.03866        -8.38607        -3.52107
| 65>    O        6.01058        -8.78100        -4.37059
| 66>    C        6.80939        -9.91742        -4.10250
| 67>    C        4.35377        -7.19673        -3.88533
| 68>    C        3.39252        -6.68292        -2.99551
| 69>    C        3.01235        -7.30354        -1.82105
| 70>    O        2.14271        -6.83261        -0.90135
| 71>    C        1.36383        -5.67856        -1.14603
| 72>    F        2.81058        -5.51761        -3.36654
| 73>    C        4.66508        -6.42134        -5.04494
| 74>    C        5.20565        -6.74149        -6.25235
| 75>    C        5.76437        -5.63249        -7.07884
| 76>    O        5.63600        -4.44644        -6.88208
| 77>    C        6.54249        -6.29224        -8.14658
| 78>    C        7.33967        -5.72890        -9.10010
| 79>    C        8.01822        -6.56907       -10.01164
| 80>    C        7.85805        -7.98148        -9.91137
| 81>    C        8.54353        -8.81402       -10.81864
| 82>    C        9.34652        -8.27024       -11.78162
| 83>    C        9.50223        -6.87346       -11.88102
| 84>    C        8.85251        -6.03931       -11.01493
| 85>    F       10.29678        -6.36771       -12.83486
| 86>    F        9.99651        -9.06442       -12.64342
| 87>    C        7.01832        -8.53502        -8.91720
| 88>    C        6.36464        -7.70134        -8.04972
| 89>    C        5.43257        -7.97879        -6.95937
| 90>    C        4.75316        -9.15660        -6.78145
| 91>    C        3.69486        -9.31187        -5.86661
| 92>    N        2.81847        -9.47058        -5.14213
| 93>    C        4.99830       -10.32860        -7.52346
| 94>    N        5.17617       -11.31775        -8.07889
| 95>    H       -6.74842       -11.21902        15.98727
| 96>    H       -5.62998        -6.85938        13.91103
| 97>    H       -6.61667       -12.31560        13.81190
| 98>    H       -5.49162        -7.95462        11.67194
| 99>    H       -6.56170       -13.12034         8.32697
|100>    H       -8.26995       -12.69421         3.99378
|101>    H       -8.78446       -11.45416         2.82604
|102>    H       -9.03402       -11.18795         4.56854
|103>    H       -1.71168       -10.66670         7.26396
|104>    H       -1.88005       -10.58306         9.03495
|105>    H       -2.45092        -9.23070         8.02811
|106>    H       -5.75705        -9.27564         3.00980
|107>    H       -4.46972        -8.15332         1.20696
|108>    H       -2.10094        -8.08073         0.16521
|109>    H        0.65027       -10.80007         3.06241
|110>    H        3.00024       -10.73072         1.98369
|111>    H        4.17138        -9.93778         0.01096
|112>    H        6.21173       -10.83070        -4.06449
|113>    H        7.37046        -9.80724        -3.17247
|114>    H        7.50486        -9.97579        -4.93913
|115>    H        0.70780        -5.59648        -0.28063
|116>    H        0.76042        -5.78282        -2.04971
|117>    H        1.98368        -4.78251        -1.21898
|118>    H        4.48174        -5.35491        -4.93277
|119>    H        7.45250        -4.65703        -9.15842
|120>    H        8.43301        -9.88552       -10.75908
|121>    H        8.98210        -4.97205       -11.10365
|122>    H        6.91964        -9.60747        -8.86259
|123> *
|124>
|125>                          ****END OF INPUT****

CARTESIAN COORDINATES (ANGSTROEM)
---------------------------------
  C     -6.504820  -10.277830   15.519650
  C     -6.417300   -9.146900   16.281840
  F     -6.634100   -9.206130   17.602550
  C     -6.099050   -7.907190   15.691960
  F     -6.020930   -6.814000   16.463430
  C     -5.871880   -7.815850   14.347390
  C     -5.954810   -8.963290   13.534920
  C     -6.276160  -10.217750   14.130040
  C     -6.363490  -11.382830   13.334380
  C     -6.133100  -11.296290   11.986150
  C     -5.817980  -10.038980   11.399570
  C     -5.730140   -8.896720   12.141860
  C     -5.637880  -10.201300    9.942530
  O     -5.426160   -9.318010    9.142290
  C     -5.886920  -11.643130    9.673080
  C     -6.142580  -12.309210   10.936330
  C     -6.275400  -13.659120   11.125300
  C     -6.175990  -14.626610   10.102420
  N     -6.084810  -15.471400    9.330530
  C     -6.491560  -14.262310   12.381820
  N     -6.674230  -14.805640   13.376420
  C     -6.052130  -12.170090    8.432390
  C     -5.680010  -11.526200    7.199860
  C     -6.560400  -11.597240    6.110750
  F     -7.718330  -12.267190    6.334220
  C     -6.317820  -10.979100    4.898240
  O     -7.109670  -10.976720    3.800160
  C     -8.368450  -11.620800    3.818460
  C     -5.085720  -10.284040    4.750180
  C     -4.197470  -10.241310    5.831190
  C     -4.441510  -10.858720    7.053500
  O     -3.597960  -10.960820    8.095000
  C     -2.340980  -10.315320    8.085090
  F     -3.090860   -9.475190    5.679450
  C     -4.854270   -9.610140    3.504670
  C     -3.692160   -9.394430    2.826690
  C     -3.603640   -8.643710    1.614290
  C     -2.364950   -8.602650    1.068240
  C     -1.393190   -9.338590    1.792600
  S     -2.116040  -10.069680    3.208340
  C     -0.062250   -9.486470    1.478530
  C      0.907360  -10.249240    2.174510
  C      2.138500  -10.207330    1.608810
  C      2.231320   -9.384810    0.445130
  S      0.667990   -8.681690    0.102390
  C      3.369350   -9.281590   -0.305480
  C      3.655540   -8.524750   -1.481940
  C      4.678610   -8.989080   -2.327560
  F      5.302420  -10.128500   -1.933150
  C      5.038660   -8.386070   -3.521070
  O      6.010580   -8.781000   -4.370590
  C      6.809390   -9.917420   -4.102500
  C      4.353770   -7.196730   -3.885330
  C      3.392520   -6.682920   -2.995510
  C      3.012350   -7.303540   -1.821050
  O      2.142710   -6.832610   -0.901350
  C      1.363830   -5.678560   -1.146030
  F      2.810580   -5.517610   -3.366540
  C      4.665080   -6.421340   -5.044940
  C      5.205650   -6.741490   -6.252350
  C      5.764370   -5.632490   -7.078840
  O      5.636000   -4.446440   -6.882080
  C      6.542490   -6.292240   -8.146580
  C      7.339670   -5.728900   -9.100100
  C      8.018220   -6.569070  -10.011640
  C      7.858050   -7.981480   -9.911370
  C      8.543530   -8.814020  -10.818640
  C      9.346520   -8.270240  -11.781620
  C      9.502230   -6.873460  -11.881020
  C      8.852510   -6.039310  -11.014930
  F     10.296780   -6.367710  -12.834860
  F      9.996510   -9.064420  -12.643420
  C      7.018320   -8.535020   -8.917200
  C      6.364640   -7.701340   -8.049720
  C      5.432570   -7.978790   -6.959370
  C      4.753160   -9.156600   -6.781450
  C      3.694860   -9.311870   -5.866610
  N      2.818470   -9.470580   -5.142130
  C      4.998300  -10.328600   -7.523460
  N      5.176170  -11.317750   -8.078890
  H     -6.748420  -11.219020   15.987270
  H     -5.629980   -6.859380   13.911030
  H     -6.616670  -12.315600   13.811900
  H     -5.491620   -7.954620   11.671940
  H     -6.561700  -13.120340    8.326970
  H     -8.269950  -12.694210    3.993780
  H     -8.784460  -11.454160    2.826040
  H     -9.034020  -11.187950    4.568540
  H     -1.711680  -10.666700    7.263960
  H     -1.880050  -10.583060    9.034950
  H     -2.450920   -9.230700    8.028110
  H     -5.757050   -9.275640    3.009800
  H     -4.469720   -8.153320    1.206960
  H     -2.100940   -8.080730    0.165210
  H      0.650270  -10.800070    3.062410
  H      3.000240  -10.730720    1.983690
  H      4.171380   -9.937780    0.010960
  H      6.211730  -10.830700   -4.064490
  H      7.370460   -9.807240   -3.172470
  H      7.504860   -9.975790   -4.939130
  H      0.707800   -5.596480   -0.280630
  H      0.760420   -5.782820   -2.049710
  H      1.983680   -4.782510   -1.218980
  H      4.481740   -5.354910   -4.932770
  H      7.452500   -4.657030   -9.158420
  H      8.433010   -9.885520  -10.759080
  H      8.982100   -4.972050  -11.103650
  H      6.919640   -9.607470   -8.862590

 Total Charge           Charge          ....    0
 Multiplicity           Mult            ....    1
 Number of Electrons    NEL             ....  568
 Basis Dimension        Dim             .... 1268

ORBITAL ENERGIES
----------------

  NO   OCC          E(Eh)            E(eV)
   0   2.0000     -88.945862     -2420.3400
   1   2.0000     -88.945374     -2420.3267
   2   2.0000     -24.799069      -674.8170
   3   2.0000     -24.798157      -674.7922
   4   2.0000     -24.798046      -674.7891
   5   2.0000     -24.797436      -674.7725
   6   2.0000     -24.796196      -674.7388
   7   2.0000     -24.795721      -674.7259
   8   2.0000     -24.794733      -674.6990
   9   2.0000     -24.792018      -674.6251
  10   2.0000     -19.269312      -524.3446
  11   2.0000     -19.261311      -524.1269
  12   2.0000     -19.258275      -524.0443
  13   2.0000     -19.258022      -524.0374
  14   2.0000     -19.216400      -522.9048
  15   2.0000     -19.212817      -522.8073
  16   2.0000     -14.416539      -392.2940
  17   2.0000     -14.415357      -392.2618
  18   2.0000     -14.414749      -392.2453
  19   2.0000     -14.412509      -392.1843
  20   2.0000     -10.382245      -282.5153
  21   2.0000     -10.381413      -282.4926
  22   2.0000     -10.379023      -282.4276
  23   2.0000     -10.378696      -282.4187
  24   2.0000     -10.370898      -282.2065
  25   2.0000     -10.369612      -282.1715
  26   2.0000     -10.367003      -282.1005
  27   2.0000     -10.365610      -282.0626
  28   2.0000     -10.364130      -282.0223
  29   2.0000     -10.362885      -281.9884
  30   2.0000     -10.360859      -281.9333
  31   2.0000     -10.357531      -281.8428
  32   2.0000     -10.352966      -281.7185
  33   2.0000     -10.350621      -281.6547
  34   2.0000     -10.343579      -281.4631
  35   2.0000     -10.340949      -281.3915
  36   2.0000     -10.338694      -281.3302
  37   2.0000     -10.334919      -281.2274
  38   2.0000     -10.330963      -281.1198
  39   2.0000     -10.326062      -280.9864
  40   2.0000     -10.325820      -280.9799
  41   2.0000     -10.323606      -280.9196
  42   2.0000     -10.319152      -280.7984
  43   2.0000     -10.318683      -280.7856
  44   2.0000     -10.318096      -280.7697
  45   2.0000     -10.317265      -280.7470
  46   2.0000     -10.315054      -280.6869
  47   2.0000     -10.314858      -280.6816
  48   2.0000     -10.313730      -280.6509
  49   2.0000     -10.313241      -280.6376
  50   2.0000     -10.313069      -280.6329
  51   2.0000     -10.311199      -280.5820
  52   2.0000     -10.310892      -280.5736
  53   2.0000     -10.309290      -280.5301
  54   2.0000     -10.308177      -280.4998
  55   2.0000     -10.307657      -280.4856
  56   2.0000     -10.307619      -280.4846
  57   2.0000     -10.307445      -280.4798
  58   2.0000     -10.304989      -280.4130
  59   2.0000     -10.304485      -280.3993
  60   2.0000     -10.303990      -280.3858
  61   2.0000     -10.302899      -280.3561
  62   2.0000     -10.302591      -280.3478
  63   2.0000     -10.301881      -280.3284
  64   2.0000     -10.301057      -280.3060
  65   2.0000     -10.300139      -280.2810
  66   2.0000     -10.299783      -280.2714
  67   2.0000     -10.299098      -280.2527
  68   2.0000     -10.298933      -280.2482
  69   2.0000     -10.298459      -280.2353
  70   2.0000     -10.298241      -280.2294
  71   2.0000     -10.293503      -280.1005
  72   2.0000     -10.293319      -280.0954
  73   2.0000     -10.290744      -280.0254
  74   2.0000     -10.290263      -280.0123
  75   2.0000     -10.290011      -280.0054
  76   2.0000     -10.289744      -279.9982
  77   2.0000     -10.288587      -279.9667
  78   2.0000     -10.284788      -279.8633
  79   2.0000     -10.284190      -279.8470
  80   2.0000      -8.042074      -218.8360
  81   2.0000      -8.040760      -218.8002
  82   2.0000      -6.011878      -163.5915
  83   2.0000      -6.010634      -163.5577
  84   2.0000      -6.007854      -163.4820
  85   2.0000      -6.006416      -163.4429
  86   2.0000      -6.002762      -163.3435
  87   2.0000      -6.001580      -163.3113
  88   2.0000      -1.321404       -35.9572
  89   2.0000      -1.318646       -35.8822
  90   2.0000      -1.311510       -35.6880
  91   2.0000      -1.309659       -35.6376
  92   2.0000      -1.307247       -35.5720
  93   2.0000      -1.306543       -35.5529
  94   2.0000      -1.305937       -35.5363
  95   2.0000      -1.303834       -35.4791
  96   2.0000      -1.172304       -31.9000
  97   2.0000      -1.166076       -31.7305
  98   2.0000      -1.164687       -31.6927
  99   2.0000      -1.161380       -31.6027
 100   2.0000      -1.130360       -30.7587
 101   2.0000      -1.128094       -30.6970
 102   2.0000      -1.019633       -27.7456
 103   2.0000      -1.016550       -27.6617
 104   2.0000      -1.004372       -27.3304
 105   2.0000      -1.001685       -27.2572
 106   2.0000      -0.997314       -27.1383
 107   2.0000      -0.994178       -27.0529
 108   2.0000      -0.993231       -27.0272
 109   2.0000      -0.982541       -26.7363
 110   2.0000      -0.979675       -26.6583
 111   2.0000      -0.977731       -26.6054
 112   2.0000      -0.973969       -26.5030
 113   2.0000      -0.970366       -26.4050
 114   2.0000      -0.933199       -25.3936
 115   2.0000      -0.929433       -25.2911
 116   2.0000      -0.916770       -24.9466
 117   2.0000      -0.913322       -24.8527
 118   2.0000      -0.898013       -24.4362
 119   2.0000      -0.894912       -24.3518
 120   2.0000      -0.891420       -24.2568
 121   2.0000      -0.888596       -24.1799
 122   2.0000      -0.881145       -23.9772
 123   2.0000      -0.867002       -23.5923
 124   2.0000      -0.862758       -23.4768
 125   2.0000      -0.859781       -23.3958
 126   2.0000      -0.849852       -23.1257
 127   2.0000      -0.843013       -22.9395
 128   2.0000      -0.840852       -22.8807
 129   2.0000      -0.837918       -22.8009
 130   2.0000      -0.832314       -22.6484
 131   2.0000      -0.829168       -22.5628
 132   2.0000      -0.818533       -22.2734
 133   2.0000      -0.813732       -22.1428
 134   2.0000      -0.806753       -21.9529
 135   2.0000      -0.798605       -21.7312
 136   2.0000      -0.785480       -21.3740
 137   2.0000      -0.773833       -21.0571
 138   2.0000      -0.767033       -20.8720
 139   2.0000      -0.766588       -20.8599
 140   2.0000      -0.762776       -20.7562
 141   2.0000      -0.757404       -20.6100
 142   2.0000      -0.740522       -20.1506
 143   2.0000      -0.730870       -19.8880
 144   2.0000      -0.726144       -19.7594
 145   2.0000      -0.715651       -19.4738
 146   2.0000      -0.715095       -19.4587
 147   2.0000      -0.709268       -19.3002
 148   2.0000      -0.707975       -19.2650
 149   2.0000      -0.707324       -19.2473
 150   2.0000      -0.693556       -18.8726
 151   2.0000      -0.686923       -18.6921
 152   2.0000      -0.680432       -18.5155
 153   2.0000      -0.679607       -18.4930
 154   2.0000      -0.669239       -18.2109
 155   2.0000      -0.662159       -18.0183
 156   2.0000      -0.658533       -17.9196
 157   2.0000      -0.655567       -17.8389
 158   2.0000      -0.654943       -17.8219
 159   2.0000      -0.648388       -17.6435
 160   2.0000      -0.646440       -17.5905
 161   2.0000      -0.643963       -17.5231
 162   2.0000      -0.641271       -17.4499
 163   2.0000      -0.638918       -17.3858
 164   2.0000      -0.635149       -17.2833
 165   2.0000      -0.629264       -17.1231
 166   2.0000      -0.621756       -16.9188
 167   2.0000      -0.620365       -16.8810
 168   2.0000      -0.617949       -16.8153
 169   2.0000      -0.617682       -16.8080
 170   2.0000      -0.612872       -16.6771
 171   2.0000      -0.610897       -16.6233
 172   2.0000      -0.607584       -16.5332
 173   2.0000      -0.604829       -16.4582
 174   2.0000      -0.599816       -16.3218
 175   2.0000      -0.591671       -16.1002
 176   2.0000      -0.588853       -16.0235
 177   2.0000      -0.585963       -15.9449
 178   2.0000      -0.585726       -15.9384
 179   2.0000      -0.584358       -15.9012
 180   2.0000      -0.583307       -15.8726
 181   2.0000      -0.579574       -15.7710
 182   2.0000      -0.577064       -15.7027
 183   2.0000      -0.576273       -15.6812
 184   2.0000      -0.574083       -15.6216
 185   2.0000      -0.572327       -15.5738
 186   2.0000      -0.571690       -15.5565
 187   2.0000      -0.564822       -15.3696
 188   2.0000      -0.562115       -15.2959
 189   2.0000      -0.559687       -15.2299
 190   2.0000      -0.554824       -15.0975
 191   2.0000      -0.552031       -15.0215
 192   2.0000      -0.549402       -14.9500
 193   2.0000      -0.547882       -14.9086
 194   2.0000      -0.547563       -14.8999
 195   2.0000      -0.546088       -14.8598
 196   2.0000      -0.545031       -14.8310
 197   2.0000      -0.543321       -14.7845
 198   2.0000      -0.540706       -14.7134
 199   2.0000      -0.538821       -14.6621
 200   2.0000      -0.535820       -14.5804
 201   2.0000      -0.535421       -14.5695
 202   2.0000      -0.534328       -14.5398
 203   2.0000      -0.531912       -14.4741
 204   2.0000      -0.528839       -14.3904
 205   2.0000      -0.525001       -14.2860
 206   2.0000      -0.524075       -14.2608
 207   2.0000      -0.520739       -14.1700
 208   2.0000      -0.520006       -14.1501
 209   2.0000      -0.516585       -14.0570
 210   2.0000      -0.516191       -14.0463
 211   2.0000      -0.512740       -13.9524
 212   2.0000      -0.511025       -13.9057
 213   2.0000      -0.509117       -13.8538
 214   2.0000      -0.505357       -13.7515
 215   2.0000      -0.504591       -13.7306
 216   2.0000      -0.501585       -13.6488
 217   2.0000      -0.499200       -13.5839
 218   2.0000      -0.497183       -13.5290
 219   2.0000      -0.495728       -13.4894
 220   2.0000      -0.493726       -13.4350
 221   2.0000      -0.491542       -13.3755
 222   2.0000      -0.489342       -13.3157
 223   2.0000      -0.488690       -13.2979
 224   2.0000      -0.487484       -13.2651
 225   2.0000      -0.484524       -13.1846
 226   2.0000      -0.484306       -13.1786
 227   2.0000      -0.481402       -13.0996
 228   2.0000      -0.481073       -13.0907
 229   2.0000      -0.476197       -12.9580
 230   2.0000      -0.472825       -12.8662
 231   2.0000      -0.471584       -12.8325
 232   2.0000      -0.469425       -12.7737
 233   2.0000      -0.468163       -12.7394
 234   2.0000      -0.463707       -12.6181
 235   2.0000      -0.462995       -12.5987
 236   2.0000      -0.460522       -12.5314
 237   2.0000      -0.458134       -12.4665
 238   2.0000      -0.451503       -12.2860
 239   2.0000      -0.449800       -12.2397
 240   2.0000      -0.447352       -12.1731
 241   2.0000      -0.446649       -12.1539
 242   2.0000      -0.445363       -12.1189
 243   2.0000      -0.443899       -12.0791
 244   2.0000      -0.443450       -12.0669
 245   2.0000      -0.441518       -12.0143
 246   2.0000      -0.438439       -11.9305
 247   2.0000      -0.429933       -11.6991
 248   2.0000      -0.429235       -11.6801
 249   2.0000      -0.426729       -11.6119
 250   2.0000      -0.425824       -11.5873
 251   2.0000      -0.423534       -11.5250
 252   2.0000      -0.420149       -11.4328
 253   2.0000      -0.419031       -11.4024
 254   2.0000      -0.418436       -11.3862
 255   2.0000      -0.415275       -11.3002
 256   2.0000      -0.413737       -11.2583
 257   2.0000      -0.411038       -11.1849
 258   2.0000      -0.410604       -11.1731
 259   2.0000      -0.408375       -11.1125
 260   2.0000      -0.401846       -10.9348
 261   2.0000      -0.398696       -10.8491
 262   2.0000      -0.397944       -10.8286
 263   2.0000      -0.394672       -10.7396
 264   2.0000      -0.385025       -10.4771
 265   2.0000      -0.384128       -10.4527
 266   2.0000      -0.377900       -10.2832
 267   2.0000      -0.370021       -10.0688
 268   2.0000      -0.362178        -9.8554
 269   2.0000      -0.351117        -9.5544
 270   2.0000      -0.339732        -9.2446
 271   2.0000      -0.336550        -9.1580
 272   2.0000      -0.334485        -9.1018
 273   2.0000      -0.327450        -8.9104
 274   2.0000      -0.325068        -8.8456
 275   2.0000      -0.317890        -8.6502
 276   2.0000      -0.315013        -8.5719
 277   2.0000      -0.309165        -8.4128
 278   2.0000      -0.301417        -8.2020
 279   2.0000      -0.297667        -8.0999
 280   2.0000      -0.290253        -7.8982
 281   2.0000      -0.282874        -7.6974
 282   2.0000      -0.272666        -7.4196
 283   2.0000      -0.220573        -6.0021
 284   0.0000      -0.099859        -2.7173
 285   0.0000      -0.089318        -2.4305
 286   0.0000      -0.069096        -1.8802
 287   0.0000      -0.057617        -1.5678
 288   0.0000      -0.052290        -1.4229

MULLIKEN ATOMIC CHARGES
-----------------------
   0 C :   -0.106846
   1 C :    0.240254
   2 F :   -0.171602
   3 C :    0.239406
   4 F :   -0.172572
   5 C :   -0.105095
   6 C :    0.116710
   7 C :    0.114562
   8 C :   -0.085788
   9 C :    0.052308
  10 C :   -0.005396
  11 C :   -0.082657
  12 C :    0.150513
  13 O :   -0.145960
  14 C :   -0.064819
  15 C :    0.298682
  16 C :   -0.332648
  17 C :   -0.206941
  18 N :    0.166069
  19 C :   -0.184879
  20 N :    0.148145
  21 C :   -0.015932
  22 C :   -0.064755
  23 C :    0.145711
  24 F :   -0.190069
  25 C :    0.138787
  26 O :   -0.306600
  27 C :    0.181248
  28 C :   -0.038787
  29 C :    0.115147
  30 C :    0.192023
  31 O :   -0.299120
  32 C :    0.184103
  33 F :   -0.188868
  34 C :   -0.039321
  35 C :   -0.001950
  36 C :    0.042809
  37 C :    0.028534
  38 C :   -0.063345
  39 S :    0.094948
  40 C :   -0.055687
  41 C :    0.029864
  42 C :    0.035569
  43 C :    0.015205
  44 S :    0.102372
  45 C :   -0.067023
  46 C :   -0.012872
  47 C :    0.145537
  48 F :   -0.196590
  49 C :    0.152596
  50 O :   -0.308266
  51 C :    0.181912
  52 C :   -0.047720
  53 C :    0.159519
  54 C :    0.139538
  55 O :   -0.317484
  56 C :    0.183862
  57 F :   -0.187950
  58 C :    0.000973
  59 C :   -0.107767
  60 C :    0.132030
  61 O :   -0.142188
  62 C :    0.015870
  63 C :   -0.084459
  64 C :    0.112172
  65 C :    0.114618
  66 C :   -0.109151
  67 C :    0.239536
  68 C :    0.239208
  69 C :   -0.105562
  70 F :   -0.173738
  71 F :   -0.172490
  72 C :   -0.094113
  73 C :    0.041703
  74 C :    0.322718
  75 C :   -0.342883
  76 C :   -0.202390
  77 N :    0.168950
  78 C :   -0.187416
  79 N :    0.149363
  80 H :    0.006519
  81 H :   -0.001149
  82 H :   -0.005988
  83 H :   -0.013383
  84 H :    0.044478
  85 H :    0.033833
  86 H :    0.034985
  87 H :    0.029907
  88 H :    0.028753
  89 H :    0.031840
  90 H :    0.038030
  91 H :    0.009237
  92 H :   -0.007436
  93 H :   -0.000653
  94 H :   -0.000958
  95 H :   -0.008161
  96 H :    0.000416
  97 H :    0.041779
  98 H :    0.035844
  99 H :    0.036284
 100 H :    0.033367
 101 H :    0.032808
 102 H :    0.034230
 103 H :    0.034214
 104 H :   -0.009663
 105 H :    0.005352
 106 H :   -0.000254
 107 H :   -0.007611
Sum of atomic charges:   -0.0000000

LOEWDIN ATOMIC CHARGES
----------------------
   0 C :   -0.029104
   1 C :    0.066236
   2 F :   -0.049224
   3 C :    0.067640
   4 F :   -0.049963
   5 C :   -0.034064
   6 C :   -0.008714
   7 C :   -0.006953
   8 C :    0.017042
   9 C :   -0.022967
  10 C :   -0.050755
  11 C :    0.027585
  12 C :    0.083421
  13 O :   -0.136510
  14 C :   -0.081503
  15 C :    0.074361
  16 C :   -0.134497
  17 C :   -0.024036
  18 N :   -0.046904
  19 C :   -0.017143
  20 N :   -0.052894
  21 C :    0.088184
  22 C :   -0.078218
  23 C :    0.062037
  24 F :   -0.062629
  25 C :    0.022175
  26 O :   -0.095996
  27 C :    0.078964
  28 C :   -0.047272
  29 C :    0.041648
  30 C :    0.052153
  31 O :   -0.078752
  32 C :    0.079072
  33 F :   -0.058978
  34 C :   -0.054592
  35 C :   -0.133306
  36 C :   -0.019858
  37 C :   -0.034230
  38 C :   -0.174000
  39 S :    0.380946
  40 C :   -0.180056
  41 C :   -0.032434
  42 C :   -0.022509
  43 C :   -0.127090
  44 S :    0.408181
  45 C :   -0.065977
  46 C :   -0.037938
  47 C :    0.054718
  48 F :   -0.062921
  49 C :    0.040389
  50 O :   -0.074203
  51 C :    0.079298
  52 C :   -0.078334
  53 C :    0.070461
  54 C :    0.017765
  55 O :   -0.096484
  56 C :    0.074865
  57 F :   -0.056740
  58 C :    0.074650
  59 C :   -0.087031
  60 C :    0.084203
  61 O :   -0.141461
  62 C :   -0.053998
  63 C :    0.029689
  64 C :   -0.010823
  65 C :   -0.005885
  66 C :   -0.031718
  67 C :    0.066155
  68 C :    0.065600
  69 C :   -0.033215
  70 F :   -0.051127
  71 F :   -0.050287
  72 C :    0.008358
  73 C :   -0.017846
  74 C :    0.069991
  75 C :   -0.136037
  76 C :   -0.017289
  77 N :   -0.051387
  78 C :   -0.020136
  79 N :   -0.057829
  80 H :    0.047556
  81 H :    0.044411
  82 H :    0.039790
  83 H :    0.039099
  84 H :    0.046491
  85 H :    0.019150
  86 H :    0.026768
  87 H :    0.017417
  88 H :    0.016869
  89 H :    0.025492
  90 H :    0.021137
  91 H :    0.039019
  92 H :    0.035072
  93 H :    0.030863
  94 H :    0.031099
  95 H :    0.034434
  96 H :    0.036555
  97 H :    0.022311
  98 H :    0.020303
  99 H :    0.026933
 100 H :    0.022039
 101 H :    0.018922
 102 H :    0.019309
 103 H :    0.047317
 104 H :    0.040198
 105 H :    0.046707
 106 H :    0.044591
 107 H :    0.038180

  Mayer bond orders larger than 0.100000
B(  0-C ,  1-C ) :   1.4417 B(  0-C ,  5-C ) :   0.1086 B(  0-C ,  7-C ) :   1.1876
B(  0-C , 80-H ) :   1.0071 B(  1-C ,  2-F ) :   1.1341 B(  1-C ,  3-C ) :   1.1913
B(  3-C ,  4-F ) :   1.1323 B(  3-C ,  5-C ) :   1.4434 B(  5-C ,  6-C ) :   1.1911
B(  5-C , 81-H ) :   1.0072 B(  6-C ,  7-C ) :   1.2562 B(  6-C , 11-C ) :   1.1885
B(  7-C ,  8-C ) :   1.2172 B(  8-C ,  9-C ) :   1.4482 B(  8-C , 82-H ) :   0.9903
B(  9-C , 10-C ) :   1.2206 B(  9-C , 15-C ) :   0.9919 B( 10-C , 11-C ) :   1.4735
B( 10-C , 12-C ) :   0.9416 B( 11-C , 83-H ) :   1.0169 B( 12-C , 13-O ) :   2.2228
B( 12-C , 14-C ) :   0.9357 B( 14-C , 15-C ) :   1.0590 B( 14-C , 21-C ) :   1.6648
B( 15-C , 16-C ) :   1.6518 B( 16-C , 17-C ) :   1.1395 B( 16-C , 19-C ) :   1.1423
B( 17-C , 18-N ) :   2.9977 B( 19-C , 20-N ) :   2.9656 B( 21-C , 22-C ) :   1.0771
B( 21-C , 84-H ) :   0.9405 B( 22-C , 23-C ) :   1.2866 B( 22-C , 28-C ) :   0.1135
B( 22-C , 30-C ) :   1.3250 B( 23-C , 24-F ) :   1.1286 B( 23-C , 25-C ) :   1.3017
B( 25-C , 26-O ) :   1.2117 B( 25-C , 28-C ) :   1.2891 B( 26-O , 27-C ) :   0.9325
B( 27-C , 85-H ) :   0.9755 B( 27-C , 86-H ) :   0.9793 B( 27-C , 87-H ) :   0.9754
B( 28-C , 29-C ) :   1.3172 B( 28-C , 34-C ) :   1.0935 B( 29-C , 30-C ) :   1.2633
B( 29-C , 33-F ) :   1.1138 B( 30-C , 31-O ) :   1.2136 B( 31-O , 32-C ) :   0.9256
B( 32-C , 88-H ) :   0.9753 B( 32-C , 89-H ) :   0.9788 B( 32-C , 90-H ) :   0.9754
B( 34-C , 35-C ) :   1.6387 B( 34-C , 91-H ) :   0.9454 B( 35-C , 36-C ) :   1.1160
B( 35-C , 39-S ) :   1.0432 B( 36-C , 37-C ) :   1.6261 B( 36-C , 92-H ) :   1.0003
B( 37-C , 38-C ) :   1.1359 B( 37-C , 93-H ) :   0.9922 B( 38-C , 39-S ) :   1.0503
B( 38-C , 40-C ) :   1.5835 B( 40-C , 41-C ) :   1.1384 B( 40-C , 44-S ) :   1.0363
B( 41-C , 42-C ) :   1.6185 B( 41-C , 94-H ) :   0.9930 B( 42-C , 43-C ) :   1.1234
B( 42-C , 95-H ) :   1.0001 B( 43-C , 44-S ) :   1.0548 B( 43-C , 45-C ) :   1.6038
B( 45-C , 46-C ) :   1.1199 B( 45-C , 96-H ) :   0.9519 B( 46-C , 47-C ) :   1.3134
B( 46-C , 52-C ) :   0.1145 B( 46-C , 54-C ) :   1.2751 B( 47-C , 48-F ) :   1.1097
B( 47-C , 49-C ) :   1.2855 B( 49-C , 50-O ) :   1.2015 B( 49-C , 52-C ) :   1.2793
B( 50-O , 51-C ) :   0.9145 B( 51-C , 97-H ) :   0.9754 B( 51-C , 98-H ) :   0.9771
B( 51-C , 99-H ) :   0.9771 B( 52-C , 53-C ) :   1.2844 B( 52-C , 58-C ) :   1.1187
B( 53-C , 54-C ) :   1.3071 B( 53-C , 57-F ) :   1.1251 B( 54-C , 55-O ) :   1.1766
B( 55-O , 56-C ) :   0.9187 B( 56-C ,100-H ) :   0.9736 B( 56-C ,101-H ) :   0.9757
B( 56-C ,102-H ) :   0.9780 B( 58-C , 59-C ) :   1.6420 B( 58-C ,103-H ) :   0.9274
B( 59-C , 60-C ) :   0.9419 B( 59-C , 74-C ) :   1.0459 B( 60-C , 61-O ) :   2.2613
B( 60-C , 62-C ) :   0.9194 B( 62-C , 63-C ) :   1.4774 B( 62-C , 73-C ) :   1.2186
B( 63-C , 64-C ) :   1.1911 B( 63-C ,104-H ) :   1.0156 B( 64-C , 65-C ) :   1.2590
B( 64-C , 69-C ) :   1.1947 B( 65-C , 66-C ) :   1.1901 B( 65-C , 72-C ) :   1.2123
B( 66-C , 67-C ) :   1.4417 B( 66-C , 69-C ) :   0.1088 B( 66-C ,105-H ) :   1.0063
B( 67-C , 68-C ) :   1.1921 B( 67-C , 71-F ) :   1.1340 B( 68-C , 69-C ) :   1.4426
B( 68-C , 70-F ) :   1.1319 B( 69-C ,106-H ) :   1.0065 B( 72-C , 73-C ) :   1.4555
B( 72-C ,107-H ) :   0.9932 B( 73-C , 74-C ) :   0.9975 B( 74-C , 75-C ) :   1.6407
B( 75-C , 76-C ) :   1.1688 B( 75-C , 78-C ) :   1.1412 B( 76-C , 77-N ) :   3.0044
B( 78-C , 79-N ) :   2.9742

-----------------------------------------------------------------------------
         ABSORPTION SPECTRUM VIA TRANSITION ELECTRIC DIPOLE MOMENTS
-----------------------------------------------------------------------------
State   Energy  Wavelength   fosc         T2         TX        TY        TZ
        (cm-1)    (nm)                  (au**2)     (au)      (au)      (au)
-----------------------------------------------------------------------------
   0   13085.9    764.2   1.935898297  48.70283  -4.44317  -1.11551   5.26466
   1   16743.1    597.3   0.011720661   0.23046  -0.38094   0.27866   0.08770
   2   20873.5    479.1   0.284758169   4.49114  -2.08609  -0.17603   0.32921
   3   21456.8    466.1   0.026891070   0.41259  -0.44628  -0.28320   0.36499
   4   22661.1    441.3   0.079330182   1.15248  -0.14026   0.56594  -0.90140
   5   23882.1    418.7   0.033972079   0.46830   0.44341   0.52115   0.00962
   6   25506.0    392.1   0.064560920   0.83330  -0.54722   0.56678  -0.46110
   7   26078.0    383.5   0.011440272   0.14442  -0.07652   0.37173   0.01957
   8   26959.5    370.9   0.147499030   1.80116   0.23421  -0.23585   1.30026
   9   28170.4    355.0   0.014798551   0.17294   0.36352  -0.06981  -0.18952
  10   28472.7    351.2   0.055172053   0.63792  -0.05168   0.62014   0.50067
  11   28700.5    348.4   0.114774898   1.31653  -0.16297   0.61320   0.95601
  12   28812.3    347.1   0.057288169   0.65458   0.80198   0.09130  -0.05541
  13   29360.9    340.6   0.204758139   2.29587  -0.27419  -0.23449   1.47163
  14   29602.0    337.8   0.097704056   1.08659  -0.15101   0.32252   0.97968
  15   29764.7    336.0   0.031063108   0.34357   0.00614  -0.39160  -0.43610
  16   29854.1    335.0   0.041190978   0.45423  -0.04106  -0.35711   0.57010
  17   30467.9    328.2   0.030202999   0.32635   0.19255  -0.29240  -0.45142
  18   30576.9    327.0   0.130944909   1.40984   0.03587   0.47116   1.08929
  19   31896.8    313.5   0.316523998   3.26689  -1.09927  -0.27546   1.40806
  20   31981.5    312.7   0.050296788   0.51775   0.50098  -0.41605  -0.30605
  21   32529.3    307.4   0.084047440   0.85060   0.23882   0.73305  -0.50616
  22   32947.7    303.5   0.008900161   0.08893   0.16640   0.10467   0.22424
  23   33467.8    298.8   0.080360189   0.79048  -0.04592  -0.41115  -0.78697
  24   33725.6    296.5   0.114386851   1.11659   0.65864   0.82601  -0.02208
  25   34218.0    292.2   0.079181296   0.76181   0.66655   0.48132   0.29299
  26   34393.7    290.8   0.284155449   2.71990   0.38678  -0.79664  -1.39128
  27   34668.6    288.4   0.339782063   3.22656  -0.12302  -1.69616  -0.57834
  28   34760.8    287.7   0.360588827   3.41505   0.01526   0.69681   1.71151
  29   35233.8    283.8   0.622984158   5.82094  -1.46668  -1.39626   1.31159
  30   35374.4    282.7   0.097841255   0.91056   0.44738   0.24580  -0.80622
  31   35798.7    279.3   0.019597832   0.18023   0.41975  -0.04398   0.04583
  32   36248.2    275.9   0.044456644   0.40376   0.25889  -0.56849  -0.11645
  33   36565.8    273.5   0.014373014   0.12940  -0.29630   0.18281  -0.09050
  34   36903.6    271.0   0.010862569   0.09690  -0.25529   0.15735   0.08349
  35   37537.0    266.4   0.009046126   0.07934   0.05559   0.18192   0.20773
  36   37822.5    264.4   0.037906322   0.32994  -0.33534  -0.19499   0.42364
  37   38381.0    260.5   0.082953531   0.71153  -0.58559   0.34732   0.49798
  38   38918.7    256.9   0.009087118   0.07687   0.11358   0.03684  -0.25022
  39   39244.8    254.8   0.002752787   0.02309   0.00546   0.13408  -0.07131
  40   39358.7    254.1   0.311811318   2.60811   0.24010   1.51187  -0.51451
  41   39542.7    252.9   0.018162596   0.15121   0.02600  -0.03742  -0.38618
  42   40062.7    249.6   0.015611827   0.12829   0.13765   0.29469  -0.15000
  43   40223.4    248.6   0.163328354   1.33677   0.40764   0.22770  -1.05771

FINAL SINGLE POINT ENERGY     -4563.742037796937

DIPOLE MOMENT
-------------
                                X             Y             Z
Electronic contribution:      8.93554       2.80075       3.24154
Nuclear contribution   :     -8.35661      -0.39402      -3.01407
                        -----------------------------------------
Total Dipole Moment    :      0.57893       2.40672       0.22747
                        -----------------------------------------
Magnitude (a.u.)       :      2.48580
Magnitude (Debye)      :      6.31841

Rotational constants in cm-1:     0.002363     0.000146     0.000143
Rotational constants in MHz :    70.848885     4.367099     4.285541

                             ****ORCA TERMINATED NORMALLY****
TOTAL RUN TIME: 0 days 0 hours 11 minutes 32 seconds 518 msec
