                         Program Version 4.2.0 -  RELEASE  -
|  1> # ORCA input file
|  2> # SCF done       -152.585365996548          0.000779795529
|  3> ! CAM-B3LYP def2-SVP def2/J RIJCOSX Grid4 TightSCF
|  4> %maxcore 5000
|  5> %tddft
|  6>     Mode sTDDFT
|  7>     Ethresh 5.0
|  8>     maxcore 5000
|  9> end
| 10>
| 11> %pal
| 12>   nprocs 6
| 13>   end
| 14> * xyz 0 1
| 15>    C       -0.09817        -2.89801        -1.09713
| 16>    C       -0.53831        -2.61501         0.16026
| 17>    C       -0.71341        -1.22970         0.34106
| 18>    C       -0.39339        -0.49682        -0.80799
| 19>    S        0.11557        -1.49692        -2.09336
| 20>    C       -0.59888         0.88656        -0.53681
| 21>    C       -1.04752         1.01809         0.78421
| 22>    C       -1.13521        -0.30967         1.38100
| 23>    C       -1.53226        -0.61284         2.65027
| 24>    C       -1.92028         0.38294         3.57113
| 25>    N       -2.23580         1.19222         4.31993
| 26>    C       -1.58138        -1.93973         3.12708
| 27>    N       -1.62459        -3.01594         3.52001
| 28>    C       -1.28130         2.34463         1.14980
| 29>    C       -1.01350         3.21922         0.11373
| 30>    S       -0.46297         2.38860        -1.33443
| 31>    C       -1.14082         4.63223         0.11535
| 32>    C       -0.88566         5.50091        -0.92985
| 33>    C       -1.12848         6.82779        -0.57588
| 34>    C       -1.56904         6.96826         0.74986
| 35>    S       -1.68541         5.46804         1.56113
| 36>    C       -1.79415         8.34394         1.00695
| 37>    C       -1.49890         9.07506        -0.15859
| 38>    C       -1.06227         8.14723        -1.18915
| 39>    C       -0.66081         8.44064        -2.45812
| 40>    C       -0.61104         9.76016        -2.95824
| 41>    N       -0.55337        10.82431        -3.37989
| 42>    C       -0.25247         7.43553        -3.36093
| 43>    N        0.07915         6.61864        -4.09408
| 44>    C       -1.70667        10.44549        -0.00732
| 45>    C       -2.14932        10.76508         1.26299
| 46>    S       -2.31260         9.34175         2.28639
| 47>    C       -2.46927        12.06067         1.76946
| 48>    C       -2.83673        12.30097         3.08317
| 49>    C       -3.17026        13.56951         3.57051
| 50>    C       -3.19558        14.69797         2.77506
| 51>    C       -2.79268        14.50916         1.42815
| 52>    C       -2.42404        13.20966         0.92951
| 53>    N       -2.06151        13.36975        -0.32805
| 54>    O       -2.18419        14.66382        -0.59192
| 55>    N       -2.61730        15.36850         0.44314
| 56>    C       -3.56298        15.99805         3.27126
| 57>    C       -4.22694        17.01743         2.60271
| 58>    N       -4.86080        16.79654         1.34034
| 59>    O       -5.29980        15.68191         1.13615
| 60>    O       -4.95932        17.72768         0.57503
| 61>    C       -4.35180        18.21495         3.34887
| 62>    C       -5.02930        19.45361         2.89775
| 63>    C       -3.78016        18.07606         4.60256
| 64>    S       -3.08885        16.50021         4.84925
| 65>    C       -3.70662        19.04800         5.65205
| 66>    N       -4.20647        20.25684         5.46707
| 67>    N       -4.16978        21.18727         6.38839
| 68>    C       -3.62932        21.00504         7.56047
| 69>    C       -3.05124        19.76159         7.89590
| 70>    C       -3.09444        18.73505         6.90025
| 71>    N       -2.53116        17.60410         7.31191
| 72>    S       -1.99650        17.82171         8.81629
| 73>    N       -2.45215        19.34647         9.01218
| 74>    H        0.11974        -3.86039        -1.51502
| 75>    H       -0.72540        -3.36188         0.90988
| 76>    H       -1.62901         2.67165         2.11333
| 77>    H       -0.54433         5.16757        -1.89337
| 78>    H       -1.55443        11.19385        -0.76377
| 79>    H       -2.87576        11.46720         3.76923
| 80>    H       -3.45021        13.66478         4.60919
| 81>    H       -5.49140        19.31906         1.92437
| 82>    H       -4.30128        20.26065         2.83244
| 83>    H       -5.76674        19.76538         3.63460
| 84>    H       -3.64708        21.83615         8.24774
| 85> *
| 86>
| 87>                          ****END OF INPUT****

CARTESIAN COORDINATES (ANGSTROEM)
---------------------------------
  C     -0.098170   -2.898010   -1.097130
  C     -0.538310   -2.615010    0.160260
  C     -0.713410   -1.229700    0.341060
  C     -0.393390   -0.496820   -0.807990
  S      0.115570   -1.496920   -2.093360
  C     -0.598880    0.886560   -0.536810
  C     -1.047520    1.018090    0.784210
  C     -1.135210   -0.309670    1.381000
  C     -1.532260   -0.612840    2.650270
  C     -1.920280    0.382940    3.571130
  N     -2.235800    1.192220    4.319930
  C     -1.581380   -1.939730    3.127080
  N     -1.624590   -3.015940    3.520010
  C     -1.281300    2.344630    1.149800
  C     -1.013500    3.219220    0.113730
  S     -0.462970    2.388600   -1.334430
  C     -1.140820    4.632230    0.115350
  C     -0.885660    5.500910   -0.929850
  C     -1.128480    6.827790   -0.575880
  C     -1.569040    6.968260    0.749860
  S     -1.685410    5.468040    1.561130
  C     -1.794150    8.343940    1.006950
  C     -1.498900    9.075060   -0.158590
  C     -1.062270    8.147230   -1.189150
  C     -0.660810    8.440640   -2.458120
  C     -0.611040    9.760160   -2.958240
  N     -0.553370   10.824310   -3.379890
  C     -0.252470    7.435530   -3.360930
  N      0.079150    6.618640   -4.094080
  C     -1.706670   10.445490   -0.007320
  C     -2.149320   10.765080    1.262990
  S     -2.312600    9.341750    2.286390
  C     -2.469270   12.060670    1.769460
  C     -2.836730   12.300970    3.083170
  C     -3.170260   13.569510    3.570510
  C     -3.195580   14.697970    2.775060
  C     -2.792680   14.509160    1.428150
  C     -2.424040   13.209660    0.929510
  N     -2.061510   13.369750   -0.328050
  O     -2.184190   14.663820   -0.591920
  N     -2.617300   15.368500    0.443140
  C     -3.562980   15.998050    3.271260
  C     -4.226940   17.017430    2.602710
  N     -4.860800   16.796540    1.340340
  O     -5.299800   15.681910    1.136150
  O     -4.959320   17.727680    0.575030
  C     -4.351800   18.214950    3.348870
  C     -5.029300   19.453610    2.897750
  C     -3.780160   18.076060    4.602560
  S     -3.088850   16.500210    4.849250
  C     -3.706620   19.048000    5.652050
  N     -4.206470   20.256840    5.467070
  N     -4.169780   21.187270    6.388390
  C     -3.629320   21.005040    7.560470
  C     -3.051240   19.761590    7.895900
  C     -3.094440   18.735050    6.900250
  N     -2.531160   17.604100    7.311910
  S     -1.996500   17.821710    8.816290
  N     -2.452150   19.346470    9.012180
  H      0.119740   -3.860390   -1.515020
  H     -0.725400   -3.361880    0.909880
  H     -1.629010    2.671650    2.113330
  H     -0.544330    5.167570   -1.893370
  H     -1.554430   11.193850   -0.763770
  H     -2.875760   11.467200    3.769230
  H     -3.450210   13.664780    4.609190
  H     -5.491400   19.319060    1.924370
  H     -4.301280   20.260650    2.832440
  H     -5.766740   19.765380    3.634600
  H     -3.647080   21.836150    8.247740

 Total Charge           Charge          ....    0
 Multiplicity           Mult            ....    1
 Number of Electrons    NEL             ....  442
 Basis Dimension        Dim             ....  905

ORBITAL ENERGIES
----------------

  NO   OCC          E(Eh)            E(eV)
   0   2.0000     -89.055078     -2423.3119
   1   2.0000     -88.995210     -2421.6828
   2   2.0000     -88.994339     -2421.6591
   3   2.0000     -88.993325     -2421.6315
   4   2.0000     -88.989744     -2421.5340
   5   2.0000     -88.982075     -2421.3254
   6   2.0000     -19.360806      -526.8343
   7   2.0000     -19.239784      -523.5411
   8   2.0000     -19.236438      -523.4501
   9   2.0000     -14.645570      -398.5262
  10   2.0000     -14.485782      -394.1782
  11   2.0000     -14.483004      -394.1026
  12   2.0000     -14.470919      -393.7737
  13   2.0000     -14.467944      -393.6928
  14   2.0000     -14.449305      -393.1856
  15   2.0000     -14.445654      -393.0862
  16   2.0000     -14.433018      -392.7424
  17   2.0000     -14.432932      -392.7400
  18   2.0000     -14.431386      -392.6980
  19   2.0000     -14.428720      -392.6254
  20   2.0000     -10.367330      -282.1094
  21   2.0000     -10.365971      -282.0724
  22   2.0000     -10.353642      -281.7369
  23   2.0000     -10.353431      -281.7312
  24   2.0000     -10.351795      -281.6867
  25   2.0000     -10.350604      -281.6542
  26   2.0000     -10.348634      -281.6006
  27   2.0000     -10.338531      -281.3257
  28   2.0000     -10.336495      -281.2703
  29   2.0000     -10.335445      -281.2417
  30   2.0000     -10.334948      -281.2282
  31   2.0000     -10.334596      -281.2186
  32   2.0000     -10.333540      -281.1899
  33   2.0000     -10.333260      -281.1823
  34   2.0000     -10.332810      -281.1700
  35   2.0000     -10.332791      -281.1695
  36   2.0000     -10.331743      -281.1410
  37   2.0000     -10.331702      -281.1399
  38   2.0000     -10.330716      -281.1131
  39   2.0000     -10.330546      -281.1085
  40   2.0000     -10.330153      -281.0978
  41   2.0000     -10.327967      -281.0383
  42   2.0000     -10.326647      -281.0023
  43   2.0000     -10.326385      -280.9952
  44   2.0000     -10.320984      -280.8483
  45   2.0000     -10.317759      -280.7605
  46   2.0000     -10.313814      -280.6531
  47   2.0000     -10.312414      -280.6151
  48   2.0000     -10.310352      -280.5589
  49   2.0000     -10.308804      -280.5168
  50   2.0000     -10.306743      -280.4607
  51   2.0000     -10.306158      -280.4448
  52   2.0000     -10.305961      -280.4395
  53   2.0000     -10.305513      -280.4273
  54   2.0000     -10.304337      -280.3953
  55   2.0000     -10.301675      -280.3228
  56   2.0000     -10.301117      -280.3076
  57   2.0000     -10.299609      -280.2666
  58   2.0000     -10.254766      -279.0464
  59   2.0000      -8.146707      -221.6832
  60   2.0000      -8.089702      -220.1320
  61   2.0000      -8.088856      -220.1090
  62   2.0000      -8.087967      -220.0848
  63   2.0000      -8.084848      -219.9999
  64   2.0000      -8.076531      -219.7736
  65   2.0000      -6.117829      -166.4746
  66   2.0000      -6.109975      -166.2609
  67   2.0000      -6.109352      -166.2439
  68   2.0000      -6.058995      -164.8736
  69   2.0000      -6.058115      -164.8497
  70   2.0000      -6.057186      -164.8244
  71   2.0000      -6.054856      -164.7610
  72   2.0000      -6.054082      -164.7400
  73   2.0000      -6.053991      -164.7375
  74   2.0000      -6.053041      -164.7116
  75   2.0000      -6.051925      -164.6812
  76   2.0000      -6.051130      -164.6596
  77   2.0000      -6.050358      -164.6386
  78   2.0000      -6.049638      -164.6190
  79   2.0000      -6.047455      -164.5596
  80   2.0000      -6.045815      -164.5150
  81   2.0000      -6.041537      -164.3986
  82   2.0000      -6.038772      -164.3233
  83   2.0000      -1.320389       -35.9296
  84   2.0000      -1.316425       -35.8218
  85   2.0000      -1.157417       -31.4949
  86   2.0000      -1.138701       -30.9856
  87   2.0000      -1.124375       -30.5958
  88   2.0000      -1.049091       -28.5472
  89   2.0000      -1.045143       -28.4398
  90   2.0000      -1.026160       -27.9232
  91   2.0000      -1.024278       -27.8720
  92   2.0000      -1.023460       -27.8498
  93   2.0000      -1.019052       -27.7298
  94   2.0000      -1.012260       -27.5450
  95   2.0000      -1.009800       -27.4780
  96   2.0000      -1.007984       -27.4286
  97   2.0000      -1.005417       -27.3588
  98   2.0000      -1.000257       -27.2184
  99   2.0000      -0.990427       -26.9509
 100   2.0000      -0.963619       -26.2214
 101   2.0000      -0.956001       -26.0141
 102   2.0000      -0.947111       -25.7722
 103   2.0000      -0.930135       -25.3103
 104   2.0000      -0.926121       -25.2010
 105   2.0000      -0.922156       -25.0931
 106   2.0000      -0.910194       -24.7677
 107   2.0000      -0.900100       -24.4930
 108   2.0000      -0.894736       -24.3470
 109   2.0000      -0.873933       -23.7809
 110   2.0000      -0.871042       -23.7023
 111   2.0000      -0.861826       -23.4515
 112   2.0000      -0.857792       -23.3417
 113   2.0000      -0.852334       -23.1932
 114   2.0000      -0.830324       -22.5943
 115   2.0000      -0.812029       -22.0964
 116   2.0000      -0.801373       -21.8065
 117   2.0000      -0.783690       -21.3253
 118   2.0000      -0.778241       -21.1770
 119   2.0000      -0.773786       -21.0558
 120   2.0000      -0.771182       -20.9849
 121   2.0000      -0.763469       -20.7750
 122   2.0000      -0.754327       -20.5263
 123   2.0000      -0.746891       -20.3239
 124   2.0000      -0.742527       -20.2052
 125   2.0000      -0.727991       -19.8096
 126   2.0000      -0.707916       -19.2634
 127   2.0000      -0.704951       -19.1827
 128   2.0000      -0.692136       -18.8340
 129   2.0000      -0.689059       -18.7503
 130   2.0000      -0.678599       -18.4656
 131   2.0000      -0.677488       -18.4354
 132   2.0000      -0.661962       -18.0129
 133   2.0000      -0.658456       -17.9175
 134   2.0000      -0.647761       -17.6265
 135   2.0000      -0.644850       -17.5473
 136   2.0000      -0.636724       -17.3261
 137   2.0000      -0.635016       -17.2797
 138   2.0000      -0.629777       -17.1371
 139   2.0000      -0.626667       -17.0525
 140   2.0000      -0.623336       -16.9618
 141   2.0000      -0.618732       -16.8366
 142   2.0000      -0.617121       -16.7927
 143   2.0000      -0.613716       -16.7001
 144   2.0000      -0.611437       -16.6380
 145   2.0000      -0.605852       -16.4861
 146   2.0000      -0.594150       -16.1676
 147   2.0000      -0.582130       -15.8406
 148   2.0000      -0.580037       -15.7836
 149   2.0000      -0.577598       -15.7172
 150   2.0000      -0.572030       -15.5657
 151   2.0000      -0.567028       -15.4296
 152   2.0000      -0.551975       -15.0200
 153   2.0000      -0.551777       -15.0146
 154   2.0000      -0.548975       -14.9384
 155   2.0000      -0.546973       -14.8839
 156   2.0000      -0.540891       -14.7184
 157   2.0000      -0.533295       -14.5117
 158   2.0000      -0.528760       -14.3883
 159   2.0000      -0.525172       -14.2907
 160   2.0000      -0.518664       -14.1136
 161   2.0000      -0.511168       -13.9096
 162   2.0000      -0.510876       -13.9016
 163   2.0000      -0.508190       -13.8285
 164   2.0000      -0.505738       -13.7618
 165   2.0000      -0.503603       -13.7037
 166   2.0000      -0.501744       -13.6532
 167   2.0000      -0.500237       -13.6121
 168   2.0000      -0.499554       -13.5936
 169   2.0000      -0.495075       -13.4717
 170   2.0000      -0.491556       -13.3759
 171   2.0000      -0.489467       -13.3191
 172   2.0000      -0.485774       -13.2186
 173   2.0000      -0.483712       -13.1625
 174   2.0000      -0.478436       -13.0189
 175   2.0000      -0.472457       -12.8562
 176   2.0000      -0.472334       -12.8529
 177   2.0000      -0.464543       -12.6408
 178   2.0000      -0.463745       -12.6192
 179   2.0000      -0.462664       -12.5897
 180   2.0000      -0.461417       -12.5558
 181   2.0000      -0.459515       -12.5040
 182   2.0000      -0.457952       -12.4615
 183   2.0000      -0.455382       -12.3916
 184   2.0000      -0.448942       -12.2163
 185   2.0000      -0.447011       -12.1638
 186   2.0000      -0.446333       -12.1454
 187   2.0000      -0.443211       -12.0604
 188   2.0000      -0.442623       -12.0444
 189   2.0000      -0.442388       -12.0380
 190   2.0000      -0.440385       -11.9835
 191   2.0000      -0.440056       -11.9745
 192   2.0000      -0.438183       -11.9236
 193   2.0000      -0.430694       -11.7198
 194   2.0000      -0.429525       -11.6880
 195   2.0000      -0.428208       -11.6521
 196   2.0000      -0.425888       -11.5890
 197   2.0000      -0.417567       -11.3626
 198   2.0000      -0.410390       -11.1673
 199   2.0000      -0.408910       -11.1270
 200   2.0000      -0.398896       -10.8545
 201   2.0000      -0.397558       -10.8181
 202   2.0000      -0.390398       -10.6233
 203   2.0000      -0.389576       -10.6009
 204   2.0000      -0.384706       -10.4684
 205   2.0000      -0.380023       -10.3409
 206   2.0000      -0.378908       -10.3106
 207   2.0000      -0.375285       -10.2120
 208   2.0000      -0.368033       -10.0147
 209   2.0000      -0.366763        -9.9801
 210   2.0000      -0.360894        -9.8204
 211   2.0000      -0.354149        -9.6369
 212   2.0000      -0.348963        -9.4958
 213   2.0000      -0.335577        -9.1315
 214   2.0000      -0.334068        -9.0904
 215   2.0000      -0.324501        -8.8301
 216   2.0000      -0.323298        -8.7974
 217   2.0000      -0.307732        -8.3738
 218   2.0000      -0.306042        -8.3278
 219   2.0000      -0.280787        -7.6406
 220   2.0000      -0.248199        -6.7538
 221   0.0000      -0.111506        -3.0342
 222   0.0000      -0.103514        -2.8168
 223   0.0000      -0.097151        -2.6436
 224   0.0000      -0.077340        -2.1045
 225   0.0000      -0.039143        -1.0651

MULLIKEN ATOMIC CHARGES
-----------------------
   0 C :   -0.081944
   1 C :    0.037566
   2 C :   -0.032875
   3 C :   -0.115976
   4 S :    0.186864
   5 C :   -0.098220
   6 C :    0.012411
   7 C :    0.298399
   8 C :   -0.297370
   9 C :   -0.186555
  10 N :    0.168157
  11 C :   -0.189371
  12 N :    0.175020
  13 C :   -0.063364
  14 C :   -0.054722
  15 S :    0.194392
  16 C :   -0.044475
  17 C :   -0.069587
  18 C :    0.018878
  19 C :   -0.101281
  20 S :    0.194542
  21 C :   -0.083736
  22 C :    0.019539
  23 C :    0.306201
  24 C :   -0.297450
  25 C :   -0.191107
  26 N :    0.191988
  27 C :   -0.188237
  28 N :    0.170373
  29 C :   -0.051527
  30 C :   -0.122385
  31 S :    0.168878
  32 C :    0.160013
  33 C :   -0.077450
  34 C :   -0.025230
  35 C :    0.081549
  36 C :   -0.033587
  37 C :   -0.047747
  38 N :    0.049041
  39 O :   -0.078275
  40 N :    0.057781
  41 C :   -0.142025
  42 C :    0.161846
  43 N :    0.247735
  44 O :   -0.239015
  45 O :   -0.218362
  46 C :   -0.149304
  47 C :    0.206507
  48 C :   -0.173187
  49 S :    0.203242
  50 C :    0.052998
  51 N :   -0.089580
  52 N :   -0.025556
  53 C :   -0.030410
  54 C :    0.066433
  55 C :   -0.012147
  56 N :   -0.292060
  57 S :    0.542895
  58 N :   -0.249420
  59 H :    0.037502
  60 H :    0.013211
  61 H :    0.010227
  62 H :    0.011514
  63 H :    0.029344
  64 H :   -0.004612
  65 H :   -0.007978
  66 H :    0.023422
  67 H :    0.031344
  68 H :    0.027999
  69 H :    0.008317
Sum of atomic charges:   -0.0000000

LOEWDIN ATOMIC CHARGES
----------------------
   0 C :   -0.176821
   1 C :   -0.033736
   2 C :   -0.076660
   3 C :   -0.184688
   4 S :    0.481913
   5 C :   -0.178259
   6 C :   -0.069760
   7 C :    0.083793
   8 C :   -0.103564
   9 C :   -0.015514
  10 N :   -0.036438
  11 C :   -0.017331
  12 N :   -0.031733
  13 C :   -0.037470
  14 C :   -0.182783
  15 S :    0.486710
  16 C :   -0.174696
  17 C :   -0.041593
  18 C :   -0.061053
  19 C :   -0.186283
  20 S :    0.483253
  21 C :   -0.169362
  22 C :   -0.073455
  23 C :    0.079247
  24 C :   -0.095271
  25 C :   -0.021980
  26 N :   -0.016772
  27 C :   -0.014658
  28 N :   -0.033422
  29 C :   -0.010244
  30 C :   -0.168636
  31 S :    0.475263
  32 C :   -0.025112
  33 C :   -0.026843
  34 C :    0.002947
  35 C :   -0.049427
  36 C :   -0.046849
  37 C :   -0.044203
  38 N :   -0.017012
  39 O :    0.093402
  40 N :   -0.021474
  41 C :   -0.141335
  42 C :   -0.066196
  43 N :    0.287857
  44 O :   -0.204096
  45 O :   -0.179928
  46 C :    0.002839
  47 C :   -0.048182
  48 C :   -0.196577
  49 S :    0.509659
  50 C :   -0.012604
  51 N :   -0.050763
  52 N :   -0.032416
  53 C :    0.003288
  54 C :   -0.067355
  55 C :   -0.068286
  56 N :   -0.290533
  57 S :    0.675546
  58 N :   -0.265782
  59 H :    0.028202
  60 H :    0.042929
  61 H :    0.035208
  62 H :    0.035364
  63 H :    0.043114
  64 H :    0.027338
  65 H :    0.033576
  66 H :    0.027566
  67 H :    0.050025
  68 H :    0.042010
  69 H :    0.036103

  Mayer bond orders larger than 0.100000
B(  0-C ,  1-C ) :   1.5477 B(  0-C ,  4-S ) :   1.1517 B(  0-C , 59-H ) :   0.9645
B(  1-C ,  2-C ) :   1.2765 B(  1-C , 60-H ) :   0.9967 B(  2-C ,  3-C ) :   1.4563
B(  2-C ,  7-C ) :   1.0174 B(  3-C ,  4-S ) :   1.1384 B(  3-C ,  5-C ) :   1.1789
B(  5-C ,  6-C ) :   1.4616 B(  5-C , 15-S ) :   1.1254 B(  6-C ,  7-C ) :   0.9929
B(  6-C , 13-C ) :   1.2961 B(  7-C ,  8-C ) :   1.7106 B(  8-C ,  9-C ) :   1.1333
B(  8-C , 11-C ) :   1.1288 B(  9-C , 10-N ) :   2.9894 B( 11-C , 12-N ) :   3.0033
B( 13-C , 14-C ) :   1.4659 B( 13-C , 61-H ) :   0.9867 B( 14-C , 15-S ) :   1.1099
B( 14-C , 16-C ) :   1.1647 B( 16-C , 17-C ) :   1.4591 B( 16-C , 20-S ) :   1.1142
B( 17-C , 18-C ) :   1.3006 B( 17-C , 62-H ) :   0.9860 B( 18-C , 19-C ) :   1.4495
B( 18-C , 23-C ) :   0.9901 B( 19-C , 20-S ) :   1.1106 B( 19-C , 21-C ) :   1.1852
B( 21-C , 22-C ) :   1.4360 B( 21-C , 31-S ) :   1.1346 B( 22-C , 23-C ) :   0.9971
B( 22-C , 29-C ) :   1.2493 B( 23-C , 24-C ) :   1.7163 B( 24-C , 25-C ) :   1.1336
B( 24-C , 27-C ) :   1.1346 B( 25-C , 26-N ) :   2.9951 B( 27-C , 28-N ) :   2.9878
B( 29-C , 30-C ) :   1.4854 B( 29-C , 63-H ) :   0.9818 B( 30-C , 31-S ) :   1.0802
B( 30-C , 32-C ) :   1.1302 B( 32-C , 33-C ) :   1.4736 B( 32-C , 35-C ) :   0.1101
B( 32-C , 37-C ) :   1.1462 B( 33-C , 34-C ) :   1.2151 B( 33-C , 64-H ) :   0.9883
B( 34-C , 35-C ) :   1.5041 B( 34-C , 65-H ) :   0.9897 B( 35-C , 36-C ) :   1.1680
B( 35-C , 41-C ) :   1.0280 B( 36-C , 37-C ) :   1.1586 B( 36-C , 40-N ) :   1.5981
B( 37-C , 38-N ) :   1.5921 B( 38-N , 39-O ) :   1.0733 B( 38-N , 40-N ) :   0.1819
B( 39-O , 40-N ) :   1.0789 B( 41-C , 42-C ) :   1.4801 B( 41-C , 48-C ) :   0.1141
B( 41-C , 49-S ) :   1.1780 B( 42-C , 43-N ) :   0.9034 B( 42-C , 46-C ) :   1.2681
B( 43-N , 44-O ) :   1.5267 B( 43-N , 45-O ) :   1.5296 B( 44-O , 45-O ) :   0.2668
B( 46-C , 47-C ) :   1.1564 B( 46-C , 48-C ) :   1.5031 B( 47-C , 66-H ) :   0.9185
B( 47-C , 67-H ) :   0.9116 B( 47-C , 68-H ) :   0.9103 B( 48-C , 49-S ) :   1.1124
B( 48-C , 50-C ) :   1.1467 B( 50-C , 51-N ) :   1.6897 B( 50-C , 53-C ) :   0.1013
B( 50-C , 55-C ) :   1.0829 B( 51-N , 52-N ) :   1.1837 B( 52-N , 53-C ) :   1.7411
B( 53-C , 54-C ) :   1.1192 B( 53-C , 69-H ) :   1.0164 B( 54-C , 55-C ) :   1.2147
B( 54-C , 58-N ) :   1.5025 B( 55-C , 56-N ) :   1.5203 B( 56-N , 57-S ) :   1.2618
B( 56-N , 58-N ) :   0.1474 B( 57-S , 58-N ) :   1.3008

-----------------------------------------------------------------------------
         ABSORPTION SPECTRUM VIA TRANSITION ELECTRIC DIPOLE MOMENTS
-----------------------------------------------------------------------------
State   Energy  Wavelength   fosc         T2         TX        TY        TZ
        (cm-1)    (nm)                  (au**2)     (au)      (au)      (au)
-----------------------------------------------------------------------------
   0   12218.0    818.5   0.289525628   7.80123  -0.39731   2.71695   0.51143
   1   13767.9    726.3   0.052793225   1.26237   0.13639  -1.10755  -0.13079
   2   19627.2    509.5   1.253687301  21.02841  -0.67713   4.12552   1.88414
   3   19805.3    504.9   0.043743270   0.72712  -0.17140   0.76866   0.32696
   4   22594.7    442.6   0.020669998   0.30117  -0.01129   0.00754  -0.54862
   5   23880.5    418.8   0.200493503   2.76396   0.57072  -1.41291   0.66477
   6   25035.2    399.4   0.002947438   0.03876  -0.12157  -0.14713  -0.04830
   7   26802.1    373.1   0.167268154   2.05456   0.01865  -0.97132  -1.05392
   8   28658.1    348.9   0.432198600   4.96490  -0.07772  -2.12479   0.66644
   9   29233.8    342.1   0.129018107   1.45292   0.40729   1.13428  -0.02079
  10   30529.8    327.5   0.401051497   4.32466   0.00651  -1.60615   1.32095
  11   31014.8    322.4   0.119116949   1.26439  -0.40257   0.03694   1.04927
  12   31283.7    319.7   0.050332340   0.52967  -0.10697   0.70510  -0.14514
  13   31968.7    312.8   0.365754257   3.76652   0.77072  -0.17085  -1.77294
  14   32001.3    312.5   0.552888602   5.68782  -0.68457   0.30954   2.26349
  15   32060.2    311.9   0.047781162   0.49064   0.40056  -0.56105   0.12415
  16   32571.6    307.0   0.140553382   1.42062   0.22438  -1.09075  -0.42490
  17   32897.6    304.0   0.003710375   0.03713   0.16036  -0.08226  -0.06817
  18   33353.4    299.8   0.123850343   1.22245  -0.01977  -1.09004   0.18404
  19   33928.8    294.7   0.171270444   1.66184  -0.10717  -1.16341   0.54482
  20   34055.5    293.6   0.084957839   0.82128  -0.02636  -0.85051  -0.31180
  21   34271.9    291.8   0.064235345   0.61704  -0.10319   0.00501  -0.77869
  22   35217.9    283.9   0.042438207   0.39671  -0.16740   0.34980   0.49631
  23   35436.0    282.2   0.038400368   0.35675   0.13594  -0.54013  -0.21572
  24   35534.3    281.4   0.010245447   0.09492   0.19100   0.23351  -0.06256
  25   36082.1    277.1   0.048478352   0.44231  -0.20331   0.20402   0.59947
  26   36617.0    273.1   0.008477025   0.07621   0.08736  -0.21733   0.14611
  27   36819.8    271.6   0.112341205   1.00446   0.26762  -0.38242  -0.88690
  28   37316.5    268.0   0.004902456   0.04325  -0.05801  -0.18873   0.06532
  29   37508.2    266.6   0.049427728   0.43383   0.02694  -0.57321  -0.32331
  30   37883.5    264.0   0.010351531   0.08996  -0.05032   0.17514   0.23822
  31   38307.2    261.0   0.008864861   0.07618  -0.11989  -0.22539  -0.10494
  32   38477.5    259.9   0.029774638   0.25475   0.02298  -0.09670   0.49484
  33   38972.6    256.6   0.015215263   0.12853  -0.01399   0.18992   0.30375
  34   39067.3    256.0   0.003944405   0.03324  -0.14728  -0.00987   0.10701
  35   39222.9    255.0   0.112404176   0.94345  -0.16988   0.39207   0.87228
  36   39284.9    254.6   0.005771142   0.04836   0.00522  -0.11774  -0.18567
  37   39552.8    252.8   0.009029994   0.07516  -0.27122   0.03321   0.02233
  38   39826.0    251.1   0.055980622   0.46275   0.19534   0.60015   0.25379
  39   40175.9    248.9   0.000894387   0.00733  -0.08016   0.02872  -0.00887

FINAL SINGLE POINT ENERGY     -4705.887270706306

DIPOLE MOMENT
-------------
                                X             Y             Z
Electronic contribution:      7.46116     -12.24244      -0.39169
Nuclear contribution   :     -6.43367      10.54753       2.90813
                        -----------------------------------------
Total Dipole Moment    :      1.02750      -1.69490       2.51644
                        -----------------------------------------
Magnitude (a.u.)       :      3.20327
Magnitude (Debye)      :      8.14205

Rotational constants in cm-1:     0.002732     0.000316     0.000289
Rotational constants in MHz :    81.902188     9.460094     8.657257

                             ****ORCA TERMINATED NORMALLY****
TOTAL RUN TIME: 0 days 0 hours 5 minutes 37 seconds 282 msec
