                         Program Version 4.2.0 -  RELEASE  -
|  1> # ORCA input file
|  2> # SCF done       -225.089900242868          0.000686455100
|  3> ! CAM-B3LYP def2-SVP def2/J RIJCOSX Grid4 TightSCF
|  4> %maxcore 5000
|  5> %tddft
|  6>     Mode sTDDFT
|  7>     Ethresh 5.0
|  8>     maxcore 5000
|  9> end
| 10>
| 11> %pal
| 12>   nprocs 6
| 13>   end
| 14> * xyz 0 1
| 15>    C       -4.50529         2.76570         6.31271
| 16>    C       -4.80148         3.94966         5.69793
| 17>    F       -4.66065         5.10583         6.35978
| 18>    C       -5.25731         3.97165         4.36434
| 19>    F       -5.54000         5.14768         3.78768
| 20>    C       -5.41100         2.80841         3.66362
| 21>    C       -5.11423         1.57215         4.26965
| 22>    C       -4.65215         1.54822         5.61758
| 23>    C       -4.34295         0.32013         6.24583
| 24>    C       -4.49010        -0.84974         5.54703
| 25>    C       -4.95825        -0.81459         4.20603
| 26>    C       -5.26521         0.35412         3.57117
| 27>    C       -5.04254        -2.18781         3.67446
| 28>    O       -5.42926        -2.48980         2.56534
| 29>    C       -4.60603        -3.07534         4.77819
| 30>    C       -4.23846        -2.24150         5.91190
| 31>    C       -3.69309        -2.64844         7.10264
| 32>    C       -3.35723        -1.77121         8.15629
| 33>    N       -3.06633        -1.11762         9.05396
| 34>    C       -3.35606        -3.97103         7.46152
| 35>    N       -3.03464        -5.00984         7.83208
| 36>    C       -4.60658        -4.44566         4.81256
| 37>    C       -4.84485        -5.40377         3.81048
| 38>    C       -5.05241        -5.30836         2.43835
| 39>    C       -5.18605        -6.55165         1.84021
| 40>    C       -5.08649        -7.62671         2.75809
| 41>    S       -4.82079        -7.09459         4.34883
| 42>    C       -5.22911        -8.83754         2.04568
| 43>    C       -5.41540        -8.54022         0.68269
| 44>    C       -5.39408        -7.09409         0.50953
| 45>    C       -5.52684        -6.41246        -0.66373
| 46>    C       -5.72913        -7.08112        -1.89042
| 47>    N       -5.89486        -7.63002        -2.88352
| 48>    C       -5.46309        -5.00467        -0.75814
| 49>    N       -5.40337        -3.86683        -0.87941
| 50>    C       -5.54131        -9.67602        -0.10901
| 51>    C       -5.45330       -10.84482         0.63259
| 52>    S       -5.21773       -10.52164         2.34626
| 53>    C       -5.50282       -12.17797         0.13646
| 54>    C       -5.40573       -13.28825         0.94623
| 55>    C       -5.40000       -14.60248         0.49046
| 56>    C       -5.47367       -14.90858        -0.94004
| 57>    C       -5.59920       -13.97772        -1.91165
| 58>    S       -5.67085       -12.29389        -1.61170
| 59>    C       -5.38011       -16.32349        -1.02919
| 60>    C       -5.25124       -16.87804         0.24749
| 61>    C       -5.18513       -18.28949         0.19250
| 62>    C       -5.25030       -18.74738        -1.08531
| 63>    S       -5.40241       -17.50223        -2.27522
| 64>    C       -5.26820       -15.80942         1.21772
| 65>    C       -5.19605       -15.91492         2.62133
| 66>    C       -4.82324       -17.04542         3.28956
| 67>    C       -4.79279       -17.21537         4.69487
| 68>    C       -5.45886       -16.43236         5.59829
| 69>    C       -5.38968       -16.64335         6.98718
| 70>    C       -4.52961       -17.53969         7.56307
| 71>    C       -3.60103       -18.34184         6.67212
| 72>    C       -4.07139       -18.45158         5.20782
| 73>    N       -2.99472       -18.76638         4.29253
| 74>    C       -1.83212       -18.38340         4.58147
| 75>    C       -1.49779       -17.74206         5.86831
| 76>    N       -2.29654       -17.73818         6.83713
| 77>    F       -0.29839       -17.19076         5.99508
| 78>    F       -0.84307       -18.62348         3.72784
| 79>    C       -4.40545       -17.78144         8.94696
| 80>    C       -4.83366       -17.08594        10.04688
| 81>    C       -4.93766       -17.84170        11.32545
| 82>    O       -4.52345       -18.95870        11.53993
| 83>    C       -5.69667       -16.96887        12.24116
| 84>    C       -6.15602       -17.23797        13.49739
| 85>    C       -6.90314       -16.25213        14.18018
| 86>    C       -7.16213       -15.00596        13.53986
| 87>    C       -7.91778       -14.03118        14.22150
| 88>    C       -8.39078       -14.28088        15.47931
| 89>    C       -8.13143       -15.51272        16.11216
| 90>    C       -7.40255       -16.47890        15.47723
| 91>    F       -8.60894       -15.73081        17.34545
| 92>    F       -9.11033       -13.35260        16.12444
| 93>    C       -6.66347       -14.75377        12.24018
| 94>    C       -5.93387       -15.71995        11.60132
| 95>    C       -5.28027       -15.73698        10.29001
| 96>    C       -4.96343       -14.61131         9.56941
| 97>    C       -4.14513       -14.59624         8.42361
| 98>    N       -3.48408       -14.51044         7.48858
| 99>    C       -5.38249       -13.31190         9.91960
|100>    N       -5.72248       -12.23648        10.13482
|101>    H       -4.15622         2.76705         7.33353
|102>    H       -5.76054         2.84126         2.64361
|103>    H       -3.99852         0.33983         7.26672
|104>    H       -5.61556         0.34620         2.55025
|105>    H       -4.38164        -4.89380         5.77328
|106>    H       -5.10540        -4.36271         1.92896
|107>    H       -5.68571        -9.66956        -1.17416
|108>    H       -5.31057       -13.10616         2.00896
|109>    H       -5.65960       -14.23369        -2.95758
|110>    H       -5.10316       -18.94929         1.03581
|111>    H       -5.21929       -19.76709        -1.41602
|112>    H       -5.42569       -15.02182         3.18658
|113>    H       -4.45773       -17.88240         2.71555
|114>    H       -6.08228       -15.62688         5.24303
|115>    H       -6.07120       -16.08727         7.61383
|116>    H       -3.50397       -19.35465         7.08999
|117>    H       -4.78140       -19.28764         5.12496
|118>    H       -3.94347       -18.72958         9.21157
|119>    H       -5.95383       -18.19030        13.96336
|120>    H       -8.12227       -13.08062        13.75412
|121>    H       -7.21213       -17.41715        15.97439
|122>    H       -6.88135       -13.80306        11.78062
|123> *
|124>
|125>                          ****END OF INPUT****

CARTESIAN COORDINATES (ANGSTROEM)
---------------------------------
  C     -4.505290    2.765700    6.312710
  C     -4.801480    3.949660    5.697930
  F     -4.660650    5.105830    6.359780
  C     -5.257310    3.971650    4.364340
  F     -5.540000    5.147680    3.787680
  C     -5.411000    2.808410    3.663620
  C     -5.114230    1.572150    4.269650
  C     -4.652150    1.548220    5.617580
  C     -4.342950    0.320130    6.245830
  C     -4.490100   -0.849740    5.547030
  C     -4.958250   -0.814590    4.206030
  C     -5.265210    0.354120    3.571170
  C     -5.042540   -2.187810    3.674460
  O     -5.429260   -2.489800    2.565340
  C     -4.606030   -3.075340    4.778190
  C     -4.238460   -2.241500    5.911900
  C     -3.693090   -2.648440    7.102640
  C     -3.357230   -1.771210    8.156290
  N     -3.066330   -1.117620    9.053960
  C     -3.356060   -3.971030    7.461520
  N     -3.034640   -5.009840    7.832080
  C     -4.606580   -4.445660    4.812560
  C     -4.844850   -5.403770    3.810480
  C     -5.052410   -5.308360    2.438350
  C     -5.186050   -6.551650    1.840210
  C     -5.086490   -7.626710    2.758090
  S     -4.820790   -7.094590    4.348830
  C     -5.229110   -8.837540    2.045680
  C     -5.415400   -8.540220    0.682690
  C     -5.394080   -7.094090    0.509530
  C     -5.526840   -6.412460   -0.663730
  C     -5.729130   -7.081120   -1.890420
  N     -5.894860   -7.630020   -2.883520
  C     -5.463090   -5.004670   -0.758140
  N     -5.403370   -3.866830   -0.879410
  C     -5.541310   -9.676020   -0.109010
  C     -5.453300  -10.844820    0.632590
  S     -5.217730  -10.521640    2.346260
  C     -5.502820  -12.177970    0.136460
  C     -5.405730  -13.288250    0.946230
  C     -5.400000  -14.602480    0.490460
  C     -5.473670  -14.908580   -0.940040
  C     -5.599200  -13.977720   -1.911650
  S     -5.670850  -12.293890   -1.611700
  C     -5.380110  -16.323490   -1.029190
  C     -5.251240  -16.878040    0.247490
  C     -5.185130  -18.289490    0.192500
  C     -5.250300  -18.747380   -1.085310
  S     -5.402410  -17.502230   -2.275220
  C     -5.268200  -15.809420    1.217720
  C     -5.196050  -15.914920    2.621330
  C     -4.823240  -17.045420    3.289560
  C     -4.792790  -17.215370    4.694870
  C     -5.458860  -16.432360    5.598290
  C     -5.389680  -16.643350    6.987180
  C     -4.529610  -17.539690    7.563070
  C     -3.601030  -18.341840    6.672120
  C     -4.071390  -18.451580    5.207820
  N     -2.994720  -18.766380    4.292530
  C     -1.832120  -18.383400    4.581470
  C     -1.497790  -17.742060    5.868310
  N     -2.296540  -17.738180    6.837130
  F     -0.298390  -17.190760    5.995080
  F     -0.843070  -18.623480    3.727840
  C     -4.405450  -17.781440    8.946960
  C     -4.833660  -17.085940   10.046880
  C     -4.937660  -17.841700   11.325450
  O     -4.523450  -18.958700   11.539930
  C     -5.696670  -16.968870   12.241160
  C     -6.156020  -17.237970   13.497390
  C     -6.903140  -16.252130   14.180180
  C     -7.162130  -15.005960   13.539860
  C     -7.917780  -14.031180   14.221500
  C     -8.390780  -14.280880   15.479310
  C     -8.131430  -15.512720   16.112160
  C     -7.402550  -16.478900   15.477230
  F     -8.608940  -15.730810   17.345450
  F     -9.110330  -13.352600   16.124440
  C     -6.663470  -14.753770   12.240180
  C     -5.933870  -15.719950   11.601320
  C     -5.280270  -15.736980   10.290010
  C     -4.963430  -14.611310    9.569410
  C     -4.145130  -14.596240    8.423610
  N     -3.484080  -14.510440    7.488580
  C     -5.382490  -13.311900    9.919600
  N     -5.722480  -12.236480   10.134820
  H     -4.156220    2.767050    7.333530
  H     -5.760540    2.841260    2.643610
  H     -3.998520    0.339830    7.266720
  H     -5.615560    0.346200    2.550250
  H     -4.381640   -4.893800    5.773280
  H     -5.105400   -4.362710    1.928960
  H     -5.685710   -9.669560   -1.174160
  H     -5.310570  -13.106160    2.008960
  H     -5.659600  -14.233690   -2.957580
  H     -5.103160  -18.949290    1.035810
  H     -5.219290  -19.767090   -1.416020
  H     -5.425690  -15.021820    3.186580
  H     -4.457730  -17.882400    2.715550
  H     -6.082280  -15.626880    5.243030
  H     -6.071200  -16.087270    7.613830
  H     -3.503970  -19.354650    7.089990
  H     -4.781400  -19.287640    5.124960
  H     -3.943470  -18.729580    9.211570
  H     -5.953830  -18.190300   13.963360
  H     -8.122270  -13.080620   13.754120
  H     -7.212130  -17.417150   15.974390
  H     -6.881350  -13.803060   11.780620

 Total Charge           Charge          ....    0
 Multiplicity           Mult            ....    1
 Number of Electrons    NEL             ....  608
 Basis Dimension        Dim             .... 1330

ORBITAL ENERGIES
----------------

  NO   OCC          E(Eh)            E(eV)
   0   2.0000     -89.004959     -2421.9481
   1   2.0000     -89.000748     -2421.8335
   2   2.0000     -88.993268     -2421.6299
   3   2.0000     -88.968605     -2420.9588
   4   2.0000     -24.808309      -675.0684
   5   2.0000     -24.803161      -674.9283
   6   2.0000     -24.797844      -674.7837
   7   2.0000     -24.796999      -674.7606
   8   2.0000     -24.795362      -674.7161
   9   2.0000     -24.794569      -674.6945
  10   2.0000     -19.221937      -523.0555
  11   2.0000     -19.210139      -522.7345
  12   2.0000     -14.439654      -392.9230
  13   2.0000     -14.435749      -392.8167
  14   2.0000     -14.434791      -392.7906
  15   2.0000     -14.432508      -392.7285
  16   2.0000     -14.419371      -392.3710
  17   2.0000     -14.415905      -392.2767
  18   2.0000     -14.414261      -392.2320
  19   2.0000     -14.413176      -392.2025
  20   2.0000     -10.422999      -283.6242
  21   2.0000     -10.417726      -283.4807
  22   2.0000     -10.381192      -282.4866
  23   2.0000     -10.380423      -282.4657
  24   2.0000     -10.378027      -282.4005
  25   2.0000     -10.377573      -282.3881
  26   2.0000     -10.375289      -282.3260
  27   2.0000     -10.373055      -282.2652
  28   2.0000     -10.361322      -281.9459
  29   2.0000     -10.360866      -281.9335
  30   2.0000     -10.352764      -281.7130
  31   2.0000     -10.347321      -281.5649
  32   2.0000     -10.346637      -281.5463
  33   2.0000     -10.344695      -281.4935
  34   2.0000     -10.344515      -281.4886
  35   2.0000     -10.343879      -281.4713
  36   2.0000     -10.343410      -281.4585
  37   2.0000     -10.339823      -281.3609
  38   2.0000     -10.339658      -281.3564
  39   2.0000     -10.338770      -281.3322
  40   2.0000     -10.335378      -281.2399
  41   2.0000     -10.333597      -281.1915
  42   2.0000     -10.333379      -281.1855
  43   2.0000     -10.333134      -281.1789
  44   2.0000     -10.331512      -281.1347
  45   2.0000     -10.322075      -280.8779
  46   2.0000     -10.321272      -280.8561
  47   2.0000     -10.319056      -280.7958
  48   2.0000     -10.317841      -280.7627
  49   2.0000     -10.316575      -280.7283
  50   2.0000     -10.315313      -280.6939
  51   2.0000     -10.315287      -280.6932
  52   2.0000     -10.314082      -280.6604
  53   2.0000     -10.313248      -280.6377
  54   2.0000     -10.311394      -280.5873
  55   2.0000     -10.310906      -280.5740
  56   2.0000     -10.310334      -280.5584
  57   2.0000     -10.310071      -280.5513
  58   2.0000     -10.307871      -280.4914
  59   2.0000     -10.307614      -280.4844
  60   2.0000     -10.307034      -280.4686
  61   2.0000     -10.306737      -280.4606
  62   2.0000     -10.306586      -280.4565
  63   2.0000     -10.305912      -280.4381
  64   2.0000     -10.305359      -280.4231
  65   2.0000     -10.305342      -280.4226
  66   2.0000     -10.304205      -280.3917
  67   2.0000     -10.302322      -280.3404
  68   2.0000     -10.301977      -280.3310
  69   2.0000     -10.300642      -280.2947
  70   2.0000     -10.300612      -280.2939
  71   2.0000     -10.300032      -280.2781
  72   2.0000     -10.298738      -280.2429
  73   2.0000     -10.298512      -280.2368
  74   2.0000     -10.298077      -280.2249
  75   2.0000     -10.298038      -280.2239
  76   2.0000     -10.297254      -280.2025
  77   2.0000     -10.294189      -280.1191
  78   2.0000     -10.292978      -280.0862
  79   2.0000     -10.292294      -280.0676
  80   2.0000     -10.291323      -280.0411
  81   2.0000     -10.289148      -279.9819
  82   2.0000     -10.287937      -279.9490
  83   2.0000     -10.285058      -279.8706
  84   2.0000     -10.284951      -279.8677
  85   2.0000     -10.281199      -279.7657
  86   2.0000      -8.099182      -220.3900
  87   2.0000      -8.095456      -220.2885
  88   2.0000      -8.088398      -220.0965
  89   2.0000      -8.063961      -219.4315
  90   2.0000      -6.068527      -165.1330
  91   2.0000      -6.064541      -165.0246
  92   2.0000      -6.064350      -165.0194
  93   2.0000      -6.061379      -164.9385
  94   2.0000      -6.060405      -164.9120
  95   2.0000      -6.058014      -164.8469
  96   2.0000      -6.058007      -164.8468
  97   2.0000      -6.053403      -164.7215
  98   2.0000      -6.050248      -164.6356
  99   2.0000      -6.033377      -164.1765
 100   2.0000      -6.029101      -164.0602
 101   2.0000      -6.026103      -163.9786
 102   2.0000      -1.336281       -36.3621
 103   2.0000      -1.320929       -35.9443
 104   2.0000      -1.320283       -35.9267
 105   2.0000      -1.317717       -35.8569
 106   2.0000      -1.305405       -35.5219
 107   2.0000      -1.302893       -35.4535
 108   2.0000      -1.137643       -30.9568
 109   2.0000      -1.125584       -30.6287
 110   2.0000      -1.087117       -29.5820
 111   2.0000      -1.057654       -28.7802
 112   2.0000      -1.030399       -28.0386
 113   2.0000      -1.023498       -27.8508
 114   2.0000      -1.021741       -27.8030
 115   2.0000      -1.019702       -27.7475
 116   2.0000      -1.016487       -27.6600
 117   2.0000      -1.014180       -27.5972
 118   2.0000      -1.011433       -27.5225
 119   2.0000      -1.005501       -27.3611
 120   2.0000      -1.001144       -27.2425
 121   2.0000      -0.996149       -27.1066
 122   2.0000      -0.992468       -27.0064
 123   2.0000      -0.987757       -26.8782
 124   2.0000      -0.981866       -26.7179
 125   2.0000      -0.977893       -26.6098
 126   2.0000      -0.967815       -26.3356
 127   2.0000      -0.963461       -26.2171
 128   2.0000      -0.943457       -25.6728
 129   2.0000      -0.935681       -25.4612
 130   2.0000      -0.929077       -25.2815
 131   2.0000      -0.926406       -25.2088
 132   2.0000      -0.914501       -24.8848
 133   2.0000      -0.908117       -24.7111
 134   2.0000      -0.899101       -24.4658
 135   2.0000      -0.894605       -24.3434
 136   2.0000      -0.892135       -24.2762
 137   2.0000      -0.888528       -24.1781
 138   2.0000      -0.884998       -24.0820
 139   2.0000      -0.876878       -23.8611
 140   2.0000      -0.872940       -23.7539
 141   2.0000      -0.867723       -23.6119
 142   2.0000      -0.866569       -23.5805
 143   2.0000      -0.852940       -23.2097
 144   2.0000      -0.840715       -22.8770
 145   2.0000      -0.838437       -22.8150
 146   2.0000      -0.837013       -22.7763
 147   2.0000      -0.832755       -22.6604
 148   2.0000      -0.817167       -22.2362
 149   2.0000      -0.807030       -21.9604
 150   2.0000      -0.794291       -21.6138
 151   2.0000      -0.786541       -21.4029
 152   2.0000      -0.778517       -21.1845
 153   2.0000      -0.777828       -21.1658
 154   2.0000      -0.769223       -20.9316
 155   2.0000      -0.764648       -20.8071
 156   2.0000      -0.761291       -20.7158
 157   2.0000      -0.752483       -20.4761
 158   2.0000      -0.748407       -20.3652
 159   2.0000      -0.733143       -19.9498
 160   2.0000      -0.731286       -19.8993
 161   2.0000      -0.719883       -19.5890
 162   2.0000      -0.715241       -19.4627
 163   2.0000      -0.714284       -19.4367
 164   2.0000      -0.712195       -19.3798
 165   2.0000      -0.701271       -19.0826
 166   2.0000      -0.695385       -18.9224
 167   2.0000      -0.691620       -18.8199
 168   2.0000      -0.688358       -18.7312
 169   2.0000      -0.680853       -18.5270
 170   2.0000      -0.676328       -18.4038
 171   2.0000      -0.672075       -18.2881
 172   2.0000      -0.669449       -18.2166
 173   2.0000      -0.665221       -18.1016
 174   2.0000      -0.662507       -18.0277
 175   2.0000      -0.661289       -17.9946
 176   2.0000      -0.654075       -17.7983
 177   2.0000      -0.653578       -17.7848
 178   2.0000      -0.646164       -17.5830
 179   2.0000      -0.643078       -17.4990
 180   2.0000      -0.642097       -17.4724
 181   2.0000      -0.639615       -17.4048
 182   2.0000      -0.637884       -17.3577
 183   2.0000      -0.627704       -17.0807
 184   2.0000      -0.625728       -17.0269
 185   2.0000      -0.624367       -16.9899
 186   2.0000      -0.614568       -16.7232
 187   2.0000      -0.611508       -16.6400
 188   2.0000      -0.610940       -16.6245
 189   2.0000      -0.606675       -16.5085
 190   2.0000      -0.598081       -16.2746
 191   2.0000      -0.595583       -16.2066
 192   2.0000      -0.593147       -16.1403
 193   2.0000      -0.589853       -16.0507
 194   2.0000      -0.586487       -15.9591
 195   2.0000      -0.584864       -15.9150
 196   2.0000      -0.582335       -15.8461
 197   2.0000      -0.579589       -15.7714
 198   2.0000      -0.579323       -15.7642
 199   2.0000      -0.574869       -15.6430
 200   2.0000      -0.572676       -15.5833
 201   2.0000      -0.566829       -15.4242
 202   2.0000      -0.564674       -15.3656
 203   2.0000      -0.559880       -15.2351
 204   2.0000      -0.559006       -15.2113
 205   2.0000      -0.554305       -15.0834
 206   2.0000      -0.552351       -15.0302
 207   2.0000      -0.550592       -14.9824
 208   2.0000      -0.549228       -14.9453
 209   2.0000      -0.546474       -14.8703
 210   2.0000      -0.545647       -14.8478
 211   2.0000      -0.544033       -14.8039
 212   2.0000      -0.541922       -14.7464
 213   2.0000      -0.541057       -14.7229
 214   2.0000      -0.539499       -14.6805
 215   2.0000      -0.534791       -14.5524
 216   2.0000      -0.531499       -14.4628
 217   2.0000      -0.530531       -14.4365
 218   2.0000      -0.528998       -14.3948
 219   2.0000      -0.528235       -14.3740
 220   2.0000      -0.527717       -14.3599
 221   2.0000      -0.525716       -14.3055
 222   2.0000      -0.520996       -14.1770
 223   2.0000      -0.519874       -14.1465
 224   2.0000      -0.517273       -14.0757
 225   2.0000      -0.516703       -14.0602
 226   2.0000      -0.515478       -14.0269
 227   2.0000      -0.513744       -13.9797
 228   2.0000      -0.511062       -13.9067
 229   2.0000      -0.510246       -13.8845
 230   2.0000      -0.504820       -13.7369
 231   2.0000      -0.502855       -13.6834
 232   2.0000      -0.502453       -13.6724
 233   2.0000      -0.500063       -13.6074
 234   2.0000      -0.498366       -13.5612
 235   2.0000      -0.496471       -13.5097
 236   2.0000      -0.495910       -13.4944
 237   2.0000      -0.492499       -13.4016
 238   2.0000      -0.486920       -13.2498
 239   2.0000      -0.484934       -13.1957
 240   2.0000      -0.481435       -13.1005
 241   2.0000      -0.480006       -13.0616
 242   2.0000      -0.473562       -12.8863
 243   2.0000      -0.472397       -12.8546
 244   2.0000      -0.469802       -12.7840
 245   2.0000      -0.468934       -12.7603
 246   2.0000      -0.466103       -12.6833
 247   2.0000      -0.464894       -12.6504
 248   2.0000      -0.463518       -12.6130
 249   2.0000      -0.462997       -12.5988
 250   2.0000      -0.461561       -12.5597
 251   2.0000      -0.459441       -12.5020
 252   2.0000      -0.455604       -12.3976
 253   2.0000      -0.453728       -12.3466
 254   2.0000      -0.452294       -12.3075
 255   2.0000      -0.451033       -12.2732
 256   2.0000      -0.449860       -12.2413
 257   2.0000      -0.448676       -12.2091
 258   2.0000      -0.446949       -12.1621
 259   2.0000      -0.446549       -12.1512
 260   2.0000      -0.445782       -12.1303
 261   2.0000      -0.444753       -12.1023
 262   2.0000      -0.442817       -12.0497
 263   2.0000      -0.441754       -12.0207
 264   2.0000      -0.440115       -11.9761
 265   2.0000      -0.438980       -11.9453
 266   2.0000      -0.435724       -11.8567
 267   2.0000      -0.433432       -11.7943
 268   2.0000      -0.432026       -11.7560
 269   2.0000      -0.431343       -11.7374
 270   2.0000      -0.427810       -11.6413
 271   2.0000      -0.425965       -11.5911
 272   2.0000      -0.425518       -11.5789
 273   2.0000      -0.424521       -11.5518
 274   2.0000      -0.423388       -11.5210
 275   2.0000      -0.420268       -11.4361
 276   2.0000      -0.415810       -11.3148
 277   2.0000      -0.410715       -11.1761
 278   2.0000      -0.409301       -11.1376
 279   2.0000      -0.406103       -11.0506
 280   2.0000      -0.404981       -11.0201
 281   2.0000      -0.399915       -10.8822
 282   2.0000      -0.395439       -10.7604
 283   2.0000      -0.387892       -10.5551
 284   2.0000      -0.383634       -10.4392
 285   2.0000      -0.374681       -10.1956
 286   2.0000      -0.371699       -10.1144
 287   2.0000      -0.362680        -9.8690
 288   2.0000      -0.361790        -9.8448
 289   2.0000      -0.354731        -9.6527
 290   2.0000      -0.348496        -9.4831
 291   2.0000      -0.344915        -9.3856
 292   2.0000      -0.339424        -9.2362
 293   2.0000      -0.336304        -9.1513
 294   2.0000      -0.331170        -9.0116
 295   2.0000      -0.330057        -8.9813
 296   2.0000      -0.318174        -8.6580
 297   2.0000      -0.314012        -8.5447
 298   2.0000      -0.303952        -8.2710
 299   2.0000      -0.299827        -8.1587
 300   2.0000      -0.296251        -8.0614
 301   2.0000      -0.289465        -7.8767
 302   2.0000      -0.270442        -7.3591
 303   2.0000      -0.235595        -6.4109
 304   0.0000      -0.122982        -3.3465
 305   0.0000      -0.103088        -2.8052
 306   0.0000      -0.094519        -2.5720
 307   0.0000      -0.072284        -1.9670
 308   0.0000      -0.061520        -1.6740

MULLIKEN ATOMIC CHARGES
-----------------------
   0 C :   -0.105560
   1 C :    0.241533
   2 F :   -0.170974
   3 C :    0.238010
   4 F :   -0.171424
   5 C :   -0.101166
   6 C :    0.113665
   7 C :    0.110632
   8 C :   -0.079710
   9 C :    0.047110
  10 C :   -0.004363
  11 C :   -0.078616
  12 C :    0.157281
  13 O :   -0.147809
  14 C :   -0.091381
  15 C :    0.323328
  16 C :   -0.360689
  17 C :   -0.180942
  18 N :    0.147060
  19 C :   -0.190509
  20 N :    0.155244
  21 C :    0.039337
  22 C :   -0.115139
  23 C :   -0.007144
  24 C :   -0.008351
  25 C :   -0.078716
  26 S :    0.216298
  27 C :   -0.099888
  28 C :    0.023956
  29 C :    0.313337
  30 C :   -0.292786
  31 C :   -0.189937
  32 N :    0.172026
  33 C :   -0.192205
  34 N :    0.197749
  35 C :   -0.059155
  36 C :   -0.058522
  37 S :    0.192866
  38 C :   -0.022515
  39 C :   -0.081735
  40 C :    0.061369
  41 C :    0.059103
  42 C :   -0.114070
  43 S :    0.140409
  44 C :   -0.112706
  45 C :    0.055247
  46 C :   -0.004702
  47 C :   -0.064378
  48 S :    0.137634
  49 C :    0.078335
  50 C :    0.008893
  51 C :   -0.017494
  52 C :    0.008250
  53 C :   -0.019491
  54 C :    0.029128
  55 C :    0.006350
  56 C :    0.075612
  57 C :    0.103778
  58 N :   -0.103603
  59 C :    0.115228
  60 C :    0.122044
  61 N :   -0.065237
  62 F :   -0.138147
  63 F :   -0.141394
  64 C :    0.057338
  65 C :   -0.124230
  66 C :    0.133949
  67 O :   -0.148328
  68 C :    0.019220
  69 C :   -0.087334
  70 C :    0.113279
  71 C :    0.112797
  72 C :   -0.107997
  73 C :    0.242271
  74 C :    0.239616
  75 C :   -0.106288
  76 F :   -0.172881
  77 F :   -0.172965
  78 C :   -0.087835
  79 C :    0.033950
  80 C :    0.288224
  81 C :   -0.351521
  82 C :   -0.211421
  83 N :    0.173880
  84 C :   -0.177606
  85 N :    0.147591
  86 H :    0.007221
  87 H :    0.000406
  88 H :   -0.007072
  89 H :   -0.006722
  90 H :    0.007622
  91 H :    0.039677
  92 H :    0.027160
  93 H :   -0.003706
  94 H :    0.044684
  95 H :   -0.004793
  96 H :    0.030470
  97 H :   -0.021396
  98 H :    0.000754
  99 H :   -0.021684
 100 H :   -0.001612
 101 H :    0.033591
 102 H :    0.040506
 103 H :    0.017043
 104 H :   -0.011693
 105 H :    0.004373
 106 H :   -0.002030
 107 H :   -0.006866
Sum of atomic charges:   -0.0000000

LOEWDIN ATOMIC CHARGES
----------------------
   0 C :   -0.028966
   1 C :    0.066707
   2 F :   -0.048962
   3 C :    0.067886
   4 F :   -0.049229
   5 C :   -0.032561
   6 C :   -0.008536
   7 C :   -0.006595
   8 C :    0.018040
   9 C :   -0.023850
  10 C :   -0.052354
  11 C :    0.031589
  12 C :    0.086617
  13 O :   -0.137018
  14 C :   -0.097678
  15 C :    0.076290
  16 C :   -0.141687
  17 C :   -0.016805
  18 N :   -0.053474
  19 C :   -0.025131
  20 N :   -0.049956
  21 C :    0.043634
  22 C :   -0.175671
  23 C :    0.019056
  24 C :   -0.075678
  25 C :   -0.157300
  26 S :    0.503757
  27 C :   -0.188288
  28 C :   -0.049548
  29 C :    0.075209
  30 C :   -0.091019
  31 C :   -0.014529
  32 N :   -0.030284
  33 C :   -0.023669
  34 N :   -0.011193
  35 C :   -0.042239
  36 C :   -0.169375
  37 S :    0.486472
  38 C :   -0.179915
  39 C :   -0.024221
  40 C :   -0.011286
  41 C :   -0.048806
  42 C :   -0.135852
  43 S :    0.474853
  44 C :   -0.198756
  45 C :   -0.035526
  46 C :   -0.062700
  47 C :   -0.160590
  48 S :    0.431805
  49 C :   -0.046640
  50 C :    0.016735
  51 C :   -0.048034
  52 C :    0.009810
  53 C :   -0.045383
  54 C :    0.044126
  55 C :   -0.057208
  56 C :    0.020836
  57 C :    0.018704
  58 N :   -0.076853
  59 C :    0.056307
  60 C :    0.046094
  61 N :   -0.058901
  62 F :   -0.027233
  63 F :   -0.030208
  64 C :    0.078597
  65 C :   -0.102014
  66 C :    0.081689
  67 O :   -0.148573
  68 C :   -0.052980
  69 C :    0.028729
  70 C :   -0.010305
  71 C :   -0.006624
  72 C :   -0.030647
  73 C :    0.065902
  74 C :    0.065912
  75 C :   -0.033439
  76 F :   -0.050856
  77 F :   -0.050292
  78 C :    0.011233
  79 C :   -0.019342
  80 C :    0.065743
  81 C :   -0.149040
  82 C :   -0.015794
  83 N :   -0.044887
  84 C :   -0.020359
  85 N :   -0.059803
  86 H :    0.047802
  87 H :    0.045356
  88 H :    0.039878
  89 H :    0.041693
  90 H :    0.043088
  91 H :    0.043379
  92 H :    0.035457
  93 H :    0.029585
  94 H :    0.040344
  95 H :    0.032822
  96 H :    0.025803
  97 H :    0.027344
  98 H :    0.030649
  99 H :    0.029967
 100 H :    0.037016
 101 H :    0.040592
 102 H :    0.048336
 103 H :    0.043726
 104 H :    0.039874
 105 H :    0.046677
 106 H :    0.044304
 107 H :    0.038635

  Mayer bond orders larger than 0.100000
B(  0-C ,  1-C ) :   1.4412 B(  0-C ,  5-C ) :   0.1088 B(  0-C ,  7-C ) :   1.1903
B(  0-C , 86-H ) :   1.0056 B(  1-C ,  2-F ) :   1.1346 B(  1-C ,  3-C ) :   1.1909
B(  3-C ,  4-F ) :   1.1335 B(  3-C ,  5-C ) :   1.4433 B(  5-C ,  6-C ) :   1.1926
B(  5-C , 87-H ) :   1.0062 B(  6-C ,  7-C ) :   1.2542 B(  6-C , 11-C ) :   1.1872
B(  7-C ,  8-C ) :   1.2185 B(  8-C ,  9-C ) :   1.4500 B(  8-C , 88-H ) :   0.9877
B(  9-C , 10-C ) :   1.2218 B(  9-C , 15-C ) :   0.9786 B( 10-C , 11-C ) :   1.4712
B( 10-C , 12-C ) :   0.9510 B( 11-C , 89-H ) :   1.0161 B( 12-C , 13-O ) :   2.1689
B( 12-C , 14-C ) :   0.9409 B( 14-C , 15-C ) :   1.0866 B( 14-C , 21-C ) :   1.5794
B( 15-C , 16-C ) :   1.6189 B( 16-C , 17-C ) :   1.1519 B( 16-C , 19-C ) :   1.1385
B( 17-C , 18-N ) :   2.9584 B( 19-C , 20-N ) :   2.9681 B( 21-C , 22-C ) :   1.2298
B( 21-C , 90-H ) :   0.9077 B( 22-C , 23-C ) :   1.3875 B( 22-C , 26-S ) :   1.0740
B( 23-C , 24-C ) :   1.3182 B( 23-C , 91-H ) :   0.9700 B( 24-C , 25-C ) :   1.3678
B( 24-C , 29-C ) :   0.9987 B( 25-C , 26-S ) :   1.1704 B( 25-C , 27-C ) :   1.2097
B( 27-C , 28-C ) :   1.4331 B( 27-C , 37-S ) :   1.1110 B( 28-C , 29-C ) :   0.9982
B( 28-C , 35-C ) :   1.3194 B( 29-C , 30-C ) :   1.7131 B( 30-C , 31-C ) :   1.1355
B( 30-C , 33-C ) :   1.1360 B( 31-C , 32-N ) :   2.9840 B( 33-C , 34-N ) :   2.9980
B( 35-C , 36-C ) :   1.4377 B( 35-C , 92-H ) :   0.9761 B( 36-C , 37-S ) :   1.1170
B( 36-C , 38-C ) :   1.1767 B( 38-C , 39-C ) :   1.5049 B( 38-C , 43-S ) :   1.0624
B( 39-C , 40-C ) :   1.2733 B( 39-C , 93-H ) :   0.9613 B( 40-C , 41-C ) :   1.0560
B( 40-C , 49-C ) :   1.3415 B( 41-C , 42-C ) :   1.6001 B( 41-C , 44-C ) :   1.1818
B( 42-C , 43-S ) :   1.1438 B( 42-C , 94-H ) :   0.9413 B( 44-C , 45-C ) :   1.4467
B( 44-C , 48-S ) :   1.0849 B( 45-C , 46-C ) :   1.2161 B( 45-C , 49-C ) :   1.0825
B( 46-C , 47-C ) :   1.5867 B( 46-C , 95-H ) :   0.9989 B( 47-C , 48-S ) :   1.1546
B( 47-C , 96-H ) :   0.9649 B( 49-C , 50-C ) :   1.2056 B( 50-C , 51-C ) :   1.5634
B( 50-C , 97-H ) :   0.9596 B( 51-C , 52-C ) :   1.1728 B( 51-C , 98-H ) :   0.9700
B( 52-C , 53-C ) :   1.6061 B( 52-C , 57-C ) :   0.9370 B( 53-C , 54-C ) :   1.1867
B( 53-C , 99-H ) :   0.9755 B( 54-C , 55-C ) :   1.5584 B( 54-C ,100-H ) :   0.9704
B( 55-C , 56-C ) :   0.9833 B( 55-C , 64-C ) :   1.1974 B( 56-C , 57-C ) :   0.9749
B( 56-C , 61-N ) :   1.0598 B( 56-C ,101-H ) :   0.9020 B( 57-C , 58-N ) :   1.0132
B( 57-C ,102-H ) :   0.8816 B( 58-N , 59-C ) :   1.9338 B( 59-C , 60-C ) :   0.9344
B( 59-C , 63-F ) :   1.1684 B( 60-C , 61-N ) :   1.9503 B( 60-C , 62-F ) :   1.1713
B( 64-C , 65-C ) :   1.5669 B( 64-C ,103-H ) :   0.9261 B( 65-C , 66-C ) :   0.9537
B( 65-C , 80-C ) :   1.0657 B( 66-C , 67-O ) :   2.2492 B( 66-C , 68-C ) :   0.9180
B( 68-C , 69-C ) :   1.4760 B( 68-C , 79-C ) :   1.2231 B( 69-C , 70-C ) :   1.1870
B( 69-C ,104-H ) :   1.0172 B( 70-C , 71-C ) :   1.2614 B( 70-C , 75-C ) :   1.1928
B( 71-C , 72-C ) :   1.1907 B( 71-C , 78-C ) :   1.2105 B( 72-C , 73-C ) :   1.4393
B( 72-C , 75-C ) :   0.1091 B( 72-C ,105-H ) :   1.0071 B( 73-C , 74-C ) :   1.1927
B( 73-C , 77-F ) :   1.1327 B( 74-C , 75-C ) :   1.4419 B( 74-C , 76-F ) :   1.1319
B( 75-C ,106-H ) :   1.0074 B( 78-C , 79-C ) :   1.4572 B( 78-C ,107-H ) :   0.9934
B( 79-C , 80-C ) :   0.9874 B( 80-C , 81-C ) :   1.6179 B( 81-C , 82-C ) :   1.1798
B( 81-C , 84-C ) :   1.1312 B( 82-C , 83-N ) :   2.9811 B( 84-C , 85-N ) :   2.9799

-----------------------------------------------------------------------------
         ABSORPTION SPECTRUM VIA TRANSITION ELECTRIC DIPOLE MOMENTS
-----------------------------------------------------------------------------
State   Energy  Wavelength   fosc         T2         TX        TY        TZ
        (cm-1)    (nm)                  (au**2)     (au)      (au)      (au)
-----------------------------------------------------------------------------
   0   10521.0    950.5   0.430198176  13.46135  -0.16334  -3.54506   0.93126
   1   13977.2    715.5   0.719843397  16.95484   0.01597  -1.18142   3.94447
   2   16726.8    597.8   0.015120199   0.29759   0.11176   0.42604   0.32186
   3   19075.8    524.2   1.510297684  26.06488   0.31571   4.15803   2.94550
   4   21230.1    471.0   0.058488741   0.90698  -0.36482   0.67857  -0.55985
   5   22212.6    450.2   0.251946286   3.73409  -0.03465  -1.08278  -1.60015
   6   23628.7    423.2   0.287981491   4.01236   0.42369  -0.19637   1.94789
   7   24176.4    413.6   0.031844444   0.43363  -0.19971  -0.38225  -0.49762
   8   24525.4    407.7   0.070714962   0.94923   0.22110   0.90007   0.30037
   9   25090.6    398.6   0.015466335   0.20293  -0.06740  -0.32927   0.29996
  10   25176.0    397.2   0.032720074   0.42786   0.12921   0.22104  -0.60192
  11   25788.1    387.8   0.001895748   0.02420   0.07496   0.11568   0.07212
  12   26250.6    380.9   0.180247294   2.26050  -0.12937  -1.49588  -0.07808
  13   27012.9    370.2   0.175606034   2.14015  -0.40394  -0.41547   1.34327
  14   27459.3    364.2   0.004744311   0.05688  -0.12219   0.18854  -0.08000
  15   27766.7    360.1   0.131567147   1.55991  -0.29209   1.18633   0.25925
  16   27918.6    358.2   0.014026219   0.16539   0.12643  -0.13837  -0.36092
  17   28340.8    352.8   0.010169250   0.11813   0.02539  -0.33665   0.06443
  18   28457.0    351.4   0.015352621   0.17761   0.12055  -0.14609   0.37648
  19   28999.5    344.8   0.040020027   0.45432   0.02451   0.15733  -0.65496
  20   29511.4    338.9   0.050321631   0.56136  -0.17380  -0.42246   0.59387
  21   29814.6    335.4   0.036657327   0.40477  -0.17717   0.60716   0.06878
  22   29940.5    334.0   0.145366798   1.59839   0.02056   0.55132   1.13755
  23   30248.9    330.6   0.411393807   4.47738   0.23461  -2.01101   0.61495
  24   30832.3    324.3   0.192434639   2.05472  -0.25381  -0.37890   1.35895
  25   30957.2    323.0   0.128534336   1.36689  -0.32499   0.41130  -1.04504
  26   31214.2    320.4   0.008832148   0.09315  -0.13968  -0.08508   0.25769
  27   32000.5    312.5   0.154823448   1.59278  -0.02730   0.61914   1.09941
  28   32126.7    311.3   0.504861147   5.17347  -0.14779   2.01421  -1.04622
  29   32636.3    306.4   0.026142831   0.26371   0.06572  -0.50605   0.05746
  30   32822.1    304.7   0.009812720   0.09842   0.16786  -0.24892   0.09102
  31   33049.6    302.6   0.104997998   1.04590  -0.52625  -0.15962   0.86225
  32   33197.2    301.2   0.015534965   0.15406   0.31344   0.12012  -0.20343
  33   33337.4    300.0   0.052045957   0.51396  -0.07953   0.44379  -0.55739
  34   33895.9    295.0   0.012621232   0.12258  -0.07760  -0.06820   0.33453
  35   33972.3    294.4   0.073542252   0.71267   0.40967  -0.46642  -0.57209
  36   34135.9    292.9   0.158994567   1.53337   0.10315   0.82783  -0.91511
  37   34208.9    292.3   0.078743057   0.75779  -0.55626   0.65875   0.12007
  38   34366.7    291.0   0.029666986   0.28419  -0.22614  -0.34270   0.34001
  39   34540.6    289.5   0.485763973   4.62989   0.35289  -2.08162   0.41497
  40   34719.0    288.0   0.170906351   1.62056   0.39668  -0.32378  -1.16549
  41   34878.8    286.7   0.153663026   1.45039  -0.55611  -0.97520   0.43602
  42   34996.7    285.7   0.109342130   1.02858  -0.55015   0.34263   0.78008
  43   35296.1    283.3   0.242180965   2.25886  -0.22559   0.02694  -1.48568
  44   35614.5    280.8   0.045102238   0.41691  -0.06342  -0.30773  -0.56409
  45   36001.2    277.8   0.117295227   1.07260  -0.42696   0.64248  -0.69103
  46   36096.9    277.0   0.068698371   0.62654  -0.38390   0.57397   0.38695
  47   36514.6    273.9   0.160632314   1.44825   0.23114   1.00118  -0.62647
  48   36671.5    272.7   0.014688350   0.13186  -0.01233   0.18559  -0.31187
  49   36818.8    271.6   0.005666316   0.05066  -0.14414   0.11443   0.12959
  50   37004.3    270.2   0.026587758   0.23654   0.03178   0.16746  -0.45551
  51   37254.6    268.4   0.025822502   0.22819   0.04834   0.28763   0.37831
  52   37413.8    267.3   0.050435974   0.44380   0.06903  -0.63397  -0.19266
  53   37465.5    266.9   0.034834540   0.30609   0.17314   0.40230  -0.33804
  54   37845.8    264.2   0.026877987   0.23381   0.19657   0.40890   0.16724
  55   38049.5    262.8   0.083677080   0.72399  -0.03821  -0.51456   0.67658
  56   38205.0    261.7   0.122220207   1.05317   0.32819   0.00464   0.97234
  57   38673.4    258.6   0.033494170   0.28512   0.01191  -0.49708   0.19467
  58   39005.7    256.4   0.074426848   0.62817   0.03116   0.44926  -0.65220
  59   39347.1    254.1   0.078109128   0.65353  -0.01398   0.44264   0.67632
  60   39516.1    253.1   0.072637194   0.60515  -0.05365   0.72173  -0.28526
  61   39832.9    251.0   0.046710735   0.38606   0.19291  -0.54352   0.23114
  62   39893.2    250.7   0.016082845   0.13272  -0.10544   0.26281  -0.22920
  63   40023.4    249.9   0.009398641   0.07731   0.13388   0.13369   0.20374
  64   40139.4    249.1   0.074459457   0.61069  -0.34413   0.16224  -0.68260
  65   40286.3    248.2   0.014707136   0.12018  -0.06153   0.33405  -0.06934
  66   40315.3    248.0   0.087243750   0.71243   0.07279   0.83931  -0.05188

FINAL SINGLE POINT ENERGY     -5303.279717652799

DIPOLE MOMENT
-------------
                                X             Y             Z
Electronic contribution:      6.17793      35.50874      13.09918
Nuclear contribution   :     -8.17417     -38.22121     -15.68494
                        -----------------------------------------
Total Dipole Moment    :     -1.99624      -2.71247      -2.58576
                        -----------------------------------------
Magnitude (a.u.)       :      4.24601
Magnitude (Debye)      :     10.79250

Rotational constants in cm-1:     0.000534     0.000255     0.000182
Rotational constants in MHz :    16.004881     7.658764     5.463333

                             ****ORCA TERMINATED NORMALLY****
TOTAL RUN TIME: 0 days 0 hours 13 minutes 39 seconds 440 msec
