                         Program Version 4.2.0 -  RELEASE  -
|  1> # ORCA input file
|  2> # SCF done       -201.918678103067          0.000643534410
|  3> ! CAM-B3LYP def2-SVP def2/J RIJCOSX Grid4 TightSCF
|  4> %maxcore 5000
|  5> %tddft
|  6>     Mode sTDDFT
|  7>     Ethresh 5.0
|  8>     maxcore 5000
|  9> end
| 10>
| 11> %pal
| 12>   nprocs 6
| 13>   end
| 14> * xyz 0 1
| 15>    C       -5.13485         4.63584        -7.24740
| 16>    C       -4.24704         3.64586        -6.95305
| 17>    C       -3.37277         4.03343        -5.91964
| 18>    C       -3.63367         5.32795        -5.45704
| 19>    S       -4.93651         6.06000        -6.28200
| 20>    C       -2.70841         5.63554        -4.41837
| 21>    C       -1.86803         4.52927        -4.23141
| 22>    C       -2.26035         3.48175        -5.16639
| 23>    C       -1.70533         2.24333        -5.29799
| 24>    C       -0.63482         1.79998        -4.49194
| 25>    N        0.22716         1.41972        -3.83888
| 26>    C       -2.17439         1.30876        -6.24569
| 27>    N       -2.55245         0.54465        -7.01240
| 28>    C       -0.91881         4.72624        -3.22691
| 29>    C       -1.03245         5.98006        -2.65950
| 30>    S       -2.34364         6.91854        -3.35777
| 31>    C       -0.32059         6.56670        -1.57361
| 32>    O       -0.94173         7.54427        -0.89511
| 33>    C       -0.16426         7.90481         0.15394
| 34>    C        1.01080         7.14637         0.14512
| 35>    C        0.92190         6.30279        -0.99540
| 36>    C        1.96379         5.42569        -1.59270
| 37>    F        1.82182         5.29929        -2.92154
| 38>    F        3.20811         5.89832        -1.41731
| 39>    F        1.96524         4.17305        -1.09187
| 40>    O        1.92571         7.30131         1.10796
| 41>    C        2.88000         6.28524         1.37056
| 42>    C       -0.55788         8.90549         1.07502
| 43>    C       -1.68259         9.65106         0.94593
| 44>    C       -2.10299        10.64019         1.87163
| 45>    C       -1.57888        10.95410         3.11580
| 46>    C       -2.27213        11.99349         3.73170
| 47>    C       -3.33131        12.48883         2.95115
| 48>    S       -3.47941        11.65670         1.46729
| 49>    C       -3.95651        13.54671         3.65685
| 50>    C       -3.30367        13.71006         4.89195
| 51>    C       -2.22718        12.73821         4.98272
| 52>    C       -1.35780        12.55432         6.01676
| 53>    C       -1.41059        13.31816         7.20258
| 54>    N       -1.44316        13.92098         8.17687
| 55>    C       -0.34472        11.57301         5.97661
| 56>    N        0.47630        10.77293         5.94506
| 57>    C       -3.84390        14.73683         5.66636
| 58>    C       -4.88890        15.36849         5.01990
| 59>    S       -5.23246        14.65897         3.44563
| 60>    C       -5.73247        16.43444         5.43754
| 61>    O       -6.88355        16.59759         4.76409
| 62>    C       -7.58551        17.60184         5.34105
| 63>    C       -6.86192        18.11379         6.42270
| 64>    C       -5.64624        17.37997         6.46223
| 65>    C       -4.43178        17.62154         7.28490
| 66>    F       -3.30225        17.35293         6.60777
| 67>    F       -4.30532        18.89552         7.68233
| 68>    F       -4.38660        16.87251         8.40687
| 69>    O       -7.36767        19.09661         7.17789
| 70>    C       -6.95441        19.25305         8.52654
| 71>    C       -8.84012        18.02934         4.84238
| 72>    C       -9.42994        17.50735         3.73960
| 73>    C      -10.67363        17.93551         3.20791
| 74>    C      -11.54672        18.90253         3.67885
| 75>    C      -12.66300        19.04793         2.85640
| 76>    C      -12.64573        18.18896         1.74812
| 77>    S      -11.25804        17.19761         1.72267
| 78>    C      -13.81704        18.42780         0.97503
| 79>    C      -14.56752        19.43323         1.59680
| 80>    C      -13.87670        19.85649         2.79927
| 81>    C      -14.27272        20.80627         3.69536
| 82>    C      -15.47250        21.53182         3.54144
| 83>    N      -16.44703        22.12454         3.42234
| 84>    C      -13.51120        21.12387         4.83908
| 85>    N      -12.89544        21.38532         5.77069
| 86>    C      -15.74808        19.73727         0.89108
| 87>    C      -15.86696        18.97298        -0.22878
| 88>    S      -14.55345        17.86397        -0.45778
| 89>    H       -5.91156         4.62225        -7.98554
| 90>    H       -4.22604         2.69494        -7.45297
| 91>    H       -0.20498         3.98843        -2.91274
| 92>    H        3.12624         6.38425         2.42726
| 93>    H        3.78401         6.43402         0.77715
| 94>    H        2.47350         5.28934         1.18568
| 95>    H        0.12017         9.04167         1.90282
| 96>    H       -2.30865         9.50389         0.07659
| 97>    H       -0.74060        10.43852         3.54541
| 98>    H       -3.50406        14.99087         6.65215
| 99>    H       -7.83097        19.61642         9.06280
|100>    H       -6.15481        19.99170         8.60518
|101>    H       -6.62930        18.30720         8.96359
|102>    H       -9.29674        18.82705         5.40672
|103>    H       -8.92301        16.71645         3.20376
|104>    H      -11.36960        19.46658         4.57536
|105>    H      -16.46905        20.47646         1.18879
|106>    H      -16.65632        18.98586        -0.95326
|107> *
|108>
|109>                          ****END OF INPUT****

CARTESIAN COORDINATES (ANGSTROEM)
---------------------------------
  C     -5.134850    4.635840   -7.247400
  C     -4.247040    3.645860   -6.953050
  C     -3.372770    4.033430   -5.919640
  C     -3.633670    5.327950   -5.457040
  S     -4.936510    6.060000   -6.282000
  C     -2.708410    5.635540   -4.418370
  C     -1.868030    4.529270   -4.231410
  C     -2.260350    3.481750   -5.166390
  C     -1.705330    2.243330   -5.297990
  C     -0.634820    1.799980   -4.491940
  N      0.227160    1.419720   -3.838880
  C     -2.174390    1.308760   -6.245690
  N     -2.552450    0.544650   -7.012400
  C     -0.918810    4.726240   -3.226910
  C     -1.032450    5.980060   -2.659500
  S     -2.343640    6.918540   -3.357770
  C     -0.320590    6.566700   -1.573610
  O     -0.941730    7.544270   -0.895110
  C     -0.164260    7.904810    0.153940
  C      1.010800    7.146370    0.145120
  C      0.921900    6.302790   -0.995400
  C      1.963790    5.425690   -1.592700
  F      1.821820    5.299290   -2.921540
  F      3.208110    5.898320   -1.417310
  F      1.965240    4.173050   -1.091870
  O      1.925710    7.301310    1.107960
  C      2.880000    6.285240    1.370560
  C     -0.557880    8.905490    1.075020
  C     -1.682590    9.651060    0.945930
  C     -2.102990   10.640190    1.871630
  C     -1.578880   10.954100    3.115800
  C     -2.272130   11.993490    3.731700
  C     -3.331310   12.488830    2.951150
  S     -3.479410   11.656700    1.467290
  C     -3.956510   13.546710    3.656850
  C     -3.303670   13.710060    4.891950
  C     -2.227180   12.738210    4.982720
  C     -1.357800   12.554320    6.016760
  C     -1.410590   13.318160    7.202580
  N     -1.443160   13.920980    8.176870
  C     -0.344720   11.573010    5.976610
  N      0.476300   10.772930    5.945060
  C     -3.843900   14.736830    5.666360
  C     -4.888900   15.368490    5.019900
  S     -5.232460   14.658970    3.445630
  C     -5.732470   16.434440    5.437540
  O     -6.883550   16.597590    4.764090
  C     -7.585510   17.601840    5.341050
  C     -6.861920   18.113790    6.422700
  C     -5.646240   17.379970    6.462230
  C     -4.431780   17.621540    7.284900
  F     -3.302250   17.352930    6.607770
  F     -4.305320   18.895520    7.682330
  F     -4.386600   16.872510    8.406870
  O     -7.367670   19.096610    7.177890
  C     -6.954410   19.253050    8.526540
  C     -8.840120   18.029340    4.842380
  C     -9.429940   17.507350    3.739600
  C    -10.673630   17.935510    3.207910
  C    -11.546720   18.902530    3.678850
  C    -12.663000   19.047930    2.856400
  C    -12.645730   18.188960    1.748120
  S    -11.258040   17.197610    1.722670
  C    -13.817040   18.427800    0.975030
  C    -14.567520   19.433230    1.596800
  C    -13.876700   19.856490    2.799270
  C    -14.272720   20.806270    3.695360
  C    -15.472500   21.531820    3.541440
  N    -16.447030   22.124540    3.422340
  C    -13.511200   21.123870    4.839080
  N    -12.895440   21.385320    5.770690
  C    -15.748080   19.737270    0.891080
  C    -15.866960   18.972980   -0.228780
  S    -14.553450   17.863970   -0.457780
  H     -5.911560    4.622250   -7.985540
  H     -4.226040    2.694940   -7.452970
  H     -0.204980    3.988430   -2.912740
  H      3.126240    6.384250    2.427260
  H      3.784010    6.434020    0.777150
  H      2.473500    5.289340    1.185680
  H      0.120170    9.041670    1.902820
  H     -2.308650    9.503890    0.076590
  H     -0.740600   10.438520    3.545410
  H     -3.504060   14.990870    6.652150
  H     -7.830970   19.616420    9.062800
  H     -6.154810   19.991700    8.605180
  H     -6.629300   18.307200    8.963590
  H     -9.296740   18.827050    5.406720
  H     -8.923010   16.716450    3.203760
  H    -11.369600   19.466580    4.575360
  H    -16.469050   20.476460    1.188790
  H    -16.656320   18.985860   -0.953260

 Total Charge           Charge          ....    0
 Multiplicity           Mult            ....    1
 Number of Electrons    NEL             ....  554
 Basis Dimension        Dim             .... 1150

ORBITAL ENERGIES
----------------

  NO   OCC          E(Eh)            E(eV)
   0   2.0000     -88.994773     -2421.6709
   1   2.0000     -88.991015     -2421.5686
   2   2.0000     -88.990553     -2421.5561
   3   2.0000     -88.986289     -2421.4400
   4   2.0000     -88.982066     -2421.3251
   5   2.0000     -88.980858     -2421.2922
   6   2.0000     -24.810904      -675.1390
   7   2.0000     -24.809023      -675.0878
   8   2.0000     -24.808348      -675.0695
   9   2.0000     -24.807228      -675.0390
  10   2.0000     -24.804401      -674.9621
  11   2.0000     -24.803052      -674.9254
  12   2.0000     -19.317495      -525.6558
  13   2.0000     -19.313005      -525.5336
  14   2.0000     -19.268296      -524.3170
  15   2.0000     -19.262880      -524.1696
  16   2.0000     -14.430781      -392.6815
  17   2.0000     -14.430339      -392.6695
  18   2.0000     -14.429364      -392.6430
  19   2.0000     -14.427881      -392.6026
  20   2.0000     -14.424424      -392.5085
  21   2.0000     -14.423897      -392.4942
  22   2.0000     -10.534101      -286.6475
  23   2.0000     -10.530088      -286.5383
  24   2.0000     -10.374092      -282.2934
  25   2.0000     -10.369115      -282.1580
  26   2.0000     -10.365605      -282.0624
  27   2.0000     -10.363044      -281.9928
  28   2.0000     -10.361137      -281.9409
  29   2.0000     -10.356791      -281.8226
  30   2.0000     -10.355960      -281.8000
  31   2.0000     -10.353032      -281.7203
  32   2.0000     -10.350414      -281.6491
  33   2.0000     -10.344994      -281.5016
  34   2.0000     -10.339461      -281.3510
  35   2.0000     -10.335982      -281.2564
  36   2.0000     -10.335167      -281.2342
  37   2.0000     -10.333558      -281.1904
  38   2.0000     -10.332397      -281.1588
  39   2.0000     -10.332060      -281.1496
  40   2.0000     -10.331662      -281.1388
  41   2.0000     -10.331049      -281.1221
  42   2.0000     -10.330377      -281.1039
  43   2.0000     -10.329921      -281.0914
  44   2.0000     -10.328947      -281.0649
  45   2.0000     -10.327874      -281.0357
  46   2.0000     -10.327106      -281.0148
  47   2.0000     -10.326662      -281.0028
  48   2.0000     -10.325263      -280.9647
  49   2.0000     -10.324551      -280.9453
  50   2.0000     -10.324264      -280.9375
  51   2.0000     -10.321826      -280.8712
  52   2.0000     -10.320447      -280.8337
  53   2.0000     -10.315731      -280.7053
  54   2.0000     -10.315034      -280.6864
  55   2.0000     -10.311179      -280.5814
  56   2.0000     -10.308097      -280.4976
  57   2.0000     -10.306332      -280.4495
  58   2.0000     -10.305541      -280.4280
  59   2.0000     -10.305254      -280.4202
  60   2.0000     -10.303931      -280.3842
  61   2.0000     -10.303280      -280.3665
  62   2.0000     -10.302473      -280.3445
  63   2.0000     -10.300680      -280.2958
  64   2.0000     -10.300627      -280.2943
  65   2.0000     -10.295553      -280.1562
  66   2.0000     -10.295350      -280.1507
  67   2.0000     -10.295084      -280.1435
  68   2.0000     -10.292479      -280.0726
  69   2.0000     -10.292179      -280.0644
  70   2.0000     -10.291813      -280.0545
  71   2.0000     -10.290076      -280.0072
  72   2.0000     -10.289617      -279.9947
  73   2.0000     -10.287813      -279.9456
  74   2.0000      -8.089395      -220.1236
  75   2.0000      -8.086111      -220.0343
  76   2.0000      -8.084901      -220.0013
  77   2.0000      -8.081061      -219.8968
  78   2.0000      -8.077081      -219.7885
  79   2.0000      -8.075643      -219.7494
  80   2.0000      -6.058645      -164.8641
  81   2.0000      -6.055369      -164.7750
  82   2.0000      -6.054434      -164.7495
  83   2.0000      -6.054207      -164.7434
  84   2.0000      -6.051740      -164.6762
  85   2.0000      -6.050923      -164.6540
  86   2.0000      -6.050244      -164.6355
  87   2.0000      -6.049954      -164.6276
  88   2.0000      -6.048683      -164.5930
  89   2.0000      -6.047256      -164.5542
  90   2.0000      -6.046339      -164.5292
  91   2.0000      -6.046145      -164.5240
  92   2.0000      -6.044789      -164.4871
  93   2.0000      -6.043497      -164.4519
  94   2.0000      -6.041923      -164.4091
  95   2.0000      -6.040739      -164.3769
  96   2.0000      -6.039676      -164.3480
  97   2.0000      -6.038125      -164.3057
  98   2.0000      -1.399962       -38.0949
  99   2.0000      -1.396264       -37.9943
 100   2.0000      -1.301945       -35.4277
 101   2.0000      -1.299153       -35.3518
 102   2.0000      -1.298725       -35.3401
 103   2.0000      -1.294806       -35.2335
 104   2.0000      -1.239173       -33.7196
 105   2.0000      -1.234466       -33.5915
 106   2.0000      -1.171288       -31.8724
 107   2.0000      -1.165752       -31.7217
 108   2.0000      -1.046193       -28.4684
 109   2.0000      -1.042646       -28.3718
 110   2.0000      -1.035515       -28.1778
 111   2.0000      -1.022587       -27.8260
 112   2.0000      -1.020426       -27.7672
 113   2.0000      -1.015282       -27.6272
 114   2.0000      -1.008102       -27.4318
 115   2.0000      -1.006235       -27.3810
 116   2.0000      -1.001863       -27.2621
 117   2.0000      -0.999631       -27.2013
 118   2.0000      -0.996631       -27.1197
 119   2.0000      -0.987266       -26.8649
 120   2.0000      -0.960742       -26.1431
 121   2.0000      -0.959336       -26.1049
 122   2.0000      -0.950644       -25.8683
 123   2.0000      -0.937096       -25.4997
 124   2.0000      -0.932934       -25.3864
 125   2.0000      -0.928351       -25.2617
 126   2.0000      -0.923282       -25.1238
 127   2.0000      -0.913558       -24.8592
 128   2.0000      -0.904676       -24.6175
 129   2.0000      -0.895994       -24.3812
 130   2.0000      -0.874914       -23.8076
 131   2.0000      -0.869946       -23.6724
 132   2.0000      -0.867413       -23.6035
 133   2.0000      -0.858162       -23.3518
 134   2.0000      -0.855004       -23.2658
 135   2.0000      -0.853421       -23.2228
 136   2.0000      -0.847736       -23.0681
 137   2.0000      -0.844742       -22.9866
 138   2.0000      -0.830093       -22.5880
 139   2.0000      -0.824612       -22.4388
 140   2.0000      -0.807462       -21.9722
 141   2.0000      -0.799043       -21.7431
 142   2.0000      -0.794991       -21.6328
 143   2.0000      -0.793657       -21.5965
 144   2.0000      -0.780761       -21.2456
 145   2.0000      -0.774855       -21.0849
 146   2.0000      -0.770425       -20.9643
 147   2.0000      -0.766765       -20.8647
 148   2.0000      -0.751549       -20.4507
 149   2.0000      -0.734116       -19.9763
 150   2.0000      -0.725076       -19.7303
 151   2.0000      -0.721896       -19.6438
 152   2.0000      -0.708602       -19.2820
 153   2.0000      -0.702890       -19.1266
 154   2.0000      -0.699571       -19.0363
 155   2.0000      -0.698232       -18.9999
 156   2.0000      -0.696638       -18.9565
 157   2.0000      -0.695637       -18.9292
 158   2.0000      -0.684502       -18.6262
 159   2.0000      -0.682606       -18.5747
 160   2.0000      -0.680749       -18.5241
 161   2.0000      -0.679283       -18.4842
 162   2.0000      -0.677003       -18.4222
 163   2.0000      -0.671757       -18.2794
 164   2.0000      -0.669509       -18.2183
 165   2.0000      -0.665527       -18.1099
 166   2.0000      -0.661259       -17.9938
 167   2.0000      -0.652879       -17.7657
 168   2.0000      -0.643376       -17.5071
 169   2.0000      -0.635733       -17.2992
 170   2.0000      -0.629233       -17.1223
 171   2.0000      -0.623636       -16.9700
 172   2.0000      -0.622293       -16.9334
 173   2.0000      -0.618741       -16.8368
 174   2.0000      -0.615808       -16.7570
 175   2.0000      -0.612039       -16.6544
 176   2.0000      -0.608576       -16.5602
 177   2.0000      -0.607865       -16.5409
 178   2.0000      -0.604477       -16.4486
 179   2.0000      -0.597613       -16.2619
 180   2.0000      -0.592975       -16.1357
 181   2.0000      -0.588267       -16.0076
 182   2.0000      -0.587710       -15.9924
 183   2.0000      -0.581101       -15.8126
 184   2.0000      -0.574933       -15.6447
 185   2.0000      -0.565004       -15.3746
 186   2.0000      -0.561111       -15.2686
 187   2.0000      -0.558310       -15.1924
 188   2.0000      -0.557063       -15.1584
 189   2.0000      -0.553998       -15.0751
 190   2.0000      -0.553373       -15.0580
 191   2.0000      -0.552757       -15.0413
 192   2.0000      -0.549584       -14.9549
 193   2.0000      -0.548458       -14.9243
 194   2.0000      -0.546523       -14.8716
 195   2.0000      -0.545267       -14.8375
 196   2.0000      -0.543623       -14.7927
 197   2.0000      -0.543382       -14.7862
 198   2.0000      -0.540508       -14.7080
 199   2.0000      -0.538303       -14.6480
 200   2.0000      -0.534425       -14.5424
 201   2.0000      -0.520732       -14.1698
 202   2.0000      -0.516749       -14.0615
 203   2.0000      -0.514697       -14.0056
 204   2.0000      -0.513401       -13.9704
 205   2.0000      -0.511970       -13.9314
 206   2.0000      -0.509171       -13.8553
 207   2.0000      -0.506132       -13.7725
 208   2.0000      -0.504827       -13.7370
 209   2.0000      -0.504231       -13.7208
 210   2.0000      -0.502705       -13.6793
 211   2.0000      -0.498190       -13.5564
 212   2.0000      -0.497550       -13.5390
 213   2.0000      -0.496154       -13.5010
 214   2.0000      -0.495029       -13.4704
 215   2.0000      -0.493889       -13.4394
 216   2.0000      -0.493247       -13.4219
 217   2.0000      -0.490943       -13.3592
 218   2.0000      -0.487225       -13.2581
 219   2.0000      -0.486607       -13.2413
 220   2.0000      -0.484843       -13.1933
 221   2.0000      -0.482328       -13.1248
 222   2.0000      -0.480329       -13.0704
 223   2.0000      -0.479706       -13.0535
 224   2.0000      -0.475311       -12.9339
 225   2.0000      -0.474889       -12.9224
 226   2.0000      -0.472339       -12.8530
 227   2.0000      -0.468512       -12.7488
 228   2.0000      -0.462712       -12.5910
 229   2.0000      -0.461609       -12.5610
 230   2.0000      -0.461418       -12.5558
 231   2.0000      -0.459973       -12.5165
 232   2.0000      -0.457877       -12.4595
 233   2.0000      -0.457230       -12.4419
 234   2.0000      -0.455980       -12.4078
 235   2.0000      -0.455624       -12.3982
 236   2.0000      -0.453448       -12.3389
 237   2.0000      -0.451562       -12.2876
 238   2.0000      -0.450207       -12.2508
 239   2.0000      -0.447065       -12.1653
 240   2.0000      -0.446119       -12.1395
 241   2.0000      -0.443751       -12.0751
 242   2.0000      -0.441343       -12.0096
 243   2.0000      -0.440555       -11.9881
 244   2.0000      -0.439470       -11.9586
 245   2.0000      -0.439123       -11.9491
 246   2.0000      -0.438841       -11.9415
 247   2.0000      -0.436593       -11.8803
 248   2.0000      -0.434869       -11.8334
 249   2.0000      -0.434624       -11.8267
 250   2.0000      -0.431994       -11.7552
 251   2.0000      -0.429885       -11.6978
 252   2.0000      -0.426767       -11.6129
 253   2.0000      -0.424398       -11.5484
 254   2.0000      -0.419950       -11.4274
 255   2.0000      -0.419899       -11.4260
 256   2.0000      -0.418925       -11.3995
 257   2.0000      -0.415357       -11.3024
 258   2.0000      -0.412739       -11.2312
 259   2.0000      -0.401168       -10.9163
 260   2.0000      -0.396096       -10.7783
 261   2.0000      -0.387212       -10.5366
 262   2.0000      -0.375716       -10.2237
 263   2.0000      -0.355890        -9.6843
 264   2.0000      -0.352254        -9.5853
 265   2.0000      -0.350048        -9.5253
 266   2.0000      -0.348457        -9.4820
 267   2.0000      -0.346645        -9.4327
 268   2.0000      -0.340021        -9.2525
 269   2.0000      -0.323648        -8.8069
 270   2.0000      -0.321314        -8.7434
 271   2.0000      -0.317018        -8.6265
 272   2.0000      -0.314174        -8.5491
 273   2.0000      -0.296291        -8.0625
 274   2.0000      -0.278920        -7.5898
 275   2.0000      -0.246169        -6.6986
 276   2.0000      -0.226626        -6.1668
 277   0.0000      -0.105911        -2.8820
 278   0.0000      -0.102447        -2.7877
 279   0.0000      -0.095357        -2.5948
 280   0.0000      -0.061370        -1.6700
 281   0.0000      -0.046627        -1.2688

MULLIKEN ATOMIC CHARGES
-----------------------
   0 C :   -0.079995
   1 C :    0.037010
   2 C :   -0.030681
   3 C :   -0.119283
   4 S :    0.182652
   5 C :   -0.091832
   6 C :   -0.013930
   7 C :    0.302074
   8 C :   -0.295206
   9 C :   -0.189567
  10 N :    0.178622
  11 C :   -0.192151
  12 N :    0.173415
  13 C :   -0.007115
  14 C :   -0.139765
  15 S :    0.211435
  16 C :    0.169136
  17 O :   -0.202892
  18 C :    0.096697
  19 C :    0.146417
  20 C :   -0.190989
  21 C :    0.525635
  22 F :   -0.154954
  23 F :   -0.158242
  24 F :   -0.162231
  25 O :   -0.294209
  26 C :    0.174438
  27 C :   -0.028245
  28 C :    0.034083
  29 C :   -0.068890
  30 C :   -0.038349
  31 C :    0.011983
  32 C :   -0.112330
  33 S :    0.182444
  34 C :   -0.090428
  35 C :   -0.008981
  36 C :    0.308202
  37 C :   -0.300343
  38 C :   -0.191196
  39 N :    0.179643
  40 C :   -0.187139
  41 N :    0.169200
  42 C :   -0.022431
  43 C :   -0.135309
  44 S :    0.207764
  45 C :    0.175590
  46 O :   -0.206267
  47 C :    0.103718
  48 C :    0.142468
  49 C :   -0.198111
  50 C :    0.529748
  51 F :   -0.158599
  52 F :   -0.155176
  53 F :   -0.163662
  54 O :   -0.299166
  55 C :    0.172701
  56 C :   -0.035159
  57 C :    0.039001
  58 C :   -0.071985
  59 C :   -0.037233
  60 C :    0.007150
  61 C :   -0.110292
  62 S :    0.176723
  63 C :   -0.115027
  64 C :   -0.035804
  65 C :    0.301436
  66 C :   -0.302260
  67 C :   -0.191824
  68 N :    0.171503
  69 C :   -0.183409
  70 N :    0.163528
  71 C :    0.036363
  72 C :   -0.085195
  73 S :    0.172975
  74 H :    0.038675
  75 H :    0.013149
  76 H :    0.014313
  77 H :    0.043275
  78 H :    0.045063
  79 H :    0.031068
  80 H :    0.014285
  81 H :   -0.013099
  82 H :    0.005795
  83 H :    0.014563
  84 H :    0.042049
  85 H :    0.046334
  86 H :    0.029940
  87 H :    0.012703
  88 H :   -0.014527
  89 H :    0.004026
  90 H :    0.010390
  91 H :    0.034094
Sum of atomic charges:   -0.0000000

LOEWDIN ATOMIC CHARGES
----------------------
   0 C :   -0.175327
   1 C :   -0.033901
   2 C :   -0.072850
   3 C :   -0.187089
   4 S :    0.477863
   5 C :   -0.176480
   6 C :   -0.072681
   7 C :    0.081431
   8 C :   -0.100462
   9 C :   -0.019030
  10 N :   -0.027882
  11 C :   -0.016509
  12 N :   -0.032033
  13 C :   -0.012974
  14 C :   -0.192829
  15 S :    0.491340
  16 C :    0.042148
  17 O :    0.020704
  18 C :   -0.009274
  19 C :    0.033753
  20 C :   -0.162422
  21 C :    0.170648
  22 F :   -0.047437
  23 F :   -0.050921
  24 F :   -0.064354
  25 O :   -0.088532
  26 C :    0.081491
  27 C :   -0.018705
  28 C :   -0.056380
  29 C :   -0.155408
  30 C :   -0.034020
  31 C :   -0.061464
  32 C :   -0.196318
  33 S :    0.469919
  34 C :   -0.171406
  35 C :   -0.077370
  36 C :    0.082553
  37 C :   -0.101750
  38 C :   -0.019336
  39 N :   -0.027518
  40 C :   -0.014701
  41 N :   -0.036227
  42 C :   -0.014223
  43 C :   -0.193286
  44 S :    0.486114
  45 C :    0.041921
  46 O :    0.018475
  47 C :   -0.007608
  48 C :    0.031173
  49 C :   -0.163570
  50 C :    0.170679
  51 F :   -0.050302
  52 F :   -0.047703
  53 F :   -0.065873
  54 O :   -0.092286
  55 C :    0.081981
  56 C :   -0.023158
  57 C :   -0.055126
  58 C :   -0.160117
  59 C :   -0.033516
  60 C :   -0.066773
  61 C :   -0.194214
  62 S :    0.469046
  63 C :   -0.179202
  64 C :   -0.082509
  65 C :    0.085494
  66 C :   -0.107649
  67 C :   -0.016828
  68 N :   -0.036706
  69 C :   -0.015370
  70 N :   -0.039475
  71 C :   -0.034317
  72 C :   -0.183004
  73 S :    0.470882
  74 H :    0.028422
  75 H :    0.043084
  76 H :    0.038185
  77 H :    0.031049
  78 H :    0.020360
  79 H :    0.017573
  80 H :    0.043426
  81 H :    0.027678
  82 H :    0.038465
  83 H :    0.036942
  84 H :    0.029538
  85 H :    0.020599
  86 H :    0.017450
  87 H :    0.042987
  88 H :    0.027022
  89 H :    0.037865
  90 H :    0.041901
  91 H :    0.026243

  Mayer bond orders larger than 0.100000
B(  0-C ,  1-C ) :   1.5493 B(  0-C ,  4-S ) :   1.1520 B(  0-C , 74-H ) :   0.9641
B(  1-C ,  2-C ) :   1.2776 B(  1-C , 75-H ) :   0.9955 B(  2-C ,  3-C ) :   1.4596
B(  2-C ,  7-C ) :   1.0155 B(  3-C ,  4-S ) :   1.1340 B(  3-C ,  5-C ) :   1.1808
B(  5-C ,  6-C ) :   1.4529 B(  5-C , 15-S ) :   1.1309 B(  6-C ,  7-C ) :   0.9902
B(  6-C , 13-C ) :   1.3083 B(  7-C ,  8-C ) :   1.7118 B(  8-C ,  9-C ) :   1.1335
B(  8-C , 11-C ) :   1.1325 B(  9-C , 10-N ) :   2.9893 B( 11-C , 12-N ) :   3.0004
B( 13-C , 14-C ) :   1.4893 B( 13-C , 76-H ) :   0.9789 B( 14-C , 15-S ) :   1.0934
B( 14-C , 16-C ) :   1.0908 B( 16-C , 17-O ) :   1.2084 B( 16-C , 18-C ) :   0.1228
B( 16-C , 20-C ) :   1.4686 B( 17-O , 18-C ) :   1.0947 B( 18-C , 19-C ) :   1.3946
B( 18-C , 27-C ) :   1.1865 B( 19-C , 20-C ) :   1.2120 B( 19-C , 25-O ) :   1.2424
B( 20-C , 21-C ) :   0.9457 B( 21-C , 22-F ) :   1.1597 B( 21-C , 23-F ) :   1.1547
B( 21-C , 24-F ) :   1.1449 B( 25-O , 26-C ) :   0.9161 B( 26-C , 77-H ) :   0.9779
B( 26-C , 78-H ) :   0.9740 B( 26-C , 79-H ) :   0.9637 B( 27-C , 28-C ) :   1.6347
B( 27-C , 80-H ) :   0.9600 B( 28-C , 29-C ) :   1.1105 B( 28-C , 81-H ) :   0.9699
B( 29-C , 30-C ) :   1.4513 B( 29-C , 33-S ) :   1.1081 B( 30-C , 31-C ) :   1.3013
B( 30-C , 82-H ) :   0.9905 B( 31-C , 32-C ) :   1.4382 B( 31-C , 36-C ) :   0.9938
B( 32-C , 33-S ) :   1.1097 B( 32-C , 34-C ) :   1.1985 B( 34-C , 35-C ) :   1.4293
B( 34-C , 44-S ) :   1.1284 B( 35-C , 36-C ) :   0.9957 B( 35-C , 42-C ) :   1.3091
B( 36-C , 37-C ) :   1.7126 B( 37-C , 38-C ) :   1.1352 B( 37-C , 40-C ) :   1.1341
B( 38-C , 39-N ) :   2.9904 B( 40-C , 41-N ) :   2.9901 B( 42-C , 43-C ) :   1.4867
B( 42-C , 83-H ) :   0.9747 B( 43-C , 44-S ) :   1.0818 B( 43-C , 45-C ) :   1.1055
B( 45-C , 46-O ) :   1.2079 B( 45-C , 47-C ) :   0.1225 B( 45-C , 49-C ) :   1.4615
B( 46-O , 47-C ) :   1.0922 B( 47-C , 48-C ) :   1.3971 B( 47-C , 56-C ) :   1.1835
B( 48-C , 49-C ) :   1.2160 B( 48-C , 54-O ) :   1.2358 B( 49-C , 50-C ) :   0.9432
B( 50-C , 51-F ) :   1.1588 B( 50-C , 52-F ) :   1.1575 B( 50-C , 53-F ) :   1.1444
B( 54-O , 55-C ) :   0.9178 B( 55-C , 84-H ) :   0.9781 B( 55-C , 85-H ) :   0.9756
B( 55-C , 86-H ) :   0.9650 B( 56-C , 57-C ) :   1.6410 B( 56-C , 87-H ) :   0.9603
B( 57-C , 58-C ) :   1.1065 B( 57-C , 88-H ) :   0.9688 B( 58-C , 59-C ) :   1.4600
B( 58-C , 62-S ) :   1.1073 B( 59-C , 60-C ) :   1.2958 B( 59-C , 89-H ) :   0.9913
B( 60-C , 61-C ) :   1.4557 B( 60-C , 65-C ) :   0.9940 B( 61-C , 62-S ) :   1.1173
B( 61-C , 63-C ) :   1.1832 B( 63-C , 64-C ) :   1.4584 B( 63-C , 73-S ) :   1.1384
B( 64-C , 65-C ) :   1.0216 B( 64-C , 71-C ) :   1.2716 B( 65-C , 66-C ) :   1.7048
B( 66-C , 67-C ) :   1.1302 B( 66-C , 69-C ) :   1.1338 B( 67-C , 68-N ) :   3.0029
B( 69-C , 70-N ) :   2.9875 B( 71-C , 72-C ) :   1.5542 B( 71-C , 90-H ) :   0.9964
B( 72-C , 73-S ) :   1.1418 B( 72-C , 91-H ) :   0.9643

-----------------------------------------------------------------------------
         ABSORPTION SPECTRUM VIA TRANSITION ELECTRIC DIPOLE MOMENTS
-----------------------------------------------------------------------------
State   Energy  Wavelength   fosc         T2         TX        TY        TZ
        (cm-1)    (nm)                  (au**2)     (au)      (au)      (au)
-----------------------------------------------------------------------------
   0   10482.0    954.0   0.223349085   7.01482  -1.50000   1.94496   0.99094
   1   12326.2    811.3   0.090040355   2.40483   1.32310  -0.36153   0.72356
   2   13481.0    741.8   0.105253354   2.57033  -0.44461  -0.86089  -1.27731
   3   17538.6    570.2   0.041149675   0.77241  -0.69831   0.04049  -0.53210
   4   19905.3    502.4   0.551457312   9.12051   1.75443  -2.21021  -1.07585
   5   20862.8    479.3   0.999345263  15.76954   2.66699  -2.79809  -0.90960
   6   22361.8    447.2   0.221678890   3.26357  -0.58379   1.35818   1.03832
   7   23667.0    422.5   0.139938591   1.94657  -0.78047  -0.36935  -1.09591
   8   24553.7    407.3   0.267412335   3.58541  -1.56689   0.24528  -1.03447
   9   24952.2    400.8   0.971567094  12.81854  -2.00871  -0.98947  -2.79367
  10   26562.2    376.5   0.001589687   0.01970  -0.06645  -0.04408  -0.11552
  11   28634.3    349.2   0.030812729   0.35426  -0.14207   0.41967   0.39743
  12   30156.0    331.6   0.004028951   0.04398   0.08161   0.10251   0.16375
  13   30385.6    329.1   0.035038577   0.37963  -0.43468   0.32930  -0.28677
  14   31167.3    320.8   0.022341043   0.23598  -0.00219   0.45776   0.16257
  15   31788.9    314.6   0.287141846   2.97370  -0.77911  -0.17133  -1.52883
  16   31979.2    312.7   0.335797315   3.45689   0.85901  -1.50815  -0.66669
  17   32093.5    311.6   0.271410985   2.78411   0.69832  -1.00944   1.13026
  18   32200.8    310.6   0.453349964   4.63493   0.43865  -1.74829  -1.17728
  19   32438.4    308.3   0.382144688   3.87832  -0.91826   1.58866   0.71504
  20   33143.7    301.7   0.077197162   0.76679  -0.03903   0.67392   0.55776
  21   33724.1    296.5   0.478258598   4.66872  -1.81615   0.90863  -0.73804
  22   34032.5    293.8   0.085676632   0.82879   0.62982  -0.58591  -0.29803
  23   34119.6    293.1   0.248935562   2.40192  -0.98854  -0.38599  -1.12948
  24   34831.4    287.1   0.395105304   3.73437   0.88175   0.76715   1.53895
  25   35285.2    283.4   0.197620208   1.84380  -1.24500   0.52687  -0.12724
  26   36195.8    276.3   0.153320083   1.39449  -0.75360  -0.41336  -0.80976
  27   36505.0    273.9   0.026700412   0.24079   0.19993  -0.44292  -0.06814
  28   37272.9    268.3   0.014829204   0.13098   0.32288  -0.15901   0.03797
  29   37586.2    266.1   0.033393525   0.29249   0.46280   0.01085   0.27962
  30   37870.7    264.1   0.083496689   0.72584   0.13285  -0.68213  -0.49284
  31   38040.0    262.9   0.040853867   0.35356   0.05743   0.36155   0.46856
  32   38209.9    261.7   0.340862564   2.93683   1.35798  -0.29235   1.00362
  33   38665.7    258.6   0.064142908   0.54613   0.57439  -0.31653   0.34061
  34   39104.8    255.7   0.001815648   0.01529   0.07827  -0.09482  -0.01301
  35   39441.2    253.5   0.031968965   0.26684  -0.10135  -0.38491  -0.32927
  36   39966.3    250.2   0.168387388   1.38705  -0.69249  -0.27243  -0.91284
  37   40212.3    248.7   0.000843734   0.00691   0.05502   0.06230  -0.00008

FINAL SINGLE POINT ENERGY     -5605.150580244839

DIPOLE MOMENT
-------------
                                X             Y             Z
Electronic contribution:     21.95892     -10.98218      -7.51991
Nuclear contribution   :    -23.10327      10.67360       5.11394
                        -----------------------------------------
Total Dipole Moment    :     -1.14435      -0.30858      -2.40596
                        -----------------------------------------
Magnitude (a.u.)       :      2.68205
Magnitude (Debye)      :      6.81724

Rotational constants in cm-1:     0.000865     0.000230     0.000183
Rotational constants in MHz :    25.934101     6.886587     5.485444

                             ****ORCA TERMINATED NORMALLY****
TOTAL RUN TIME: 0 days 0 hours 8 minutes 20 seconds 225 msec
