                         Program Version 4.2.0 -  RELEASE  -
|  1> # ORCA input file
|  2> # SCF done       -209.332794433948          0.000800049621
|  3> ! CAM-B3LYP def2-SVP def2/J RIJCOSX Grid4 TightSCF
|  4> %maxcore 5000
|  5> %tddft
|  6>     Mode sTDDFT
|  7>     Ethresh 5.0
|  8>     maxcore 5000
|  9> end
| 10>
| 11> %pal
| 12>   nprocs 6
| 13>   end
| 14> * xyz 0 1
| 15>    C        0.82270        -3.23170         9.35515
| 16>    C        1.20506        -3.83000        10.52332
| 17>    F        1.94886        -3.15786        11.41248
| 18>    C        0.82441        -5.15605        10.80764
| 19>    F        1.21271        -5.71900        11.96112
| 20>    C        0.06697        -5.86665         9.91910
| 21>    C       -0.34152        -5.27811         8.70707
| 22>    C        0.04109        -3.93661         8.41845
| 23>    C       -0.35823        -3.32331         7.20758
| 24>    C       -1.11505        -4.03092         6.31237
| 25>    C       -1.48666        -5.37140         6.60872
| 26>    C       -1.12055        -5.99045         7.76829
| 27>    C       -2.27458        -5.90843         5.48741
| 28>    O       -2.76065        -7.02944         5.43427
| 29>    C       -2.34427        -4.84861         4.48417
| 30>    C       -1.66758        -3.67782         5.00460
| 31>    C       -1.56572        -2.44045         4.42049
| 32>    C       -2.12864        -2.05975         3.18476
| 33>    N       -2.55975        -1.66400         2.19601
| 34>    C       -0.88515        -1.34987         5.00061
| 35>    N       -0.34501        -0.42575         5.41623
| 36>    C       -2.91136        -4.95592         3.23156
| 37>    C       -3.55879        -6.03244         2.62219
| 38>    C       -4.02689        -5.98345         1.29856
| 39>    C       -4.61464        -7.16471         0.89648
| 40>    C       -4.61446        -8.13747         1.93154
| 41>    S       -3.88387        -7.60023         3.37084
| 42>    C       -5.20633        -9.30799         1.43141
| 43>    C       -5.58236        -9.10780         0.08793
| 44>    C       -5.23162        -7.74463        -0.28638
| 45>    C       -5.43999        -7.14600        -1.49481
| 46>    C       -6.05662        -7.82369        -2.56691
| 47>    N       -6.55742        -8.38087        -3.43529
| 48>    C       -5.05611        -5.81305        -1.75130
| 49>    N       -4.74419        -4.73163        -1.96949
| 50>    C       -6.14855       -10.23940        -0.49136
| 51>    C       -6.21997       -11.30247         0.39844
| 52>    S       -5.56911       -10.88416         1.98342
| 53>    C       -6.68651       -12.62427         0.17452
| 54>    C       -6.76296       -13.53510         1.20427
| 55>    C       -7.12995       -14.86694         1.07846
| 56>    C       -7.62426       -15.39055        -0.20280
| 57>    C       -7.65381       -14.67176        -1.34587
| 58>    S       -7.11256       -13.04553        -1.48198
| 59>    C       -8.04262       -16.72081         0.07754
| 60>    C       -7.82288       -17.01068         1.42793
| 61>    C       -8.21487       -18.32659         1.76062
| 62>    C       -8.71280       -18.98534         0.68259
| 63>    S       -8.72401       -18.04671        -0.77458
| 64>    C       -7.22401       -15.87212         2.06489
| 65>    C       -6.83876       -15.79700         3.42718
| 66>    C       -5.92086       -14.92740         3.92453
| 67>    C       -5.64730       -14.68690         5.29059
| 68>    C       -4.80290       -13.71166         5.78017
| 69>    C       -4.80125       -13.59067         7.17576
| 70>    C       -3.97049       -12.61506         7.88743
| 71>    C       -3.95875       -11.27943         7.45618
| 72>    C       -3.18605       -10.34110         8.13218
| 73>    C       -2.43014       -10.73309         9.21852
| 74>    C       -2.42315       -12.04595         9.65292
| 75>    C       -3.19436       -12.99130         8.99121
| 76>    O       -3.24625       -14.31476         9.33695
| 77>    C       -2.57498       -14.73367        10.49885
| 78>    O       -4.74002       -10.98812         6.38439
| 79>    C       -4.91792        -9.63590         6.02849
| 80>    C       -5.64412       -14.51242         7.78139
| 81>    S       -6.44175       -15.51394         6.60199
| 82>    C       -5.92881       -14.66460         9.17069
| 83>    C       -6.15289       -15.77064         9.93092
| 84>    C       -6.37606       -15.36448        11.31506
| 85>    N       -6.31510       -14.00380        11.37642
| 86>    C       -6.05611       -13.49587        10.10358
| 87>    O       -6.00000       -12.31676         9.85871
| 88>    C       -6.51703       -13.18388        12.53971
| 89>    C       -6.54121       -16.45689        12.08242
| 90>    C       -6.41175       -17.62132        11.18741
| 91>    O       -6.46115       -18.80040        11.44963
| 92>    N       -6.18282       -17.12992         9.89045
| 93>    C       -5.93122       -17.98976         8.76761
| 94>    H        1.12246        -2.21519         9.15345
| 95>    H       -0.21605        -6.88136        10.15118
| 96>    H       -0.04927        -2.30787         7.02135
| 97>    H       -1.41576        -7.00973         7.96642
| 98>    H       -2.83909        -4.08611         2.59010
| 99>    H       -3.91549        -5.10383         0.68912
|100>    H       -6.49740       -10.30872        -1.50609
|101>    H       -6.54083       -13.15604         2.19150
|102>    H       -8.01624       -15.07667        -2.27757
|103>    H       -8.13508       -18.76251         2.73975
|104>    H       -9.08485       -19.99033         0.64045
|105>    H       -7.31893       -16.48968         4.10790
|106>    H       -5.32674       -14.33095         3.24678
|107>    H       -4.20626       -13.08975         5.13837
|108>    H       -3.17481        -9.31152         7.81482
|109>    H       -1.83259       -10.00323         9.74447
|110>    H       -1.81976       -12.31816        10.50335
|111>    H       -2.81706       -15.78978        10.61396
|112>    H       -2.92011       -14.18686        11.38254
|113>    H       -1.49033       -14.62175        10.40274
|114>    H       -3.98113        -9.16389         5.72177
|115>    H       -5.36079        -9.06494         6.84958
|116>    H       -5.60690        -9.64712         5.18484
|117>    H       -5.77642       -13.41731        13.30723
|118>    H       -7.51678       -13.33810        12.95013
|119>    H       -6.40739       -12.14533        12.22914
|120>    H       -6.72150       -16.54653        13.13448
|121>    H       -5.91227       -19.01170         9.14629
|122>    H       -4.97132       -17.74849         8.30847
|123>    H       -6.71914       -17.89426         8.01781
|124> *
|125>
|126>                          ****END OF INPUT****

CARTESIAN COORDINATES (ANGSTROEM)
---------------------------------
  C      0.822700   -3.231700    9.355150
  C      1.205060   -3.830000   10.523320
  F      1.948860   -3.157860   11.412480
  C      0.824410   -5.156050   10.807640
  F      1.212710   -5.719000   11.961120
  C      0.066970   -5.866650    9.919100
  C     -0.341520   -5.278110    8.707070
  C      0.041090   -3.936610    8.418450
  C     -0.358230   -3.323310    7.207580
  C     -1.115050   -4.030920    6.312370
  C     -1.486660   -5.371400    6.608720
  C     -1.120550   -5.990450    7.768290
  C     -2.274580   -5.908430    5.487410
  O     -2.760650   -7.029440    5.434270
  C     -2.344270   -4.848610    4.484170
  C     -1.667580   -3.677820    5.004600
  C     -1.565720   -2.440450    4.420490
  C     -2.128640   -2.059750    3.184760
  N     -2.559750   -1.664000    2.196010
  C     -0.885150   -1.349870    5.000610
  N     -0.345010   -0.425750    5.416230
  C     -2.911360   -4.955920    3.231560
  C     -3.558790   -6.032440    2.622190
  C     -4.026890   -5.983450    1.298560
  C     -4.614640   -7.164710    0.896480
  C     -4.614460   -8.137470    1.931540
  S     -3.883870   -7.600230    3.370840
  C     -5.206330   -9.307990    1.431410
  C     -5.582360   -9.107800    0.087930
  C     -5.231620   -7.744630   -0.286380
  C     -5.439990   -7.146000   -1.494810
  C     -6.056620   -7.823690   -2.566910
  N     -6.557420   -8.380870   -3.435290
  C     -5.056110   -5.813050   -1.751300
  N     -4.744190   -4.731630   -1.969490
  C     -6.148550  -10.239400   -0.491360
  C     -6.219970  -11.302470    0.398440
  S     -5.569110  -10.884160    1.983420
  C     -6.686510  -12.624270    0.174520
  C     -6.762960  -13.535100    1.204270
  C     -7.129950  -14.866940    1.078460
  C     -7.624260  -15.390550   -0.202800
  C     -7.653810  -14.671760   -1.345870
  S     -7.112560  -13.045530   -1.481980
  C     -8.042620  -16.720810    0.077540
  C     -7.822880  -17.010680    1.427930
  C     -8.214870  -18.326590    1.760620
  C     -8.712800  -18.985340    0.682590
  S     -8.724010  -18.046710   -0.774580
  C     -7.224010  -15.872120    2.064890
  C     -6.838760  -15.797000    3.427180
  C     -5.920860  -14.927400    3.924530
  C     -5.647300  -14.686900    5.290590
  C     -4.802900  -13.711660    5.780170
  C     -4.801250  -13.590670    7.175760
  C     -3.970490  -12.615060    7.887430
  C     -3.958750  -11.279430    7.456180
  C     -3.186050  -10.341100    8.132180
  C     -2.430140  -10.733090    9.218520
  C     -2.423150  -12.045950    9.652920
  C     -3.194360  -12.991300    8.991210
  O     -3.246250  -14.314760    9.336950
  C     -2.574980  -14.733670   10.498850
  O     -4.740020  -10.988120    6.384390
  C     -4.917920   -9.635900    6.028490
  C     -5.644120  -14.512420    7.781390
  S     -6.441750  -15.513940    6.601990
  C     -5.928810  -14.664600    9.170690
  C     -6.152890  -15.770640    9.930920
  C     -6.376060  -15.364480   11.315060
  N     -6.315100  -14.003800   11.376420
  C     -6.056110  -13.495870   10.103580
  O     -6.000000  -12.316760    9.858710
  C     -6.517030  -13.183880   12.539710
  C     -6.541210  -16.456890   12.082420
  C     -6.411750  -17.621320   11.187410
  O     -6.461150  -18.800400   11.449630
  N     -6.182820  -17.129920    9.890450
  C     -5.931220  -17.989760    8.767610
  H      1.122460   -2.215190    9.153450
  H     -0.216050   -6.881360   10.151180
  H     -0.049270   -2.307870    7.021350
  H     -1.415760   -7.009730    7.966420
  H     -2.839090   -4.086110    2.590100
  H     -3.915490   -5.103830    0.689120
  H     -6.497400  -10.308720   -1.506090
  H     -6.540830  -13.156040    2.191500
  H     -8.016240  -15.076670   -2.277570
  H     -8.135080  -18.762510    2.739750
  H     -9.084850  -19.990330    0.640450
  H     -7.318930  -16.489680    4.107900
  H     -5.326740  -14.330950    3.246780
  H     -4.206260  -13.089750    5.138370
  H     -3.174810   -9.311520    7.814820
  H     -1.832590  -10.003230    9.744470
  H     -1.819760  -12.318160   10.503350
  H     -2.817060  -15.789780   10.613960
  H     -2.920110  -14.186860   11.382540
  H     -1.490330  -14.621750   10.402740
  H     -3.981130   -9.163890    5.721770
  H     -5.360790   -9.064940    6.849580
  H     -5.606900   -9.647120    5.184840
  H     -5.776420  -13.417310   13.307230
  H     -7.516780  -13.338100   12.950130
  H     -6.407390  -12.145330   12.229140
  H     -6.721500  -16.546530   13.134480
  H     -5.912270  -19.011700    9.146290
  H     -4.971320  -17.748490    8.308470
  H     -6.719140  -17.894260    8.017810

 Total Charge           Charge          ....    0
 Multiplicity           Mult            ....    1
 Number of Electrons    NEL             ....  576
 Basis Dimension        Dim             .... 1276

ORBITAL ENERGIES
----------------

  NO   OCC          E(Eh)            E(eV)
   0   2.0000     -88.996176     -2421.7091
   1   2.0000     -88.993610     -2421.6392
   2   2.0000     -88.978959     -2421.2406
   3   2.0000     -88.960864     -2420.7482
   4   2.0000     -88.950832     -2420.4752
   5   2.0000     -24.801112      -674.8726
   6   2.0000     -24.799703      -674.8342
   7   2.0000     -19.244930      -523.6812
   8   2.0000     -19.239658      -523.5377
   9   2.0000     -19.230934      -523.3003
  10   2.0000     -19.204744      -522.5876
  11   2.0000     -19.197283      -522.3846
  12   2.0000     -14.459205      -393.4550
  13   2.0000     -14.454294      -393.3213
  14   2.0000     -14.435215      -392.8022
  15   2.0000     -14.433985      -392.7687
  16   2.0000     -14.418343      -392.3431
  17   2.0000     -14.415630      -392.2692
  18   2.0000     -10.385351      -282.5998
  19   2.0000     -10.384279      -282.5706
  20   2.0000     -10.383458      -282.5483
  21   2.0000     -10.379257      -282.4339
  22   2.0000     -10.378275      -282.4072
  23   2.0000     -10.370734      -282.2020
  24   2.0000     -10.358940      -281.8811
  25   2.0000     -10.344592      -281.4907
  26   2.0000     -10.343088      -281.4497
  27   2.0000     -10.340853      -281.3889
  28   2.0000     -10.340181      -281.3706
  29   2.0000     -10.335466      -281.2423
  30   2.0000     -10.335176      -281.2344
  31   2.0000     -10.333828      -281.1978
  32   2.0000     -10.333457      -281.1877
  33   2.0000     -10.331989      -281.1477
  34   2.0000     -10.331463      -281.1334
  35   2.0000     -10.330027      -281.0943
  36   2.0000     -10.329972      -281.0928
  37   2.0000     -10.329834      -281.0891
  38   2.0000     -10.327229      -281.0182
  39   2.0000     -10.326014      -280.9851
  40   2.0000     -10.324836      -280.9531
  41   2.0000     -10.320901      -280.8460
  42   2.0000     -10.319644      -280.8118
  43   2.0000     -10.318920      -280.7921
  44   2.0000     -10.317500      -280.7535
  45   2.0000     -10.314870      -280.6819
  46   2.0000     -10.313505      -280.6447
  47   2.0000     -10.313088      -280.6334
  48   2.0000     -10.312626      -280.6208
  49   2.0000     -10.310107      -280.5523
  50   2.0000     -10.310034      -280.5503
  51   2.0000     -10.307652      -280.4855
  52   2.0000     -10.307022      -280.4683
  53   2.0000     -10.304603      -280.4025
  54   2.0000     -10.304499      -280.3997
  55   2.0000     -10.304340      -280.3954
  56   2.0000     -10.303023      -280.3595
  57   2.0000     -10.302320      -280.3404
  58   2.0000     -10.302075      -280.3337
  59   2.0000     -10.301768      -280.3254
  60   2.0000     -10.300631      -280.2944
  61   2.0000     -10.300513      -280.2912
  62   2.0000     -10.297275      -280.2031
  63   2.0000     -10.294465      -280.1266
  64   2.0000     -10.292975      -280.0861
  65   2.0000     -10.292685      -280.0782
  66   2.0000     -10.286881      -279.9203
  67   2.0000     -10.283466      -279.8273
  68   2.0000     -10.283215      -279.8205
  69   2.0000     -10.278926      -279.7038
  70   2.0000     -10.278435      -279.6904
  71   2.0000     -10.278301      -279.6868
  72   2.0000     -10.277568      -279.6668
  73   2.0000     -10.275125      -279.6004
  74   2.0000     -10.270275      -279.4684
  75   2.0000     -10.267229      -279.3855
  76   2.0000     -10.265534      -279.3394
  77   2.0000     -10.258389      -279.1450
  78   2.0000     -10.256631      -279.0971
  79   2.0000      -8.090239      -220.1466
  80   2.0000      -8.085712      -220.0234
  81   2.0000      -8.074084      -219.7070
  82   2.0000      -8.056279      -219.2225
  83   2.0000      -8.046033      -218.9437
  84   2.0000      -6.059570      -164.8893
  85   2.0000      -6.055443      -164.7770
  86   2.0000      -6.055189      -164.7701
  87   2.0000      -6.052471      -164.6961
  88   2.0000      -6.050423      -164.6404
  89   2.0000      -6.048221      -164.5805
  90   2.0000      -6.043794      -164.4600
  91   2.0000      -6.039241      -164.3361
  92   2.0000      -6.035709      -164.2400
  93   2.0000      -6.025743      -163.9688
  94   2.0000      -6.021460      -163.8522
  95   2.0000      -6.018289      -163.7660
  96   2.0000      -6.015274      -163.6839
  97   2.0000      -6.011406      -163.5787
  98   2.0000      -6.008057      -163.4875
  99   2.0000      -1.323021       -36.0012
 100   2.0000      -1.308169       -35.5971
 101   2.0000      -1.149782       -31.2872
 102   2.0000      -1.145159       -31.1614
 103   2.0000      -1.144864       -31.1533
 104   2.0000      -1.144073       -31.1318
 105   2.0000      -1.135212       -30.8907
 106   2.0000      -1.079318       -29.3697
 107   2.0000      -1.051834       -28.6218
 108   2.0000      -1.046948       -28.4889
 109   2.0000      -1.026668       -27.9371
 110   2.0000      -1.022469       -27.8228
 111   2.0000      -1.013192       -27.5704
 112   2.0000      -1.011461       -27.5232
 113   2.0000      -1.007303       -27.4101
 114   2.0000      -1.004197       -27.3256
 115   2.0000      -0.995506       -27.0891
 116   2.0000      -0.985351       -26.8128
 117   2.0000      -0.981854       -26.7176
 118   2.0000      -0.977263       -26.5927
 119   2.0000      -0.961748       -26.1705
 120   2.0000      -0.939839       -25.5743
 121   2.0000      -0.936928       -25.4951
 122   2.0000      -0.932705       -25.3802
 123   2.0000      -0.922992       -25.1159
 124   2.0000      -0.917446       -24.9650
 125   2.0000      -0.907089       -24.6831
 126   2.0000      -0.902132       -24.5483
 127   2.0000      -0.896722       -24.4010
 128   2.0000      -0.893126       -24.3032
 129   2.0000      -0.884609       -24.0714
 130   2.0000      -0.880843       -23.9690
 131   2.0000      -0.869504       -23.6604
 132   2.0000      -0.864971       -23.5371
 133   2.0000      -0.860902       -23.4263
 134   2.0000      -0.847826       -23.0705
 135   2.0000      -0.843788       -22.9606
 136   2.0000      -0.838607       -22.8197
 137   2.0000      -0.831636       -22.6300
 138   2.0000      -0.826208       -22.4823
 139   2.0000      -0.813500       -22.1365
 140   2.0000      -0.810738       -22.0613
 141   2.0000      -0.804407       -21.8890
 142   2.0000      -0.791548       -21.5391
 143   2.0000      -0.785358       -21.3707
 144   2.0000      -0.782638       -21.2967
 145   2.0000      -0.777520       -21.1574
 146   2.0000      -0.772110       -21.0102
 147   2.0000      -0.768934       -20.9238
 148   2.0000      -0.763840       -20.7851
 149   2.0000      -0.753423       -20.5017
 150   2.0000      -0.745201       -20.2780
 151   2.0000      -0.730611       -19.8809
 152   2.0000      -0.728337       -19.8191
 153   2.0000      -0.720111       -19.5952
 154   2.0000      -0.711472       -19.3601
 155   2.0000      -0.704920       -19.1819
 156   2.0000      -0.701113       -19.0783
 157   2.0000      -0.694713       -18.9041
 158   2.0000      -0.689476       -18.7616
 159   2.0000      -0.687180       -18.6991
 160   2.0000      -0.680754       -18.5243
 161   2.0000      -0.670845       -18.2546
 162   2.0000      -0.665571       -18.1111
 163   2.0000      -0.663405       -18.0522
 164   2.0000      -0.663095       -18.0437
 165   2.0000      -0.653375       -17.7792
 166   2.0000      -0.648686       -17.6516
 167   2.0000      -0.644667       -17.5423
 168   2.0000      -0.639671       -17.4063
 169   2.0000      -0.635335       -17.2883
 170   2.0000      -0.629680       -17.1345
 171   2.0000      -0.628326       -17.0976
 172   2.0000      -0.627236       -17.0680
 173   2.0000      -0.621358       -16.9080
 174   2.0000      -0.617220       -16.7954
 175   2.0000      -0.611822       -16.6485
 176   2.0000      -0.610531       -16.6134
 177   2.0000      -0.600148       -16.3309
 178   2.0000      -0.597895       -16.2696
 179   2.0000      -0.592889       -16.1333
 180   2.0000      -0.589716       -16.0470
 181   2.0000      -0.587793       -15.9947
 182   2.0000      -0.584307       -15.8998
 183   2.0000      -0.583303       -15.8725
 184   2.0000      -0.579705       -15.7746
 185   2.0000      -0.579446       -15.7675
 186   2.0000      -0.577107       -15.7039
 187   2.0000      -0.570105       -15.5133
 188   2.0000      -0.567583       -15.4447
 189   2.0000      -0.564384       -15.3577
 190   2.0000      -0.559058       -15.2127
 191   2.0000      -0.557044       -15.1579
 192   2.0000      -0.556814       -15.1517
 193   2.0000      -0.555334       -15.1114
 194   2.0000      -0.551612       -15.0101
 195   2.0000      -0.549290       -14.9469
 196   2.0000      -0.548111       -14.9149
 197   2.0000      -0.545490       -14.8435
 198   2.0000      -0.543348       -14.7853
 199   2.0000      -0.540184       -14.6992
 200   2.0000      -0.537915       -14.6374
 201   2.0000      -0.533995       -14.5307
 202   2.0000      -0.531785       -14.4706
 203   2.0000      -0.530038       -14.4231
 204   2.0000      -0.523089       -14.2340
 205   2.0000      -0.521936       -14.2026
 206   2.0000      -0.520671       -14.1682
 207   2.0000      -0.519207       -14.1283
 208   2.0000      -0.518354       -14.1051
 209   2.0000      -0.517971       -14.0947
 210   2.0000      -0.515339       -14.0231
 211   2.0000      -0.510573       -13.8934
 212   2.0000      -0.509082       -13.8528
 213   2.0000      -0.508337       -13.8325
 214   2.0000      -0.501833       -13.6556
 215   2.0000      -0.501434       -13.6447
 216   2.0000      -0.499647       -13.5961
 217   2.0000      -0.498541       -13.5660
 218   2.0000      -0.497448       -13.5363
 219   2.0000      -0.497079       -13.5262
 220   2.0000      -0.494185       -13.4475
 221   2.0000      -0.488622       -13.2961
 222   2.0000      -0.488371       -13.2893
 223   2.0000      -0.485916       -13.2225
 224   2.0000      -0.482910       -13.1407
 225   2.0000      -0.482294       -13.1239
 226   2.0000      -0.479260       -13.0413
 227   2.0000      -0.474819       -12.9205
 228   2.0000      -0.473757       -12.8916
 229   2.0000      -0.472356       -12.8535
 230   2.0000      -0.469698       -12.7811
 231   2.0000      -0.467255       -12.7147
 232   2.0000      -0.465134       -12.6569
 233   2.0000      -0.464910       -12.6509
 234   2.0000      -0.462387       -12.5822
 235   2.0000      -0.460992       -12.5442
 236   2.0000      -0.455909       -12.4059
 237   2.0000      -0.455526       -12.3955
 238   2.0000      -0.454508       -12.3678
 239   2.0000      -0.451906       -12.2970
 240   2.0000      -0.450419       -12.2565
 241   2.0000      -0.449086       -12.2202
 242   2.0000      -0.446855       -12.1595
 243   2.0000      -0.444923       -12.1070
 244   2.0000      -0.444255       -12.0888
 245   2.0000      -0.444011       -12.0822
 246   2.0000      -0.443191       -12.0599
 247   2.0000      -0.439322       -11.9546
 248   2.0000      -0.437199       -11.8968
 249   2.0000      -0.436280       -11.8718
 250   2.0000      -0.432159       -11.7596
 251   2.0000      -0.431776       -11.7492
 252   2.0000      -0.429887       -11.6978
 253   2.0000      -0.427629       -11.6364
 254   2.0000      -0.425822       -11.5872
 255   2.0000      -0.420980       -11.4554
 256   2.0000      -0.418550       -11.3893
 257   2.0000      -0.415859       -11.3161
 258   2.0000      -0.414232       -11.2718
 259   2.0000      -0.409807       -11.1514
 260   2.0000      -0.408529       -11.1166
 261   2.0000      -0.406588       -11.0638
 262   2.0000      -0.404429       -11.0051
 263   2.0000      -0.400419       -10.8960
 264   2.0000      -0.393168       -10.6986
 265   2.0000      -0.391059       -10.6413
 266   2.0000      -0.388783       -10.5793
 267   2.0000      -0.378396       -10.2967
 268   2.0000      -0.374243       -10.1837
 269   2.0000      -0.372298       -10.1307
 270   2.0000      -0.360924        -9.8212
 271   2.0000      -0.356079        -9.6894
 272   2.0000      -0.346843        -9.4381
 273   2.0000      -0.343389        -9.3441
 274   2.0000      -0.341323        -9.2879
 275   2.0000      -0.336657        -9.1609
 276   2.0000      -0.326892        -8.8952
 277   2.0000      -0.323043        -8.7905
 278   2.0000      -0.321320        -8.7436
 279   2.0000      -0.316293        -8.6068
 280   2.0000      -0.304951        -8.2981
 281   2.0000      -0.302460        -8.2303
 282   2.0000      -0.289985        -7.8909
 283   2.0000      -0.283854        -7.7240
 284   2.0000      -0.279603        -7.6084
 285   2.0000      -0.273120        -7.4320
 286   2.0000      -0.257981        -7.0200
 287   2.0000      -0.222267        -6.0482
 288   0.0000      -0.117715        -3.2032
 289   0.0000      -0.094338        -2.5671
 290   0.0000      -0.070930        -1.9301
 291   0.0000      -0.065673        -1.7870
 292   0.0000      -0.051579        -1.4035

MULLIKEN ATOMIC CHARGES
-----------------------
   0 C :   -0.106923
   1 C :    0.240257
   2 F :   -0.171412
   3 C :    0.240305
   4 F :   -0.172712
   5 C :   -0.107045
   6 C :    0.122525
   7 C :    0.112109
   8 C :   -0.082768
   9 C :    0.043980
  10 C :    0.009149
  11 C :   -0.084423
  12 C :    0.168417
  13 O :   -0.197708
  14 C :   -0.103662
  15 C :    0.333818
  16 C :   -0.358631
  17 C :   -0.195217
  18 N :    0.155509
  19 C :   -0.182636
  20 N :    0.146420
  21 C :   -0.021205
  22 C :   -0.048496
  23 C :   -0.057066
  24 C :    0.043755
  25 C :   -0.050264
  26 S :    0.213275
  27 C :   -0.106298
  28 C :    0.032597
  29 C :    0.300198
  30 C :   -0.296239
  31 C :   -0.186484
  32 N :    0.175711
  33 C :   -0.193932
  34 N :    0.189705
  35 C :   -0.064169
  36 C :   -0.042540
  37 S :    0.169671
  38 C :   -0.040417
  39 C :   -0.100579
  40 C :    0.041074
  41 C :    0.065814
  42 C :   -0.125396
  43 S :    0.133284
  44 C :   -0.105872
  45 C :    0.053011
  46 C :    0.011009
  47 C :   -0.066601
  48 S :    0.132738
  49 C :    0.087630
  50 C :   -0.043263
  51 C :    0.010633
  52 C :   -0.042055
  53 C :   -0.017658
  54 C :    0.161854
  55 C :   -0.014954
  56 C :    0.203993
  57 C :   -0.099595
  58 C :    0.046821
  59 C :   -0.105450
  60 C :    0.190518
  61 O :   -0.319891
  62 C :    0.178582
  63 O :   -0.314373
  64 C :    0.166135
  65 C :   -0.173449
  66 S :    0.099380
  67 C :   -0.109665
  68 C :    0.134246
  69 C :    0.264967
  70 N :   -0.242380
  71 C :    0.144926
  72 O :   -0.154017
  73 C :    0.126405
  74 C :   -0.268856
  75 C :    0.193379
  76 O :   -0.186066
  77 N :   -0.246382
  78 C :    0.121073
  79 H :    0.008447
  80 H :   -0.004469
  81 H :   -0.006706
  82 H :   -0.019064
  83 H :    0.015793
  84 H :    0.029252
  85 H :    0.019637
  86 H :    0.007914
  87 H :    0.038440
  88 H :   -0.016848
  89 H :    0.027854
  90 H :   -0.016580
  91 H :   -0.010747
  92 H :   -0.026992
  93 H :   -0.038582
  94 H :   -0.028165
  95 H :   -0.042407
  96 H :    0.037784
  97 H :    0.017903
  98 H :    0.027318
  99 H :    0.048680
 100 H :    0.026577
 101 H :    0.013314
 102 H :    0.031014
 103 H :    0.034812
 104 H :    0.057499
 105 H :   -0.017958
 106 H :    0.050728
 107 H :    0.039274
 108 H :    0.038155
Sum of atomic charges:   -0.0000000

LOEWDIN ATOMIC CHARGES
----------------------
   0 C :   -0.028150
   1 C :    0.067114
   2 F :   -0.048923
   3 C :    0.067803
   4 F :   -0.050579
   5 C :   -0.034108
   6 C :   -0.009432
   7 C :   -0.006222
   8 C :    0.018191
   9 C :   -0.020831
  10 C :   -0.051429
  11 C :    0.027382
  12 C :    0.088797
  13 O :   -0.185905
  14 C :   -0.120109
  15 C :    0.076093
  16 C :   -0.143946
  17 C :   -0.024310
  18 N :   -0.049013
  19 C :   -0.017161
  20 N :   -0.055780
  21 C :    0.057785
  22 C :   -0.186598
  23 C :    0.019197
  24 C :   -0.080354
  25 C :   -0.157133
  26 S :    0.546668
  27 C :   -0.199349
  28 C :   -0.043650
  29 C :    0.077613
  30 C :   -0.097268
  31 C :   -0.016351
  32 N :   -0.028944
  33 C :   -0.020368
  34 N :   -0.021674
  35 C :   -0.048571
  36 C :   -0.150509
  37 S :    0.480947
  38 C :   -0.202431
  39 C :   -0.017660
  40 C :   -0.032845
  41 C :   -0.049388
  42 C :   -0.136579
  43 S :    0.448212
  44 C :   -0.197110
  45 C :   -0.041789
  46 C :   -0.061282
  47 C :   -0.162686
  48 S :    0.425236
  49 C :   -0.031791
  50 C :   -0.037392
  51 C :   -0.032418
  52 C :   -0.178005
  53 C :   -0.028422
  54 C :   -0.031913
  55 C :   -0.068041
  56 C :    0.077512
  57 C :   -0.090805
  58 C :   -0.006261
  59 C :   -0.094738
  60 C :    0.066278
  61 O :   -0.096786
  62 C :    0.073510
  63 O :   -0.096005
  64 C :    0.068180
  65 C :   -0.159203
  66 S :    0.431561
  67 C :   -0.115577
  68 C :    0.041035
  69 C :    0.054982
  70 N :   -0.026764
  71 C :    0.099635
  72 O :   -0.151651
  73 C :    0.036196
  74 C :   -0.115909
  75 C :    0.088142
  76 O :   -0.173349
  77 N :   -0.027798
  78 C :    0.026367
  79 H :    0.048288
  80 H :    0.043530
  81 H :    0.040339
  82 H :    0.038622
  83 H :    0.053969
  84 H :    0.048944
  85 H :    0.037593
  86 H :    0.027235
  87 H :    0.037658
  88 H :    0.031434
  89 H :    0.024146
  90 H :    0.023360
  91 H :    0.031873
  92 H :    0.026934
  93 H :    0.025057
  94 H :    0.024322
  95 H :    0.024011
  96 H :    0.027350
  97 H :    0.011960
  98 H :    0.016487
  99 H :    0.008184
 100 H :    0.019999
 101 H :    0.015316
 102 H :    0.025765
 103 H :    0.027988
 104 H :    0.040913
 105 H :    0.033548
 106 H :    0.037898
 107 H :    0.027384
 108 H :    0.016717

  Mayer bond orders larger than 0.100000
B(  0-C ,  1-C ) :   1.4376 B(  0-C ,  5-C ) :   0.1088 B(  0-C ,  7-C ) :   1.1924
B(  0-C , 79-H ) :   1.0065 B(  1-C ,  2-F ) :   1.1346 B(  1-C ,  3-C ) :   1.1945
B(  3-C ,  4-F ) :   1.1335 B(  3-C ,  5-C ) :   1.4412 B(  5-C ,  6-C ) :   1.1920
B(  5-C , 80-H ) :   1.0073 B(  6-C ,  7-C ) :   1.2575 B(  6-C , 11-C ) :   1.1884
B(  7-C ,  8-C ) :   1.2098 B(  8-C ,  9-C ) :   1.4590 B(  8-C , 81-H ) :   0.9894
B(  9-C , 10-C ) :   1.2240 B(  9-C , 15-C ) :   0.9780 B( 10-C , 11-C ) :   1.4657
B( 10-C , 12-C ) :   0.9637 B( 11-C , 82-H ) :   1.0199 B( 12-C , 13-O ) :   2.0739
B( 12-C , 14-C ) :   0.9969 B( 14-C , 15-C ) :   1.0926 B( 14-C , 21-C ) :   1.4429
B( 15-C , 16-C ) :   1.6173 B( 16-C , 17-C ) :   1.1462 B( 16-C , 19-C ) :   1.1516
B( 17-C , 18-N ) :   2.9617 B( 19-C , 20-N ) :   2.9576 B( 21-C , 22-C ) :   1.3087
B( 21-C , 83-H ) :   0.9390 B( 22-C , 23-C ) :   1.3003 B( 22-C , 26-S ) :   1.0531
B( 23-C , 24-C ) :   1.3548 B( 23-C , 84-H ) :   1.0088 B( 24-C , 25-C ) :   1.3280
B( 24-C , 29-C ) :   0.9837 B( 25-C , 26-S ) :   1.1297 B( 25-C , 27-C ) :   1.2319
B( 27-C , 28-C ) :   1.4183 B( 27-C , 37-S ) :   1.0998 B( 28-C , 29-C ) :   0.9968
B( 28-C , 35-C ) :   1.3164 B( 29-C , 30-C ) :   1.7170 B( 30-C , 31-C ) :   1.1330
B( 30-C , 33-C ) :   1.1374 B( 31-C , 32-N ) :   2.9915 B( 33-C , 34-N ) :   2.9970
B( 35-C , 36-C ) :   1.4245 B( 35-C , 85-H ) :   0.9846 B( 36-C , 37-S ) :   1.1177
B( 36-C , 38-C ) :   1.1876 B( 38-C , 39-C ) :   1.4939 B( 38-C , 43-S ) :   1.0423
B( 39-C , 40-C ) :   1.2657 B( 39-C , 86-H ) :   0.9545 B( 40-C , 41-C ) :   1.0472
B( 40-C , 49-C ) :   1.3849 B( 41-C , 42-C ) :   1.6181 B( 41-C , 44-C ) :   1.1767
B( 42-C , 43-S ) :   1.1309 B( 42-C , 87-H ) :   0.9400 B( 44-C , 45-C ) :   1.4305
B( 44-C , 48-S ) :   1.0813 B( 45-C , 46-C ) :   1.2174 B( 45-C , 49-C ) :   1.1066
B( 46-C , 47-C ) :   1.5877 B( 46-C , 88-H ) :   0.9994 B( 47-C , 48-S ) :   1.1515
B( 47-C , 89-H ) :   0.9662 B( 49-C , 50-C ) :   1.1566 B( 50-C , 51-C ) :   1.6235
B( 50-C , 90-H ) :   0.9598 B( 51-C , 52-C ) :   1.1625 B( 51-C , 91-H ) :   0.9694
B( 52-C , 53-C ) :   1.4587 B( 52-C , 66-S ) :   1.0894 B( 53-C , 54-C ) :   1.2559
B( 53-C , 92-H ) :   1.0023 B( 54-C , 55-C ) :   0.9234 B( 54-C , 65-C ) :   1.5472
B( 55-C , 56-C ) :   1.4130 B( 55-C , 58-C ) :   0.1001 B( 55-C , 60-C ) :   1.4173
B( 56-C , 57-C ) :   1.3091 B( 56-C , 63-O ) :   1.1733 B( 57-C , 58-C ) :   1.3517
B( 57-C , 93-H ) :   0.9952 B( 58-C , 59-C ) :   1.3582 B( 58-C , 94-H ) :   0.9881
B( 59-C , 60-C ) :   1.3020 B( 59-C , 95-H ) :   1.0008 B( 60-C , 61-O ) :   1.1469
B( 61-O , 62-C ) :   0.9643 B( 62-C , 96-H ) :   0.9770 B( 62-C , 97-H ) :   0.9660
B( 62-C , 98-H ) :   0.9699 B( 63-O , 64-C ) :   0.9514 B( 64-C , 99-H ) :   0.9628
B( 64-C ,100-H ) :   0.9671 B( 64-C ,101-H ) :   0.9744 B( 65-C , 66-S ) :   1.1194
B( 65-C , 67-C ) :   1.0750 B( 67-C , 68-C ) :   1.6252 B( 67-C , 71-C ) :   0.9114
B( 68-C , 69-C ) :   1.0438 B( 68-C , 77-N ) :   1.1596 B( 69-C , 70-N ) :   1.1230
B( 69-C , 74-C ) :   1.5227 B( 70-N , 71-C ) :   1.0385 B( 70-N , 73-C ) :   0.9595
B( 71-C , 72-O ) :   2.1905 B( 73-C ,102-H ) :   0.9747 B( 73-C ,103-H ) :   0.9760
B( 73-C ,104-H ) :   0.9606 B( 74-C , 75-C ) :   0.9578 B( 74-C ,105-H ) :   1.0662
B( 75-C , 76-O ) :   2.1388 B( 75-C , 77-N ) :   1.0101 B( 77-N , 78-C ) :   0.9549
B( 78-C ,106-H ) :   0.9548 B( 78-C ,107-H ) :   0.9754 B( 78-C ,108-H ) :   0.9693

-----------------------------------------------------------------------------
         ABSORPTION SPECTRUM VIA TRANSITION ELECTRIC DIPOLE MOMENTS
-----------------------------------------------------------------------------
State   Energy  Wavelength   fosc         T2         TX        TY        TZ
        (cm-1)    (nm)                  (au**2)     (au)      (au)      (au)
-----------------------------------------------------------------------------
   0    8481.1   1179.1   0.254025906   9.86060  -1.10378  -2.93758   0.11359
   1   14911.0    670.6   0.149314790   3.29665   0.42514   1.53140  -0.87790
   2   16342.6    611.9   0.568994554  11.46208  -1.48528  -2.91751  -0.86265
   3   19015.9    525.9   0.585882212  10.14309   0.67281  -0.19863   3.10660
   4   19890.3    502.8   0.020070559   0.33220  -0.17052  -0.54184  -0.09762
   5   21376.3    467.8   0.107592556   1.65701   0.07264   0.11385   1.28015
   6   22010.0    454.3   0.604873708   9.04732   1.34421   1.85105   1.95296
   7   22527.1    443.9   0.006581080   0.09618   0.20957   0.16744   0.15563
   8   23205.4    430.9   0.099874260   1.41690   0.62796   0.55151   0.84759
   9   23374.8    427.8   0.001845160   0.02599  -0.08661  -0.13556  -0.01055
  10   23654.4    422.8   0.165624129   2.30508   0.46150  -0.41262   1.38631
  11   24431.1    409.3   0.006094332   0.08212   0.00070  -0.17261   0.22875
  12   25782.3    387.9   0.008284065   0.10578  -0.25837  -0.19732   0.00937
  13   26634.9    375.4   0.004571792   0.05651  -0.01745   0.22044  -0.08722
  14   27177.3    368.0   0.033818726   0.40966  -0.30963   0.09812  -0.55151
  15   27544.6    363.0   0.181159543   2.16521  -0.52638  -0.51244  -1.27497
  16   28185.8    354.8   0.128328797   1.49889   0.54111   0.13619   1.08975
  17   28408.1    352.0   0.073905364   0.85646  -0.21275  -0.84926  -0.29992
  18   28805.0    347.2   0.006435596   0.07355   0.11717  -0.20106   0.13928
  19   29109.6    343.5   0.004975729   0.05627  -0.09891  -0.00735  -0.21549
  20   29338.5    340.8   0.006389349   0.07170  -0.08946  -0.16791  -0.18841
  21   29709.6    336.6   0.081045103   0.89806  -0.24666  -0.91190  -0.07525
  22   29926.0    334.2   0.067102546   0.73819   0.09888   0.82274  -0.22697
  23   30056.3    332.7   0.176105635   1.92892  -0.05916   0.73011  -1.17998
  24   30298.9    330.0   0.119900239   1.30277  -0.56690  -0.48599  -0.86326
  25   30546.4    327.4   0.288314932   3.10729   0.44943   0.07761   1.70273
  26   30849.2    324.2   0.027952222   0.29830  -0.21255  -0.48295  -0.14098
  27   31030.4    322.3   0.088573067   0.93970   0.45195   0.41592   0.74997
  28   31619.8    316.3   0.189054073   1.96835   0.63154   0.04414   1.25202
  29   31750.6    315.0   0.042020763   0.43570  -0.09086   0.05963  -0.65107
  30   32067.9    311.8   0.023049789   0.23663  -0.03882   0.04068  -0.48319
  31   32097.7    311.5   0.063341879   0.64967   0.31272   0.24964   0.69968
  32   32606.3    306.7   0.001750179   0.01767   0.00693  -0.09335  -0.09438
  33   32842.9    304.5   0.229001298   2.29548  -0.14666   0.83970  -1.25255
  34   33047.4    302.6   0.478326720   4.76501   0.74263  -0.69212   1.93248
  35   33118.3    301.9   0.051652759   0.51345   0.18995  -0.06262   0.68808
  36   33239.8    300.8   0.134052696   1.32768  -0.29079   0.42910  -1.02907
  37   33710.2    296.6   0.147588434   1.44134   0.51201   0.97481   0.47848
  38   33828.8    295.6   0.096936126   0.94335  -0.02362  -0.85124   0.46710
  39   33854.5    295.4   0.265747793   2.58422   0.11353   1.28859  -0.95439
  40   34267.2    291.8   0.092036784   0.88421   0.37508   0.84309  -0.18090
  41   34608.1    288.9   0.330563415   3.14451  -0.46709   0.53280  -1.62556
  42   34684.0    288.3   0.101859947   0.96683  -0.39337  -0.39654  -0.80923
  43   35095.1    284.9   0.053015765   0.49732  -0.24713  -0.51496  -0.41359
  44   35457.1    282.0   0.005651626   0.05247   0.18101   0.12670   0.06046
  45   35760.2    279.6   0.048257798   0.44427   0.27417  -0.11543   0.59646
  46   35864.5    278.8   0.029145999   0.26754  -0.03926   0.32549  -0.40007
  47   36066.3    277.3   0.149762471   1.36703  -0.24779   0.81651  -0.79934
  48   36590.9    273.3   0.022641071   0.20370   0.17439   0.00467   0.41626
  49   36868.3    271.2   0.003920315   0.03501   0.01738  -0.15903   0.09702
  50   37143.6    269.2   0.032550179   0.28850  -0.27718  -0.44026  -0.13357
  51   37328.5    267.9   0.113344069   0.99962   0.29912   0.94429  -0.13588
  52   37740.4    265.0   0.009981444   0.08707  -0.13634  -0.21158   0.15400
  53   37848.4    264.2   0.347127196   3.01937  -0.61186  -1.62612  -0.02707
  54   38013.9    263.1   0.184513873   1.59795  -0.36962  -1.19407   0.18849
  55   38150.8    262.1   0.198502688   1.71293  -0.09191  -1.14254   0.63173
  56   38554.2    259.4   0.311177977   2.65713   0.95028   1.18631   0.58886
  57   38745.8    258.1   0.022925831   0.19479   0.15296   0.40563   0.08284
  58   39092.4    255.8   0.015865771   0.13361   0.01856  -0.22895   0.28434
  59   39297.2    254.5   0.183366823   1.53615   0.64067   1.04117   0.20410
  60   39573.8    252.7   0.092225385   0.76722   0.07858   0.76297  -0.42300
  61   39787.0    251.3   0.000618812   0.00512   0.06820  -0.01189   0.01811
  62   39854.0    250.9   0.081864369   0.67624   0.38816   0.65538   0.30991
  63   39899.5    250.6   0.013683436   0.11290  -0.11677   0.23187  -0.21331

FINAL SINGLE POINT ENERGY     -5233.066290534193

DIPOLE MOMENT
-------------
                                X             Y             Z
Electronic contribution:     12.66581      51.65292     -38.22344
Nuclear contribution   :    -12.95129     -54.77508      39.78993
                        -----------------------------------------
Total Dipole Moment    :     -0.28548      -3.12216       1.56649
                        -----------------------------------------
Magnitude (a.u.)       :      3.50475
Magnitude (Debye)      :      8.90836

Rotational constants in cm-1:     0.000705     0.000473     0.000290
Rotational constants in MHz :    21.143038    14.192922     8.705840

                             ****ORCA TERMINATED NORMALLY****
TOTAL RUN TIME: 0 days 0 hours 13 minutes 3 seconds 279 msec
