                         Program Version 4.2.0 -  RELEASE  -
|  1> # ORCA input file
|  2> # SCF done       -190.230643455598          0.000513718988
|  3> ! CAM-B3LYP def2-SVP def2/J RIJCOSX Grid4 TightSCF
|  4> %maxcore 5000
|  5> %tddft
|  6>     Mode sTDDFT
|  7>     Ethresh 5.0
|  8>     maxcore 5000
|  9> end
| 10>
| 11> %pal
| 12>   nprocs 6
| 13>   end
| 14> * xyz 0 1
| 15>    C       11.37249         3.09468         3.28962
| 16>    C       11.11097         3.27714         1.96598
| 17>    C        9.95062         4.05205         1.77544
| 18>    C        9.36115         4.43751         2.98538
| 19>    S       10.22180         3.85556         4.33899
| 20>    C        8.19832         5.20910         2.69953
| 21>    C        8.06236         5.30724         1.30883
| 22>    C        9.16038         4.58149         0.68026
| 23>    C        9.38464         4.43235        -0.65713
| 24>    C        8.53290         4.99956        -1.62799
| 25>    N        7.84270         5.45965        -2.41987
| 26>    C       10.48087         3.70016        -1.15924
| 27>    N       11.36914         3.10450        -1.57275
| 28>    C        6.94050         6.04176         0.92182
| 29>    C        6.22296         6.49911         2.01090
| 30>    S        6.94962         6.01825         3.53706
| 31>    C        5.01980         7.25085         1.99855
| 32>    C        4.27090         7.66956         3.08166
| 33>    C        3.12133         8.35646         2.68746
| 34>    C        3.00143         8.46408         1.29171
| 35>    S        4.30029         7.72448         0.46509
| 36>    C        1.79314         9.13871         0.99114
| 37>    C        1.14268         9.45670         2.19775
| 38>    C        1.96404         8.98476         3.30386
| 39>    C        1.70204         9.09957         4.63721
| 40>    C        0.53928         9.72945         5.12928
| 41>    N       -0.40088        10.23876         5.54299
| 42>    C        2.58106         8.59379         5.61820
| 43>    N        3.29291         8.18232         6.41749
| 44>    C       -0.08404        10.08665         2.00372
| 45>    C       -0.36808        10.24918         0.65670
| 46>    S        0.90255         9.62872        -0.37999
| 47>    C       -1.55445        10.78501         0.10875
| 48>    S       -1.77581        10.92461        -1.65770
| 49>    C       -3.35628        11.50174        -1.33611
| 50>    C       -3.58817        11.55563         0.04522
| 51>    N       -2.58435        11.16160         0.81778
| 52>    C       -4.98110        12.01839         0.33195
| 53>    C       -5.52323        12.18059        -1.05819
| 54>    C       -4.53441        11.88847        -2.00585
| 55>    S       -5.10250        12.03985        -3.61409
| 56>    C       -6.70093        12.46248        -3.02283
| 57>    C       -6.74314        12.50111        -1.63507
| 58>    C       -7.73626        12.64090        -3.97294
| 59>    C       -9.05469        12.75985        -3.67486
| 60>    C      -10.08889        12.83598        -4.64159
| 61>    C      -10.00202        12.93480        -6.02184
| 62>    C      -11.25352        12.89958        -6.63169
| 63>    C      -12.31154        12.77122        -5.71478
| 64>    S      -11.75969        12.71849        -4.10040
| 65>    C      -13.52772        12.68996        -6.43705
| 66>    C      -13.24146        12.77418        -7.81049
| 67>    C      -11.80633        12.92232        -7.97894
| 68>    C      -11.11989        13.05080        -9.15076
| 69>    C      -11.76949        13.05994       -10.40285
| 70>    N      -12.29593        13.06773       -11.42157
| 71>    C       -9.71629        13.18458        -9.18733
| 72>    N       -8.57502        13.29207        -9.21730
| 73>    C      -14.37954        12.66173        -8.61086
| 74>    C      -15.52520        12.48684        -7.85950
| 75>    S      -15.19471        12.47639        -6.13097
| 76>    C      -16.85028        12.29618        -8.32882
| 77>    C      -17.98896        12.07749        -7.57691
| 78>    C      -19.11661        11.89867        -8.38010
| 79>    C      -18.83221        11.98445        -9.74872
| 80>    S      -17.17972        12.28640       -10.05522
| 81>    C      -20.04056        11.77855       -10.47432
| 82>    C      -21.07945        11.56322        -9.56094
| 83>    C      -20.54112        11.63097        -8.21582
| 84>    C      -21.21496        11.47382        -7.03994
| 85>    C      -22.60052        11.21317        -6.99577
| 86>    N      -23.72665        11.00114        -6.95333
| 87>    C      -20.56935        11.55918        -5.78881
| 88>    N      -20.04758        11.63070        -4.77011
| 89>    C      -22.31684        11.34377       -10.19679
| 90>    C      -22.19352        11.39619       -11.55156
| 91>    S      -20.57727        11.71261       -12.09265
| 92>    H       12.18384         2.55061         3.72996
| 93>    H       11.71898         2.87587         1.17598
| 94>    H        6.64612         6.23787        -0.09360
| 95>    H        4.55611         7.46933         4.09890
| 96>    H       -0.76117        10.41209         2.77124
| 97>    H       -4.98720        12.95669         0.88984
| 98>    H       -5.53835        11.28323         0.91475
| 99>    H       -7.63047        12.75199        -1.08366
|100>    H       -7.42767        12.62238        -5.00868
|101>    H       -9.37297        12.74483        -2.64213
|102>    H       -9.07024        13.02693        -6.54795
|103>    H      -14.38732        12.69373        -9.68565
|104>    H      -17.98053        12.04820        -6.50207
|105>    H      -23.24490        11.15720        -9.68818
|106>    H      -22.96210        11.26675       -12.28687
|107> *
|108>
|109>                          ****END OF INPUT****

CARTESIAN COORDINATES (ANGSTROEM)
---------------------------------
  C     11.372490    3.094680    3.289620
  C     11.110970    3.277140    1.965980
  C      9.950620    4.052050    1.775440
  C      9.361150    4.437510    2.985380
  S     10.221800    3.855560    4.338990
  C      8.198320    5.209100    2.699530
  C      8.062360    5.307240    1.308830
  C      9.160380    4.581490    0.680260
  C      9.384640    4.432350   -0.657130
  C      8.532900    4.999560   -1.627990
  N      7.842700    5.459650   -2.419870
  C     10.480870    3.700160   -1.159240
  N     11.369140    3.104500   -1.572750
  C      6.940500    6.041760    0.921820
  C      6.222960    6.499110    2.010900
  S      6.949620    6.018250    3.537060
  C      5.019800    7.250850    1.998550
  C      4.270900    7.669560    3.081660
  C      3.121330    8.356460    2.687460
  C      3.001430    8.464080    1.291710
  S      4.300290    7.724480    0.465090
  C      1.793140    9.138710    0.991140
  C      1.142680    9.456700    2.197750
  C      1.964040    8.984760    3.303860
  C      1.702040    9.099570    4.637210
  C      0.539280    9.729450    5.129280
  N     -0.400880   10.238760    5.542990
  C      2.581060    8.593790    5.618200
  N      3.292910    8.182320    6.417490
  C     -0.084040   10.086650    2.003720
  C     -0.368080   10.249180    0.656700
  S      0.902550    9.628720   -0.379990
  C     -1.554450   10.785010    0.108750
  S     -1.775810   10.924610   -1.657700
  C     -3.356280   11.501740   -1.336110
  C     -3.588170   11.555630    0.045220
  N     -2.584350   11.161600    0.817780
  C     -4.981100   12.018390    0.331950
  C     -5.523230   12.180590   -1.058190
  C     -4.534410   11.888470   -2.005850
  S     -5.102500   12.039850   -3.614090
  C     -6.700930   12.462480   -3.022830
  C     -6.743140   12.501110   -1.635070
  C     -7.736260   12.640900   -3.972940
  C     -9.054690   12.759850   -3.674860
  C    -10.088890   12.835980   -4.641590
  C    -10.002020   12.934800   -6.021840
  C    -11.253520   12.899580   -6.631690
  C    -12.311540   12.771220   -5.714780
  S    -11.759690   12.718490   -4.100400
  C    -13.527720   12.689960   -6.437050
  C    -13.241460   12.774180   -7.810490
  C    -11.806330   12.922320   -7.978940
  C    -11.119890   13.050800   -9.150760
  C    -11.769490   13.059940  -10.402850
  N    -12.295930   13.067730  -11.421570
  C     -9.716290   13.184580   -9.187330
  N     -8.575020   13.292070   -9.217300
  C    -14.379540   12.661730   -8.610860
  C    -15.525200   12.486840   -7.859500
  S    -15.194710   12.476390   -6.130970
  C    -16.850280   12.296180   -8.328820
  C    -17.988960   12.077490   -7.576910
  C    -19.116610   11.898670   -8.380100
  C    -18.832210   11.984450   -9.748720
  S    -17.179720   12.286400  -10.055220
  C    -20.040560   11.778550  -10.474320
  C    -21.079450   11.563220   -9.560940
  C    -20.541120   11.630970   -8.215820
  C    -21.214960   11.473820   -7.039940
  C    -22.600520   11.213170   -6.995770
  N    -23.726650   11.001140   -6.953330
  C    -20.569350   11.559180   -5.788810
  N    -20.047580   11.630700   -4.770110
  C    -22.316840   11.343770  -10.196790
  C    -22.193520   11.396190  -11.551560
  S    -20.577270   11.712610  -12.092650
  H     12.183840    2.550610    3.729960
  H     11.718980    2.875870    1.175980
  H      6.646120    6.237870   -0.093600
  H      4.556110    7.469330    4.098900
  H     -0.761170   10.412090    2.771240
  H     -4.987200   12.956690    0.889840
  H     -5.538350   11.283230    0.914750
  H     -7.630470   12.751990   -1.083660
  H     -7.427670   12.622380   -5.008680
  H     -9.372970   12.744830   -2.642130
  H     -9.070240   13.026930   -6.547950
  H    -14.387320   12.693730   -9.685650
  H    -17.980530   12.048200   -6.502070
  H    -23.244900   11.157200   -9.688180
  H    -22.962100   11.266750  -12.286870

 Total Charge           Charge          ....    0
 Multiplicity           Mult            ....    1
 Number of Electrons    NEL             ....  586
 Basis Dimension        Dim             .... 1193

ORBITAL ENERGIES
----------------

  NO   OCC          E(Eh)            E(eV)
   0   2.0000     -88.992479     -2421.6085
   1   2.0000     -88.992395     -2421.6062
   2   2.0000     -88.991966     -2421.5945
   3   2.0000     -88.989832     -2421.5364
   4   2.0000     -88.989671     -2421.5321
   5   2.0000     -88.987827     -2421.4819
   6   2.0000     -88.986206     -2421.4378
   7   2.0000     -88.985587     -2421.4209
   8   2.0000     -88.977000     -2421.1873
   9   2.0000     -88.968841     -2420.9652
  10   2.0000     -14.432218      -392.7206
  11   2.0000     -14.430651      -392.6780
  12   2.0000     -14.430495      -392.6737
  13   2.0000     -14.430123      -392.6636
  14   2.0000     -14.429929      -392.6583
  15   2.0000     -14.429384      -392.6435
  16   2.0000     -14.429215      -392.6389
  17   2.0000     -14.428013      -392.6062
  18   2.0000     -14.419782      -392.3822
  19   2.0000     -10.366009      -282.0734
  20   2.0000     -10.363737      -282.0116
  21   2.0000     -10.363695      -282.0105
  22   2.0000     -10.362101      -281.9671
  23   2.0000     -10.353022      -281.7201
  24   2.0000     -10.351457      -281.6775
  25   2.0000     -10.351251      -281.6719
  26   2.0000     -10.349927      -281.6358
  27   2.0000     -10.349182      -281.6156
  28   2.0000     -10.333649      -281.1929
  29   2.0000     -10.333358      -281.1850
  30   2.0000     -10.332579      -281.1638
  31   2.0000     -10.331869      -281.1445
  32   2.0000     -10.331645      -281.1383
  33   2.0000     -10.331479      -281.1338
  34   2.0000     -10.331247      -281.1275
  35   2.0000     -10.331054      -281.1223
  36   2.0000     -10.330738      -281.1137
  37   2.0000     -10.330383      -281.1040
  38   2.0000     -10.329897      -281.0908
  39   2.0000     -10.329885      -281.0905
  40   2.0000     -10.329875      -281.0902
  41   2.0000     -10.329745      -281.0867
  42   2.0000     -10.329223      -281.0724
  43   2.0000     -10.328434      -281.0510
  44   2.0000     -10.328341      -281.0485
  45   2.0000     -10.328224      -281.0453
  46   2.0000     -10.327699      -281.0310
  47   2.0000     -10.326550      -280.9997
  48   2.0000     -10.324773      -280.9513
  49   2.0000     -10.320671      -280.8397
  50   2.0000     -10.312897      -280.6282
  51   2.0000     -10.312182      -280.6087
  52   2.0000     -10.311717      -280.5961
  53   2.0000     -10.311629      -280.5937
  54   2.0000     -10.309991      -280.5491
  55   2.0000     -10.309988      -280.5490
  56   2.0000     -10.305054      -280.4148
  57   2.0000     -10.303837      -280.3817
  58   2.0000     -10.303789      -280.3804
  59   2.0000     -10.303326      -280.3677
  60   2.0000     -10.302861      -280.3551
  61   2.0000     -10.301385      -280.3149
  62   2.0000     -10.301266      -280.3117
  63   2.0000     -10.301194      -280.3097
  64   2.0000     -10.300934      -280.3027
  65   2.0000     -10.300429      -280.2889
  66   2.0000     -10.300372      -280.2874
  67   2.0000     -10.299217      -280.2559
  68   2.0000     -10.297548      -280.2105
  69   2.0000     -10.297354      -280.2053
  70   2.0000     -10.296085      -280.1707
  71   2.0000     -10.295652      -280.1589
  72   2.0000     -10.294931      -280.1393
  73   2.0000     -10.293704      -280.1059
  74   2.0000     -10.292985      -280.0864
  75   2.0000     -10.287518      -279.9376
  76   2.0000     -10.284984      -279.8686
  77   2.0000      -8.087239      -220.0650
  78   2.0000      -8.086867      -220.0548
  79   2.0000      -8.086379      -220.0416
  80   2.0000      -8.084284      -219.9846
  81   2.0000      -8.084099      -219.9795
  82   2.0000      -8.082835      -219.9451
  83   2.0000      -8.081228      -219.9014
  84   2.0000      -8.080442      -219.8800
  85   2.0000      -8.072187      -219.6554
  86   2.0000      -8.063987      -219.4322
  87   2.0000      -6.056485      -164.8053
  88   2.0000      -6.056171      -164.7968
  89   2.0000      -6.055648      -164.7826
  90   2.0000      -6.053582      -164.7263
  91   2.0000      -6.053374      -164.7207
  92   2.0000      -6.052358      -164.6930
  93   2.0000      -6.052075      -164.6853
  94   2.0000      -6.052027      -164.6840
  95   2.0000      -6.051536      -164.6707
  96   2.0000      -6.050483      -164.6420
  97   2.0000      -6.049615      -164.6184
  98   2.0000      -6.049533      -164.6162
  99   2.0000      -6.049443      -164.6137
 100   2.0000      -6.049262      -164.6088
 101   2.0000      -6.049101      -164.6044
 102   2.0000      -6.048663      -164.5925
 103   2.0000      -6.047636      -164.5645
 104   2.0000      -6.046517      -164.5341
 105   2.0000      -6.046369      -164.5301
 106   2.0000      -6.046027      -164.5208
 107   2.0000      -6.045523      -164.5070
 108   2.0000      -6.045463      -164.5054
 109   2.0000      -6.043841      -164.4613
 110   2.0000      -6.042849      -164.4343
 111   2.0000      -6.041433      -164.3958
 112   2.0000      -6.037543      -164.2899
 113   2.0000      -6.034209      -164.1992
 114   2.0000      -6.033304      -164.1745
 115   2.0000      -6.029241      -164.0640
 116   2.0000      -6.026076      -163.9779
 117   2.0000      -1.076701       -29.2985
 118   2.0000      -1.046440       -28.4751
 119   2.0000      -1.043820       -28.4038
 120   2.0000      -1.042726       -28.3740
 121   2.0000      -1.040594       -28.3160
 122   2.0000      -1.023176       -27.8420
 123   2.0000      -1.021922       -27.8079
 124   2.0000      -1.021506       -27.7966
 125   2.0000      -1.019992       -27.7554
 126   2.0000      -1.008667       -27.4472
 127   2.0000      -1.008097       -27.4317
 128   2.0000      -1.007718       -27.4214
 129   2.0000      -1.006335       -27.3838
 130   2.0000      -1.005805       -27.3693
 131   2.0000      -1.002159       -27.2701
 132   2.0000      -1.001014       -27.2390
 133   2.0000      -0.989638       -26.9294
 134   2.0000      -0.987411       -26.8688
 135   2.0000      -0.962200       -26.1828
 136   2.0000      -0.960275       -26.1304
 137   2.0000      -0.954077       -25.9617
 138   2.0000      -0.952315       -25.9138
 139   2.0000      -0.937530       -25.5115
 140   2.0000      -0.920127       -25.0379
 141   2.0000      -0.917871       -24.9765
 142   2.0000      -0.907117       -24.6839
 143   2.0000      -0.904561       -24.6144
 144   2.0000      -0.899548       -24.4780
 145   2.0000      -0.885973       -24.1086
 146   2.0000      -0.872016       -23.7288
 147   2.0000      -0.868843       -23.6424
 148   2.0000      -0.866488       -23.5783
 149   2.0000      -0.866023       -23.5657
 150   2.0000      -0.856887       -23.3171
 151   2.0000      -0.853263       -23.2185
 152   2.0000      -0.852436       -23.1960
 153   2.0000      -0.848276       -23.0828
 154   2.0000      -0.848081       -23.0775
 155   2.0000      -0.837050       -22.7773
 156   2.0000      -0.825222       -22.4554
 157   2.0000      -0.808591       -22.0029
 158   2.0000      -0.798636       -21.7320
 159   2.0000      -0.781527       -21.2664
 160   2.0000      -0.779099       -21.2004
 161   2.0000      -0.775699       -21.1078
 162   2.0000      -0.773738       -21.0545
 163   2.0000      -0.772847       -21.0302
 164   2.0000      -0.762243       -20.7417
 165   2.0000      -0.750599       -20.4248
 166   2.0000      -0.726739       -19.7756
 167   2.0000      -0.716009       -19.4836
 168   2.0000      -0.707075       -19.2405
 169   2.0000      -0.703040       -19.1307
 170   2.0000      -0.701542       -19.0899
 171   2.0000      -0.696457       -18.9515
 172   2.0000      -0.688890       -18.7456
 173   2.0000      -0.687524       -18.7085
 174   2.0000      -0.682502       -18.5718
 175   2.0000      -0.676929       -18.4202
 176   2.0000      -0.674098       -18.3431
 177   2.0000      -0.665684       -18.1142
 178   2.0000      -0.661805       -18.0086
 179   2.0000      -0.657327       -17.8868
 180   2.0000      -0.648949       -17.6588
 181   2.0000      -0.637261       -17.3407
 182   2.0000      -0.631046       -17.1716
 183   2.0000      -0.628458       -17.1012
 184   2.0000      -0.627778       -17.0827
 185   2.0000      -0.625810       -17.0292
 186   2.0000      -0.622288       -16.9333
 187   2.0000      -0.620286       -16.8788
 188   2.0000      -0.618030       -16.8174
 189   2.0000      -0.616071       -16.7641
 190   2.0000      -0.612145       -16.6573
 191   2.0000      -0.611174       -16.6309
 192   2.0000      -0.609437       -16.5836
 193   2.0000      -0.594571       -16.1791
 194   2.0000      -0.584515       -15.9055
 195   2.0000      -0.574071       -15.6213
 196   2.0000      -0.570612       -15.5271
 197   2.0000      -0.564097       -15.3499
 198   2.0000      -0.559436       -15.2230
 199   2.0000      -0.558113       -15.1870
 200   2.0000      -0.549443       -14.9511
 201   2.0000      -0.547192       -14.8899
 202   2.0000      -0.544802       -14.8248
 203   2.0000      -0.544664       -14.8211
 204   2.0000      -0.543492       -14.7892
 205   2.0000      -0.542800       -14.7703
 206   2.0000      -0.535585       -14.5740
 207   2.0000      -0.532390       -14.4871
 208   2.0000      -0.523522       -14.2458
 209   2.0000      -0.517383       -14.0787
 210   2.0000      -0.514771       -14.0076
 211   2.0000      -0.510699       -13.8968
 212   2.0000      -0.509271       -13.8580
 213   2.0000      -0.509093       -13.8531
 214   2.0000      -0.507670       -13.8144
 215   2.0000      -0.505279       -13.7493
 216   2.0000      -0.501889       -13.6571
 217   2.0000      -0.500298       -13.6138
 218   2.0000      -0.499283       -13.5862
 219   2.0000      -0.497239       -13.5306
 220   2.0000      -0.495907       -13.4943
 221   2.0000      -0.492586       -13.4040
 222   2.0000      -0.492273       -13.3954
 223   2.0000      -0.489663       -13.3244
 224   2.0000      -0.488468       -13.2919
 225   2.0000      -0.486311       -13.2332
 226   2.0000      -0.485831       -13.2201
 227   2.0000      -0.481657       -13.1066
 228   2.0000      -0.479333       -13.0433
 229   2.0000      -0.478201       -13.0125
 230   2.0000      -0.477618       -12.9966
 231   2.0000      -0.470622       -12.8063
 232   2.0000      -0.468806       -12.7569
 233   2.0000      -0.467786       -12.7291
 234   2.0000      -0.466060       -12.6821
 235   2.0000      -0.464271       -12.6335
 236   2.0000      -0.462583       -12.5875
 237   2.0000      -0.461809       -12.5665
 238   2.0000      -0.461560       -12.5597
 239   2.0000      -0.460288       -12.5251
 240   2.0000      -0.458605       -12.4793
 241   2.0000      -0.457967       -12.4619
 242   2.0000      -0.457418       -12.4470
 243   2.0000      -0.456555       -12.4235
 244   2.0000      -0.456092       -12.4109
 245   2.0000      -0.454161       -12.3583
 246   2.0000      -0.449518       -12.2320
 247   2.0000      -0.446700       -12.1553
 248   2.0000      -0.443277       -12.0622
 249   2.0000      -0.442406       -12.0385
 250   2.0000      -0.441561       -12.0155
 251   2.0000      -0.441042       -12.0014
 252   2.0000      -0.440797       -11.9947
 253   2.0000      -0.440337       -11.9822
 254   2.0000      -0.440021       -11.9736
 255   2.0000      -0.439616       -11.9626
 256   2.0000      -0.439071       -11.9477
 257   2.0000      -0.438749       -11.9390
 258   2.0000      -0.437020       -11.8919
 259   2.0000      -0.436956       -11.8902
 260   2.0000      -0.435200       -11.8424
 261   2.0000      -0.432046       -11.7566
 262   2.0000      -0.430673       -11.7192
 263   2.0000      -0.427090       -11.6217
 264   2.0000      -0.426386       -11.6026
 265   2.0000      -0.425211       -11.5706
 266   2.0000      -0.424869       -11.5613
 267   2.0000      -0.423768       -11.5313
 268   2.0000      -0.423484       -11.5236
 269   2.0000      -0.410204       -11.1622
 270   2.0000      -0.407663       -11.0931
 271   2.0000      -0.403947       -10.9920
 272   2.0000      -0.391350       -10.6492
 273   2.0000      -0.385871       -10.5001
 274   2.0000      -0.375145       -10.2082
 275   2.0000      -0.362049        -9.8519
 276   2.0000      -0.359788        -9.7903
 277   2.0000      -0.353759        -9.6263
 278   2.0000      -0.351080        -9.5534
 279   2.0000      -0.348984        -9.4963
 280   2.0000      -0.346596        -9.4314
 281   2.0000      -0.344589        -9.3767
 282   2.0000      -0.335238        -9.1223
 283   2.0000      -0.329441        -8.9645
 284   2.0000      -0.323374        -8.7995
 285   2.0000      -0.321856        -8.7582
 286   2.0000      -0.321131        -8.7384
 287   2.0000      -0.319650        -8.6981
 288   2.0000      -0.310535        -8.4501
 289   2.0000      -0.289656        -7.8819
 290   2.0000      -0.265024        -7.2117
 291   2.0000      -0.247152        -6.7254
 292   2.0000      -0.224949        -6.1212
 293   0.0000      -0.108516        -2.9529
 294   0.0000      -0.104233        -2.8363
 295   0.0000      -0.101537        -2.7630
 296   0.0000      -0.099832        -2.7166
 297   0.0000      -0.064679        -1.7600

MULLIKEN ATOMIC CHARGES
-----------------------
   0 C :   -0.083512
   1 C :    0.038436
   2 C :   -0.031981
   3 C :   -0.116662
   4 S :    0.184388
   5 C :   -0.101054
   6 C :    0.014534
   7 C :    0.298907
   8 C :   -0.297080
   9 C :   -0.186875
  10 N :    0.168576
  11 C :   -0.190642
  12 N :    0.174254
  13 C :   -0.068094
  14 C :   -0.051229
  15 S :    0.193003
  16 C :   -0.047091
  17 C :   -0.070672
  18 C :    0.016115
  19 C :   -0.096507
  20 S :    0.192616
  21 C :   -0.096423
  22 C :    0.010928
  23 C :    0.300442
  24 C :   -0.295848
  25 C :   -0.191142
  26 N :    0.183414
  27 C :   -0.189599
  28 N :    0.169719
  29 C :   -0.037654
  30 C :   -0.038341
  31 S :    0.191305
  32 C :   -0.107779
  33 S :    0.124344
  34 C :   -0.051713
  35 C :   -0.221534
  36 N :   -0.009268
  37 C :    0.387832
  38 C :   -0.161616
  39 C :   -0.103241
  40 S :    0.156805
  41 C :   -0.082427
  42 C :   -0.013047
  43 C :    0.045896
  44 C :    0.036190
  45 C :   -0.073831
  46 C :   -0.035974
  47 C :    0.004189
  48 C :   -0.107769
  49 S :    0.183501
  50 C :   -0.095776
  51 C :    0.008175
  52 C :    0.302610
  53 C :   -0.296362
  54 C :   -0.188626
  55 N :    0.169956
  56 C :   -0.185872
  57 N :    0.167773
  58 C :   -0.067090
  59 C :   -0.050271
  60 S :    0.191042
  61 C :   -0.049677
  62 C :   -0.069511
  63 C :    0.014250
  64 C :   -0.101822
  65 S :    0.191029
  66 C :   -0.115547
  67 C :   -0.035292
  68 C :    0.296600
  69 C :   -0.296640
  70 C :   -0.191225
  71 N :    0.174469
  72 C :   -0.187310
  73 N :    0.167489
  74 C :    0.040244
  75 C :   -0.083179
  76 S :    0.183000
  77 H :    0.036974
  78 H :    0.012544
  79 H :    0.010606
  80 H :    0.010192
  81 H :    0.019508
  82 H :    0.040310
  83 H :    0.038577
  84 H :   -0.022712
  85 H :   -0.008209
  86 H :   -0.020038
  87 H :    0.004382
  88 H :    0.010569
  89 H :    0.010646
  90 H :    0.010927
  91 H :    0.036501
Sum of atomic charges:   -0.0000000

LOEWDIN ATOMIC CHARGES
----------------------
   0 C :   -0.177967
   1 C :   -0.033630
   2 C :   -0.077950
   3 C :   -0.183648
   4 S :    0.479845
   5 C :   -0.180285
   6 C :   -0.069059
   7 C :    0.083967
   8 C :   -0.103964
   9 C :   -0.015818
  10 N :   -0.036256
  11 C :   -0.017154
  12 N :   -0.032502
  13 C :   -0.039958
  14 C :   -0.181788
  15 S :    0.483940
  16 C :   -0.178150
  17 C :   -0.040364
  18 C :   -0.068661
  19 C :   -0.180046
  20 S :    0.482837
  21 C :   -0.180609
  22 C :   -0.069461
  23 C :    0.082301
  24 C :   -0.099624
  25 C :   -0.018667
  26 N :   -0.026963
  27 C :   -0.015344
  28 N :   -0.034166
  29 C :   -0.006202
  30 C :   -0.195749
  31 S :    0.472334
  32 C :   -0.144141
  33 S :    0.401107
  34 C :   -0.213335
  35 C :   -0.035727
  36 N :   -0.083199
  37 C :   -0.011134
  38 C :   -0.045773
  39 C :   -0.200763
  40 S :    0.443665
  41 C :   -0.167882
  42 C :   -0.050051
  43 C :   -0.030867
  44 C :   -0.052337
  45 C :   -0.157692
  46 C :   -0.033455
  47 C :   -0.065516
  48 C :   -0.192851
  49 S :    0.472339
  50 C :   -0.174536
  51 C :   -0.074259
  52 C :    0.084801
  53 C :   -0.104297
  54 C :   -0.016017
  55 N :   -0.035514
  56 C :   -0.015573
  57 N :   -0.035598
  58 C :   -0.039769
  59 C :   -0.182258
  60 S :    0.480926
  61 C :   -0.179890
  62 C :   -0.042102
  63 C :   -0.069051
  64 C :   -0.182026
  65 S :    0.482618
  66 C :   -0.182912
  67 C :   -0.078938
  68 C :    0.084457
  69 C :   -0.104752
  70 C :   -0.017175
  71 N :   -0.033366
  72 C :   -0.015692
  73 N :   -0.037147
  74 C :   -0.033697
  75 C :   -0.178901
  76 S :    0.478838
  77 H :    0.027892
  78 H :    0.042728
  79 H :    0.034776
  80 H :    0.035340
  81 H :    0.047021
  82 H :    0.058647
  83 H :    0.056655
  84 H :    0.030279
  85 H :    0.030841
  86 H :    0.026496
  87 H :    0.037802
  88 H :    0.035078
  89 H :    0.034749
  90 H :    0.042316
  91 H :    0.027583

  Mayer bond orders larger than 0.100000
B(  0-C ,  1-C ) :   1.5488 B(  0-C ,  4-S ) :   1.1496 B(  0-C , 77-H ) :   0.9644
B(  1-C ,  2-C ) :   1.2765 B(  1-C , 78-H ) :   0.9962 B(  2-C ,  3-C ) :   1.4567
B(  2-C ,  7-C ) :   1.0178 B(  3-C ,  4-S ) :   1.1386 B(  3-C ,  5-C ) :   1.1797
B(  5-C ,  6-C ) :   1.4660 B(  5-C , 15-S ) :   1.1217 B(  6-C ,  7-C ) :   0.9911
B(  6-C , 13-C ) :   1.2954 B(  7-C ,  8-C ) :   1.7101 B(  8-C ,  9-C ) :   1.1328
B(  8-C , 11-C ) :   1.1300 B(  9-C , 10-N ) :   2.9900 B( 11-C , 12-N ) :   3.0030
B( 13-C , 14-C ) :   1.4633 B( 13-C , 79-H ) :   0.9876 B( 14-C , 15-S ) :   1.1107
B( 14-C , 16-C ) :   1.1639 B( 16-C , 17-C ) :   1.4643 B( 16-C , 20-S ) :   1.1074
B( 17-C , 18-C ) :   1.2942 B( 17-C , 80-H ) :   0.9882 B( 18-C , 19-C ) :   1.4452
B( 18-C , 23-C ) :   0.9964 B( 19-C , 20-S ) :   1.1183 B( 19-C , 21-C ) :   1.1928
B( 21-C , 22-C ) :   1.4326 B( 21-C , 31-S ) :   1.1289 B( 22-C , 23-C ) :   0.9864
B( 22-C , 29-C ) :   1.2731 B( 23-C , 24-C ) :   1.7176 B( 24-C , 25-C ) :   1.1329
B( 24-C , 27-C ) :   1.1334 B( 25-C , 26-N ) :   3.0006 B( 27-C , 28-N ) :   2.9906
B( 29-C , 30-C ) :   1.4650 B( 29-C , 81-H ) :   1.0105 B( 30-C , 31-S ) :   1.1016
B( 30-C , 32-C ) :   1.1026 B( 32-C , 33-S ) :   1.0747 B( 32-C , 36-N ) :   1.6984
B( 33-S , 34-C ) :   1.0867 B( 34-C , 35-C ) :   1.4819 B( 34-C , 39-C ) :   1.1944
B( 35-C , 36-N ) :   1.4339 B( 35-C , 37-C ) :   1.0442 B( 37-C , 38-C ) :   0.9822
B( 37-C , 82-H ) :   0.8563 B( 37-C , 83-H ) :   0.8665 B( 38-C , 39-C ) :   1.5073
B( 38-C , 42-C ) :   1.3258 B( 39-C , 40-S ) :   1.0905 B( 40-S , 41-C ) :   1.1045
B( 41-C , 42-C ) :   1.4525 B( 41-C , 43-C ) :   1.1355 B( 42-C , 84-H ) :   0.9963
B( 43-C , 44-C ) :   1.6996 B( 43-C , 85-H ) :   0.9581 B( 44-C , 45-C ) :   1.1278
B( 44-C , 86-H ) :   0.9591 B( 45-C , 46-C ) :   1.4492 B( 45-C , 49-S ) :   1.1072
B( 46-C , 47-C ) :   1.3053 B( 46-C , 87-H ) :   0.9910 B( 47-C , 48-C ) :   1.4374
B( 47-C , 52-C ) :   0.9973 B( 48-C , 49-S ) :   1.1145 B( 48-C , 50-C ) :   1.1912
B( 50-C , 51-C ) :   1.4468 B( 50-C , 60-S ) :   1.1225 B( 51-C , 52-C ) :   1.0013
B( 51-C , 58-C ) :   1.2928 B( 52-C , 53-C ) :   1.7079 B( 53-C , 54-C ) :   1.1317
B( 53-C , 56-C ) :   1.1343 B( 54-C , 55-N ) :   2.9922 B( 56-C , 57-N ) :   2.9886
B( 58-C , 59-C ) :   1.4681 B( 58-C , 88-H ) :   0.9873 B( 59-C , 60-S ) :   1.1013
B( 59-C , 61-C ) :   1.1646 B( 61-C , 62-C ) :   1.4652 B( 61-C , 65-S ) :   1.1105
B( 62-C , 63-C ) :   1.2940 B( 62-C , 89-H ) :   0.9876 B( 63-C , 64-C ) :   1.4685
B( 63-C , 68-C ) :   0.9916 B( 64-C , 65-S ) :   1.1198 B( 64-C , 66-C ) :   1.1787
B( 66-C , 67-C ) :   1.4576 B( 66-C , 76-S ) :   1.1382 B( 67-C , 68-C ) :   1.0186
B( 67-C , 74-C ) :   1.2764 B( 68-C , 69-C ) :   1.7092 B( 69-C , 70-C ) :   1.1298
B( 69-C , 72-C ) :   1.1334 B( 70-C , 71-N ) :   3.0032 B( 72-C , 73-N ) :   2.9899
B( 74-C , 75-C ) :   1.5497 B( 74-C , 90-H ) :   0.9960 B( 75-C , 76-S ) :   1.1483
B( 75-C , 91-H ) :   0.9643

-----------------------------------------------------------------------------
         ABSORPTION SPECTRUM VIA TRANSITION ELECTRIC DIPOLE MOMENTS
-----------------------------------------------------------------------------
State   Energy  Wavelength   fosc         T2         TX        TY        TZ
        (cm-1)    (nm)                  (au**2)     (au)      (au)      (au)
-----------------------------------------------------------------------------
   0   10097.3    990.4   0.451698864  14.72717   3.41672  -0.63085   1.62949
   1   10716.1    933.2   0.104055527   3.19671   1.42506  -1.03352   0.31267
   2   13034.6    767.2   0.121578578   3.07068   1.59610   0.10260   0.71598
   3   13380.3    747.4   0.091772650   2.25799   1.26860  -0.78033   0.19929
   4   17931.8    557.7   0.412508734   7.57329  -2.33873   0.44299  -1.38107
   5   18624.2    536.9   0.329886358   5.83125  -2.05642   0.68695  -1.06324
   6   20277.1    493.2   1.535469678  24.92939  -4.37253   1.08159  -2.15420
   7   20824.1    480.2   0.085617871   1.35355   0.98817   0.00403   0.61405
   8   21190.9    471.9   0.557834863   8.66627  -2.55387   0.71043  -1.28036
   9   24003.3    416.6   0.024169707   0.33149  -0.43454   0.05919  -0.37305
  10   24709.4    404.7   0.020836446   0.27761  -0.36146   0.36973  -0.10127
  11   25435.9    393.1   0.257577395   3.33378  -0.21030  -1.63906  -0.77655
  12   26367.6    379.3   0.035441186   0.44250  -0.59421  -0.27024  -0.12802
  13   26846.1    372.5   0.026499845   0.32497  -0.36114   0.39597   0.19430
  14   27989.2    357.3   0.102306679   1.20334  -1.09528  -0.04332  -0.04267
  15   28481.0    351.1   0.008932819   0.10325  -0.20141   0.19883   0.15217
  16   28788.2    347.4   0.092030248   1.05243  -0.95951   0.33878   0.13035
  17   29110.1    343.5   0.836610032   9.46140   2.79197  -0.43325  -1.21598
  18   30504.2    327.8   0.008393217   0.09058   0.10380  -0.28223   0.01250
  19   30916.3    323.5   0.022526808   0.23988  -0.41436  -0.23595  -0.11185
  20   31036.0    322.2   0.101828795   1.08014   0.23133   0.76784   0.66110
  21   31777.2    314.7   0.095629145   0.99072   0.57930   0.05153  -0.80776
  22   31884.0    313.6   0.056171857   0.57999   0.18849  -0.03114  -0.73722
  23   32021.1    312.3   0.133548365   1.37302   0.24962   0.14182  -1.13605
  24   32281.6    309.8   0.223874937   2.28311  -0.36935   0.07920  -1.46302
  25   32303.9    309.6   1.818760024  18.53517  -0.97984  -0.16840   4.18888
  26   32767.6    305.2   0.061850916   0.62141  -0.73662   0.18426   0.21177
  27   33029.3    302.8   0.301073216   3.00087  -1.71850  -0.15331   0.15537
  28   33521.5    298.3   0.254525640   2.49967  -1.37659   0.77742  -0.01707
  29   33697.3    296.8   0.161443492   1.57725  -1.16104  -0.28490  -0.38481
  30   33793.6    295.9   0.145724826   1.41963  -0.95432   0.58586   0.40702
  31   34085.0    293.4   0.079371057   0.76661  -0.37815   0.02961   0.78914
  32   34628.2    288.8   0.073901053   0.70258   0.58944  -0.59347   0.05423
  33   34893.7    286.6   0.140436674   1.32498   0.88108  -0.26430   0.69197
  34   35161.9    284.4   0.017530124   0.16413  -0.40120   0.04444  -0.03454
  35   35232.7    283.8   0.173196004   1.61833   0.60699   0.16923   1.10511
  36   35490.3    281.8   0.018286799   0.16963   0.28573  -0.28047   0.09659
  37   35696.7    280.1   0.013243505   0.12214  -0.34240   0.04650  -0.05236
  38   35755.7    279.7   0.057733775   0.53157  -0.68986   0.12170  -0.20212
  39   36263.9    275.8   0.018233785   0.16553   0.15418  -0.07950  -0.36802
  40   36386.9    274.8   0.029798941   0.26961   0.04678   0.05590  -0.51409
  41   36704.0    272.4   0.032415868   0.29075  -0.21479   0.01010   0.49448
  42   36932.2    270.8   0.001306774   0.01165  -0.03962   0.06539  -0.07617
  43   36977.8    270.4   0.001118429   0.00996   0.02564   0.05667   0.07803
  44   37624.2    265.8   0.032591792   0.28518   0.14218   0.00425  -0.51473
  45   38079.8    262.6   0.005216820   0.04510   0.10292   0.18421   0.02398
  46   38371.3    260.6   0.003506864   0.03009  -0.15044  -0.08631  -0.00246
  47   38753.2    258.0   0.012692688   0.10783   0.26303  -0.04043  -0.19237
  48   38917.4    257.0   0.012207404   0.10327  -0.25009   0.02867   0.19974
  49   39092.4    255.8   0.014284501   0.12030   0.08466  -0.06660   0.32969
  50   39503.2    253.1   0.008098178   0.06749  -0.08550   0.05517   0.23903
  51   39668.0    252.1   0.019426764   0.16123  -0.00951  -0.01493   0.40114
  52   39934.3    250.4   0.009271847   0.07644   0.09483   0.00844  -0.25956
  53   40133.9    249.2   0.025775124   0.21143  -0.15920   0.14595  -0.40593
  54   40325.1    248.0   0.019970256   0.16304   0.00780   0.03656  -0.40204

FINAL SINGLE POINT ENERGY     -6688.956839215680

DIPOLE MOMENT
-------------
                                X             Y             Z
Electronic contribution:     10.17892      -3.17483      -2.18004
Nuclear contribution   :     -9.94279       3.01818       2.37246
                        -----------------------------------------
Total Dipole Moment    :      0.23613      -0.15665       0.19242
                        -----------------------------------------
Magnitude (a.u.)       :      0.34253
Magnitude (Debye)      :      0.87063

Rotational constants in cm-1:     0.001693     0.000103     0.000100
Rotational constants in MHz :    50.746688     3.077239     3.002363

                             ****ORCA TERMINATED NORMALLY****
TOTAL RUN TIME: 0 days 0 hours 8 minutes 55 seconds 416 msec
