                         Program Version 4.2.0 -  RELEASE  -
|  1> # ORCA input file
|  2> # SCF done       -218.562670999006          0.000755286784
|  3> ! CAM-B3LYP def2-SVP def2/J RIJCOSX Grid4 TightSCF
|  4> %maxcore 5000
|  5> %tddft
|  6>     Mode sTDDFT
|  7>     Ethresh 5.0
|  8>     maxcore 5000
|  9> end
| 10>
| 11> %pal
| 12>   nprocs 6
| 13>   end
| 14> * xyz 0 1
| 15>    C       -6.17120         0.58873         7.37129
| 16>    C       -5.56415         0.86383         8.56434
| 17>    F       -5.68141         2.07883         9.11479
| 18>    C       -4.80960        -0.12331         9.23027
| 19>    F       -4.22691         0.17487        10.39875
| 20>    C       -4.67303        -1.37275         8.69350
| 21>    C       -5.28838        -1.68776         7.46637
| 22>    C       -6.05015        -0.69011         6.79104
| 23>    C       -6.67533        -0.98231         5.55742
| 24>    C       -6.54531        -2.23536         5.01803
| 25>    C       -5.79169        -3.22677         5.70396
| 26>    C       -5.17215        -2.97362         6.89375
| 27>    C       -5.82112        -4.49006         4.94170
| 28>    O       -5.28105        -5.52628         5.26283
| 29>    C       -6.69249        -4.22642         3.76961
| 30>    C       -7.06231        -2.82075         3.78573
| 31>    C       -7.70866        -2.13311         2.79225
| 32>    C       -8.11300        -2.67369         1.55279
| 33>    N       -8.45167        -3.03482         0.51652
| 34>    C       -8.02549        -0.75976         2.86340
| 35>    N       -8.31747         0.35011         2.86586
| 36>    C       -7.23073        -5.14717         2.91323
| 37>    C       -6.93189        -6.51359         2.74070
| 38>    C       -5.85136        -7.29275         3.13436
| 39>    C       -5.97988        -8.61134         2.71854
| 40>    C       -7.17075        -8.85447         2.00024
| 41>    S       -8.10727        -7.45361         1.80776
| 42>    C       -7.22562       -10.23625         1.67409
| 43>    C       -6.07508       -10.85615         2.17823
| 44>    C       -5.23875        -9.85901         2.82412
| 45>    C       -4.00628       -10.06529         3.37013
| 46>    C       -3.41730       -11.34795         3.35643
| 47>    N       -2.96022       -12.39926         3.32196
| 48>    C       -3.22911        -9.03312         3.93890
| 49>    N       -2.57136        -8.20905         4.38705
| 50>    C       -6.05913       -12.23480         1.93483
| 51>    C       -7.17955       -12.64607         1.26021
| 52>    S       -8.27032       -11.34073         0.89478
| 53>    C       -7.48184       -14.06081         0.87179
| 54>    C       -8.87178       -14.21849         0.25414
| 55>    N       -6.51340       -14.40886        -0.18981
| 56>    N       -5.62550       -15.21551        -0.11167
| 57>    C       -5.26093       -16.03315         1.04449
| 58>    C       -6.22075       -15.84981         2.16153
| 59>    C       -7.30305       -14.92703         2.06418
| 60>    N       -8.01865       -15.03575         3.14530
| 61>    O       -7.43432       -15.97886         3.89218
| 62>    N       -6.34271       -16.48419         3.29181
| 63>    C       -3.83206       -15.63401         1.42929
| 64>    C       -5.34018       -17.52823         0.58543
| 65>    C       -4.67520       -17.75310        -0.77744
| 66>    N       -4.55785       -18.31421         1.53925
| 67>    N       -4.93905       -19.26484         2.17561
| 68>    C       -6.27456       -19.83804         2.20146
| 69>    C       -7.21570       -19.04708         1.36159
| 70>    C       -6.76350       -17.94696         0.57588
| 71>    N       -7.80175       -17.42496        -0.01164
| 72>    O       -8.85989       -18.16503         0.36792
| 73>    N       -8.50326       -19.14636         1.20207
| 74>    C       -6.73548       -19.84747         3.67081
| 75>    C       -6.27317       -21.23822         1.65292
| 76>    C       -5.27747       -21.94221         1.10297
| 77>    C       -5.61565       -23.09976         0.20429
| 78>    O       -6.64595       -23.72256         0.18732
| 79>    C       -4.45015       -23.22611        -0.69064
| 80>    C       -4.30197       -24.02745        -1.78771
| 81>    C       -3.09867       -23.96846        -2.52364
| 82>    C       -2.06893       -23.07137        -2.11250
| 83>    C       -0.87289       -23.01485        -2.85664
| 84>    C       -0.70578       -23.81260        -3.95339
| 85>    C       -1.72418       -24.70076        -4.35791
| 86>    C       -2.89576       -24.77800        -3.65897
| 87>    F       -1.53224       -25.46867        -5.43698
| 88>    F        0.43006       -23.75812        -4.65803
| 89>    C       -2.24565       -22.25993        -0.96938
| 90>    C       -3.41622       -22.34248        -0.26258
| 91>    C       -3.84462       -21.69514         0.97241
| 92>    C       -3.02698       -21.20292         1.94510
| 93>    C       -3.46196       -20.97232         3.27214
| 94>    N       -3.73518       -20.92782         4.38494
| 95>    C       -1.63974       -21.01628         1.76529
| 96>    N       -0.51481       -20.83363         1.63680
| 97>    H       -6.74352         1.35636         6.87427
| 98>    H       -4.09253        -2.11747         9.21508
| 99>    H       -7.24837        -0.20754         5.07451
|100>    H       -4.60320        -3.74514         7.38979
|101>    H       -8.04186        -4.80249         2.28171
|102>    H       -5.02881        -6.90213         3.70443
|103>    H       -5.27389       -12.89885         2.24685
|104>    H       -8.94830       -13.58880        -0.62817
|105>    H       -9.62841       -13.93721         0.98239
|106>    H       -9.02572       -15.25308        -0.04357
|107>    H       -3.81962       -14.63866         1.86808
|108>    H       -3.20809       -15.62554         0.54105
|109>    H       -3.43806       -16.34418         2.15037
|110>    H       -5.09111       -17.06228        -1.50495
|111>    H       -4.85101       -18.77690        -1.10568
|112>    H       -3.60506       -17.59415        -0.68743
|113>    H       -6.75969       -18.82833         4.04972
|114>    H       -6.03248       -20.42297         4.26571
|115>    H       -7.72880       -20.28323         3.73141
|116>    H       -7.26762       -21.66731         1.59358
|117>    H       -5.09321       -24.69758        -2.08748
|118>    H       -0.08160       -22.34506        -2.55839
|119>    H       -3.66487       -25.46270        -3.98036
|120>    H       -1.45453       -21.58670        -0.67958
|121> *
|122>
|123>                          ****END OF INPUT****

CARTESIAN COORDINATES (ANGSTROEM)
---------------------------------
  C     -6.171200    0.588730    7.371290
  C     -5.564150    0.863830    8.564340
  F     -5.681410    2.078830    9.114790
  C     -4.809600   -0.123310    9.230270
  F     -4.226910    0.174870   10.398750
  C     -4.673030   -1.372750    8.693500
  C     -5.288380   -1.687760    7.466370
  C     -6.050150   -0.690110    6.791040
  C     -6.675330   -0.982310    5.557420
  C     -6.545310   -2.235360    5.018030
  C     -5.791690   -3.226770    5.703960
  C     -5.172150   -2.973620    6.893750
  C     -5.821120   -4.490060    4.941700
  O     -5.281050   -5.526280    5.262830
  C     -6.692490   -4.226420    3.769610
  C     -7.062310   -2.820750    3.785730
  C     -7.708660   -2.133110    2.792250
  C     -8.113000   -2.673690    1.552790
  N     -8.451670   -3.034820    0.516520
  C     -8.025490   -0.759760    2.863400
  N     -8.317470    0.350110    2.865860
  C     -7.230730   -5.147170    2.913230
  C     -6.931890   -6.513590    2.740700
  C     -5.851360   -7.292750    3.134360
  C     -5.979880   -8.611340    2.718540
  C     -7.170750   -8.854470    2.000240
  S     -8.107270   -7.453610    1.807760
  C     -7.225620  -10.236250    1.674090
  C     -6.075080  -10.856150    2.178230
  C     -5.238750   -9.859010    2.824120
  C     -4.006280  -10.065290    3.370130
  C     -3.417300  -11.347950    3.356430
  N     -2.960220  -12.399260    3.321960
  C     -3.229110   -9.033120    3.938900
  N     -2.571360   -8.209050    4.387050
  C     -6.059130  -12.234800    1.934830
  C     -7.179550  -12.646070    1.260210
  S     -8.270320  -11.340730    0.894780
  C     -7.481840  -14.060810    0.871790
  C     -8.871780  -14.218490    0.254140
  N     -6.513400  -14.408860   -0.189810
  N     -5.625500  -15.215510   -0.111670
  C     -5.260930  -16.033150    1.044490
  C     -6.220750  -15.849810    2.161530
  C     -7.303050  -14.927030    2.064180
  N     -8.018650  -15.035750    3.145300
  O     -7.434320  -15.978860    3.892180
  N     -6.342710  -16.484190    3.291810
  C     -3.832060  -15.634010    1.429290
  C     -5.340180  -17.528230    0.585430
  C     -4.675200  -17.753100   -0.777440
  N     -4.557850  -18.314210    1.539250
  N     -4.939050  -19.264840    2.175610
  C     -6.274560  -19.838040    2.201460
  C     -7.215700  -19.047080    1.361590
  C     -6.763500  -17.946960    0.575880
  N     -7.801750  -17.424960   -0.011640
  O     -8.859890  -18.165030    0.367920
  N     -8.503260  -19.146360    1.202070
  C     -6.735480  -19.847470    3.670810
  C     -6.273170  -21.238220    1.652920
  C     -5.277470  -21.942210    1.102970
  C     -5.615650  -23.099760    0.204290
  O     -6.645950  -23.722560    0.187320
  C     -4.450150  -23.226110   -0.690640
  C     -4.301970  -24.027450   -1.787710
  C     -3.098670  -23.968460   -2.523640
  C     -2.068930  -23.071370   -2.112500
  C     -0.872890  -23.014850   -2.856640
  C     -0.705780  -23.812600   -3.953390
  C     -1.724180  -24.700760   -4.357910
  C     -2.895760  -24.778000   -3.658970
  F     -1.532240  -25.468670   -5.436980
  F      0.430060  -23.758120   -4.658030
  C     -2.245650  -22.259930   -0.969380
  C     -3.416220  -22.342480   -0.262580
  C     -3.844620  -21.695140    0.972410
  C     -3.026980  -21.202920    1.945100
  C     -3.461960  -20.972320    3.272140
  N     -3.735180  -20.927820    4.384940
  C     -1.639740  -21.016280    1.765290
  N     -0.514810  -20.833630    1.636800
  H     -6.743520    1.356360    6.874270
  H     -4.092530   -2.117470    9.215080
  H     -7.248370   -0.207540    5.074510
  H     -4.603200   -3.745140    7.389790
  H     -8.041860   -4.802490    2.281710
  H     -5.028810   -6.902130    3.704430
  H     -5.273890  -12.898850    2.246850
  H     -8.948300  -13.588800   -0.628170
  H     -9.628410  -13.937210    0.982390
  H     -9.025720  -15.253080   -0.043570
  H     -3.819620  -14.638660    1.868080
  H     -3.208090  -15.625540    0.541050
  H     -3.438060  -16.344180    2.150370
  H     -5.091110  -17.062280   -1.504950
  H     -4.851010  -18.776900   -1.105680
  H     -3.605060  -17.594150   -0.687430
  H     -6.759690  -18.828330    4.049720
  H     -6.032480  -20.422970    4.265710
  H     -7.728800  -20.283230    3.731410
  H     -7.267620  -21.667310    1.593580
  H     -5.093210  -24.697580   -2.087480
  H     -0.081600  -22.345060   -2.558390
  H     -3.664870  -25.462700   -3.980360
  H     -1.454530  -21.586700   -0.679580

 Total Charge           Charge          ....    0
 Multiplicity           Mult            ....    1
 Number of Electrons    NEL             ....  570
 Basis Dimension        Dim             .... 1276

ORBITAL ENERGIES
----------------

  NO   OCC          E(Eh)            E(eV)
   0   2.0000     -89.008326     -2422.0397
   1   2.0000     -89.004877     -2421.9458
   2   2.0000     -24.805687      -674.9971
   3   2.0000     -24.805439      -674.9903
   4   2.0000     -24.800709      -674.8616
   5   2.0000     -24.800003      -674.8424
   6   2.0000     -19.365439      -526.9604
   7   2.0000     -19.362220      -526.8728
   8   2.0000     -19.231923      -523.3272
   9   2.0000     -19.225480      -523.1519
  10   2.0000     -14.505374      -394.7113
  11   2.0000     -14.503879      -394.6706
  12   2.0000     -14.501748      -394.6126
  13   2.0000     -14.500179      -394.5699
  14   2.0000     -14.493311      -394.3830
  15   2.0000     -14.491484      -394.3333
  16   2.0000     -14.489715      -394.2852
  17   2.0000     -14.487564      -394.2266
  18   2.0000     -14.444308      -393.0496
  19   2.0000     -14.437296      -392.8588
  20   2.0000     -14.427587      -392.5946
  21   2.0000     -14.422733      -392.4625
  22   2.0000     -14.420326      -392.3970
  23   2.0000     -14.411828      -392.1658
  24   2.0000     -10.389728      -282.7189
  25   2.0000     -10.389369      -282.7091
  26   2.0000     -10.384263      -282.5701
  27   2.0000     -10.383601      -282.5522
  28   2.0000     -10.383239      -282.5423
  29   2.0000     -10.377318      -282.3812
  30   2.0000     -10.377154      -282.3767
  31   2.0000     -10.364073      -282.0208
  32   2.0000     -10.363429      -282.0032
  33   2.0000     -10.363386      -282.0021
  34   2.0000     -10.362396      -281.9751
  35   2.0000     -10.361448      -281.9493
  36   2.0000     -10.357302      -281.8365
  37   2.0000     -10.355266      -281.7811
  38   2.0000     -10.350932      -281.6632
  39   2.0000     -10.350707      -281.6571
  40   2.0000     -10.349302      -281.6188
  41   2.0000     -10.348710      -281.6027
  42   2.0000     -10.347861      -281.5796
  43   2.0000     -10.347097      -281.5588
  44   2.0000     -10.346049      -281.5303
  45   2.0000     -10.345996      -281.5289
  46   2.0000     -10.344677      -281.4930
  47   2.0000     -10.341960      -281.4190
  48   2.0000     -10.336589      -281.2729
  49   2.0000     -10.336392      -281.2675
  50   2.0000     -10.336043      -281.2580
  51   2.0000     -10.334509      -281.2163
  52   2.0000     -10.328276      -281.0467
  53   2.0000     -10.325558      -280.9727
  54   2.0000     -10.323110      -280.9061
  55   2.0000     -10.321011      -280.8490
  56   2.0000     -10.320546      -280.8363
  57   2.0000     -10.320134      -280.8251
  58   2.0000     -10.319712      -280.8137
  59   2.0000     -10.319491      -280.8076
  60   2.0000     -10.318547      -280.7819
  61   2.0000     -10.317024      -280.7405
  62   2.0000     -10.316021      -280.7132
  63   2.0000     -10.315944      -280.7111
  64   2.0000     -10.314117      -280.6614
  65   2.0000     -10.313833      -280.6537
  66   2.0000     -10.313578      -280.6467
  67   2.0000     -10.312005      -280.6039
  68   2.0000     -10.311493      -280.5900
  69   2.0000     -10.309486      -280.5354
  70   2.0000     -10.309329      -280.5311
  71   2.0000     -10.308323      -280.5037
  72   2.0000     -10.306410      -280.4517
  73   2.0000     -10.305937      -280.4388
  74   2.0000     -10.305926      -280.4385
  75   2.0000     -10.303796      -280.3805
  76   2.0000     -10.303223      -280.3649
  77   2.0000     -10.297169      -280.2002
  78   2.0000     -10.292500      -280.0732
  79   2.0000     -10.291087      -280.0347
  80   2.0000     -10.283793      -279.8362
  81   2.0000     -10.279532      -279.7203
  82   2.0000      -8.102478      -220.4796
  83   2.0000      -8.099682      -220.4035
  84   2.0000      -6.071698      -165.2193
  85   2.0000      -6.068769      -165.1396
  86   2.0000      -6.067411      -165.1026
  87   2.0000      -6.065066      -165.0388
  88   2.0000      -6.064618      -165.0266
  89   2.0000      -6.062266      -164.9626
  90   2.0000      -1.329097       -36.1666
  91   2.0000      -1.323420       -36.0121
  92   2.0000      -1.322402       -35.9844
  93   2.0000      -1.319137       -35.8956
  94   2.0000      -1.314188       -35.7609
  95   2.0000      -1.308544       -35.6073
  96   2.0000      -1.179629       -32.0993
  97   2.0000      -1.173315       -31.9275
  98   2.0000      -1.148772       -31.2597
  99   2.0000      -1.141319       -31.0569
 100   2.0000      -1.060674       -28.8624
 101   2.0000      -1.040822       -28.3222
 102   2.0000      -1.034281       -28.1442
 103   2.0000      -1.032384       -28.0926
 104   2.0000      -1.029332       -28.0095
 105   2.0000      -1.025924       -27.9168
 106   2.0000      -1.019191       -27.7336
 107   2.0000      -1.016618       -27.6636
 108   2.0000      -1.012979       -27.5646
 109   2.0000      -1.011767       -27.5316
 110   2.0000      -1.008990       -27.4560
 111   2.0000      -1.002272       -27.2732
 112   2.0000      -1.000122       -27.2147
 113   2.0000      -0.998832       -27.1796
 114   2.0000      -0.990383       -26.9497
 115   2.0000      -0.986904       -26.8550
 116   2.0000      -0.983099       -26.7515
 117   2.0000      -0.971840       -26.4451
 118   2.0000      -0.952011       -25.9055
 119   2.0000      -0.939992       -25.5785
 120   2.0000      -0.937353       -25.5067
 121   2.0000      -0.928960       -25.2783
 122   2.0000      -0.918174       -24.9848
 123   2.0000      -0.907702       -24.6998
 124   2.0000      -0.904039       -24.6002
 125   2.0000      -0.900229       -24.4965
 126   2.0000      -0.895861       -24.3776
 127   2.0000      -0.887463       -24.1491
 128   2.0000      -0.880572       -23.9616
 129   2.0000      -0.872964       -23.7545
 130   2.0000      -0.870467       -23.6866
 131   2.0000      -0.865402       -23.5488
 132   2.0000      -0.850131       -23.1332
 133   2.0000      -0.844155       -22.9706
 134   2.0000      -0.827981       -22.5305
 135   2.0000      -0.808135       -21.9905
 136   2.0000      -0.804960       -21.9041
 137   2.0000      -0.802326       -21.8324
 138   2.0000      -0.799848       -21.7650
 139   2.0000      -0.792186       -21.5565
 140   2.0000      -0.786359       -21.3979
 141   2.0000      -0.780606       -21.2414
 142   2.0000      -0.776372       -21.1262
 143   2.0000      -0.775649       -21.1065
 144   2.0000      -0.772554       -21.0223
 145   2.0000      -0.768675       -20.9167
 146   2.0000      -0.750081       -20.4108
 147   2.0000      -0.747587       -20.3429
 148   2.0000      -0.730058       -19.8659
 149   2.0000      -0.727599       -19.7990
 150   2.0000      -0.721585       -19.6353
 151   2.0000      -0.719701       -19.5841
 152   2.0000      -0.717700       -19.5296
 153   2.0000      -0.710543       -19.3349
 154   2.0000      -0.702966       -19.1287
 155   2.0000      -0.695664       -18.9300
 156   2.0000      -0.694422       -18.8962
 157   2.0000      -0.692065       -18.8321
 158   2.0000      -0.683500       -18.5990
 159   2.0000      -0.678598       -18.4656
 160   2.0000      -0.670314       -18.2402
 161   2.0000      -0.668627       -18.1943
 162   2.0000      -0.665145       -18.0995
 163   2.0000      -0.661999       -18.0139
 164   2.0000      -0.656787       -17.8721
 165   2.0000      -0.651841       -17.7375
 166   2.0000      -0.649449       -17.6724
 167   2.0000      -0.645882       -17.5753
 168   2.0000      -0.644052       -17.5256
 169   2.0000      -0.640151       -17.4194
 170   2.0000      -0.634645       -17.2696
 171   2.0000      -0.631522       -17.1846
 172   2.0000      -0.629064       -17.1177
 173   2.0000      -0.626172       -17.0390
 174   2.0000      -0.616593       -16.7784
 175   2.0000      -0.615689       -16.7538
 176   2.0000      -0.608034       -16.5455
 177   2.0000      -0.606340       -16.4993
 178   2.0000      -0.602677       -16.3997
 179   2.0000      -0.593761       -16.1570
 180   2.0000      -0.593319       -16.1450
 181   2.0000      -0.592276       -16.1167
 182   2.0000      -0.590349       -16.0642
 183   2.0000      -0.587903       -15.9976
 184   2.0000      -0.586003       -15.9459
 185   2.0000      -0.577622       -15.7179
 186   2.0000      -0.565200       -15.3799
 187   2.0000      -0.562215       -15.2986
 188   2.0000      -0.561585       -15.2815
 189   2.0000      -0.557656       -15.1746
 190   2.0000      -0.556834       -15.1522
 191   2.0000      -0.554730       -15.0950
 192   2.0000      -0.553326       -15.0568
 193   2.0000      -0.552920       -15.0457
 194   2.0000      -0.549913       -14.9639
 195   2.0000      -0.549421       -14.9505
 196   2.0000      -0.546697       -14.8764
 197   2.0000      -0.545608       -14.8468
 198   2.0000      -0.544530       -14.8174
 199   2.0000      -0.544123       -14.8063
 200   2.0000      -0.540132       -14.6978
 201   2.0000      -0.539012       -14.6673
 202   2.0000      -0.534926       -14.5561
 203   2.0000      -0.532903       -14.5010
 204   2.0000      -0.531476       -14.4622
 205   2.0000      -0.528916       -14.3925
 206   2.0000      -0.527622       -14.3573
 207   2.0000      -0.522225       -14.2105
 208   2.0000      -0.520430       -14.1616
 209   2.0000      -0.519043       -14.1239
 210   2.0000      -0.516326       -14.0499
 211   2.0000      -0.514169       -13.9913
 212   2.0000      -0.512521       -13.9464
 213   2.0000      -0.509439       -13.8625
 214   2.0000      -0.505920       -13.7668
 215   2.0000      -0.503962       -13.7135
 216   2.0000      -0.502384       -13.6706
 217   2.0000      -0.501309       -13.6413
 218   2.0000      -0.499620       -13.5953
 219   2.0000      -0.496498       -13.5104
 220   2.0000      -0.495368       -13.4796
 221   2.0000      -0.493911       -13.4400
 222   2.0000      -0.491518       -13.3749
 223   2.0000      -0.488188       -13.2843
 224   2.0000      -0.485651       -13.2152
 225   2.0000      -0.481414       -13.0999
 226   2.0000      -0.478595       -13.0232
 227   2.0000      -0.478216       -13.0129
 228   2.0000      -0.477536       -12.9944
 229   2.0000      -0.473542       -12.8857
 230   2.0000      -0.473186       -12.8761
 231   2.0000      -0.471530       -12.8310
 232   2.0000      -0.469226       -12.7683
 233   2.0000      -0.467431       -12.7194
 234   2.0000      -0.466485       -12.6937
 235   2.0000      -0.464157       -12.6304
 236   2.0000      -0.462517       -12.5857
 237   2.0000      -0.459763       -12.5108
 238   2.0000      -0.456220       -12.4144
 239   2.0000      -0.455608       -12.3977
 240   2.0000      -0.455086       -12.3835
 241   2.0000      -0.454861       -12.3774
 242   2.0000      -0.452557       -12.3147
 243   2.0000      -0.450661       -12.2631
 244   2.0000      -0.450573       -12.2607
 245   2.0000      -0.450364       -12.2550
 246   2.0000      -0.448909       -12.2154
 247   2.0000      -0.448445       -12.2028
 248   2.0000      -0.443843       -12.0776
 249   2.0000      -0.437672       -11.9097
 250   2.0000      -0.437175       -11.8961
 251   2.0000      -0.435810       -11.8590
 252   2.0000      -0.434819       -11.8320
 253   2.0000      -0.431249       -11.7349
 254   2.0000      -0.430701       -11.7200
 255   2.0000      -0.429415       -11.6850
 256   2.0000      -0.428910       -11.6712
 257   2.0000      -0.423889       -11.5346
 258   2.0000      -0.421119       -11.4592
 259   2.0000      -0.419358       -11.4113
 260   2.0000      -0.415972       -11.3192
 261   2.0000      -0.415370       -11.3028
 262   2.0000      -0.411600       -11.2002
 263   2.0000      -0.410524       -11.1709
 264   2.0000      -0.409084       -11.1318
 265   2.0000      -0.407007       -11.0752
 266   2.0000      -0.403517       -10.9803
 267   2.0000      -0.392953       -10.6928
 268   2.0000      -0.391718       -10.6592
 269   2.0000      -0.391107       -10.6426
 270   2.0000      -0.390193       -10.6177
 271   2.0000      -0.380451       -10.3526
 272   2.0000      -0.363414        -9.8890
 273   2.0000      -0.358779        -9.7629
 274   2.0000      -0.350836        -9.5467
 275   2.0000      -0.342054        -9.3078
 276   2.0000      -0.341441        -9.2911
 277   2.0000      -0.334177        -9.0934
 278   2.0000      -0.325574        -8.8593
 279   2.0000      -0.321628        -8.7519
 280   2.0000      -0.316776        -8.6199
 281   2.0000      -0.309540        -8.4230
 282   2.0000      -0.306876        -8.3505
 283   2.0000      -0.304613        -8.2889
 284   2.0000      -0.280910        -7.6440
 285   0.0000      -0.120459        -3.2779
 286   0.0000      -0.097677        -2.6579
 287   0.0000      -0.093321        -2.5394
 288   0.0000      -0.065956        -1.7948
 289   0.0000      -0.065606        -1.7852

MULLIKEN ATOMIC CHARGES
-----------------------
   0 C :   -0.111069
   1 C :    0.243841
   2 F :   -0.169847
   3 C :    0.240567
   4 F :   -0.170092
   5 C :   -0.105887
   6 C :    0.117723
   7 C :    0.116568
   8 C :   -0.086078
   9 C :    0.052653
  10 C :   -0.005425
  11 C :   -0.081956
  12 C :    0.156205
  13 O :   -0.147834
  14 C :   -0.093467
  15 C :    0.307159
  16 C :   -0.350376
  17 C :   -0.202804
  18 N :    0.163038
  19 C :   -0.180966
  20 N :    0.148981
  21 C :    0.032885
  22 C :   -0.117088
  23 C :    0.020681
  24 C :   -0.016147
  25 C :   -0.084679
  26 S :    0.212350
  27 C :   -0.101240
  28 C :    0.008398
  29 C :    0.300145
  30 C :   -0.286255
  31 C :   -0.181679
  32 N :    0.168975
  33 C :   -0.187177
  34 N :    0.195695
  35 C :   -0.010844
  36 C :   -0.027148
  37 S :    0.213293
  38 C :   -0.114142
  39 C :    0.107217
  40 N :   -0.057987
  41 N :   -0.083903
  42 C :   -0.136819
  43 C :   -0.065981
  44 C :   -0.080790
  45 N :    0.076796
  46 O :   -0.123882
  47 N :    0.053937
  48 C :    0.171951
  49 C :   -0.162607
  50 C :    0.168777
  51 N :   -0.064022
  52 N :   -0.093286
  53 C :   -0.064080
  54 C :   -0.095743
  55 C :   -0.035578
  56 N :    0.049543
  57 O :   -0.125071
  58 N :    0.066742
  59 C :    0.124828
  60 C :    0.034916
  61 C :   -0.099379
  62 C :    0.144889
  63 O :   -0.123413
  64 C :   -0.000049
  65 C :   -0.076215
  66 C :    0.110579
  67 C :    0.113457
  68 C :   -0.106738
  69 C :    0.243769
  70 C :    0.240292
  71 C :   -0.102885
  72 F :   -0.168767
  73 F :   -0.167513
  74 C :   -0.084852
  75 C :    0.054202
  76 C :    0.207390
  77 C :   -0.261341
  78 C :   -0.112903
  79 N :    0.128926
  80 C :   -0.178939
  81 N :    0.154505
  82 H :    0.008567
  83 H :    0.001641
  84 H :   -0.005241
  85 H :   -0.006138
  86 H :    0.020116
  87 H :    0.037961
  88 H :   -0.013423
  89 H :    0.038079
  90 H :    0.042306
  91 H :    0.046701
  92 H :    0.022071
  93 H :    0.031549
  94 H :    0.056642
  95 H :    0.054795
  96 H :    0.012284
  97 H :    0.035756
  98 H :    0.039452
  99 H :    0.055488
 100 H :    0.031344
 101 H :    0.038562
 102 H :   -0.004172
 103 H :    0.008379
 104 H :    0.002057
 105 H :   -0.001706
Sum of atomic charges:    0.0000000

LOEWDIN ATOMIC CHARGES
----------------------
   0 C :   -0.029266
   1 C :    0.067378
   2 F :   -0.047808
   3 C :    0.068394
   4 F :   -0.048043
   5 C :   -0.032331
   6 C :   -0.008121
   7 C :   -0.006206
   8 C :    0.018267
   9 C :   -0.023914
  10 C :   -0.052592
  11 C :    0.032272
  12 C :    0.085835
  13 O :   -0.136095
  14 C :   -0.094719
  15 C :    0.075843
  16 C :   -0.140255
  17 C :   -0.025684
  18 N :   -0.051000
  19 C :   -0.017584
  20 N :   -0.051367
  21 C :    0.044723
  22 C :   -0.176913
  23 C :    0.023177
  24 C :   -0.075089
  25 C :   -0.157620
  26 S :    0.501284
  27 C :   -0.189448
  28 C :   -0.053138
  29 C :    0.078411
  30 C :   -0.093795
  31 C :   -0.006959
  32 N :   -0.034248
  33 C :   -0.022437
  34 N :   -0.013409
  35 C :   -0.030753
  36 C :   -0.154644
  37 S :    0.512155
  38 C :   -0.047814
  39 C :   -0.038122
  40 N :    0.003518
  41 N :   -0.006318
  42 C :   -0.031118
  43 C :   -0.068616
  44 C :   -0.064259
  45 N :   -0.001250
  46 O :    0.051332
  47 N :   -0.013857
  48 C :   -0.024408
  49 C :   -0.030994
  50 C :   -0.025070
  51 N :    0.003624
  52 N :    0.030947
  53 C :   -0.038536
  54 C :   -0.059561
  55 C :   -0.063694
  56 N :   -0.017796
  57 O :    0.049482
  58 N :   -0.000846
  59 C :   -0.018467
  60 C :    0.073133
  61 C :   -0.073560
  62 C :    0.088049
  63 O :   -0.125150
  64 C :   -0.059620
  65 C :    0.035269
  66 C :   -0.010241
  67 C :   -0.003413
  68 C :   -0.030861
  69 C :    0.069462
  70 C :    0.067774
  71 C :   -0.031515
  72 F :   -0.046526
  73 F :   -0.045353
  74 C :    0.011262
  75 C :   -0.019314
  76 C :    0.050495
  77 C :   -0.102652
  78 C :   -0.016149
  79 N :   -0.052452
  80 C :   -0.015294
  81 N :   -0.040100
  82 H :    0.047981
  83 H :    0.045658
  84 H :    0.040127
  85 H :    0.041771
  86 H :    0.044099
  87 H :    0.045239
  88 H :    0.035463
  89 H :    0.030465
  90 H :    0.034740
  91 H :    0.037031
  92 H :    0.030441
  93 H :    0.036041
  94 H :    0.042212
  95 H :    0.040890
  96 H :    0.028587
  97 H :    0.036436
  98 H :    0.033862
  99 H :    0.039680
 100 H :    0.035027
 101 H :    0.052001
 102 H :    0.042419
 103 H :    0.048072
 104 H :    0.045890
 105 H :    0.040142

  Mayer bond orders larger than 0.100000
B(  0-C ,  1-C ) :   1.4407 B(  0-C ,  5-C ) :   0.1086 B(  0-C ,  7-C ) :   1.1884
B(  0-C , 82-H ) :   1.0071 B(  1-C ,  2-F ) :   1.1359 B(  1-C ,  3-C ) :   1.1899
B(  3-C ,  4-F ) :   1.1347 B(  3-C ,  5-C ) :   1.4427 B(  5-C ,  6-C ) :   1.1916
B(  5-C , 83-H ) :   1.0075 B(  6-C ,  7-C ) :   1.2548 B(  6-C , 11-C ) :   1.1877
B(  7-C ,  8-C ) :   1.2171 B(  8-C ,  9-C ) :   1.4482 B(  8-C , 84-H ) :   0.9907
B(  9-C , 10-C ) :   1.2203 B(  9-C , 15-C ) :   0.9854 B( 10-C , 11-C ) :   1.4696
B( 10-C , 12-C ) :   0.9480 B( 11-C , 85-H ) :   1.0174 B( 12-C , 13-O ) :   2.1894
B( 12-C , 14-C ) :   0.9424 B( 14-C , 15-C ) :   1.0735 B( 14-C , 21-C ) :   1.5958
B( 15-C , 16-C ) :   1.6348 B( 16-C , 17-C ) :   1.1387 B( 16-C , 19-C ) :   1.1471
B( 17-C , 18-N ) :   2.9914 B( 19-C , 20-N ) :   2.9654 B( 21-C , 22-C ) :   1.2024
B( 21-C , 86-H ) :   0.9216 B( 22-C , 23-C ) :   1.4081 B( 22-C , 26-S ) :   1.0781
B( 23-C , 24-C ) :   1.3212 B( 23-C , 87-H ) :   0.9730 B( 24-C , 25-C ) :   1.3964
B( 24-C , 29-C ) :   0.9926 B( 25-C , 26-S ) :   1.1742 B( 25-C , 27-C ) :   1.1863
B( 27-C , 28-C ) :   1.4504 B( 27-C , 37-S ) :   1.1221 B( 28-C , 29-C ) :   1.0042
B( 28-C , 35-C ) :   1.2960 B( 29-C , 30-C ) :   1.7209 B( 30-C , 31-C ) :   1.1323
B( 30-C , 33-C ) :   1.1310 B( 31-C , 32-N ) :   2.9939 B( 33-C , 34-N ) :   2.9980
B( 35-C , 36-C ) :   1.5014 B( 35-C , 88-H ) :   0.9880 B( 36-C , 37-S ) :   1.1448
B( 36-C , 38-C ) :   0.9686 B( 38-C , 39-C ) :   1.0880 B( 38-C , 40-N ) :   0.9477
B( 38-C , 44-C ) :   0.9234 B( 39-C , 89-H ) :   0.9420 B( 39-C , 90-H ) :   0.9514
B( 39-C , 91-H ) :   0.9427 B( 40-N , 41-N ) :   1.8502 B( 41-N , 42-C ) :   0.9679
B( 42-C , 43-C ) :   0.8967 B( 42-C , 48-C ) :   1.0671 B( 42-C , 49-C ) :   0.9548
B( 43-C , 44-C ) :   1.2081 B( 43-C , 47-N ) :   1.7405 B( 44-C , 45-N ) :   1.7492
B( 45-N , 46-O ) :   1.0492 B( 45-N , 47-N ) :   0.1491 B( 46-O , 47-N ) :   1.0346
B( 48-C , 92-H ) :   0.9415 B( 48-C , 93-H ) :   0.9460 B( 48-C , 94-H ) :   0.9374
B( 49-C , 50-C ) :   1.0625 B( 49-C , 51-N ) :   0.9848 B( 49-C , 55-C ) :   0.9047
B( 50-C , 95-H ) :   0.9416 B( 50-C , 96-H ) :   0.9451 B( 50-C , 97-H ) :   0.9522
B( 51-N , 52-N ) :   1.8587 B( 52-N , 53-C ) :   0.9345 B( 53-C , 54-C ) :   0.9131
B( 53-C , 59-C ) :   1.0573 B( 53-C , 60-C ) :   0.9558 B( 54-C , 55-C ) :   1.2349
B( 54-C , 58-N ) :   1.7173 B( 55-C , 56-N ) :   1.7408 B( 56-N , 57-O ) :   1.0307
B( 56-N , 58-N ) :   0.1488 B( 57-O , 58-N ) :   1.0469 B( 59-C , 98-H ) :   0.9398
B( 59-C , 99-H ) :   0.9459 B( 59-C ,100-H ) :   0.9506 B( 60-C , 61-C ) :   1.8590
B( 60-C ,101-H ) :   0.9339 B( 61-C , 62-C ) :   0.9125 B( 61-C , 76-C ) :   0.9679
B( 62-C , 63-O ) :   2.2924 B( 62-C , 64-C ) :   0.9175 B( 64-C , 65-C ) :   1.4668
B( 64-C , 75-C ) :   1.2211 B( 65-C , 66-C ) :   1.2046 B( 65-C ,102-H ) :   1.0160
B( 66-C , 67-C ) :   1.2535 B( 66-C , 71-C ) :   1.1897 B( 67-C , 68-C ) :   1.1883
B( 67-C , 74-C ) :   1.2172 B( 68-C , 69-C ) :   1.4430 B( 68-C , 71-C ) :   0.1084
B( 68-C ,103-H ) :   1.0070 B( 69-C , 70-C ) :   1.1882 B( 69-C , 73-F ) :   1.1380
B( 70-C , 71-C ) :   1.4465 B( 70-C , 72-F ) :   1.1365 B( 71-C ,104-H ) :   1.0071
B( 74-C , 75-C ) :   1.4531 B( 74-C ,105-H ) :   0.9963 B( 75-C , 76-C ) :   1.0007
B( 76-C , 77-C ) :   1.7326 B( 77-C , 78-C ) :   1.1223 B( 77-C , 80-C ) :   1.1379
B( 78-C , 79-N ) :   2.9455 B( 80-C , 81-N ) :   2.9874

-----------------------------------------------------------------------------
         ABSORPTION SPECTRUM VIA TRANSITION ELECTRIC DIPOLE MOMENTS
-----------------------------------------------------------------------------
State   Energy  Wavelength   fosc         T2         TX        TY        TZ
        (cm-1)    (nm)                  (au**2)     (au)      (au)      (au)
-----------------------------------------------------------------------------
   0   16018.2    624.3   0.173710326   3.57016   0.02655  -1.81644  -0.51960
   1   22607.9    442.3   1.064038067  15.49432  -0.39687   3.81209   0.89709
   2   24550.7    407.3   0.002982184   0.03999  -0.00305   0.16018  -0.11968
   3   25078.2    398.8   0.005294112   0.06950  -0.04164   0.24297   0.09344
   4   26428.7    378.4   0.098910058   1.23208   0.17407   0.83785   0.70696
   5   26893.2    371.8   0.008987666   0.11002   0.07804  -0.20659  -0.24749
   6   27515.7    363.4   0.008258147   0.09880  -0.09786  -0.28938   0.07408
   7   28127.6    355.5   0.006295343   0.07368  -0.19898   0.15038   0.10713
   8   28760.6    347.7   0.018661604   0.21361  -0.03538  -0.45504  -0.07277
   9   29327.9    341.0   0.041196738   0.46244  -0.48125   0.28750  -0.38495
  10   29372.7    340.5   0.083694868   0.93806  -0.07487  -0.20953  -0.94263
  11   29936.7    334.0   0.032024925   0.35218   0.19562  -0.11313  -0.54874
  12   30305.4    330.0   0.253912004   2.75828   0.69295  -1.20660  -0.90676
  13   30516.8    327.7   0.044221758   0.47706  -0.32944   0.49244   0.35500
  14   31050.0    322.1   0.569782282   6.04119  -1.81632  -0.56539  -1.55644
  15   31064.4    321.9   0.144853687   1.53512   0.17983   0.35171   1.17434
  16   31737.7    315.1   0.179330502   1.86018  -0.97433  -0.65881  -0.69052
  17   32303.5    309.6   0.000057446   0.00059  -0.00665  -0.02285  -0.00435
  18   32807.7    304.8   0.240979293   2.41813   0.42535   1.09304   1.02102
  19   33298.3    300.3   0.000118448   0.00117  -0.01218  -0.02208  -0.02313
  20   33406.6    299.3   0.014318543   0.14110  -0.07112  -0.31765  -0.18747
  21   33657.5    297.1   0.048210447   0.47156  -0.11886  -0.32981  -0.59047
  22   33988.7    294.2   0.102367387   0.99152   0.63353  -0.55623   0.52988
  23   34033.3    293.8   0.015421522   0.14918  -0.18809   0.27656  -0.19317
  24   34106.8    293.2   0.237769214   2.29504   0.41332   0.73395   1.25918
  25   34541.3    289.5   0.023335559   0.22241   0.45048  -0.02178   0.13785
  26   34574.4    289.2   0.103415900   0.98471   0.60848   0.13084   0.77288
  27   34794.7    287.4   0.486258925   4.60076  -0.79605  -0.51801  -1.92321
  28   35046.6    285.3   0.000927089   0.00871   0.02889  -0.08279  -0.03194
  29   35578.6    281.1   0.142876808   1.32205  -0.99044   0.45701   0.36363
  30   35649.7    280.5   0.345979418   3.19499   0.26834   0.82845   1.56098
  31   35869.0    278.8   0.416823155   3.82568  -0.34963   0.95034   1.67341
  32   37327.8    267.9   0.000007219   0.00006  -0.00067  -0.00463   0.00646
  33   37730.9    265.0   0.334277584   2.91666   0.52159  -1.59482   0.31805
  34   38119.2    262.3   0.089201666   0.77038   0.78399  -0.37035  -0.13628
  35   38203.1    261.8   0.062025929   0.53450  -0.38267   0.52390  -0.33704
  36   38419.8    260.3   0.110121389   0.94361   0.37977  -0.82918   0.33442
  37   38579.6    259.2   0.002606760   0.02224   0.13236  -0.06166   0.03038
  38   39149.8    255.4   0.016427687   0.13814   0.25000  -0.26699   0.06601
  39   39430.9    253.6   0.004776486   0.03988  -0.04049   0.03120  -0.19305
  40   39895.7    250.7   0.009582180   0.07907  -0.15446  -0.23240   0.03465
  41   40124.3    249.2   0.048759873   0.40007   0.58282   0.20301   0.13845
  42   40149.0    249.1   0.178691660   1.46523  -1.12870  -0.13663   0.41545
  43   40247.8    248.5   0.118049318   0.96560  -0.09600   0.93712   0.27964

FINAL SINGLE POINT ENERGY     -4482.589121832549

DIPOLE MOMENT
-------------
                                X             Y             Z
Electronic contribution:      8.87513      37.37139       7.58454
Nuclear contribution   :     -9.95607     -38.56798      -8.86356
                        -----------------------------------------
Total Dipole Moment    :     -1.08093      -1.19659      -1.27902
                        -----------------------------------------
Magnitude (a.u.)       :      2.05819
Magnitude (Debye)      :      5.23150

Rotational constants in cm-1:     0.001966     0.000190     0.000188
Rotational constants in MHz :    58.945909     5.704118     5.623505

                             ****ORCA TERMINATED NORMALLY****
TOTAL RUN TIME: 0 days 0 hours 18 minutes 4 seconds 550 msec
