                         Program Version 4.2.0 -  RELEASE  -
|  1> # ORCA input file
|  2> # SCF done       -172.457217859773          0.000995363518
|  3> ! CAM-B3LYP def2-SVP def2/J RIJCOSX Grid4 TightSCF
|  4> %maxcore 5000
|  5> %tddft
|  6>     Mode sTDDFT
|  7>     Ethresh 5.0
|  8>     maxcore 5000
|  9> end
| 10>
| 11> %pal
| 12>   nprocs 6
| 13>   end
| 14> * xyz 0 1
| 15>    C        0.85019        -1.48872        -5.28016
| 16>    C        0.51807        -0.49280        -6.14753
| 17>    C        0.22224         0.70261        -5.46489
| 18>    C        0.34362         0.56877        -4.07669
| 19>    S        0.81395        -1.00576        -3.61669
| 20>    C        0.03120         1.81935        -3.47033
| 21>    C       -0.28892         2.73513        -4.48121
| 22>    C       -0.17669         2.06378        -5.77106
| 23>    C       -0.39423         2.61088        -7.00145
| 24>    C       -0.77503         3.95942        -7.16457
| 25>    N       -1.08342         5.05593        -7.29675
| 26>    C       -0.24905         1.86861        -8.19239
| 27>    N       -0.13114         1.26685        -9.16124
| 28>    C       -0.60643         4.00154        -3.98780
| 29>    C       -0.52443         4.05293        -2.60924
| 30>    S       -0.05310         2.50969        -1.91181
| 31>    C       -0.75335         5.17299        -1.76889
| 32>    C       -0.60008         5.24439        -0.39697
| 33>    C       -0.88462         6.51931         0.09347
| 34>    C       -1.26480         7.42074        -0.91411
| 35>    S       -1.26976         6.70276        -2.46402
| 36>    C       -1.50787         8.68591        -0.32129
| 37>    C       -1.27259         8.58642         1.06053
| 38>    C       -0.88330         7.21916         1.36892
| 39>    C       -0.58042         6.70278         2.59405
| 40>    C       -0.60927         7.48839         3.76576
| 41>    N       -0.63062         8.12667         4.71792
| 42>    C       -0.21871         5.35032         2.76913
| 43>    N        0.07572         4.25146         2.91204
| 44>    C       -1.46128         9.79430         1.73199
| 45>    C       -1.84503        10.80801         0.87367
| 46>    S       -1.97719        10.25804        -0.79222
| 47>    C       -2.10037        12.16558         1.19265
| 48>    C       -2.57001        13.15437         0.34693
| 49>    C       -2.67716        14.38479         0.99338
| 50>    C       -2.27797        14.33357         2.34003
| 51>    S       -1.78773        12.76659         2.81452
| 52>    C       -2.39515        15.63090         2.89712
| 53>    C       -2.88030        16.50343         1.90245
| 54>    C       -3.07473        15.74781         0.67543
| 55>    C       -3.52411        16.21692        -0.52337
| 56>    C       -3.86654        17.57189        -0.71824
| 57>    N       -4.14266        18.67173        -0.88684
| 58>    C       -3.66688        15.37858        -1.64934
| 59>    N       -3.77837        14.70083        -2.56739
| 60>    C       -3.02024        17.81358         2.34875
| 61>    C       -2.63541        17.95850         3.67287
| 62>    S       -2.10306        16.43280         4.37064
| 63>    C       -2.63239        19.11327         4.49070
| 64>    C       -3.05323        20.34460         4.10050
| 65>    C       -3.01969        21.51391         4.90002
| 66>    C       -2.94636        21.67979         6.24991
| 67>    C       -2.52185        23.01468         6.76874
| 68>    O       -2.45803        24.03699         6.12186
| 69>    C       -2.16579        22.79089         8.17955
| 70>    C       -2.48327        21.47928         8.53186
| 71>    C       -3.11654        20.81266         7.39482
| 72>    C       -3.91967        19.70530         7.48499
| 73>    C       -4.69429        19.20072         6.42193
| 74>    N       -5.35139        18.75008         5.59545
| 75>    C       -4.12880        18.96960         8.66996
| 76>    N       -4.33044        18.32065         9.59516
| 77>    C       -2.20046        20.99972         9.81730
| 78>    C       -1.61823        21.84784        10.72323
| 79>    C       -1.30388        23.18701        10.40436
| 80>    C       -1.57863        23.68352         9.09686
| 81>    C       -1.26002        25.01966         8.77989
| 82>    C       -0.69452        25.83286         9.72288
| 83>    C       -0.42216        25.34937        11.01280
| 84>    C       -0.71857        24.05648        11.34705
| 85>    H        1.12061        -2.49909        -5.51319
| 86>    H        0.48921        -0.61519        -7.21471
| 87>    H       -0.87961         4.85132        -4.58736
| 88>    H       -0.28934         4.40504         0.19893
| 89>    H       -1.33068         9.94437         2.78873
| 90>    H       -2.81662        12.97059        -0.68343
| 91>    H       -3.37792        18.62813         1.74710
| 92>    H       -2.22473        18.98072         5.48449
| 93>    H       -3.37818        20.48464         3.07947
| 94>    H       -2.98387        22.45050         4.34940
| 95>    H       -2.42216        19.98066        10.08937
| 96>    H       -1.38837        21.49177        11.71708
| 97>    H       -1.47338        25.37956         7.78581
| 98>    H       -0.45268        26.85689         9.48062
| 99>    H        0.02532        26.00909        11.74138
|100>    H       -0.51027        23.68256        12.33907
|101> *
|102>
|103>                          ****END OF INPUT****

CARTESIAN COORDINATES (ANGSTROEM)
---------------------------------
  C      0.850190   -1.488720   -5.280160
  C      0.518070   -0.492800   -6.147530
  C      0.222240    0.702610   -5.464890
  C      0.343620    0.568770   -4.076690
  S      0.813950   -1.005760   -3.616690
  C      0.031200    1.819350   -3.470330
  C     -0.288920    2.735130   -4.481210
  C     -0.176690    2.063780   -5.771060
  C     -0.394230    2.610880   -7.001450
  C     -0.775030    3.959420   -7.164570
  N     -1.083420    5.055930   -7.296750
  C     -0.249050    1.868610   -8.192390
  N     -0.131140    1.266850   -9.161240
  C     -0.606430    4.001540   -3.987800
  C     -0.524430    4.052930   -2.609240
  S     -0.053100    2.509690   -1.911810
  C     -0.753350    5.172990   -1.768890
  C     -0.600080    5.244390   -0.396970
  C     -0.884620    6.519310    0.093470
  C     -1.264800    7.420740   -0.914110
  S     -1.269760    6.702760   -2.464020
  C     -1.507870    8.685910   -0.321290
  C     -1.272590    8.586420    1.060530
  C     -0.883300    7.219160    1.368920
  C     -0.580420    6.702780    2.594050
  C     -0.609270    7.488390    3.765760
  N     -0.630620    8.126670    4.717920
  C     -0.218710    5.350320    2.769130
  N      0.075720    4.251460    2.912040
  C     -1.461280    9.794300    1.731990
  C     -1.845030   10.808010    0.873670
  S     -1.977190   10.258040   -0.792220
  C     -2.100370   12.165580    1.192650
  C     -2.570010   13.154370    0.346930
  C     -2.677160   14.384790    0.993380
  C     -2.277970   14.333570    2.340030
  S     -1.787730   12.766590    2.814520
  C     -2.395150   15.630900    2.897120
  C     -2.880300   16.503430    1.902450
  C     -3.074730   15.747810    0.675430
  C     -3.524110   16.216920   -0.523370
  C     -3.866540   17.571890   -0.718240
  N     -4.142660   18.671730   -0.886840
  C     -3.666880   15.378580   -1.649340
  N     -3.778370   14.700830   -2.567390
  C     -3.020240   17.813580    2.348750
  C     -2.635410   17.958500    3.672870
  S     -2.103060   16.432800    4.370640
  C     -2.632390   19.113270    4.490700
  C     -3.053230   20.344600    4.100500
  C     -3.019690   21.513910    4.900020
  C     -2.946360   21.679790    6.249910
  C     -2.521850   23.014680    6.768740
  O     -2.458030   24.036990    6.121860
  C     -2.165790   22.790890    8.179550
  C     -2.483270   21.479280    8.531860
  C     -3.116540   20.812660    7.394820
  C     -3.919670   19.705300    7.484990
  C     -4.694290   19.200720    6.421930
  N     -5.351390   18.750080    5.595450
  C     -4.128800   18.969600    8.669960
  N     -4.330440   18.320650    9.595160
  C     -2.200460   20.999720    9.817300
  C     -1.618230   21.847840   10.723230
  C     -1.303880   23.187010   10.404360
  C     -1.578630   23.683520    9.096860
  C     -1.260020   25.019660    8.779890
  C     -0.694520   25.832860    9.722880
  C     -0.422160   25.349370   11.012800
  C     -0.718570   24.056480   11.347050
  H      1.120610   -2.499090   -5.513190
  H      0.489210   -0.615190   -7.214710
  H     -0.879610    4.851320   -4.587360
  H     -0.289340    4.405040    0.198930
  H     -1.330680    9.944370    2.788730
  H     -2.816620   12.970590   -0.683430
  H     -3.377920   18.628130    1.747100
  H     -2.224730   18.980720    5.484490
  H     -3.378180   20.484640    3.079470
  H     -2.983870   22.450500    4.349400
  H     -2.422160   19.980660   10.089370
  H     -1.388370   21.491770   11.717080
  H     -1.473380   25.379560    7.785810
  H     -0.452680   26.856890    9.480620
  H      0.025320   26.009090   11.741380
  H     -0.510270   23.682560   12.339070

 Total Charge           Charge          ....    0
 Multiplicity           Mult            ....    1
 Number of Electrons    NEL             ....  506
 Basis Dimension        Dim             .... 1084

ORBITAL ENERGIES
----------------

  NO   OCC          E(Eh)            E(eV)
   0   2.0000     -88.997712     -2421.7509
   1   2.0000     -88.997345     -2421.7409
   2   2.0000     -88.996006     -2421.7045
   3   2.0000     -88.995587     -2421.6930
   4   2.0000     -88.994073     -2421.6518
   5   2.0000     -88.989521     -2421.5280
   6   2.0000     -19.217581      -522.9370
   7   2.0000     -14.436301      -392.8317
   8   2.0000     -14.436240      -392.8301
   9   2.0000     -14.435456      -392.8087
  10   2.0000     -14.434784      -392.7904
  11   2.0000     -14.431815      -392.7097
  12   2.0000     -14.430621      -392.6772
  13   2.0000     -14.418139      -392.3375
  14   2.0000     -14.416659      -392.2972
  15   2.0000     -10.370870      -282.2057
  16   2.0000     -10.370281      -282.1897
  17   2.0000     -10.367597      -282.1167
  18   2.0000     -10.365349      -282.0555
  19   2.0000     -10.357961      -281.8545
  20   2.0000     -10.357315      -281.8369
  21   2.0000     -10.352960      -281.7184
  22   2.0000     -10.345822      -281.5241
  23   2.0000     -10.344171      -281.4792
  24   2.0000     -10.340822      -281.3881
  25   2.0000     -10.338880      -281.3352
  26   2.0000     -10.338103      -281.3141
  27   2.0000     -10.337694      -281.3030
  28   2.0000     -10.336875      -281.2807
  29   2.0000     -10.336549      -281.2718
  30   2.0000     -10.336521      -281.2710
  31   2.0000     -10.335626      -281.2467
  32   2.0000     -10.335481      -281.2427
  33   2.0000     -10.335094      -281.2322
  34   2.0000     -10.334834      -281.2251
  35   2.0000     -10.334000      -281.2024
  36   2.0000     -10.332499      -281.1616
  37   2.0000     -10.332317      -281.1566
  38   2.0000     -10.331347      -281.1303
  39   2.0000     -10.330933      -281.1190
  40   2.0000     -10.326701      -281.0038
  41   2.0000     -10.319637      -280.8116
  42   2.0000     -10.319022      -280.7949
  43   2.0000     -10.315157      -280.6897
  44   2.0000     -10.313311      -280.6395
  45   2.0000     -10.312893      -280.6281
  46   2.0000     -10.311469      -280.5893
  47   2.0000     -10.309875      -280.5460
  48   2.0000     -10.309393      -280.5328
  49   2.0000     -10.309351      -280.5317
  50   2.0000     -10.309131      -280.5257
  51   2.0000     -10.308961      -280.5211
  52   2.0000     -10.308551      -280.5099
  53   2.0000     -10.308513      -280.5089
  54   2.0000     -10.306960      -280.4666
  55   2.0000     -10.305481      -280.4264
  56   2.0000     -10.304981      -280.4128
  57   2.0000     -10.301072      -280.3064
  58   2.0000     -10.299149      -280.2541
  59   2.0000     -10.297182      -280.2006
  60   2.0000     -10.296404      -280.1794
  61   2.0000     -10.296303      -280.1767
  62   2.0000     -10.295780      -280.1624
  63   2.0000     -10.295572      -280.1568
  64   2.0000     -10.293123      -280.0901
  65   2.0000     -10.292383      -280.0700
  66   2.0000     -10.284441      -279.8539
  67   2.0000     -10.283915      -279.8396
  68   2.0000     -10.281948      -279.7860
  69   2.0000     -10.278014      -279.6790
  70   2.0000      -8.092040      -220.1956
  71   2.0000      -8.091711      -220.1866
  72   2.0000      -8.090423      -220.1516
  73   2.0000      -8.090277      -220.1476
  74   2.0000      -8.088526      -220.1000
  75   2.0000      -8.084486      -219.9900
  76   2.0000      -6.061343      -164.9375
  77   2.0000      -6.060999      -164.9282
  78   2.0000      -6.059741      -164.8939
  79   2.0000      -6.059390      -164.8844
  80   2.0000      -6.057828      -164.8419
  81   2.0000      -6.057192      -164.8246
  82   2.0000      -6.056842      -164.8151
  83   2.0000      -6.055535      -164.7795
  84   2.0000      -6.055279      -164.7725
  85   2.0000      -6.054315      -164.7463
  86   2.0000      -6.054002      -164.7378
  87   2.0000      -6.053720      -164.7301
  88   2.0000      -6.053651      -164.7282
  89   2.0000      -6.052846      -164.7063
  90   2.0000      -6.052682      -164.7018
  91   2.0000      -6.050798      -164.6506
  92   2.0000      -6.049298      -164.6098
  93   2.0000      -6.047131      -164.5508
  94   2.0000      -1.132550       -30.8183
  95   2.0000      -1.052572       -28.6419
  96   2.0000      -1.049737       -28.5648
  97   2.0000      -1.045044       -28.4371
  98   2.0000      -1.028338       -27.9825
  99   2.0000      -1.026940       -27.9445
 100   2.0000      -1.023100       -27.8400
 101   2.0000      -1.020613       -27.7723
 102   2.0000      -1.014388       -27.6029
 103   2.0000      -1.013098       -27.5678
 104   2.0000      -1.011739       -27.5308
 105   2.0000      -1.008808       -27.4511
 106   2.0000      -1.002404       -27.2768
 107   2.0000      -1.000384       -27.2218
 108   2.0000      -0.995705       -27.0945
 109   2.0000      -0.991726       -26.9862
 110   2.0000      -0.970195       -26.4003
 111   2.0000      -0.968789       -26.3621
 112   2.0000      -0.961394       -26.1609
 113   2.0000      -0.956338       -26.0233
 114   2.0000      -0.933891       -25.4125
 115   2.0000      -0.925202       -25.1760
 116   2.0000      -0.919850       -25.0304
 117   2.0000      -0.911099       -24.7923
 118   2.0000      -0.904185       -24.6041
 119   2.0000      -0.898872       -24.4596
 120   2.0000      -0.878631       -23.9088
 121   2.0000      -0.876805       -23.8591
 122   2.0000      -0.872237       -23.7348
 123   2.0000      -0.867696       -23.6112
 124   2.0000      -0.864669       -23.5288
 125   2.0000      -0.857869       -23.3438
 126   2.0000      -0.854674       -23.2569
 127   2.0000      -0.851735       -23.1769
 128   2.0000      -0.841899       -22.9092
 129   2.0000      -0.833248       -22.6738
 130   2.0000      -0.811469       -22.0812
 131   2.0000      -0.794305       -21.6141
 132   2.0000      -0.785150       -21.3650
 133   2.0000      -0.779477       -21.2106
 134   2.0000      -0.777935       -21.1687
 135   2.0000      -0.773559       -21.0496
 136   2.0000      -0.764108       -20.7924
 137   2.0000      -0.743935       -20.2435
 138   2.0000      -0.728479       -19.8229
 139   2.0000      -0.715234       -19.4625
 140   2.0000      -0.713981       -19.4284
 141   2.0000      -0.708039       -19.2667
 142   2.0000      -0.704714       -19.1763
 143   2.0000      -0.702688       -19.1211
 144   2.0000      -0.694206       -18.8903
 145   2.0000      -0.692630       -18.8474
 146   2.0000      -0.686569       -18.6825
 147   2.0000      -0.678793       -18.4709
 148   2.0000      -0.677620       -18.4390
 149   2.0000      -0.668756       -18.1978
 150   2.0000      -0.662407       -18.0250
 151   2.0000      -0.649539       -17.6748
 152   2.0000      -0.638465       -17.3735
 153   2.0000      -0.635569       -17.2947
 154   2.0000      -0.632191       -17.2028
 155   2.0000      -0.629809       -17.1380
 156   2.0000      -0.626298       -17.0424
 157   2.0000      -0.624153       -16.9841
 158   2.0000      -0.623005       -16.9528
 159   2.0000      -0.617977       -16.8160
 160   2.0000      -0.615295       -16.7430
 161   2.0000      -0.605815       -16.4851
 162   2.0000      -0.599299       -16.3078
 163   2.0000      -0.589102       -16.0303
 164   2.0000      -0.584087       -15.8938
 165   2.0000      -0.579346       -15.7648
 166   2.0000      -0.569905       -15.5079
 167   2.0000      -0.568432       -15.4678
 168   2.0000      -0.556516       -15.1436
 169   2.0000      -0.555608       -15.1189
 170   2.0000      -0.551926       -15.0187
 171   2.0000      -0.547050       -14.8860
 172   2.0000      -0.545041       -14.8313
 173   2.0000      -0.541446       -14.7335
 174   2.0000      -0.537149       -14.6166
 175   2.0000      -0.534911       -14.5557
 176   2.0000      -0.528350       -14.3771
 177   2.0000      -0.524461       -14.2713
 178   2.0000      -0.520995       -14.1770
 179   2.0000      -0.515776       -14.0350
 180   2.0000      -0.514404       -13.9976
 181   2.0000      -0.512247       -13.9389
 182   2.0000      -0.510245       -13.8845
 183   2.0000      -0.509784       -13.8719
 184   2.0000      -0.506685       -13.7876
 185   2.0000      -0.506178       -13.7738
 186   2.0000      -0.505908       -13.7665
 187   2.0000      -0.502690       -13.6789
 188   2.0000      -0.501522       -13.6471
 189   2.0000      -0.498986       -13.5781
 190   2.0000      -0.497426       -13.5356
 191   2.0000      -0.495328       -13.4786
 192   2.0000      -0.491686       -13.3794
 193   2.0000      -0.489029       -13.3072
 194   2.0000      -0.487063       -13.2537
 195   2.0000      -0.484679       -13.1888
 196   2.0000      -0.480159       -13.0658
 197   2.0000      -0.477396       -12.9906
 198   2.0000      -0.473581       -12.8868
 199   2.0000      -0.473010       -12.8713
 200   2.0000      -0.468561       -12.7502
 201   2.0000      -0.467284       -12.7154
 202   2.0000      -0.466114       -12.6836
 203   2.0000      -0.465898       -12.6777
 204   2.0000      -0.463496       -12.6124
 205   2.0000      -0.462660       -12.5896
 206   2.0000      -0.462506       -12.5854
 207   2.0000      -0.458856       -12.4861
 208   2.0000      -0.458632       -12.4800
 209   2.0000      -0.454593       -12.3701
 210   2.0000      -0.451644       -12.2899
 211   2.0000      -0.450621       -12.2620
 212   2.0000      -0.447943       -12.1891
 213   2.0000      -0.446739       -12.1564
 214   2.0000      -0.446443       -12.1483
 215   2.0000      -0.445314       -12.1176
 216   2.0000      -0.445088       -12.1114
 217   2.0000      -0.444415       -12.0932
 218   2.0000      -0.442867       -12.0510
 219   2.0000      -0.441810       -12.0223
 220   2.0000      -0.441482       -12.0133
 221   2.0000      -0.440760       -11.9937
 222   2.0000      -0.439247       -11.9525
 223   2.0000      -0.439139       -11.9496
 224   2.0000      -0.434335       -11.8188
 225   2.0000      -0.432032       -11.7562
 226   2.0000      -0.430857       -11.7242
 227   2.0000      -0.430208       -11.7066
 228   2.0000      -0.429083       -11.6760
 229   2.0000      -0.427287       -11.6271
 230   2.0000      -0.426837       -11.6148
 231   2.0000      -0.419190       -11.4067
 232   2.0000      -0.415088       -11.2951
 233   2.0000      -0.410629       -11.1738
 234   2.0000      -0.404685       -11.0120
 235   2.0000      -0.396705       -10.7949
 236   2.0000      -0.388661       -10.5760
 237   2.0000      -0.379065       -10.3149
 238   2.0000      -0.367969       -10.0129
 239   2.0000      -0.357937        -9.7400
 240   2.0000      -0.356304        -9.6955
 241   2.0000      -0.354184        -9.6378
 242   2.0000      -0.348916        -9.4945
 243   2.0000      -0.337434        -9.1820
 244   2.0000      -0.331599        -9.0233
 245   2.0000      -0.328086        -8.9277
 246   2.0000      -0.327497        -8.9116
 247   2.0000      -0.322655        -8.7799
 248   2.0000      -0.317353        -8.6356
 249   2.0000      -0.299071        -8.1381
 250   2.0000      -0.294025        -8.0008
 251   2.0000      -0.267857        -7.2888
 252   2.0000      -0.242408        -6.5963
 253   0.0000      -0.115037        -3.1303
 254   0.0000      -0.108689        -2.9576
 255   0.0000      -0.103460        -2.8153
 256   0.0000      -0.089195        -2.4271
 257   0.0000      -0.072512        -1.9732

MULLIKEN ATOMIC CHARGES
-----------------------
   0 C :   -0.079346
   1 C :    0.033601
   2 C :   -0.028974
   3 C :   -0.117737
   4 S :    0.185524
   5 C :   -0.099564
   6 C :    0.012349
   7 C :    0.295878
   8 C :   -0.295768
   9 C :   -0.187236
  10 N :    0.171759
  11 C :   -0.191064
  12 N :    0.174854
  13 C :   -0.061800
  14 C :   -0.055204
  15 S :    0.192942
  16 C :   -0.048654
  17 C :   -0.065669
  18 C :    0.015619
  19 C :   -0.099511
  20 S :    0.199569
  21 C :   -0.098176
  22 C :    0.016144
  23 C :    0.298269
  24 C :   -0.294713
  25 C :   -0.189440
  26 N :    0.174679
  27 C :   -0.188840
  28 N :    0.176237
  29 C :   -0.065213
  30 C :   -0.053029
  31 S :    0.199913
  32 C :   -0.048234
  33 C :   -0.066538
  34 C :    0.018965
  35 C :   -0.103549
  36 S :    0.200593
  37 C :   -0.092733
  38 C :   -0.004120
  39 C :    0.302636
  40 C :   -0.294753
  41 C :   -0.187028
  42 N :    0.178462
  43 C :   -0.188729
  44 N :    0.175646
  45 C :   -0.002215
  46 C :   -0.099915
  47 S :    0.207198
  48 C :    0.084355
  49 C :    0.003353
  50 C :    0.039396
  51 C :   -0.120475
  52 C :    0.115360
  53 O :   -0.151881
  54 C :    0.017659
  55 C :   -0.015676
  56 C :    0.269894
  57 C :   -0.344580
  58 C :   -0.205649
  59 N :    0.175955
  60 C :   -0.178467
  61 N :    0.157750
  62 C :   -0.021085
  63 C :    0.005328
  64 C :    0.078646
  65 C :    0.033077
  66 C :   -0.025145
  67 C :    0.038662
  68 C :    0.039176
  69 C :   -0.020884
  70 H :    0.037052
  71 H :    0.013691
  72 H :    0.011429
  73 H :    0.010990
  74 H :    0.012318
  75 H :    0.012923
  76 H :    0.011329
  77 H :    0.003681
  78 H :    0.007696
  79 H :    0.028086
  80 H :   -0.000069
  81 H :   -0.013420
  82 H :    0.000368
  83 H :   -0.006608
  84 H :   -0.005598
  85 H :   -0.021723
Sum of atomic charges:   -0.0000000

LOEWDIN ATOMIC CHARGES
----------------------
   0 C :   -0.176987
   1 C :   -0.033772
   2 C :   -0.076625
   3 C :   -0.184836
   4 S :    0.480799
   5 C :   -0.178648
   6 C :   -0.069199
   7 C :    0.083308
   8 C :   -0.102844
   9 C :   -0.016184
  10 N :   -0.034847
  11 C :   -0.017138
  12 N :   -0.031556
  13 C :   -0.038019
  14 C :   -0.183013
  15 S :    0.484210
  16 C :   -0.176441
  17 C :   -0.040815
  18 C :   -0.067276
  19 C :   -0.182183
  20 S :    0.487416
  21 C :   -0.176891
  22 C :   -0.070124
  23 C :    0.082971
  24 C :   -0.100367
  25 C :   -0.016405
  26 N :   -0.031393
  27 C :   -0.016285
  28 N :   -0.031455
  29 C :   -0.036283
  30 C :   -0.181940
  31 S :    0.488028
  32 C :   -0.174755
  33 C :   -0.040619
  34 C :   -0.061991
  35 C :   -0.183037
  36 S :    0.486897
  37 C :   -0.172778
  38 C :   -0.068498
  39 C :    0.081302
  40 C :   -0.098369
  41 C :   -0.016618
  42 N :   -0.028464
  43 C :   -0.016035
  44 N :   -0.030604
  45 C :   -0.004788
  46 C :   -0.167687
  47 S :    0.492000
  48 C :    0.013361
  49 C :   -0.039567
  50 C :    0.060106
  51 C :   -0.091396
  52 C :    0.087573
  53 O :   -0.141724
  54 C :   -0.032744
  55 C :   -0.006010
  56 C :    0.066004
  57 C :   -0.142601
  58 C :   -0.018912
  59 N :   -0.040536
  60 C :   -0.022593
  61 N :   -0.050917
  62 C :   -0.018394
  63 C :    0.018426
  64 C :   -0.009444
  65 C :   -0.002936
  66 C :   -0.001808
  67 C :   -0.012041
  68 C :   -0.012444
  69 C :   -0.012432
  70 H :    0.028067
  71 H :    0.042994
  72 H :    0.035389
  73 H :    0.035475
  74 H :    0.036229
  75 H :    0.036006
  76 H :    0.042367
  77 H :    0.032884
  78 H :    0.037048
  79 H :    0.048094
  80 H :    0.039064
  81 H :    0.035469
  82 H :    0.035577
  83 H :    0.032705
  84 H :    0.032226
  85 H :    0.030275

  Mayer bond orders larger than 0.100000
B(  0-C ,  1-C ) :   1.5493 B(  0-C ,  4-S ) :   1.1504 B(  0-C , 70-H ) :   0.9639
B(  1-C ,  2-C ) :   1.2772 B(  1-C , 71-H ) :   0.9966 B(  2-C ,  3-C ) :   1.4570
B(  2-C ,  7-C ) :   1.0156 B(  3-C ,  4-S ) :   1.1382 B(  3-C ,  5-C ) :   1.1793
B(  5-C ,  6-C ) :   1.4665 B(  5-C , 15-S ) :   1.1230 B(  6-C ,  7-C ) :   0.9930
B(  6-C , 13-C ) :   1.2955 B(  7-C ,  8-C ) :   1.7116 B(  8-C ,  9-C ) :   1.1315
B(  8-C , 11-C ) :   1.1309 B(  9-C , 10-N ) :   2.9910 B( 11-C , 12-N ) :   3.0028
B( 13-C , 14-C ) :   1.4660 B( 13-C , 72-H ) :   0.9860 B( 14-C , 15-S ) :   1.1099
B( 14-C , 16-C ) :   1.1636 B( 16-C , 17-C ) :   1.4638 B( 16-C , 20-S ) :   1.1117
B( 17-C , 18-C ) :   1.2968 B( 17-C , 73-H ) :   0.9862 B( 18-C , 19-C ) :   1.4510
B( 18-C , 23-C ) :   0.9961 B( 19-C , 20-S ) :   1.1176 B( 19-C , 21-C ) :   1.1843
B( 21-C , 22-C ) :   1.4459 B( 21-C , 31-S ) :   1.1244 B( 22-C , 23-C ) :   0.9923
B( 22-C , 29-C ) :   1.3002 B( 23-C , 24-C ) :   1.7152 B( 24-C , 25-C ) :   1.1338
B( 24-C , 27-C ) :   1.1333 B( 25-C , 26-N ) :   2.9924 B( 27-C , 28-N ) :   2.9925
B( 29-C , 30-C ) :   1.4601 B( 29-C , 74-H ) :   0.9874 B( 30-C , 31-S ) :   1.1054
B( 30-C , 32-C ) :   1.1665 B( 32-C , 33-C ) :   1.4572 B( 32-C , 36-S ) :   1.1128
B( 33-C , 34-C ) :   1.3034 B( 33-C , 75-H ) :   0.9858 B( 34-C , 35-C ) :   1.4461
B( 34-C , 39-C ) :   0.9929 B( 35-C , 36-S ) :   1.1152 B( 35-C , 37-C ) :   1.1950
B( 37-C , 38-C ) :   1.4163 B( 37-C , 47-S ) :   1.1457 B( 38-C , 39-C ) :   0.9978
B( 38-C , 45-C ) :   1.3248 B( 39-C , 40-C ) :   1.7168 B( 40-C , 41-C ) :   1.1346
B( 40-C , 43-C ) :   1.1344 B( 41-C , 42-N ) :   2.9906 B( 43-C , 44-N ) :   2.9911
B( 45-C , 46-C ) :   1.4416 B( 45-C , 76-H ) :   0.9869 B( 46-C , 47-S ) :   1.0984
B( 46-C , 48-C ) :   1.1697 B( 48-C , 49-C ) :   1.6438 B( 48-C , 77-H ) :   0.9449
B( 49-C , 50-C ) :   1.1731 B( 49-C , 78-H ) :   0.9589 B( 50-C , 51-C ) :   1.6557
B( 50-C , 79-H ) :   0.9265 B( 51-C , 52-C ) :   0.9614 B( 51-C , 56-C ) :   1.0333
B( 52-C , 53-O ) :   2.1857 B( 52-C , 54-C ) :   0.9387 B( 54-C , 55-C ) :   1.4208
B( 54-C , 65-C ) :   1.2357 B( 55-C , 56-C ) :   0.9958 B( 55-C , 62-C ) :   1.2603
B( 56-C , 57-C ) :   1.6363 B( 57-C , 58-C ) :   1.1700 B( 57-C , 60-C ) :   1.1250
B( 58-C , 59-N ) :   2.9970 B( 60-C , 61-N ) :   2.9951 B( 62-C , 63-C ) :   1.4700
B( 62-C , 80-H ) :   0.9858 B( 63-C , 64-C ) :   1.2255 B( 63-C , 81-H ) :   0.9935
B( 64-C , 65-C ) :   1.2419 B( 64-C , 69-C ) :   1.2386 B( 65-C , 66-C ) :   1.2751
B( 66-C , 67-C ) :   1.4766 B( 66-C , 82-H ) :   0.9862 B( 67-C , 68-C ) :   1.2555
B( 67-C , 83-H ) :   0.9870 B( 68-C , 69-C ) :   1.4973 B( 68-C , 84-H ) :   0.9880
B( 69-C , 85-H ) :   0.9974

-----------------------------------------------------------------------------
         ABSORPTION SPECTRUM VIA TRANSITION ELECTRIC DIPOLE MOMENTS
-----------------------------------------------------------------------------
State   Energy  Wavelength   fosc         T2         TX        TY        TZ
        (cm-1)    (nm)                  (au**2)     (au)      (au)      (au)
-----------------------------------------------------------------------------
   0   10910.0    916.6   0.375263593  11.32364   0.48617  -2.96538  -1.51453
   1   11903.2    840.1   0.099824540   2.76090  -0.15095   1.46964   0.76043
   2   13776.0    725.9   0.077449796   1.85086   0.24544  -1.14119  -0.69879
   3   18823.0    531.3   1.019978372  17.83926  -0.47440   3.29504   2.59940
   4   20059.9    498.5   0.002062041   0.03384   0.07875  -0.14411   0.08289
   5   21362.3    468.1   0.020504884   0.31600   0.03005  -0.50430   0.24652
   6   23388.1    427.6   0.536383830   7.55018  -0.32602   2.49129   1.11236
   7   23868.5    419.0   0.313877922   4.32923  -0.11854   1.82064   1.00022
   8   25872.1    386.5   0.446880150   5.68636   0.38126  -2.17026  -0.91157
   9   26556.6    376.6   0.144284392   1.78864   0.70057   0.94903   0.63022
  10   27289.3    366.4   0.126452004   1.52549   0.25205  -1.17635   0.27955
  11   27489.1    363.8   0.000803148   0.00962   0.02192   0.09449   0.01448
  12   28179.6    354.9   0.416476172   4.86553  -0.50438   1.86781   1.05945
  13   29323.2    341.0   0.065889432   0.73974   0.23334   0.12722  -0.81799
  14   29605.4    337.8   0.038602849   0.42926  -0.14816  -0.30720  -0.55941
  15   30287.4    330.2   0.040140927   0.43632  -0.02261  -0.01047   0.66007
  16   30717.0    325.6   0.078938405   0.84603   0.48891   0.71335  -0.31326
  17   31057.2    322.0   0.428297643   4.54003  -0.26458   0.43494  -2.06902
  18   31174.1    320.8   0.531162735   5.60932  -0.58708   0.61455  -2.21065
  19   31517.2    317.3   0.048479444   0.50639   0.29236  -0.10314   0.64053
  20   31758.0    314.9   0.168529379   1.74702   0.03647   1.26602  -0.37798
  21   32083.0    311.7   0.355093533   3.64370  -0.58720   0.30252  -1.79092
  22   32225.8    310.3   0.533096755   5.44600   1.03176  -0.02468   2.09305
  23   32503.7    307.7   0.551510898   5.58594  -0.32108   2.19480  -0.81591
  24   32622.2    306.5   0.258033329   2.60398  -0.37011  -1.49982  -0.46643
  25   32844.0    304.5   0.133223830   1.33537  -0.38651  -0.85801   0.67067
  26   33394.7    299.4   0.037862407   0.37326  -0.34070   0.40049  -0.31110
  27   33561.1    298.0   0.100928575   0.99004  -0.65184  -0.73620  -0.15220
  28   33777.1    296.1   0.265270688   2.58549  -0.14444   0.87207   1.34318
  29   33881.2    295.1   0.060309244   0.58600   0.33791   0.24942   0.64001
  30   34130.5    293.0   0.258936172   2.49762  -0.52913  -0.93488  -1.15916
  31   34291.1    291.6   0.030215300   0.29008   0.00533  -0.00256   0.53856
  32   34788.0    287.5   0.020648761   0.19541  -0.08129   0.40544   0.15625
  33   34955.9    286.1   0.039475436   0.37178   0.24302   0.49573  -0.25878
  34   35195.0    284.1   0.167557447   1.56732  -0.27634   1.21441  -0.12717
  35   35624.6    280.7   0.006421518   0.05934  -0.00199   0.09021  -0.22628
  36   35833.7    279.1   0.025282283   0.23227  -0.02267   0.11973  -0.46629
  37   36621.8    273.1   0.001308351   0.01176  -0.02904   0.10064  -0.02811
  38   36815.4    271.6   0.034404381   0.30765  -0.23730   0.46377   0.19042
  39   36937.2    270.7   0.038460552   0.34279  -0.21411  -0.42015  -0.34702
  40   37166.9    269.1   0.006045308   0.05355  -0.12348   0.15882  -0.11436
  41   37685.8    265.4   0.007982044   0.06973  -0.07979   0.21847  -0.12503
  42   38204.1    261.8   0.010766311   0.09278  -0.23926  -0.13014  -0.13637
  43   38516.8    259.6   0.002268766   0.01939  -0.08214  -0.03286  -0.10754
  44   38642.6    258.8   0.009271191   0.07899   0.10809  -0.21101   0.15092
  45   38849.8    257.4   0.010356471   0.08776   0.06066   0.23959   0.16333
  46   39039.0    256.2   0.013939144   0.11755  -0.11753   0.20869  -0.24532
  47   39453.8    253.5   0.017158631   0.14318   0.03533  -0.31608  -0.20498
  48   39810.1    251.2   0.005558481   0.04597   0.06909   0.15092   0.13570
  49   39928.4    250.4   0.025310759   0.20869   0.23260  -0.10155   0.37983
  50   40183.9    248.9   0.077118030   0.63180   0.00993   0.26004  -0.75105

FINAL SINGLE POINT ENERGY     -5003.578241441362

DIPOLE MOMENT
-------------
                                X             Y             Z
Electronic contribution:     -1.76111     -57.87496     -34.79550
Nuclear contribution   :      4.05206      57.16791      36.22609
                        -----------------------------------------
Total Dipole Moment    :      2.29095      -0.70704       1.43058
                        -----------------------------------------
Magnitude (a.u.)       :      2.79194
Magnitude (Debye)      :      7.09655

Rotational constants in cm-1:     0.002610     0.000194     0.000184
Rotational constants in MHz :    78.256076     5.820575     5.511170

                             ****ORCA TERMINATED NORMALLY****
TOTAL RUN TIME: 0 days 0 hours 8 minutes 11 seconds 565 msec
