                         Program Version 4.2.0 -  RELEASE  -
|  1> # ORCA input file
|  2> # SCF done       -172.527315411538          0.000989594764
|  3> ! CAM-B3LYP def2-SVP def2/J RIJCOSX Grid4 TightSCF
|  4> %maxcore 5000
|  5> %tddft
|  6>     Mode sTDDFT
|  7>     Ethresh 5.0
|  8>     maxcore 5000
|  9> end
| 10>
| 11> %pal
| 12>   nprocs 6
| 13>   end
| 14> * xyz 0 1
| 15>    C        4.76326        -1.32311         1.03358
| 16>    C        4.99895        -0.54961         2.12950
| 17>    C        4.29646         0.66852         2.05647
| 18>    C        3.53889         0.77847         0.88468
| 19>    S        3.68715        -0.59745        -0.11388
| 20>    C        2.86517         2.03386         0.89480
| 21>    C        3.20086         2.70825         2.07624
| 22>    C        4.11614         1.87351         2.84551
| 23>    C        4.68618         2.17388         4.04781
| 24>    C        4.43437         3.39209         4.71332
| 25>    N        4.23185         4.38287         5.25389
| 26>    C        5.56957         1.29016         4.70295
| 27>    N        6.28957         0.57568         5.23784
| 28>    C        2.58729         3.95777         2.18269
| 29>    C        1.79192         4.23607         1.08783
| 30>    S        1.80020         2.93139        -0.09072
| 31>    C        1.02383         5.40503         0.84668
| 32>    C        0.26851         5.69898        -0.27334
| 33>    C       -0.35064         6.94500        -0.17017
| 34>    C       -0.06656         7.59983         1.03799
| 35>    S        0.96560         6.68615         2.04720
| 36>    C       -0.73793         8.85129         1.04782
| 37>    C       -1.44444         8.98414        -0.16455
| 38>    C       -1.22559         7.79373        -0.96727
| 39>    C       -1.72669         7.52170        -2.20611
| 40>    C       -2.56721         8.42073        -2.89677
| 41>    N       -3.25078         9.14201        -3.46848
| 42>    C       -1.43665         6.31889        -2.88417
| 43>    N       -1.20554         5.34076        -3.43645
| 44>    C       -2.13836        10.19049        -0.25073
| 45>    C       -1.95957        10.95506         0.88420
| 46>    S       -0.92973        10.19713         2.07610
| 47>    C       -2.51226        12.24160         1.16613
| 48>    N       -3.28489        12.82876         0.22955
| 49>    C       -3.76725        13.99969         0.54501
| 50>    C       -3.48667        14.59398         1.79598
| 51>    N       -2.70088        13.93871         2.66456
| 52>    N       -2.22540        12.78661         2.35068
| 53>    C       -3.99987        15.86767         2.19558
| 54>    C       -3.80354        16.48925         3.41196
| 55>    C       -4.45293        17.72282         3.47488
| 56>    C       -5.14326        18.03467         2.28982
| 57>    S       -4.99940        16.81780         1.10667
| 58>    C       -5.76782        19.29855         2.44577
| 59>    C       -5.47688        19.78532         3.72917
| 60>    C       -4.64209        18.81170         4.41989
| 61>    C       -4.14940        18.90690         5.68750
| 62>    C       -4.41561        20.02242         6.50974
| 63>    N       -4.63334        20.92796         7.17877
| 64>    C       -3.34348        17.90304         6.26681
| 65>    N       -2.68850        17.09745         6.75222
| 66>    C       -6.04902        21.03370         3.97836
| 67>    C       -6.76930        21.49691         2.89319
| 68>    S       -6.74281        20.37303         1.54359
| 69>    C       -7.47710        22.72178         2.77943
| 70>    C       -8.17920        23.18956         1.68509
| 71>    C       -8.74655        24.44158         1.92717
| 72>    C       -8.47405        24.92511         3.21369
| 73>    S       -7.52052        23.84619         4.12960
| 74>    C       -9.09293        26.20056         3.35633
| 75>    C       -9.75039        26.51437         2.16097
| 76>    C       -9.55814        25.42570         1.22081
| 77>    C      -10.02982        25.33473        -0.05584
| 78>    C      -10.80890        26.35309        -0.64443
| 79>    N      -11.44159        27.17789        -1.12821
| 80>    C       -9.76847        24.21468        -0.87273
| 81>    N       -9.55758        23.30428        -1.53731
| 82>    C      -10.39196        27.76659         2.21349
| 83>    C      -10.21139        28.36443         3.42374
| 84>    S       -9.26130        27.42839         4.52937
| 85>    H        5.16009        -2.29506         0.81868
| 86>    H        5.64037        -0.84227         2.94045
| 87>    H        2.70514         4.63984         3.00557
| 88>    H        0.18555         5.03154        -1.11225
| 89>    H       -2.74524        10.51839        -1.07465
| 90>    H       -4.38988        14.49159        -0.19261
| 91>    H       -3.21376        16.03881         4.18914
| 92>    H       -5.95447        21.58861         4.89443
| 93>    H       -8.26303        22.63704         0.76642
| 94>    H      -10.95400        28.20404         1.40882
| 95>    H      -10.58250        29.31621         3.74728
| 96> *
| 97>
| 98>                          ****END OF INPUT****

CARTESIAN COORDINATES (ANGSTROEM)
---------------------------------
  C      4.763260   -1.323110    1.033580
  C      4.998950   -0.549610    2.129500
  C      4.296460    0.668520    2.056470
  C      3.538890    0.778470    0.884680
  S      3.687150   -0.597450   -0.113880
  C      2.865170    2.033860    0.894800
  C      3.200860    2.708250    2.076240
  C      4.116140    1.873510    2.845510
  C      4.686180    2.173880    4.047810
  C      4.434370    3.392090    4.713320
  N      4.231850    4.382870    5.253890
  C      5.569570    1.290160    4.702950
  N      6.289570    0.575680    5.237840
  C      2.587290    3.957770    2.182690
  C      1.791920    4.236070    1.087830
  S      1.800200    2.931390   -0.090720
  C      1.023830    5.405030    0.846680
  C      0.268510    5.698980   -0.273340
  C     -0.350640    6.945000   -0.170170
  C     -0.066560    7.599830    1.037990
  S      0.965600    6.686150    2.047200
  C     -0.737930    8.851290    1.047820
  C     -1.444440    8.984140   -0.164550
  C     -1.225590    7.793730   -0.967270
  C     -1.726690    7.521700   -2.206110
  C     -2.567210    8.420730   -2.896770
  N     -3.250780    9.142010   -3.468480
  C     -1.436650    6.318890   -2.884170
  N     -1.205540    5.340760   -3.436450
  C     -2.138360   10.190490   -0.250730
  C     -1.959570   10.955060    0.884200
  S     -0.929730   10.197130    2.076100
  C     -2.512260   12.241600    1.166130
  N     -3.284890   12.828760    0.229550
  C     -3.767250   13.999690    0.545010
  C     -3.486670   14.593980    1.795980
  N     -2.700880   13.938710    2.664560
  N     -2.225400   12.786610    2.350680
  C     -3.999870   15.867670    2.195580
  C     -3.803540   16.489250    3.411960
  C     -4.452930   17.722820    3.474880
  C     -5.143260   18.034670    2.289820
  S     -4.999400   16.817800    1.106670
  C     -5.767820   19.298550    2.445770
  C     -5.476880   19.785320    3.729170
  C     -4.642090   18.811700    4.419890
  C     -4.149400   18.906900    5.687500
  C     -4.415610   20.022420    6.509740
  N     -4.633340   20.927960    7.178770
  C     -3.343480   17.903040    6.266810
  N     -2.688500   17.097450    6.752220
  C     -6.049020   21.033700    3.978360
  C     -6.769300   21.496910    2.893190
  S     -6.742810   20.373030    1.543590
  C     -7.477100   22.721780    2.779430
  C     -8.179200   23.189560    1.685090
  C     -8.746550   24.441580    1.927170
  C     -8.474050   24.925110    3.213690
  S     -7.520520   23.846190    4.129600
  C     -9.092930   26.200560    3.356330
  C     -9.750390   26.514370    2.160970
  C     -9.558140   25.425700    1.220810
  C    -10.029820   25.334730   -0.055840
  C    -10.808900   26.353090   -0.644430
  N    -11.441590   27.177890   -1.128210
  C     -9.768470   24.214680   -0.872730
  N     -9.557580   23.304280   -1.537310
  C    -10.391960   27.766590    2.213490
  C    -10.211390   28.364430    3.423740
  S     -9.261300   27.428390    4.529370
  H      5.160090   -2.295060    0.818680
  H      5.640370   -0.842270    2.940450
  H      2.705140    4.639840    3.005570
  H      0.185550    5.031540   -1.112250
  H     -2.745240   10.518390   -1.074650
  H     -4.389880   14.491590   -0.192610
  H     -3.213760   16.038810    4.189140
  H     -5.954470   21.588610    4.894430
  H     -8.263030   22.637040    0.766420
  H    -10.954000   28.204040    1.408820
  H    -10.582500   29.316210    3.747280

 Total Charge           Charge          ....    0
 Multiplicity           Mult            ....    1
 Number of Electrons    NEL             ....  522
 Basis Dimension        Dim             .... 1067

ORBITAL ENERGIES
----------------

  NO   OCC          E(Eh)            E(eV)
   0   2.0000     -88.999206     -2421.7915
   1   2.0000     -88.997232     -2421.7378
   2   2.0000     -88.995807     -2421.6990
   3   2.0000     -88.993577     -2421.6383
   4   2.0000     -88.993124     -2421.6260
   5   2.0000     -88.990839     -2421.5638
   6   2.0000     -88.989749     -2421.5342
   7   2.0000     -88.988574     -2421.5022
   8   2.0000     -14.467854      -393.6903
   9   2.0000     -14.459180      -393.4543
  10   2.0000     -14.446107      -393.0986
  11   2.0000     -14.435515      -392.8103
  12   2.0000     -14.433217      -392.7478
  13   2.0000     -14.432491      -392.7280
  14   2.0000     -14.431833      -392.7101
  15   2.0000     -14.431707      -392.7067
  16   2.0000     -14.430671      -392.6785
  17   2.0000     -14.429997      -392.6602
  18   2.0000     -14.429596      -392.6493
  19   2.0000     -10.370202      -282.1875
  20   2.0000     -10.366550      -282.0882
  21   2.0000     -10.365489      -282.0593
  22   2.0000     -10.365285      -282.0537
  23   2.0000     -10.364190      -282.0240
  24   2.0000     -10.356726      -281.8209
  25   2.0000     -10.354165      -281.7512
  26   2.0000     -10.352868      -281.7159
  27   2.0000     -10.351830      -281.6876
  28   2.0000     -10.349369      -281.6206
  29   2.0000     -10.344340      -281.4838
  30   2.0000     -10.341513      -281.4069
  31   2.0000     -10.337080      -281.2862
  32   2.0000     -10.336927      -281.2821
  33   2.0000     -10.335707      -281.2489
  34   2.0000     -10.335681      -281.2482
  35   2.0000     -10.334764      -281.2232
  36   2.0000     -10.333800      -281.1970
  37   2.0000     -10.333756      -281.1958
  38   2.0000     -10.333738      -281.1953
  39   2.0000     -10.333102      -281.1780
  40   2.0000     -10.332813      -281.1701
  41   2.0000     -10.332535      -281.1626
  42   2.0000     -10.332327      -281.1569
  43   2.0000     -10.332029      -281.1488
  44   2.0000     -10.331960      -281.1469
  45   2.0000     -10.331179      -281.1257
  46   2.0000     -10.331137      -281.1245
  47   2.0000     -10.330387      -281.1041
  48   2.0000     -10.330119      -281.0968
  49   2.0000     -10.329918      -281.0914
  50   2.0000     -10.327238      -281.0184
  51   2.0000     -10.316971      -280.7391
  52   2.0000     -10.314551      -280.6732
  53   2.0000     -10.312384      -280.6142
  54   2.0000     -10.310736      -280.5694
  55   2.0000     -10.308186      -280.5000
  56   2.0000     -10.307726      -280.4875
  57   2.0000     -10.307056      -280.4692
  58   2.0000     -10.307036      -280.4687
  59   2.0000     -10.306295      -280.4486
  60   2.0000     -10.306135      -280.4442
  61   2.0000     -10.304446      -280.3982
  62   2.0000     -10.304399      -280.3969
  63   2.0000     -10.303848      -280.3820
  64   2.0000     -10.303501      -280.3725
  65   2.0000     -10.302379      -280.3420
  66   2.0000     -10.302035      -280.3326
  67   2.0000     -10.300213      -280.2830
  68   2.0000     -10.300159      -280.2816
  69   2.0000     -10.298152      -280.2270
  70   2.0000      -8.093573      -220.2373
  71   2.0000      -8.091546      -220.1822
  72   2.0000      -8.090110      -220.1431
  73   2.0000      -8.087862      -220.0819
  74   2.0000      -8.087438      -220.0704
  75   2.0000      -8.085701      -220.0231
  76   2.0000      -8.083615      -219.9664
  77   2.0000      -8.083533      -219.9641
  78   2.0000      -6.062771      -164.9764
  79   2.0000      -6.060859      -164.9244
  80   2.0000      -6.059396      -164.8846
  81   2.0000      -6.058663      -164.8646
  82   2.0000      -6.057160      -164.8237
  83   2.0000      -6.056722      -164.8118
  84   2.0000      -6.056684      -164.8107
  85   2.0000      -6.056073      -164.7941
  86   2.0000      -6.055243      -164.7715
  87   2.0000      -6.054948      -164.7635
  88   2.0000      -6.053843      -164.7334
  89   2.0000      -6.052984      -164.7101
  90   2.0000      -6.052836      -164.7060
  91   2.0000      -6.052770      -164.7042
  92   2.0000      -6.052566      -164.6987
  93   2.0000      -6.052448      -164.6955
  94   2.0000      -6.050497      -164.6424
  95   2.0000      -6.050194      -164.6342
  96   2.0000      -6.049782      -164.6229
  97   2.0000      -6.048519      -164.5886
  98   2.0000      -6.048386      -164.5850
  99   2.0000      -6.048332      -164.5835
 100   2.0000      -6.046233      -164.5264
 101   2.0000      -6.046185      -164.5251
 102   2.0000      -1.159060       -31.5396
 103   2.0000      -1.051539       -28.6138
 104   2.0000      -1.048134       -28.5212
 105   2.0000      -1.046222       -28.4691
 106   2.0000      -1.044743       -28.4289
 107   2.0000      -1.042341       -28.3635
 108   2.0000      -1.026444       -27.9310
 109   2.0000      -1.024268       -27.8718
 110   2.0000      -1.023154       -27.8414
 111   2.0000      -1.021635       -27.8001
 112   2.0000      -1.012118       -27.5411
 113   2.0000      -1.010464       -27.4961
 114   2.0000      -1.009538       -27.4709
 115   2.0000      -1.008576       -27.4447
 116   2.0000      -1.007814       -27.4240
 117   2.0000      -1.004933       -27.3456
 118   2.0000      -0.995901       -27.0998
 119   2.0000      -0.991056       -26.9680
 120   2.0000      -0.971292       -26.4302
 121   2.0000      -0.963243       -26.2112
 122   2.0000      -0.957601       -26.0577
 123   2.0000      -0.954958       -25.9857
 124   2.0000      -0.946840       -25.7648
 125   2.0000      -0.921480       -25.0747
 126   2.0000      -0.916276       -24.9331
 127   2.0000      -0.905669       -24.6445
 128   2.0000      -0.899817       -24.4853
 129   2.0000      -0.876134       -23.8408
 130   2.0000      -0.872812       -23.7504
 131   2.0000      -0.871579       -23.7169
 132   2.0000      -0.869412       -23.6579
 133   2.0000      -0.861980       -23.4557
 134   2.0000      -0.857486       -23.3334
 135   2.0000      -0.854602       -23.2549
 136   2.0000      -0.851755       -23.1774
 137   2.0000      -0.846913       -23.0457
 138   2.0000      -0.828985       -22.5578
 139   2.0000      -0.815501       -22.1909
 140   2.0000      -0.799072       -21.7439
 141   2.0000      -0.783953       -21.3324
 142   2.0000      -0.780540       -21.2396
 143   2.0000      -0.778823       -21.1929
 144   2.0000      -0.774873       -21.0854
 145   2.0000      -0.771829       -21.0025
 146   2.0000      -0.763748       -20.7826
 147   2.0000      -0.735584       -20.0162
 148   2.0000      -0.726255       -19.7624
 149   2.0000      -0.708343       -19.2750
 150   2.0000      -0.705804       -19.2059
 151   2.0000      -0.704003       -19.1569
 152   2.0000      -0.702614       -19.1191
 153   2.0000      -0.692520       -18.8444
 154   2.0000      -0.686997       -18.6941
 155   2.0000      -0.681687       -18.5497
 156   2.0000      -0.681022       -18.5316
 157   2.0000      -0.678915       -18.4742
 158   2.0000      -0.675476       -18.3806
 159   2.0000      -0.661314       -17.9953
 160   2.0000      -0.654617       -17.8130
 161   2.0000      -0.653325       -17.7779
 162   2.0000      -0.632879       -17.2215
 163   2.0000      -0.629632       -17.1332
 164   2.0000      -0.626451       -17.0466
 165   2.0000      -0.624037       -16.9809
 166   2.0000      -0.622833       -16.9482
 167   2.0000      -0.621998       -16.9254
 168   2.0000      -0.619797       -16.8655
 169   2.0000      -0.616379       -16.7725
 170   2.0000      -0.614420       -16.7192
 171   2.0000      -0.611611       -16.6428
 172   2.0000      -0.597634       -16.2624
 173   2.0000      -0.581434       -15.8216
 174   2.0000      -0.572847       -15.5880
 175   2.0000      -0.570086       -15.5128
 176   2.0000      -0.568577       -15.4718
 177   2.0000      -0.555961       -15.1285
 178   2.0000      -0.553408       -15.0590
 179   2.0000      -0.549247       -14.9458
 180   2.0000      -0.547811       -14.9067
 181   2.0000      -0.546547       -14.8723
 182   2.0000      -0.544657       -14.8209
 183   2.0000      -0.538188       -14.6448
 184   2.0000      -0.536096       -14.5879
 185   2.0000      -0.527517       -14.3545
 186   2.0000      -0.520999       -14.1771
 187   2.0000      -0.515529       -14.0283
 188   2.0000      -0.512653       -13.9500
 189   2.0000      -0.509674       -13.8689
 190   2.0000      -0.507952       -13.8221
 191   2.0000      -0.507484       -13.8093
 192   2.0000      -0.503944       -13.7130
 193   2.0000      -0.503105       -13.6902
 194   2.0000      -0.502899       -13.6846
 195   2.0000      -0.498864       -13.5748
 196   2.0000      -0.498860       -13.5747
 197   2.0000      -0.497445       -13.5362
 198   2.0000      -0.493361       -13.4250
 199   2.0000      -0.492253       -13.3949
 200   2.0000      -0.490979       -13.3602
 201   2.0000      -0.486984       -13.2515
 202   2.0000      -0.486242       -13.2313
 203   2.0000      -0.482612       -13.1325
 204   2.0000      -0.477667       -12.9980
 205   2.0000      -0.474727       -12.9180
 206   2.0000      -0.470868       -12.8130
 207   2.0000      -0.470034       -12.7903
 208   2.0000      -0.465423       -12.6648
 209   2.0000      -0.463952       -12.6248
 210   2.0000      -0.462462       -12.5842
 211   2.0000      -0.461496       -12.5579
 212   2.0000      -0.461264       -12.5516
 213   2.0000      -0.460565       -12.5326
 214   2.0000      -0.459764       -12.5108
 215   2.0000      -0.458264       -12.4700
 216   2.0000      -0.457562       -12.4509
 217   2.0000      -0.456635       -12.4257
 218   2.0000      -0.452204       -12.3051
 219   2.0000      -0.448155       -12.1949
 220   2.0000      -0.446167       -12.1408
 221   2.0000      -0.444847       -12.1049
 222   2.0000      -0.444775       -12.1029
 223   2.0000      -0.443574       -12.0703
 224   2.0000      -0.443483       -12.0678
 225   2.0000      -0.442674       -12.0458
 226   2.0000      -0.441866       -12.0238
 227   2.0000      -0.441550       -12.0152
 228   2.0000      -0.441035       -12.0012
 229   2.0000      -0.440355       -11.9827
 230   2.0000      -0.440030       -11.9738
 231   2.0000      -0.438875       -11.9424
 232   2.0000      -0.437525       -11.9057
 233   2.0000      -0.435072       -11.8389
 234   2.0000      -0.430404       -11.7119
 235   2.0000      -0.429925       -11.6989
 236   2.0000      -0.427857       -11.6426
 237   2.0000      -0.426825       -11.6145
 238   2.0000      -0.425133       -11.5685
 239   2.0000      -0.423417       -11.5218
 240   2.0000      -0.412511       -11.2250
 241   2.0000      -0.409195       -11.1348
 242   2.0000      -0.404822       -11.0158
 243   2.0000      -0.402493       -10.9524
 244   2.0000      -0.390593       -10.6286
 245   2.0000      -0.384707       -10.4684
 246   2.0000      -0.362116        -9.8537
 247   2.0000      -0.356900        -9.7118
 248   2.0000      -0.351690        -9.5700
 249   2.0000      -0.350084        -9.5263
 250   2.0000      -0.346971        -9.4416
 251   2.0000      -0.345746        -9.4082
 252   2.0000      -0.327900        -8.9226
 253   2.0000      -0.324211        -8.8222
 254   2.0000      -0.322817        -8.7843
 255   2.0000      -0.321842        -8.7578
 256   2.0000      -0.312777        -8.5111
 257   2.0000      -0.309853        -8.4315
 258   2.0000      -0.291537        -7.9331
 259   2.0000      -0.258195        -7.0258
 260   2.0000      -0.246115        -6.6971
 261   0.0000      -0.112460        -3.0602
 262   0.0000      -0.106739        -2.9045
 263   0.0000      -0.104380        -2.8403
 264   0.0000      -0.101659        -2.7663
 265   0.0000      -0.066264        -1.8031

MULLIKEN ATOMIC CHARGES
-----------------------
   0 C :   -0.080139
   1 C :    0.036592
   2 C :   -0.028444
   3 C :   -0.117595
   4 S :    0.185639
   5 C :   -0.099795
   6 C :    0.012311
   7 C :    0.296155
   8 C :   -0.295633
   9 C :   -0.187403
  10 N :    0.170824
  11 C :   -0.189686
  12 N :    0.173742
  13 C :   -0.063569
  14 C :   -0.055007
  15 S :    0.193787
  16 C :   -0.045674
  17 C :   -0.071288
  18 C :    0.019963
  19 C :   -0.106249
  20 S :    0.200442
  21 C :   -0.090299
  22 C :    0.009946
  23 C :    0.301111
  24 C :   -0.298398
  25 C :   -0.191913
  26 N :    0.179537
  27 C :   -0.188606
  28 N :    0.170286
  29 C :   -0.046700
  30 C :   -0.043895
  31 S :    0.249651
  32 C :   -0.072951
  33 N :   -0.012308
  34 C :   -0.001140
  35 C :    0.011295
  36 N :   -0.043129
  37 N :   -0.054818
  38 C :   -0.048395
  39 C :   -0.051068
  40 C :    0.026002
  41 C :   -0.089592
  42 S :    0.179842
  43 C :   -0.099820
  44 C :    0.019701
  45 C :    0.297300
  46 C :   -0.293532
  47 C :   -0.187529
  48 N :    0.171287
  49 C :   -0.192364
  50 N :    0.188237
  51 C :   -0.068228
  52 C :   -0.046081
  53 S :    0.195836
  54 C :   -0.054922
  55 C :   -0.063612
  56 C :    0.013141
  57 C :   -0.098272
  58 S :    0.195196
  59 C :   -0.117951
  60 C :   -0.030141
  61 C :    0.297117
  62 C :   -0.296709
  63 C :   -0.189503
  64 N :    0.175418
  65 C :   -0.186112
  66 N :    0.168253
  67 C :    0.037114
  68 C :   -0.080080
  69 S :    0.187015
  70 H :    0.036242
  71 H :    0.012624
  72 H :    0.012380
  73 H :    0.011891
  74 H :    0.019802
  75 H :    0.022653
  76 H :    0.027497
  77 H :    0.011376
  78 H :    0.011224
  79 H :    0.013117
  80 H :    0.037000
Sum of atomic charges:    0.0000000

LOEWDIN ATOMIC CHARGES
----------------------
   0 C :   -0.176948
   1 C :   -0.033858
   2 C :   -0.076359
   3 C :   -0.184696
   4 S :    0.480795
   5 C :   -0.178610
   6 C :   -0.069660
   7 C :    0.083300
   8 C :   -0.103048
   9 C :   -0.016217
  10 N :   -0.034657
  11 C :   -0.016948
  12 N :   -0.032082
  13 C :   -0.037122
  14 C :   -0.182609
  15 S :    0.485554
  16 C :   -0.174632
  17 C :   -0.042336
  18 C :   -0.062382
  19 C :   -0.185399
  20 S :    0.488164
  21 C :   -0.169797
  22 C :   -0.078187
  23 C :    0.081784
  24 C :   -0.102274
  25 C :   -0.018224
  26 N :   -0.029378
  27 C :   -0.015734
  28 N :   -0.035440
  29 C :    0.000705
  30 C :   -0.196210
  31 S :    0.521508
  32 C :   -0.015416
  33 N :   -0.048229
  34 C :    0.031164
  35 C :   -0.055526
  36 N :   -0.014465
  37 N :   -0.065776
  38 C :   -0.185888
  39 C :    0.001461
  40 C :   -0.072263
  41 C :   -0.170891
  42 S :    0.478070
  43 C :   -0.186450
  44 C :   -0.062445
  45 C :    0.079939
  46 C :   -0.096101
  47 C :   -0.015061
  48 N :   -0.032166
  49 C :   -0.020212
  50 N :   -0.021257
  51 C :   -0.041648
  52 C :   -0.173722
  53 S :    0.485607
  54 C :   -0.183768
  55 C :   -0.037344
  56 C :   -0.069654
  57 C :   -0.177781
  58 S :    0.486214
  59 C :   -0.185059
  60 C :   -0.076217
  61 C :    0.083297
  62 C :   -0.103026
  63 C :   -0.017210
  64 N :   -0.031253
  65 C :   -0.015674
  66 N :   -0.035726
  67 C :   -0.033681
  68 C :   -0.176294
  69 S :    0.481913
  70 H :    0.027953
  71 H :    0.042809
  72 H :    0.035789
  73 H :    0.035261
  74 H :    0.046009
  75 H :    0.024946
  76 H :    0.048690
  77 H :    0.035694
  78 H :    0.035202
  79 H :    0.042961
  80 H :    0.028223

  Mayer bond orders larger than 0.100000
B(  0-C ,  1-C ) :   1.5478 B(  0-C ,  4-S ) :   1.1511 B(  0-C , 70-H ) :   0.9641
B(  1-C ,  2-C ) :   1.2785 B(  1-C , 71-H ) :   0.9961 B(  2-C ,  3-C ) :   1.4580
B(  2-C ,  7-C ) :   1.0154 B(  3-C ,  4-S ) :   1.1378 B(  3-C ,  5-C ) :   1.1796
B(  5-C ,  6-C ) :   1.4637 B(  5-C , 15-S ) :   1.1247 B(  6-C ,  7-C ) :   0.9906
B(  6-C , 13-C ) :   1.2965 B(  7-C ,  8-C ) :   1.7134 B(  8-C ,  9-C ) :   1.1315
B(  8-C , 11-C ) :   1.1296 B(  9-C , 10-N ) :   2.9913 B( 11-C , 12-N ) :   3.0025
B( 13-C , 14-C ) :   1.4670 B( 13-C , 72-H ) :   0.9868 B( 14-C , 15-S ) :   1.1100
B( 14-C , 16-C ) :   1.1609 B( 16-C , 17-C ) :   1.4610 B( 16-C , 20-S ) :   1.1165
B( 17-C , 18-C ) :   1.3003 B( 17-C , 73-H ) :   0.9861 B( 18-C , 19-C ) :   1.4551
B( 18-C , 23-C ) :   0.9900 B( 19-C , 20-S ) :   1.1155 B( 19-C , 21-C ) :   1.1889
B( 21-C , 22-C ) :   1.4269 B( 21-C , 31-S ) :   1.1386 B( 22-C , 23-C ) :   0.9969
B( 22-C , 29-C ) :   1.2686 B( 23-C , 24-C ) :   1.7166 B( 24-C , 25-C ) :   1.1328
B( 24-C , 27-C ) :   1.1326 B( 25-C , 26-N ) :   3.0009 B( 27-C , 28-N ) :   2.9902
B( 29-C , 30-C ) :   1.4697 B( 29-C , 74-H ) :   1.0046 B( 30-C , 31-S ) :   1.0989
B( 30-C , 32-C ) :   1.0681 B( 32-C , 33-N ) :   1.5155 B( 32-C , 37-N ) :   1.5870
B( 33-N , 34-C ) :   1.6403 B( 34-C , 35-C ) :   1.2345 B( 34-C , 75-H ) :   0.9728
B( 35-C , 36-N ) :   1.5587 B( 35-C , 38-C ) :   1.0821 B( 36-N , 37-N ) :   1.3620
B( 38-C , 39-C ) :   1.4781 B( 38-C , 42-S ) :   1.1010 B( 39-C , 40-C ) :   1.2451
B( 39-C , 76-H ) :   1.0125 B( 40-C , 41-C ) :   1.4365 B( 40-C , 45-C ) :   0.9914
B( 41-C , 42-S ) :   1.1377 B( 41-C , 43-C ) :   1.1858 B( 43-C , 44-C ) :   1.4540
B( 43-C , 53-S ) :   1.1133 B( 44-C , 45-C ) :   0.9913 B( 44-C , 51-C ) :   1.2986
B( 45-C , 46-C ) :   1.7221 B( 46-C , 47-C ) :   1.1328 B( 46-C , 49-C ) :   1.1315
B( 47-C , 48-N ) :   2.9893 B( 49-C , 50-N ) :   3.0023 B( 51-C , 52-C ) :   1.4616
B( 51-C , 77-H ) :   0.9870 B( 52-C , 53-S ) :   1.1148 B( 52-C , 54-C ) :   1.1634
B( 54-C , 55-C ) :   1.4647 B( 54-C , 58-S ) :   1.1094 B( 55-C , 56-C ) :   1.2985
B( 55-C , 78-H ) :   0.9863 B( 56-C , 57-C ) :   1.4645 B( 56-C , 61-C ) :   0.9906
B( 57-C , 58-S ) :   1.1252 B( 57-C , 59-C ) :   1.1793 B( 59-C , 60-C ) :   1.4575
B( 59-C , 69-S ) :   1.1378 B( 60-C , 61-C ) :   1.0154 B( 60-C , 67-C ) :   1.2789
B( 61-C , 62-C ) :   1.7131 B( 62-C , 63-C ) :   1.1299 B( 62-C , 65-C ) :   1.1316
B( 63-C , 64-N ) :   3.0029 B( 65-C , 66-N ) :   2.9897 B( 67-C , 68-C ) :   1.5477
B( 67-C , 79-H ) :   0.9957 B( 68-C , 69-S ) :   1.1520 B( 68-C , 80-H ) :   0.9641

-----------------------------------------------------------------------------
         ABSORPTION SPECTRUM VIA TRANSITION ELECTRIC DIPOLE MOMENTS
-----------------------------------------------------------------------------
State   Energy  Wavelength   fosc         T2         TX        TY        TZ
        (cm-1)    (nm)                  (au**2)     (au)      (au)      (au)
-----------------------------------------------------------------------------
   0   12431.4    804.4   0.449124434  11.89383  -1.58967   3.05651   0.15669
   1   13002.2    769.1   0.048654003   1.23191   0.57441  -0.94442   0.10014
   2   14003.8    714.1   0.056210760   1.32145   0.58002  -0.98891   0.08415
   3   14032.1    712.7   0.038587671   0.90532  -0.43989   0.84345   0.02004
   4   21272.1    470.1   0.198798033   3.07664  -0.74948   1.56839   0.23472
   5   22459.2    445.3   0.780092505  11.43475  -1.43512   3.02987   0.44166
   6   23471.7    426.0   1.544969582  21.66958   2.15322  -4.12230  -0.19965
   7   24770.6    403.7   0.012593286   0.16737   0.21166  -0.34852   0.03317
   8   24856.1    402.3   0.003498178   0.04633   0.18162   0.07597  -0.08703
   9   25128.6    398.0   0.001787601   0.02342   0.04820  -0.13780  -0.04590
  10   25982.7    384.9   0.143652930   1.82015   0.59753  -1.19711  -0.17332
  11   26667.1    375.0   0.010357159   0.12786  -0.22377  -0.25665   0.10916
  12   26706.1    374.4   0.152316963   1.87764  -0.58300   1.21935   0.22571
  13   27651.6    361.6   0.008368519   0.09963  -0.03087   0.27932   0.14374
  14   28354.8    352.7   0.026648288   0.30940  -0.34735   0.26633  -0.34324
  15   28701.4    348.4   0.000127174   0.00146   0.03499  -0.01347  -0.00730
  16   28926.2    345.7   0.015452125   0.17586   0.17528  -0.38021   0.02412
  17   29829.2    335.2   0.397200194   4.38373  -1.18932   1.58147  -0.68425
  18   31198.7    320.5   1.330240497  14.03683  -1.78873   0.50163  -3.25356
  19   31322.6    319.3   0.146771804   1.54263   0.41580   0.39416   1.10199
  20   31458.1    317.9   0.031575358   0.33044  -0.24930  -0.14913  -0.49603
  21   31619.0    316.3   0.200411896   2.08665   0.85933  -0.39778   1.09086
  22   31828.7    314.2   0.352459609   3.64558  -0.18507  -0.81753  -1.71551
  23   32085.7    311.7   0.629855628   6.46256  -0.26977  -1.63124  -1.93102
  24   32105.1    311.5   0.008265285   0.08475   0.15195   0.17757   0.17359
  25   32521.7    307.5   0.453259843   4.58828  -0.56421  -0.60686  -1.97526
  26   32974.8    303.3   0.126133684   1.25929  -0.69580   0.59120  -0.65241
  27   33420.7    299.2   0.065891109   0.64906   0.28903  -0.73081  -0.17730
  28   33529.3    298.2   0.331618512   3.25604   1.01794  -1.42693   0.42863
  29   33615.8    297.5   0.226197413   2.21523  -0.80630   1.18254  -0.40830
  30   33731.5    296.5   0.021621472   0.21102   0.27519  -0.23004   0.28701
  31   34517.6    289.7   0.076187039   0.72663   0.21663  -0.70678  -0.42446
  32   34767.6    287.6   0.086063889   0.81493   0.39619  -0.80996  -0.04390
  33   34863.8    286.8   0.008181152   0.07725   0.14837  -0.22474   0.06878
  34   34934.6    286.2   0.019604452   0.18475  -0.29087   0.24089  -0.20522
  35   35162.2    284.4   0.021576753   0.20202   0.22601  -0.35897   0.14858
  36   36165.9    276.5   0.020490149   0.18652   0.07353   0.16268   0.39325
  37   36325.5    275.3   0.148400518   1.34493   0.02141  -0.80572  -0.83384
  38   36563.5    273.5   0.011510016   0.10363   0.13904   0.06806   0.28226
  39   36844.0    271.4   0.010934735   0.09770  -0.05013   0.23868   0.19551
  40   37227.0    268.6   0.000246160   0.00218  -0.00596   0.03475   0.03056
  41   37245.6    268.5   0.016243309   0.14357  -0.05289   0.27473   0.25554
  42   37516.2    266.6   0.000052250   0.00046  -0.00298  -0.01406  -0.01587
  43   37892.0    263.9   0.022223519   0.19308   0.10761  -0.39687  -0.15490
  44   38794.2    257.8   0.016747224   0.14212  -0.04497  -0.14701  -0.34421
  45   38835.1    257.5   0.032349236   0.27423   0.20003  -0.47783  -0.07676
  46   38953.1    256.7   0.009114848   0.07703  -0.05639  -0.07537  -0.26110
  47   39321.5    254.3   0.016908582   0.14156   0.12323  -0.32933  -0.13387
  48   39442.5    253.5   0.026900482   0.22453   0.21112   0.04515   0.42180
  49   39505.1    253.1   0.021111353   0.17593   0.11512  -0.35022  -0.20006
  50   39856.8    250.9   0.013213697   0.10914  -0.14194   0.29580   0.03869
  51   40147.5    249.1   0.001049078   0.00860  -0.01055  -0.05915  -0.07065

FINAL SINGLE POINT ENERGY     -5733.373232231705

DIPOLE MOMENT
-------------
                                X             Y             Z
Electronic contribution:      0.39609      -0.63902       0.69171
Nuclear contribution   :     -0.98235       1.11773      -0.94780
                        -----------------------------------------
Total Dipole Moment    :     -0.58626       0.47871      -0.25608
                        -----------------------------------------
Magnitude (a.u.)       :      0.79903
Magnitude (Debye)      :      2.03097

Rotational constants in cm-1:     0.002687     0.000157     0.000148
Rotational constants in MHz :    80.545078     4.694736     4.437535

                             ****ORCA TERMINATED NORMALLY****
TOTAL RUN TIME: 0 days 0 hours 7 minutes 12 seconds 989 msec
