                         Program Version 4.2.0 -  RELEASE  -
|  1> # ORCA input file
|  2> # SCF done       -206.557460735418          0.000762187565
|  3> ! CAM-B3LYP def2-SVP def2/J RIJCOSX Grid4 TightSCF
|  4> %maxcore 5000
|  5> %tddft
|  6>     Mode sTDDFT
|  7>     Ethresh 5.0
|  8>     maxcore 5000
|  9> end
| 10>
| 11> %pal
| 12>   nprocs 6
| 13>   end
| 14> * xyz 0 1
| 15>    C       -9.08851         2.28777        -1.25670
| 16>    C      -10.06383         2.95288        -0.56815
| 17>    F      -10.40228         4.20159        -0.91704
| 18>    C      -10.72586         2.33720         0.51272
| 19>    F      -11.68012         3.01259         1.16820
| 20>    C      -10.40302         1.06398         0.89050
| 21>    C       -9.40487         0.35115         0.19857
| 22>    C       -8.73378         0.97282        -0.89410
| 23>    C       -7.73077         0.27536        -1.60603
| 24>    C       -7.41517        -1.00628        -1.23957
| 25>    C       -8.09542        -1.62084        -0.15296
| 26>    C       -9.06198        -0.97133         0.55831
| 27>    C       -7.60338        -3.00245         0.02324
| 28>    O       -7.99240        -3.79372         0.85577
| 29>    C       -6.62285        -3.21409        -1.06614
| 30>    C       -6.45559        -1.96373        -1.78037
| 31>    C       -5.51622        -1.69049        -2.74178
| 32>    C       -4.52425        -2.58944        -3.18658
| 33>    N       -3.67702        -3.25753        -3.58068
| 34>    C       -5.39469        -0.44504        -3.39201
| 35>    N       -5.25461         0.54087        -3.96348
| 36>    C       -6.11789        -4.41590        -1.49176
| 37>    C       -6.15720        -5.67290        -0.86529
| 38>    C       -6.37375        -6.05005         0.45503
| 39>    C       -6.32394        -7.42565         0.62407
| 40>    C       -6.07169        -8.12642        -0.58201
| 41>    S       -5.84705        -7.07929        -1.90202
| 42>    C       -6.11502        -9.50813        -0.31271
| 43>    C       -6.38394        -9.69800         1.05580
| 44>    C       -6.49890        -8.39111         1.69216
| 45>    C       -6.71013        -8.14379         3.01704
| 46>    C       -6.87276        -9.18967         3.94951
| 47>    N       -7.00749       -10.04364         4.70333
| 48>    C       -6.75598        -6.84030         3.55742
| 49>    N       -6.77138        -5.79455         4.02608
| 50>    C       -6.48374       -11.03753         1.41377
| 51>    C       -6.30169       -11.88363         0.32857
| 52>    S       -5.98234       -10.99378        -1.15480
| 53>    C       -6.38695       -13.29571         0.32283
| 54>    N       -6.23968       -14.04158        -0.82752
| 55>    C       -6.42319       -15.35180        -0.51656
| 56>    C       -6.47171       -16.63365        -1.04509
| 57>    C       -6.76709       -17.48671         0.03145
| 58>    N       -6.88770       -16.73616         1.18556
| 59>    C       -6.68563       -15.43043         0.87849
| 60>    C       -6.66136       -14.14506         1.40442
| 61>    C       -6.97845       -18.88356         0.05793
| 62>    C       -6.83958       -19.70778        -1.01801
| 63>    C       -7.08864       -21.09568        -1.06487
| 64>    S       -6.38491       -22.00118        -2.35774
| 65>    C       -7.02955       -23.52267        -1.80368
| 66>    C       -7.77421       -23.32603        -0.61602
| 67>    C       -7.83465       -21.95138        -0.22498
| 68>    C       -8.65267       -21.58481         0.85574
| 69>    C       -9.28741       -22.55053         1.58738
| 70>    S      -10.31559       -22.06893         2.97002
| 71>    C       -9.10615       -23.92705         1.30182
| 72>    O       -9.64655       -24.88128         2.08180
| 73>    C       -8.38561       -24.29767         0.18805
| 74>    C       -6.75286       -24.64858        -2.58889
| 75>    C       -7.30200       -25.90235        -2.50167
| 76>    C       -6.91015       -26.92584        -3.37393
| 77>    C       -7.44067       -28.19625        -3.37881
| 78>    C       -7.07161       -29.28459        -4.25405
| 79>    C       -6.10797       -29.27939        -5.23242
| 80>    C       -5.79902       -30.38906        -6.04586
| 81>    N       -5.49787       -31.24908        -6.74461
| 82>    C       -5.28614       -28.18537        -5.57162
| 83>    N       -4.57440       -27.34874        -5.90884
| 84>    C       -7.91534       -30.43099        -3.91313
| 85>    C       -8.76891       -30.06821        -2.85778
| 86>    C       -8.50892       -28.66312        -2.47153
| 87>    O       -9.07174       -28.04781        -1.58830
| 88>    C       -9.68466       -30.95054        -2.32405
| 89>    C       -9.75289       -32.23172        -2.85749
| 90>    C       -8.90746       -32.60262        -3.90734
| 91>    C       -7.98495       -31.70902        -4.44178
| 92>   Cl       -9.00119       -34.18980        -4.55909
| 93>   Cl      -10.88179       -33.36056        -2.22287
| 94>    H       -8.59074         2.77437        -2.08089
| 95>    H      -10.91884         0.60609         1.71994
| 96>    H       -7.24530         0.77089        -2.43112
| 97>    H       -9.55980        -1.46187         1.38084
| 98>    H       -5.66252        -4.43023        -2.47565
| 99>    H       -6.56203        -5.34011         1.23841
|100>    H       -6.68873       -11.39703         2.40435
|101>    H       -6.04290       -13.65698        -1.73585
|102>    H       -6.32705       -16.93373        -2.06247
|103>    H       -7.09242       -17.11411         2.09471
|104>    H       -6.81957       -13.83774         2.41749
|105>    H       -7.24097       -19.29817         1.02021
|106>    H       -6.45106       -19.28367        -1.93418
|107>    H       -8.82122       -20.54923         1.09632
|108>    H      -11.39517       -22.75806         2.58685
|109>    H      -10.00403       -24.48126         2.89128
|110>    H       -8.29342       -25.34933        -0.01570
|111>    H       -6.04015       -24.47888        -3.38986
|112>    H       -8.07311       -26.12605        -1.78567
|113>    H       -6.13375       -26.68816        -4.08955
|114>    H      -10.33035       -30.65023        -1.51402
|115>    H       -7.35135       -32.03251        -5.25106
|116> *
|117>
|118>                          ****END OF INPUT****

CARTESIAN COORDINATES (ANGSTROEM)
---------------------------------
  C     -9.088510    2.287770   -1.256700
  C    -10.063830    2.952880   -0.568150
  F    -10.402280    4.201590   -0.917040
  C    -10.725860    2.337200    0.512720
  F    -11.680120    3.012590    1.168200
  C    -10.403020    1.063980    0.890500
  C     -9.404870    0.351150    0.198570
  C     -8.733780    0.972820   -0.894100
  C     -7.730770    0.275360   -1.606030
  C     -7.415170   -1.006280   -1.239570
  C     -8.095420   -1.620840   -0.152960
  C     -9.061980   -0.971330    0.558310
  C     -7.603380   -3.002450    0.023240
  O     -7.992400   -3.793720    0.855770
  C     -6.622850   -3.214090   -1.066140
  C     -6.455590   -1.963730   -1.780370
  C     -5.516220   -1.690490   -2.741780
  C     -4.524250   -2.589440   -3.186580
  N     -3.677020   -3.257530   -3.580680
  C     -5.394690   -0.445040   -3.392010
  N     -5.254610    0.540870   -3.963480
  C     -6.117890   -4.415900   -1.491760
  C     -6.157200   -5.672900   -0.865290
  C     -6.373750   -6.050050    0.455030
  C     -6.323940   -7.425650    0.624070
  C     -6.071690   -8.126420   -0.582010
  S     -5.847050   -7.079290   -1.902020
  C     -6.115020   -9.508130   -0.312710
  C     -6.383940   -9.698000    1.055800
  C     -6.498900   -8.391110    1.692160
  C     -6.710130   -8.143790    3.017040
  C     -6.872760   -9.189670    3.949510
  N     -7.007490  -10.043640    4.703330
  C     -6.755980   -6.840300    3.557420
  N     -6.771380   -5.794550    4.026080
  C     -6.483740  -11.037530    1.413770
  C     -6.301690  -11.883630    0.328570
  S     -5.982340  -10.993780   -1.154800
  C     -6.386950  -13.295710    0.322830
  N     -6.239680  -14.041580   -0.827520
  C     -6.423190  -15.351800   -0.516560
  C     -6.471710  -16.633650   -1.045090
  C     -6.767090  -17.486710    0.031450
  N     -6.887700  -16.736160    1.185560
  C     -6.685630  -15.430430    0.878490
  C     -6.661360  -14.145060    1.404420
  C     -6.978450  -18.883560    0.057930
  C     -6.839580  -19.707780   -1.018010
  C     -7.088640  -21.095680   -1.064870
  S     -6.384910  -22.001180   -2.357740
  C     -7.029550  -23.522670   -1.803680
  C     -7.774210  -23.326030   -0.616020
  C     -7.834650  -21.951380   -0.224980
  C     -8.652670  -21.584810    0.855740
  C     -9.287410  -22.550530    1.587380
  S    -10.315590  -22.068930    2.970020
  C     -9.106150  -23.927050    1.301820
  O     -9.646550  -24.881280    2.081800
  C     -8.385610  -24.297670    0.188050
  C     -6.752860  -24.648580   -2.588890
  C     -7.302000  -25.902350   -2.501670
  C     -6.910150  -26.925840   -3.373930
  C     -7.440670  -28.196250   -3.378810
  C     -7.071610  -29.284590   -4.254050
  C     -6.107970  -29.279390   -5.232420
  C     -5.799020  -30.389060   -6.045860
  N     -5.497870  -31.249080   -6.744610
  C     -5.286140  -28.185370   -5.571620
  N     -4.574400  -27.348740   -5.908840
  C     -7.915340  -30.430990   -3.913130
  C     -8.768910  -30.068210   -2.857780
  C     -8.508920  -28.663120   -2.471530
  O     -9.071740  -28.047810   -1.588300
  C     -9.684660  -30.950540   -2.324050
  C     -9.752890  -32.231720   -2.857490
  C     -8.907460  -32.602620   -3.907340
  C     -7.984950  -31.709020   -4.441780
  Cl    -9.001190  -34.189800   -4.559090
  Cl   -10.881790  -33.360560   -2.222870
  H     -8.590740    2.774370   -2.080890
  H    -10.918840    0.606090    1.719940
  H     -7.245300    0.770890   -2.431120
  H     -9.559800   -1.461870    1.380840
  H     -5.662520   -4.430230   -2.475650
  H     -6.562030   -5.340110    1.238410
  H     -6.688730  -11.397030    2.404350
  H     -6.042900  -13.656980   -1.735850
  H     -6.327050  -16.933730   -2.062470
  H     -7.092420  -17.114110    2.094710
  H     -6.819570  -13.837740    2.417490
  H     -7.240970  -19.298170    1.020210
  H     -6.451060  -19.283670   -1.934180
  H     -8.821220  -20.549230    1.096320
  H    -11.395170  -22.758060    2.586850
  H    -10.004030  -24.481260    2.891280
  H     -8.293420  -25.349330   -0.015700
  H     -6.040150  -24.478880   -3.389860
  H     -8.073110  -26.126050   -1.785670
  H     -6.133750  -26.688160   -4.089550
  H    -10.330350  -30.650230   -1.514020
  H     -7.351350  -32.032510   -5.251060

 Total Charge           Charge          ....    0
 Multiplicity           Mult            ....    1
 Number of Electrons    NEL             ....  578
 Basis Dimension        Dim             .... 1240

ORBITAL ENERGIES
----------------

  NO   OCC          E(Eh)            E(eV)
   0   2.0000    -101.593635     -2764.5033
   1   2.0000    -101.591477     -2764.4446
   2   2.0000     -89.004459     -2421.9345
   3   2.0000     -88.999408     -2421.7970
   4   2.0000     -88.981707     -2421.3153
   5   2.0000     -88.959235     -2420.7039
   6   2.0000     -24.798233      -674.7942
   7   2.0000     -24.797299      -674.7688
   8   2.0000     -19.263021      -524.1735
   9   2.0000     -19.219835      -522.9983
  10   2.0000     -19.210690      -522.7494
  11   2.0000     -14.486165      -394.1886
  12   2.0000     -14.482610      -394.0919
  13   2.0000     -14.439937      -392.9307
  14   2.0000     -14.435450      -392.8086
  15   2.0000     -14.417733      -392.3265
  16   2.0000     -14.415885      -392.2762
  17   2.0000     -14.409494      -392.1023
  18   2.0000     -14.406143      -392.0111
  19   2.0000     -10.381456      -282.4938
  20   2.0000     -10.380817      -282.4764
  21   2.0000     -10.374488      -282.3042
  22   2.0000     -10.371848      -282.2323
  23   2.0000     -10.361181      -281.9421
  24   2.0000     -10.361087      -281.9395
  25   2.0000     -10.359570      -281.8982
  26   2.0000     -10.352858      -281.7156
  27   2.0000     -10.347873      -281.5799
  28   2.0000     -10.347279      -281.5638
  29   2.0000     -10.346330      -281.5380
  30   2.0000     -10.343197      -281.4527
  31   2.0000     -10.342619      -281.4370
  32   2.0000     -10.340175      -281.3705
  33   2.0000     -10.340030      -281.3665
  34   2.0000     -10.339770      -281.3594
  35   2.0000     -10.336667      -281.2750
  36   2.0000     -10.334586      -281.2184
  37   2.0000     -10.333678      -281.1937
  38   2.0000     -10.332729      -281.1678
  39   2.0000     -10.331297      -281.1289
  40   2.0000     -10.330780      -281.1148
  41   2.0000     -10.330275      -281.1011
  42   2.0000     -10.324868      -280.9539
  43   2.0000     -10.321465      -280.8613
  44   2.0000     -10.320910      -280.8462
  45   2.0000     -10.320630      -280.8386
  46   2.0000     -10.319645      -280.8118
  47   2.0000     -10.319058      -280.7958
  48   2.0000     -10.315677      -280.7038
  49   2.0000     -10.313404      -280.6420
  50   2.0000     -10.312934      -280.6292
  51   2.0000     -10.312328      -280.6127
  52   2.0000     -10.312106      -280.6067
  53   2.0000     -10.311696      -280.5955
  54   2.0000     -10.310619      -280.5662
  55   2.0000     -10.310358      -280.5591
  56   2.0000     -10.309674      -280.5405
  57   2.0000     -10.309639      -280.5395
  58   2.0000     -10.308325      -280.5038
  59   2.0000     -10.307503      -280.4814
  60   2.0000     -10.307023      -280.4684
  61   2.0000     -10.305973      -280.4398
  62   2.0000     -10.305878      -280.4372
  63   2.0000     -10.305053      -280.4148
  64   2.0000     -10.303377      -280.3691
  65   2.0000     -10.302668      -280.3498
  66   2.0000     -10.302394      -280.3424
  67   2.0000     -10.302229      -280.3379
  68   2.0000     -10.301101      -280.3072
  69   2.0000     -10.300760      -280.2979
  70   2.0000     -10.300506      -280.2910
  71   2.0000     -10.299892      -280.2743
  72   2.0000     -10.293448      -280.0990
  73   2.0000     -10.292856      -280.0829
  74   2.0000     -10.291631      -280.0495
  75   2.0000     -10.289679      -279.9964
  76   2.0000     -10.283628      -279.8317
  77   2.0000     -10.282469      -279.8002
  78   2.0000     -10.275055      -279.5985
  79   2.0000      -9.548677      -259.8327
  80   2.0000      -9.546510      -259.7738
  81   2.0000      -8.099150      -220.3891
  82   2.0000      -8.094272      -220.2564
  83   2.0000      -8.077262      -219.7935
  84   2.0000      -8.054118      -219.1637
  85   2.0000      -7.319044      -199.1613
  86   2.0000      -7.316909      -199.1032
  87   2.0000      -7.308939      -198.8863
  88   2.0000      -7.308241      -198.8673
  89   2.0000      -7.306753      -198.8269
  90   2.0000      -7.306054      -198.8078
  91   2.0000      -6.068458      -165.1311
  92   2.0000      -6.064410      -165.0210
  93   2.0000      -6.063451      -164.9949
  94   2.0000      -6.061309      -164.9366
  95   2.0000      -6.059300      -164.8819
  96   2.0000      -6.056679      -164.8106
  97   2.0000      -6.046184      -164.5250
  98   2.0000      -6.042165      -164.4157
  99   2.0000      -6.039999      -164.3567
 100   2.0000      -6.024245      -163.9280
 101   2.0000      -6.020577      -163.8282
 102   2.0000      -6.014219      -163.6552
 103   2.0000      -1.320540       -35.9337
 104   2.0000      -1.305675       -35.5292
 105   2.0000      -1.163487       -31.6601
 106   2.0000      -1.135539       -30.8996
 107   2.0000      -1.124609       -30.6022
 108   2.0000      -1.117150       -30.3992
 109   2.0000      -1.081509       -29.4294
 110   2.0000      -1.055619       -28.7249
 111   2.0000      -1.030099       -28.0304
 112   2.0000      -1.022438       -27.8219
 113   2.0000      -1.021229       -27.7891
 114   2.0000      -1.015966       -27.6458
 115   2.0000      -1.014538       -27.6070
 116   2.0000      -1.008097       -27.4317
 117   2.0000      -1.007408       -27.4130
 118   2.0000      -1.005025       -27.3481
 119   2.0000      -0.995449       -27.0875
 120   2.0000      -0.986710       -26.8498
 121   2.0000      -0.982598       -26.7379
 122   2.0000      -0.981275       -26.7019
 123   2.0000      -0.969166       -26.3723
 124   2.0000      -0.959295       -26.1037
 125   2.0000      -0.954203       -25.9652
 126   2.0000      -0.936350       -25.4794
 127   2.0000      -0.936070       -25.4717
 128   2.0000      -0.926496       -25.2112
 129   2.0000      -0.925997       -25.1977
 130   2.0000      -0.912284       -24.8245
 131   2.0000      -0.904682       -24.6177
 132   2.0000      -0.900200       -24.4957
 133   2.0000      -0.893801       -24.3216
 134   2.0000      -0.892538       -24.2872
 135   2.0000      -0.891222       -24.2514
 136   2.0000      -0.886018       -24.1098
 137   2.0000      -0.882675       -24.0188
 138   2.0000      -0.873935       -23.7810
 139   2.0000      -0.866771       -23.5860
 140   2.0000      -0.864807       -23.5326
 141   2.0000      -0.851991       -23.1839
 142   2.0000      -0.845422       -23.0051
 143   2.0000      -0.840908       -22.8823
 144   2.0000      -0.838362       -22.8130
 145   2.0000      -0.824297       -22.4303
 146   2.0000      -0.816901       -22.2290
 147   2.0000      -0.806665       -21.9505
 148   2.0000      -0.788201       -21.4481
 149   2.0000      -0.783111       -21.3095
 150   2.0000      -0.768197       -20.9037
 151   2.0000      -0.765759       -20.8374
 152   2.0000      -0.757721       -20.6186
 153   2.0000      -0.749756       -20.4019
 154   2.0000      -0.739195       -20.1145
 155   2.0000      -0.724168       -19.7056
 156   2.0000      -0.723029       -19.6746
 157   2.0000      -0.722447       -19.6588
 158   2.0000      -0.719615       -19.5817
 159   2.0000      -0.714031       -19.4298
 160   2.0000      -0.712774       -19.3956
 161   2.0000      -0.708451       -19.2779
 162   2.0000      -0.698645       -19.0111
 163   2.0000      -0.692410       -18.8414
 164   2.0000      -0.691095       -18.8057
 165   2.0000      -0.686606       -18.6835
 166   2.0000      -0.684165       -18.6171
 167   2.0000      -0.676519       -18.4090
 168   2.0000      -0.674455       -18.3528
 169   2.0000      -0.664121       -18.0716
 170   2.0000      -0.661035       -17.9877
 171   2.0000      -0.655555       -17.8385
 172   2.0000      -0.647882       -17.6298
 173   2.0000      -0.644553       -17.5392
 174   2.0000      -0.641947       -17.4683
 175   2.0000      -0.637563       -17.3490
 176   2.0000      -0.632131       -17.2012
 177   2.0000      -0.625645       -17.0247
 178   2.0000      -0.624513       -16.9939
 179   2.0000      -0.614745       -16.7281
 180   2.0000      -0.611768       -16.6471
 181   2.0000      -0.607313       -16.5258
 182   2.0000      -0.603307       -16.4168
 183   2.0000      -0.595795       -16.2124
 184   2.0000      -0.591720       -16.1015
 185   2.0000      -0.585268       -15.9260
 186   2.0000      -0.584695       -15.9104
 187   2.0000      -0.581579       -15.8256
 188   2.0000      -0.577982       -15.7277
 189   2.0000      -0.573586       -15.6081
 190   2.0000      -0.571833       -15.5604
 191   2.0000      -0.568549       -15.4710
 192   2.0000      -0.564482       -15.3603
 193   2.0000      -0.560987       -15.2652
 194   2.0000      -0.556117       -15.1327
 195   2.0000      -0.554623       -15.0921
 196   2.0000      -0.552111       -15.0237
 197   2.0000      -0.548731       -14.9317
 198   2.0000      -0.546868       -14.8810
 199   2.0000      -0.545003       -14.8303
 200   2.0000      -0.542044       -14.7498
 201   2.0000      -0.540295       -14.7022
 202   2.0000      -0.538716       -14.6592
 203   2.0000      -0.537392       -14.6232
 204   2.0000      -0.535809       -14.5801
 205   2.0000      -0.535454       -14.5704
 206   2.0000      -0.531365       -14.4592
 207   2.0000      -0.530702       -14.4411
 208   2.0000      -0.527146       -14.3444
 209   2.0000      -0.526435       -14.3250
 210   2.0000      -0.523601       -14.2479
 211   2.0000      -0.516583       -14.0569
 212   2.0000      -0.516024       -14.0417
 213   2.0000      -0.514532       -14.0011
 214   2.0000      -0.511769       -13.9259
 215   2.0000      -0.509407       -13.8617
 216   2.0000      -0.508649       -13.8410
 217   2.0000      -0.506722       -13.7886
 218   2.0000      -0.503082       -13.6895
 219   2.0000      -0.499769       -13.5994
 220   2.0000      -0.498510       -13.5652
 221   2.0000      -0.497169       -13.5287
 222   2.0000      -0.495784       -13.4910
 223   2.0000      -0.494103       -13.4452
 224   2.0000      -0.488963       -13.3053
 225   2.0000      -0.487241       -13.2585
 226   2.0000      -0.486186       -13.2298
 227   2.0000      -0.482433       -13.1277
 228   2.0000      -0.481233       -13.0950
 229   2.0000      -0.476951       -12.9785
 230   2.0000      -0.473223       -12.8771
 231   2.0000      -0.470738       -12.8094
 232   2.0000      -0.470171       -12.7940
 233   2.0000      -0.469618       -12.7789
 234   2.0000      -0.467663       -12.7258
 235   2.0000      -0.463836       -12.6216
 236   2.0000      -0.463347       -12.6083
 237   2.0000      -0.460993       -12.5442
 238   2.0000      -0.458890       -12.4870
 239   2.0000      -0.456909       -12.4331
 240   2.0000      -0.454279       -12.3616
 241   2.0000      -0.452149       -12.3036
 242   2.0000      -0.450890       -12.2693
 243   2.0000      -0.447220       -12.1695
 244   2.0000      -0.447078       -12.1656
 245   2.0000      -0.445959       -12.1352
 246   2.0000      -0.444827       -12.1044
 247   2.0000      -0.442599       -12.0437
 248   2.0000      -0.441357       -12.0099
 249   2.0000      -0.437200       -11.8968
 250   2.0000      -0.435713       -11.8563
 251   2.0000      -0.434329       -11.8187
 252   2.0000      -0.432230       -11.7616
 253   2.0000      -0.431022       -11.7287
 254   2.0000      -0.429535       -11.6882
 255   2.0000      -0.428867       -11.6701
 256   2.0000      -0.426284       -11.5998
 257   2.0000      -0.424913       -11.5625
 258   2.0000      -0.420744       -11.4490
 259   2.0000      -0.420017       -11.4292
 260   2.0000      -0.419408       -11.4127
 261   2.0000      -0.417461       -11.3597
 262   2.0000      -0.411625       -11.2009
 263   2.0000      -0.407562       -11.0903
 264   2.0000      -0.406921       -11.0729
 265   2.0000      -0.404309       -11.0018
 266   2.0000      -0.399120       -10.8606
 267   2.0000      -0.394842       -10.7442
 268   2.0000      -0.387307       -10.5392
 269   2.0000      -0.381552       -10.3826
 270   2.0000      -0.374810       -10.1991
 271   2.0000      -0.371539       -10.1101
 272   2.0000      -0.365660        -9.9501
 273   2.0000      -0.361802        -9.8451
 274   2.0000      -0.354856        -9.6561
 275   2.0000      -0.344529        -9.3751
 276   2.0000      -0.334309        -9.0970
 277   2.0000      -0.333658        -9.0793
 278   2.0000      -0.331765        -9.0278
 279   2.0000      -0.330017        -8.9802
 280   2.0000      -0.318645        -8.6708
 281   2.0000      -0.316940        -8.6244
 282   2.0000      -0.315016        -8.5720
 283   2.0000      -0.310407        -8.4466
 284   2.0000      -0.303576        -8.2607
 285   2.0000      -0.300894        -8.1877
 286   2.0000      -0.289041        -7.8652
 287   2.0000      -0.260123        -7.0783
 288   2.0000      -0.228469        -6.2169
 289   0.0000      -0.121739        -3.3127
 290   0.0000      -0.101849        -2.7715
 291   0.0000      -0.093805        -2.5526
 292   0.0000      -0.066573        -1.8116
 293   0.0000      -0.061553        -1.6749

MULLIKEN ATOMIC CHARGES
-----------------------
   0 C :   -0.108819
   1 C :    0.241964
   2 F :   -0.171555
   3 C :    0.242149
   4 F :   -0.172507
   5 C :   -0.107717
   6 C :    0.116322
   7 C :    0.114240
   8 C :   -0.084348
   9 C :    0.051603
  10 C :   -0.008128
  11 C :   -0.080891
  12 C :    0.155730
  13 O :   -0.154848
  14 C :   -0.102465
  15 C :    0.303750
  16 C :   -0.345498
  17 C :   -0.205842
  18 N :    0.154800
  19 C :   -0.180925
  20 N :    0.145610
  21 C :    0.035189
  22 C :   -0.118545
  23 C :    0.033986
  24 C :   -0.027269
  25 C :   -0.074334
  26 S :    0.199304
  27 C :   -0.113435
  28 C :    0.042273
  29 C :    0.304650
  30 C :   -0.288512
  31 C :   -0.187980
  32 N :    0.169511
  33 C :   -0.187502
  34 N :    0.188258
  35 C :   -0.069215
  36 C :   -0.041249
  37 S :    0.164667
  38 C :    0.080558
  39 N :   -0.049996
  40 C :    0.119901
  41 C :   -0.162133
  42 C :    0.095016
  43 N :   -0.031595
  44 C :    0.121355
  45 C :   -0.164344
  46 C :    0.003483
  47 C :    0.020738
  48 C :   -0.090030
  49 S :    0.173878
  50 C :   -0.139162
  51 C :    0.169033
  52 C :    0.099208
  53 C :   -0.042782
  54 C :   -0.138853
  55 S :    0.004203
  56 C :    0.155836
  57 O :   -0.159456
  58 C :   -0.122380
  59 C :    0.084854
  60 C :   -0.051154
  61 C :   -0.029911
  62 C :   -0.088087
  63 C :    0.333830
  64 C :   -0.355024
  65 C :   -0.189951
  66 N :    0.146544
  67 C :   -0.189047
  68 N :    0.136163
  69 C :    0.030516
  70 C :   -0.013071
  71 C :    0.144584
  72 O :   -0.158894
  73 C :   -0.037226
  74 C :    0.063742
  75 C :    0.047422
  76 C :   -0.019124
  77 Cl:   -0.042108
  78 Cl:   -0.050711
  79 H :    0.006647
  80 H :    0.000018
  81 H :   -0.005738
  82 H :   -0.008878
  83 H :    0.019456
  84 H :    0.036202
  85 H :    0.006674
  86 H :    0.129596
  87 H :   -0.025363
  88 H :    0.127280
  89 H :   -0.019343
  90 H :   -0.019096
  91 H :   -0.009914
  92 H :   -0.030505
  93 H :    0.071832
  94 H :    0.165003
  95 H :   -0.007927
  96 H :    0.001966
  97 H :    0.029656
  98 H :    0.002409
  99 H :   -0.005832
 100 H :   -0.002392
Sum of atomic charges:   -0.0000000

LOEWDIN ATOMIC CHARGES
----------------------
   0 C :   -0.029445
   1 C :    0.066442
   2 F :   -0.049505
   3 C :    0.067691
   4 F :   -0.050001
   5 C :   -0.033015
   6 C :   -0.008760
   7 C :   -0.006916
   8 C :    0.016987
   9 C :   -0.023117
  10 C :   -0.051277
  11 C :    0.029960
  12 C :    0.084110
  13 O :   -0.141680
  14 C :   -0.101612
  15 C :    0.075548
  16 C :   -0.144553
  17 C :   -0.025625
  18 N :   -0.055248
  19 C :   -0.018024
  20 N :   -0.055342
  21 C :    0.043999
  22 C :   -0.180725
  23 C :    0.027815
  24 C :   -0.082067
  25 C :   -0.151323
  26 S :    0.485737
  27 C :   -0.204922
  28 C :   -0.043214
  29 C :    0.077688
  30 C :   -0.093562
  31 C :   -0.013881
  32 N :   -0.034025
  33 C :   -0.020506
  34 N :   -0.016445
  35 C :   -0.034142
  36 C :   -0.147529
  37 S :    0.452916
  38 C :   -0.017952
  39 N :    0.065517
  40 C :   -0.011019
  41 C :   -0.082709
  42 C :   -0.000397
  43 N :    0.074312
  44 C :   -0.014271
  45 C :   -0.077848
  46 C :   -0.018584
  47 C :   -0.054640
  48 C :   -0.141443
  49 S :    0.488712
  50 C :   -0.199108
  51 C :   -0.011824
  52 C :   -0.062221
  53 C :   -0.017267
  54 C :   -0.195023
  55 S :    0.219378
  56 C :    0.048540
  57 O :   -0.036728
  58 C :   -0.049974
  59 C :    0.012811
  60 C :   -0.055834
  61 C :    0.067065
  62 C :   -0.116120
  63 C :    0.074464
  64 C :   -0.147788
  65 C :   -0.020745
  66 N :   -0.057838
  67 C :   -0.018842
  68 N :   -0.061030
  69 C :   -0.012595
  70 C :   -0.042113
  71 C :    0.083240
  72 O :   -0.153482
  73 C :   -0.003028
  74 C :   -0.136522
  75 C :   -0.132872
  76 C :   -0.014255
  77 Cl:    0.156331
  78 Cl:    0.152529
  79 H :    0.047536
  80 H :    0.045003
  81 H :    0.039902
  82 H :    0.040759
  83 H :    0.043659
  84 H :    0.045820
  85 H :    0.040662
  86 H :    0.084409
  87 H :    0.026847
  88 H :    0.092580
  89 H :    0.030953
  90 H :    0.028965
  91 H :    0.030903
  92 H :    0.028403
  93 H :   -0.019627
  94 H :    0.067207
  95 H :    0.042666
  96 H :    0.035117
  97 H :    0.029725
  98 H :    0.039750
  99 H :    0.043823
 100 H :    0.043682

  Mayer bond orders larger than 0.100000
B(  0-C ,  1-C ) :   1.4398 B(  0-C ,  5-C ) :   0.1091 B(  0-C ,  7-C ) :   1.1856
B(  0-C , 79-H ) :   1.0081 B(  1-C ,  2-F ) :   1.1345 B(  1-C ,  3-C ) :   1.1922
B(  3-C ,  4-F ) :   1.1324 B(  3-C ,  5-C ) :   1.4397 B(  5-C ,  6-C ) :   1.1936
B(  5-C , 80-H ) :   1.0085 B(  6-C ,  7-C ) :   1.2602 B(  6-C , 11-C ) :   1.1827
B(  7-C ,  8-C ) :   1.2137 B(  8-C ,  9-C ) :   1.4487 B(  8-C , 81-H ) :   0.9917
B(  9-C , 10-C ) :   1.2213 B(  9-C , 15-C ) :   0.9857 B( 10-C , 11-C ) :   1.4754
B( 10-C , 12-C ) :   0.9433 B( 11-C , 82-H ) :   1.0175 B( 12-C , 13-O ) :   2.1891
B( 12-C , 14-C ) :   0.9516 B( 14-C , 15-C ) :   1.0821 B( 14-C , 21-C ) :   1.5672
B( 15-C , 16-C ) :   1.6278 B( 16-C , 17-C ) :   1.1401 B( 16-C , 19-C ) :   1.1448
B( 17-C , 18-N ) :   2.9925 B( 19-C , 20-N ) :   2.9638 B( 21-C , 22-C ) :   1.2260
B( 21-C , 83-H ) :   0.9244 B( 22-C , 23-C ) :   1.3946 B( 22-C , 26-S ) :   1.0582
B( 23-C , 24-C ) :   1.3449 B( 23-C , 84-H ) :   0.9726 B( 24-C , 25-C ) :   1.3561
B( 24-C , 29-C ) :   1.0038 B( 25-C , 26-S ) :   1.1672 B( 25-C , 27-C ) :   1.2320
B( 27-C , 28-C ) :   1.4189 B( 27-C , 37-S ) :   1.0902 B( 28-C , 29-C ) :   0.9867
B( 28-C , 35-C ) :   1.3121 B( 29-C , 30-C ) :   1.7164 B( 30-C , 31-C ) :   1.1370
B( 30-C , 33-C ) :   1.1327 B( 31-C , 32-N ) :   2.9845 B( 33-C , 34-N ) :   2.9955
B( 35-C , 36-C ) :   1.4467 B( 35-C , 85-H ) :   0.9918 B( 36-C , 37-S ) :   1.0967
B( 36-C , 38-C ) :   1.1148 B( 38-C , 39-N ) :   1.1989 B( 38-C , 45-C ) :   1.4090
B( 39-N , 40-C ) :   1.1601 B( 39-N , 86-H ) :   0.9300 B( 40-C , 41-C ) :   1.2827
B( 40-C , 44-C ) :   1.2966 B( 41-C , 42-C ) :   1.3757 B( 41-C , 87-H ) :   1.0296
B( 42-C , 43-N ) :   1.1674 B( 42-C , 46-C ) :   1.1482 B( 43-N , 44-C ) :   1.1759
B( 43-N , 88-H ) :   0.9346 B( 44-C , 45-C ) :   1.2627 B( 45-C , 89-H ) :   1.0298
B( 46-C , 47-C ) :   1.6220 B( 46-C , 90-H ) :   0.9587 B( 47-C , 48-C ) :   1.1764
B( 47-C , 91-H ) :   0.9513 B( 48-C , 49-S ) :   1.1947 B( 48-C , 52-C ) :   1.2813
B( 49-S , 50-C ) :   1.1055 B( 50-C , 51-C ) :   1.2687 B( 50-C , 59-C ) :   1.2274
B( 51-C , 52-C ) :   1.2300 B( 51-C , 58-C ) :   1.2136 B( 52-C , 53-C ) :   1.2159
B( 53-C , 54-C ) :   1.5257 B( 53-C , 92-H ) :   0.9870 B( 54-C , 55-S ) :   1.0046
B( 54-C , 56-C ) :   1.2031 B( 55-S , 93-H ) :   0.9465 B( 56-C , 57-O ) :   1.2937
B( 56-C , 58-C ) :   1.4640 B( 57-O , 94-H ) :   0.9281 B( 58-C , 95-H ) :   1.0057
B( 59-C , 60-C ) :   1.4671 B( 59-C , 96-H ) :   0.9572 B( 60-C , 61-C ) :   1.2480
B( 60-C , 97-H ) :   0.9791 B( 61-C , 62-C ) :   1.4446 B( 61-C , 98-H ) :   0.9636
B( 62-C , 63-C ) :   1.0983 B( 62-C , 71-C ) :   0.9691 B( 63-C , 64-C ) :   1.6068
B( 63-C , 69-C ) :   0.9814 B( 64-C , 65-C ) :   1.1418 B( 64-C , 67-C ) :   1.1517
B( 65-C , 66-N ) :   2.9673 B( 67-C , 68-N ) :   2.9564 B( 69-C , 70-C ) :   1.3339
B( 69-C , 76-C ) :   1.3442 B( 70-C , 71-C ) :   0.9405 B( 70-C , 73-C ) :   1.3478
B( 71-C , 72-O ) :   2.1838 B( 73-C , 74-C ) :   1.3338 B( 73-C , 99-H ) :   1.0187
B( 74-C , 75-C ) :   1.4162 B( 74-C , 78-Cl) :   1.0387 B( 75-C , 76-C ) :   1.3512
B( 75-C , 77-Cl) :   1.0710 B( 76-C ,100-H ) :   0.9879

-----------------------------------------------------------------------------
         ABSORPTION SPECTRUM VIA TRANSITION ELECTRIC DIPOLE MOMENTS
-----------------------------------------------------------------------------
State   Energy  Wavelength   fosc         T2         TX        TY        TZ
        (cm-1)    (nm)                  (au**2)     (au)      (au)      (au)
-----------------------------------------------------------------------------
   0    9717.8   1029.0   1.173588812  39.75777   0.16989   6.28461   0.48224
   1   13716.4    729.1   1.735252061  41.64827   0.10751   6.19994   1.78816
   2   17813.1    561.4   0.134651607   2.48856   0.10064   1.30769  -0.87657
   3   18581.5    538.2   0.476135529   8.43576  -0.04187  -2.47855   1.51354
   4   21378.6    467.8   0.062839270   0.96767  -0.68218  -0.00221   0.70872
   5   22122.5    452.0   0.017595601   0.26185  -0.44682  -0.19186   0.15933
   6   23784.2    420.4   0.007621994   0.10550  -0.15622  -0.02967   0.28322
   7   24585.6    406.7   0.072643921   0.97274  -0.05969   0.89259  -0.41527
   8   24998.0    400.0   0.062847179   0.82767   0.13809  -0.83668   0.32949
   9   25967.4    385.1   0.023968131   0.30387  -0.19785   0.01593   0.51426
  10   26863.6    372.3   0.112716475   1.38133  -0.70005   0.86574   0.37649
  11   27447.1    364.3   0.011559932   0.13865  -0.08945   0.06543  -0.35549
  12   27987.9    357.3   0.120226524   1.41418  -0.37133   0.99968   0.52624
  13   28174.3    354.9   0.031492687   0.36799  -0.50784  -0.23746   0.23172
  14   28587.1    349.8   0.308820909   3.55642  -0.47356  -1.82001   0.14040
  15   28737.3    348.0   0.006032049   0.06910  -0.02463  -0.24571  -0.09011
  16   28897.4    346.1   0.044730317   0.50959  -0.21022  -0.48483   0.47993
  17   29032.4    344.4   0.094359067   1.06998  -0.28397   0.69508   0.71148
  18   29739.2    336.3   0.072084808   0.79798   0.81160  -0.09429   0.36109
  19   30651.0    326.3   0.359731314   3.86375   0.40323  -0.84580  -1.72794
  20   30746.8    325.2   0.368270647   3.94314  -0.41875  -1.54959   1.16900
  21   31002.8    322.6   0.038904917   0.41312   0.38509  -0.47948   0.18687
  22   31192.0    320.6   0.062630023   0.66102  -0.75404  -0.11910   0.27975
  23   31381.9    318.7   0.038778747   0.40681   0.02464   0.05505   0.63496
  24   31473.1    317.7   0.000984972   0.01030  -0.08534  -0.00206   0.05492
  25   31762.3    314.8   0.050673879   0.52523   0.20321  -0.29967   0.62780
  26   32243.5    310.1   0.028804721   0.29410  -0.08765   0.29598   0.44589
  27   32416.6    308.5   0.400669309   4.06906  -0.96378   1.62936   0.69669
  28   32600.9    306.7   0.040941758   0.41344   0.37220  -0.45088  -0.26762
  29   32905.1    303.9   0.016993922   0.17002  -0.00902   0.40573   0.07298
  30   33399.9    299.4   0.049245571   0.48540  -0.12475   0.02186   0.68510
  31   33716.4    296.6   0.019836361   0.19369   0.36446   0.22714  -0.09626
  32   34021.6    293.9   0.095217443   0.92138   0.50413   0.73281  -0.36086
  33   34351.5    291.1   0.186066885   1.78320   1.17783  -0.30407  -0.55086
  34   34493.5    289.9   0.066973020   0.63920  -0.57056   0.27370   0.48862
  35   34649.3    288.6   0.182267938   1.73178   0.88168   0.84471  -0.49080
  36   34847.8    287.0   0.286252041   2.70426   1.08512  -0.91908  -0.82587
  37   34965.5    286.0   0.087313216   0.82208  -0.42661   0.62442   0.50019
  38   35402.8    282.5   0.155925993   1.44996   0.91947   0.24636  -0.73746
  39   35798.7    279.3   0.278421761   2.56042  -0.69488   0.08187   1.43905
  40   36063.6    277.3   0.027200758   0.24831  -0.43198  -0.11132  -0.22205
  41   36471.0    274.2   0.276777069   2.49838  -1.09621  -0.44614   1.04769
  42   36907.0    271.0   0.112655060   1.00489  -0.63634   0.18492   0.75217
  43   37233.6    268.6   0.025199705   0.22281   0.15017   0.06958  -0.44206
  44   37667.7    265.5   0.027308675   0.23868  -0.05679   0.47277   0.10926
  45   37793.0    264.6   0.000530148   0.00462  -0.02500   0.02726   0.05701
  46   37866.1    264.1   0.004723104   0.04106   0.12309   0.03047  -0.15806
  47   38452.0    260.1   0.072405948   0.61991  -0.12238   0.72473   0.28231
  48   38658.6    258.7   0.105464040   0.89812   0.52009   0.29318  -0.73598
  49   38755.5    258.0   0.036391191   0.30913  -0.03330  -0.34346   0.43595
  50   39001.8    256.4   0.005806201   0.04901  -0.12190  -0.15914   0.09394
  51   39485.9    253.3   0.112565520   0.93851  -0.50442  -0.30188   0.77003
  52   39657.1    252.2   0.000608908   0.00505   0.02765  -0.04416  -0.04837
  53   39961.9    250.2   0.071476695   0.58884  -0.37198   0.34773   0.57406
  54   40080.0    249.5   0.008375589   0.06880   0.00200   0.15646  -0.21050

FINAL SINGLE POINT ENERGY     -5671.318154980527

DIPOLE MOMENT
-------------
                                X             Y             Z
Electronic contribution:     -9.74688       0.87656     -13.60039
Nuclear contribution   :      7.53252      -0.03339      15.91980
                        -----------------------------------------
Total Dipole Moment    :     -2.21437       0.84317       2.31941
                        -----------------------------------------
Magnitude (a.u.)       :      3.31572
Magnitude (Debye)      :      8.42789

Rotational constants in cm-1:     0.001899     0.000103     0.000101
Rotational constants in MHz :    56.926185     3.100605     3.032095

                             ****ORCA TERMINATED NORMALLY****
TOTAL RUN TIME: 0 days 0 hours 10 minutes 57 seconds 146 msec
