                         Program Version 4.2.0 -  RELEASE  -
|  1> # ORCA input file
|  2> # SCF done       -180.713834045628          0.000934583502
|  3> ! CAM-B3LYP def2-SVP def2/J RIJCOSX Grid4 TightSCF
|  4> %maxcore 5000
|  5> %tddft
|  6>     Mode sTDDFT
|  7>     Ethresh 5.0
|  8>     maxcore 5000
|  9> end
| 10>
| 11> %pal
| 12>   nprocs 6
| 13>   end
| 14> * xyz 0 1
| 15>    C       -5.49774         0.86318        -7.38418
| 16>    C       -5.75989         0.76044        -8.72169
| 17>    F       -5.78251         1.85931        -9.49066
| 18>    C       -6.00913        -0.49510        -9.30838
| 19>    F       -6.26353        -0.56767       -10.62415
| 20>    C       -5.99391        -1.63184        -8.54939
| 21>    C       -5.72859        -1.55856        -7.16864
| 22>    C       -5.47481        -0.28941        -6.57410
| 23>    C       -5.20520        -0.19016        -5.18890
| 24>    C       -5.19372        -1.32451        -4.42241
| 25>    C       -5.45369        -2.58646        -5.02501
| 26>    C       -5.71225        -2.71628        -6.35797
| 27>    C       -5.39865        -3.63242        -3.98618
| 28>    O       -5.56861        -4.82841        -4.16511
| 29>    C       -5.11252        -2.94634        -2.72862
| 30>    C       -4.95533        -1.53423        -2.99423
| 31>    C       -4.62317        -0.54277        -2.10312
| 32>    C       -4.35144        -0.71963        -0.73143
| 33>    N       -4.11207        -0.77101         0.39140
| 34>    C       -4.49021         0.81670        -2.44999
| 35>    N       -4.36270         1.93799        -2.66501
| 36>    C       -5.04543        -3.54391        -1.48671
| 37>    C       -5.19129        -4.87915        -1.11265
| 38>    C       -5.12896        -5.28190         0.23113
| 39>    C       -5.30069        -6.63865         0.39166
| 40>    C       -5.48953        -7.31031        -0.85051
| 41>    S       -5.46825        -6.25556        -2.19275
| 42>    C       -5.65467        -8.67691        -0.57853
| 43>    C       -5.58038        -8.88963         0.81501
| 44>    C       -5.35139        -7.61090         1.46615
| 45>    C       -5.21239        -7.38617         2.80789
| 46>    C       -5.28006        -8.43119         3.74977
| 47>    N       -5.33952        -9.28546         4.51413
| 48>    C       -4.99111        -6.10083         3.34168
| 49>    N       -4.81402        -5.06037         3.79090
| 50>    C       -5.73723       -10.22032         1.17942
| 51>    C       -5.92609       -11.04699         0.07961
| 52>    S       -5.91174       -10.14355        -1.43325
| 53>    C       -6.10753       -12.44723         0.09107
| 54>    N       -6.21219       -13.19353        -1.06545
| 55>    C       -6.36342       -14.49970        -0.72311
| 56>    C       -6.50624       -15.78520        -1.23028
| 57>    C       -6.60063       -16.63506        -0.11830
| 58>    N       -6.52113       -15.88063         1.03600
| 59>    C       -6.36587       -14.57489         0.69509
| 60>    C       -6.20258       -13.29461         1.20565
| 61>    C       -6.74853       -18.04133        -0.04787
| 62>    C       -6.72804       -18.88577        -1.11235
| 63>    C       -6.86547       -20.29184        -1.03674
| 64>    N       -6.72205       -21.07711        -2.16527
| 65>    C       -6.88182       -22.38018        -1.81544
| 66>    C       -6.87476       -23.68057        -2.29857
| 67>    C       -7.14791       -24.50827        -1.19597
| 68>    N       -7.31938       -23.71991        -0.07151
| 69>    C       -7.15283       -22.41806        -0.42112
| 70>    C       -7.13879       -21.11762         0.06444
| 71>    C       -7.25251       -25.91128        -1.12216
| 72>    C       -7.03200       -26.77261        -2.16110
| 73>    C       -7.14153       -28.16367        -2.05426
| 74>    C       -6.88165       -29.04564        -3.07565
| 75>    C       -6.97706       -30.45722        -3.02774
| 76>    C       -6.64326       -31.08444        -4.18821
| 77>    C       -6.25901       -30.20402        -5.22779
| 78>    S       -6.34931       -28.54316        -4.67379
| 79>    C       -5.85380       -30.52754        -6.50234
| 80>    C       -5.73404       -31.82702        -7.06656
| 81>    C       -5.29922       -31.84246        -8.34672
| 82>    C       -5.03903       -30.54522        -8.90028
| 83>    S       -5.39033       -29.31258        -7.67780
| 84>    C       -4.59912       -30.24971       -10.13139
| 85>    H       -5.30834         1.83253        -6.95013
| 86>    H       -6.18730        -2.58603        -9.01405
| 87>    H       -5.01785         0.78573        -4.77191
| 88>    H       -5.90427        -3.68734        -6.78857
| 89>    H       -4.86343        -2.88742        -0.64437
| 90>    H       -4.96502        -4.57772         1.02802
| 91>    H       -5.71265       -10.59018         2.18708
| 92>    H       -6.16983       -12.80914        -1.99373
| 93>    H       -6.54773       -16.08689        -2.25677
| 94>    H       -6.55094       -16.25895         1.96689
| 95>    H       -6.15823       -12.98716         2.23016
| 96>    H       -6.86760       -18.45634         0.94369
| 97>    H       -6.57829       -18.47428        -2.10129
| 98>    H       -6.50737       -20.72265        -3.08108
| 99>    H       -6.70382       -24.01312        -3.30185
|100>    H       -7.51551       -24.07745         0.84725
|101>    H       -7.30861       -20.78795         1.06910
|102>    H       -7.51819       -26.32616        -0.15694
|103>    H       -6.74711       -26.37461        -3.12508
|104>    H       -7.44592       -28.58564        -1.10476
|105>    H       -7.29056       -30.96437        -2.13188
|106>    H       -6.65972       -32.15077        -4.32527
|107>    H       -5.97579       -32.70802        -6.49869
|108>    H       -5.14736       -32.73008        -8.93489
|109>    H       -4.39578       -31.03008       -10.84322
|110>    H       -4.43405       -29.23534       -10.44477
|111> *
|112>
|113>                          ****END OF INPUT****

CARTESIAN COORDINATES (ANGSTROEM)
---------------------------------
  C     -5.497740    0.863180   -7.384180
  C     -5.759890    0.760440   -8.721690
  F     -5.782510    1.859310   -9.490660
  C     -6.009130   -0.495100   -9.308380
  F     -6.263530   -0.567670  -10.624150
  C     -5.993910   -1.631840   -8.549390
  C     -5.728590   -1.558560   -7.168640
  C     -5.474810   -0.289410   -6.574100
  C     -5.205200   -0.190160   -5.188900
  C     -5.193720   -1.324510   -4.422410
  C     -5.453690   -2.586460   -5.025010
  C     -5.712250   -2.716280   -6.357970
  C     -5.398650   -3.632420   -3.986180
  O     -5.568610   -4.828410   -4.165110
  C     -5.112520   -2.946340   -2.728620
  C     -4.955330   -1.534230   -2.994230
  C     -4.623170   -0.542770   -2.103120
  C     -4.351440   -0.719630   -0.731430
  N     -4.112070   -0.771010    0.391400
  C     -4.490210    0.816700   -2.449990
  N     -4.362700    1.937990   -2.665010
  C     -5.045430   -3.543910   -1.486710
  C     -5.191290   -4.879150   -1.112650
  C     -5.128960   -5.281900    0.231130
  C     -5.300690   -6.638650    0.391660
  C     -5.489530   -7.310310   -0.850510
  S     -5.468250   -6.255560   -2.192750
  C     -5.654670   -8.676910   -0.578530
  C     -5.580380   -8.889630    0.815010
  C     -5.351390   -7.610900    1.466150
  C     -5.212390   -7.386170    2.807890
  C     -5.280060   -8.431190    3.749770
  N     -5.339520   -9.285460    4.514130
  C     -4.991110   -6.100830    3.341680
  N     -4.814020   -5.060370    3.790900
  C     -5.737230  -10.220320    1.179420
  C     -5.926090  -11.046990    0.079610
  S     -5.911740  -10.143550   -1.433250
  C     -6.107530  -12.447230    0.091070
  N     -6.212190  -13.193530   -1.065450
  C     -6.363420  -14.499700   -0.723110
  C     -6.506240  -15.785200   -1.230280
  C     -6.600630  -16.635060   -0.118300
  N     -6.521130  -15.880630    1.036000
  C     -6.365870  -14.574890    0.695090
  C     -6.202580  -13.294610    1.205650
  C     -6.748530  -18.041330   -0.047870
  C     -6.728040  -18.885770   -1.112350
  C     -6.865470  -20.291840   -1.036740
  N     -6.722050  -21.077110   -2.165270
  C     -6.881820  -22.380180   -1.815440
  C     -6.874760  -23.680570   -2.298570
  C     -7.147910  -24.508270   -1.195970
  N     -7.319380  -23.719910   -0.071510
  C     -7.152830  -22.418060   -0.421120
  C     -7.138790  -21.117620    0.064440
  C     -7.252510  -25.911280   -1.122160
  C     -7.032000  -26.772610   -2.161100
  C     -7.141530  -28.163670   -2.054260
  C     -6.881650  -29.045640   -3.075650
  C     -6.977060  -30.457220   -3.027740
  C     -6.643260  -31.084440   -4.188210
  C     -6.259010  -30.204020   -5.227790
  S     -6.349310  -28.543160   -4.673790
  C     -5.853800  -30.527540   -6.502340
  C     -5.734040  -31.827020   -7.066560
  C     -5.299220  -31.842460   -8.346720
  C     -5.039030  -30.545220   -8.900280
  S     -5.390330  -29.312580   -7.677800
  C     -4.599120  -30.249710  -10.131390
  H     -5.308340    1.832530   -6.950130
  H     -6.187300   -2.586030   -9.014050
  H     -5.017850    0.785730   -4.771910
  H     -5.904270   -3.687340   -6.788570
  H     -4.863430   -2.887420   -0.644370
  H     -4.965020   -4.577720    1.028020
  H     -5.712650  -10.590180    2.187080
  H     -6.169830  -12.809140   -1.993730
  H     -6.547730  -16.086890   -2.256770
  H     -6.550940  -16.258950    1.966890
  H     -6.158230  -12.987160    2.230160
  H     -6.867600  -18.456340    0.943690
  H     -6.578290  -18.474280   -2.101290
  H     -6.507370  -20.722650   -3.081080
  H     -6.703820  -24.013120   -3.301850
  H     -7.515510  -24.077450    0.847250
  H     -7.308610  -20.787950    1.069100
  H     -7.518190  -26.326160   -0.156940
  H     -6.747110  -26.374610   -3.125080
  H     -7.445920  -28.585640   -1.104760
  H     -7.290560  -30.964370   -2.131880
  H     -6.659720  -32.150770   -4.325270
  H     -5.975790  -32.708020   -6.498690
  H     -5.147360  -32.730080   -8.934890
  H     -4.395780  -31.030080  -10.843220
  H     -4.434050  -29.235340  -10.444770

 Total Charge           Charge          ....    0
 Multiplicity           Mult            ....    1
 Number of Electrons    NEL             ....  502
 Basis Dimension        Dim             .... 1126

ORBITAL ENERGIES
----------------

  NO   OCC          E(Eh)            E(eV)
   0   2.0000     -88.988275     -2421.4941
   1   2.0000     -88.980650     -2421.2866
   2   2.0000     -88.935956     -2420.0704
   3   2.0000     -88.931708     -2419.9548
   4   2.0000     -24.793276      -674.6593
   5   2.0000     -24.791936      -674.6229
   6   2.0000     -19.215449      -522.8789
   7   2.0000     -14.470324      -393.7575
   8   2.0000     -14.464111      -393.5885
   9   2.0000     -14.457205      -393.4006
  10   2.0000     -14.455590      -393.3566
  11   2.0000     -14.428551      -392.6208
  12   2.0000     -14.426044      -392.5526
  13   2.0000     -14.407793      -392.0560
  14   2.0000     -14.405337      -391.9891
  15   2.0000     -10.375944      -282.3438
  16   2.0000     -10.375028      -282.3189
  17   2.0000     -10.363958      -282.0176
  18   2.0000     -10.361238      -281.9436
  19   2.0000     -10.349931      -281.6359
  20   2.0000     -10.334158      -281.2067
  21   2.0000     -10.333325      -281.1841
  22   2.0000     -10.331423      -281.1323
  23   2.0000     -10.330931      -281.1189
  24   2.0000     -10.329172      -281.0711
  25   2.0000     -10.325777      -280.9787
  26   2.0000     -10.321788      -280.8701
  27   2.0000     -10.320692      -280.8403
  28   2.0000     -10.318403      -280.7780
  29   2.0000     -10.317244      -280.7465
  30   2.0000     -10.315749      -280.7058
  31   2.0000     -10.310787      -280.5708
  32   2.0000     -10.309193      -280.5274
  33   2.0000     -10.309189      -280.5273
  34   2.0000     -10.308530      -280.5094
  35   2.0000     -10.305220      -280.4193
  36   2.0000     -10.305184      -280.4183
  37   2.0000     -10.304337      -280.3953
  38   2.0000     -10.303830      -280.3815
  39   2.0000     -10.303013      -280.3592
  40   2.0000     -10.302773      -280.3527
  41   2.0000     -10.301569      -280.3199
  42   2.0000     -10.300806      -280.2992
  43   2.0000     -10.300388      -280.2878
  44   2.0000     -10.299857      -280.2734
  45   2.0000     -10.297986      -280.2224
  46   2.0000     -10.297776      -280.2167
  47   2.0000     -10.297199      -280.2010
  48   2.0000     -10.296479      -280.1814
  49   2.0000     -10.296067      -280.1702
  50   2.0000     -10.294798      -280.1357
  51   2.0000     -10.294751      -280.1344
  52   2.0000     -10.292162      -280.0640
  53   2.0000     -10.291646      -280.0499
  54   2.0000     -10.287912      -279.9483
  55   2.0000     -10.286808      -279.9183
  56   2.0000     -10.285872      -279.8928
  57   2.0000     -10.283693      -279.8335
  58   2.0000     -10.280740      -279.7532
  59   2.0000     -10.280735      -279.7530
  60   2.0000     -10.279538      -279.7204
  61   2.0000     -10.278537      -279.6932
  62   2.0000     -10.277920      -279.6764
  63   2.0000     -10.277647      -279.6690
  64   2.0000     -10.273034      -279.5435
  65   2.0000     -10.270324      -279.4697
  66   2.0000     -10.267643      -279.3968
  67   2.0000     -10.263833      -279.2931
  68   2.0000     -10.263065      -279.2722
  69   2.0000     -10.260646      -279.2064
  70   2.0000      -8.082894      -219.9467
  71   2.0000      -8.072954      -219.6763
  72   2.0000      -8.032211      -218.5676
  73   2.0000      -8.028511      -218.4669
  74   2.0000      -6.052257      -164.6903
  75   2.0000      -6.048190      -164.5796
  76   2.0000      -6.044986      -164.4924
  77   2.0000      -6.042527      -164.4255
  78   2.0000      -6.037731      -164.2950
  79   2.0000      -6.035269      -164.2280
  80   2.0000      -6.001950      -163.3214
  81   2.0000      -5.998333      -163.2229
  82   2.0000      -5.998057      -163.2154
  83   2.0000      -5.994454      -163.1174
  84   2.0000      -5.993012      -163.0782
  85   2.0000      -5.988995      -162.9688
  86   2.0000      -1.314833       -35.7784
  87   2.0000      -1.300021       -35.3754
  88   2.0000      -1.130408       -30.7600
  89   2.0000      -1.100028       -29.9333
  90   2.0000      -1.087636       -29.5961
  91   2.0000      -1.064034       -28.9538
  92   2.0000      -1.051302       -28.6074
  93   2.0000      -1.040758       -28.3205
  94   2.0000      -1.018492       -27.7146
  95   2.0000      -1.011744       -27.5310
  96   2.0000      -1.004374       -27.3304
  97   2.0000      -0.997432       -27.1415
  98   2.0000      -0.992016       -26.9941
  99   2.0000      -0.985388       -26.8138
 100   2.0000      -0.985201       -26.8087
 101   2.0000      -0.974768       -26.5248
 102   2.0000      -0.962625       -26.1943
 103   2.0000      -0.955767       -26.0077
 104   2.0000      -0.926453       -25.2101
 105   2.0000      -0.914668       -24.8894
 106   2.0000      -0.907637       -24.6981
 107   2.0000      -0.905404       -24.6373
 108   2.0000      -0.894681       -24.3455
 109   2.0000      -0.886101       -24.1120
 110   2.0000      -0.883332       -24.0367
 111   2.0000      -0.876586       -23.8531
 112   2.0000      -0.875586       -23.8259
 113   2.0000      -0.871024       -23.7018
 114   2.0000      -0.864432       -23.5224
 115   2.0000      -0.862314       -23.4648
 116   2.0000      -0.856991       -23.3199
 117   2.0000      -0.851293       -23.1648
 118   2.0000      -0.839486       -22.8436
 119   2.0000      -0.837638       -22.7933
 120   2.0000      -0.834277       -22.7018
 121   2.0000      -0.827639       -22.5212
 122   2.0000      -0.812914       -22.1205
 123   2.0000      -0.808406       -21.9978
 124   2.0000      -0.794680       -21.6243
 125   2.0000      -0.780452       -21.2372
 126   2.0000      -0.774121       -21.0649
 127   2.0000      -0.761179       -20.7127
 128   2.0000      -0.757161       -20.6034
 129   2.0000      -0.745508       -20.2863
 130   2.0000      -0.730349       -19.8738
 131   2.0000      -0.718587       -19.5537
 132   2.0000      -0.712539       -19.3892
 133   2.0000      -0.704750       -19.1772
 134   2.0000      -0.703332       -19.1386
 135   2.0000      -0.700698       -19.0670
 136   2.0000      -0.695952       -18.9378
 137   2.0000      -0.692559       -18.8455
 138   2.0000      -0.688103       -18.7242
 139   2.0000      -0.680842       -18.5266
 140   2.0000      -0.679209       -18.4822
 141   2.0000      -0.678570       -18.4648
 142   2.0000      -0.669572       -18.2200
 143   2.0000      -0.662306       -18.0223
 144   2.0000      -0.654470       -17.8090
 145   2.0000      -0.647312       -17.6143
 146   2.0000      -0.645031       -17.5522
 147   2.0000      -0.638570       -17.3764
 148   2.0000      -0.635353       -17.2888
 149   2.0000      -0.629257       -17.1230
 150   2.0000      -0.627759       -17.0822
 151   2.0000      -0.624741       -17.0001
 152   2.0000      -0.618353       -16.8263
 153   2.0000      -0.616443       -16.7743
 154   2.0000      -0.611670       -16.6444
 155   2.0000      -0.607321       -16.5261
 156   2.0000      -0.605734       -16.4829
 157   2.0000      -0.597471       -16.2580
 158   2.0000      -0.591823       -16.1043
 159   2.0000      -0.584877       -15.9153
 160   2.0000      -0.579762       -15.7761
 161   2.0000      -0.579702       -15.7745
 162   2.0000      -0.572309       -15.5733
 163   2.0000      -0.567518       -15.4429
 164   2.0000      -0.566004       -15.4018
 165   2.0000      -0.551812       -15.0156
 166   2.0000      -0.551724       -15.0132
 167   2.0000      -0.548841       -14.9347
 168   2.0000      -0.548643       -14.9293
 169   2.0000      -0.546698       -14.8764
 170   2.0000      -0.541617       -14.7381
 171   2.0000      -0.541453       -14.7337
 172   2.0000      -0.536717       -14.6048
 173   2.0000      -0.533667       -14.5218
 174   2.0000      -0.533645       -14.5212
 175   2.0000      -0.532381       -14.4868
 176   2.0000      -0.530536       -14.4366
 177   2.0000      -0.529768       -14.4157
 178   2.0000      -0.526138       -14.3170
 179   2.0000      -0.524010       -14.2590
 180   2.0000      -0.519606       -14.1392
 181   2.0000      -0.513720       -13.9790
 182   2.0000      -0.511632       -13.9222
 183   2.0000      -0.510137       -13.8815
 184   2.0000      -0.505387       -13.7523
 185   2.0000      -0.502653       -13.6779
 186   2.0000      -0.502011       -13.6604
 187   2.0000      -0.497556       -13.5392
 188   2.0000      -0.496519       -13.5110
 189   2.0000      -0.493222       -13.4212
 190   2.0000      -0.491337       -13.3700
 191   2.0000      -0.489728       -13.3262
 192   2.0000      -0.488718       -13.2987
 193   2.0000      -0.488355       -13.2888
 194   2.0000      -0.485983       -13.2243
 195   2.0000      -0.482084       -13.1182
 196   2.0000      -0.481066       -13.0905
 197   2.0000      -0.476064       -12.9544
 198   2.0000      -0.473195       -12.8763
 199   2.0000      -0.468198       -12.7403
 200   2.0000      -0.465591       -12.6694
 201   2.0000      -0.464925       -12.6513
 202   2.0000      -0.463945       -12.6246
 203   2.0000      -0.459090       -12.4925
 204   2.0000      -0.458712       -12.4822
 205   2.0000      -0.455863       -12.4047
 206   2.0000      -0.455476       -12.3941
 207   2.0000      -0.453133       -12.3304
 208   2.0000      -0.451335       -12.2815
 209   2.0000      -0.448455       -12.2031
 210   2.0000      -0.445262       -12.1162
 211   2.0000      -0.443860       -12.0780
 212   2.0000      -0.441403       -12.0112
 213   2.0000      -0.439524       -11.9601
 214   2.0000      -0.437918       -11.9164
 215   2.0000      -0.437152       -11.8955
 216   2.0000      -0.435644       -11.8545
 217   2.0000      -0.434926       -11.8349
 218   2.0000      -0.427961       -11.6454
 219   2.0000      -0.425762       -11.5856
 220   2.0000      -0.422342       -11.4925
 221   2.0000      -0.421420       -11.4674
 222   2.0000      -0.421288       -11.4638
 223   2.0000      -0.417026       -11.3478
 224   2.0000      -0.412733       -11.2310
 225   2.0000      -0.408737       -11.1223
 226   2.0000      -0.406635       -11.0651
 227   2.0000      -0.398351       -10.8397
 228   2.0000      -0.397288       -10.8107
 229   2.0000      -0.394809       -10.7433
 230   2.0000      -0.390148       -10.6165
 231   2.0000      -0.385270       -10.4837
 232   2.0000      -0.377323       -10.2675
 233   2.0000      -0.370836       -10.0910
 234   2.0000      -0.359600        -9.7852
 235   2.0000      -0.347149        -9.4464
 236   2.0000      -0.343744        -9.3538
 237   2.0000      -0.333284        -9.0691
 238   2.0000      -0.331133        -9.0106
 239   2.0000      -0.329143        -8.9564
 240   2.0000      -0.320463        -8.7202
 241   2.0000      -0.317160        -8.6304
 242   2.0000      -0.311819        -8.4850
 243   2.0000      -0.303237        -8.2515
 244   2.0000      -0.298601        -8.1253
 245   2.0000      -0.294645        -8.0177
 246   2.0000      -0.288777        -7.8580
 247   2.0000      -0.276118        -7.5136
 248   2.0000      -0.250178        -6.8077
 249   2.0000      -0.222050        -6.0423
 250   2.0000      -0.192670        -5.2428
 251   0.0000      -0.108028        -2.9396
 252   0.0000      -0.084900        -2.3102
 253   0.0000      -0.068225        -1.8565
 254   0.0000      -0.055616        -1.5134
 255   0.0000      -0.037091        -1.0093

MULLIKEN ATOMIC CHARGES
-----------------------
   0 C :   -0.108505
   1 C :    0.242324
   2 F :   -0.174354
   3 C :    0.236912
   4 F :   -0.175747
   5 C :   -0.105818
   6 C :    0.117375
   7 C :    0.112629
   8 C :   -0.086694
   9 C :    0.047556
  10 C :    0.000835
  11 C :   -0.087481
  12 C :    0.161262
  13 O :   -0.195087
  14 C :   -0.105280
  15 C :    0.331430
  16 C :   -0.365040
  17 C :   -0.191486
  18 N :    0.146075
  19 C :   -0.180002
  20 N :    0.137825
  21 C :   -0.027706
  22 C :   -0.054425
  23 C :   -0.059017
  24 C :    0.037428
  25 C :   -0.055980
  26 S :    0.229262
  27 C :   -0.126200
  28 C :    0.046246
  29 C :    0.305025
  30 C :   -0.295936
  31 C :   -0.187617
  32 N :    0.166724
  33 C :   -0.194491
  34 N :    0.182517
  35 C :   -0.079562
  36 C :   -0.031698
  37 S :    0.156537
  38 C :    0.065848
  39 N :   -0.049534
  40 C :    0.124735
  41 C :   -0.184604
  42 C :    0.122211
  43 N :   -0.034399
  44 C :    0.118424
  45 C :   -0.163685
  46 C :   -0.019430
  47 C :    0.002610
  48 C :    0.106960
  49 N :   -0.037552
  50 C :    0.115415
  51 C :   -0.172827
  52 C :    0.113456
  53 N :   -0.038968
  54 C :    0.117909
  55 C :   -0.178925
  56 C :   -0.007348
  57 C :   -0.004855
  58 C :   -0.009854
  59 C :   -0.023129
  60 C :    0.037036
  61 C :    0.016783
  62 C :   -0.042279
  63 S :    0.061635
  64 C :   -0.070011
  65 C :    0.029963
  66 C :    0.047938
  67 C :   -0.061494
  68 S :    0.071587
  69 C :   -0.035083
  70 H :    0.006939
  71 H :   -0.004486
  72 H :   -0.007472
  73 H :   -0.014985
  74 H :    0.013246
  75 H :    0.029103
  76 H :    0.004198
  77 H :    0.126023
  78 H :   -0.038602
  79 H :    0.122792
  80 H :   -0.022530
  81 H :   -0.035388
  82 H :   -0.033751
  83 H :    0.119063
  84 H :   -0.034857
  85 H :    0.117729
  86 H :   -0.041873
  87 H :   -0.036947
  88 H :   -0.002578
  89 H :   -0.024351
  90 H :   -0.017949
  91 H :   -0.016402
  92 H :   -0.015142
  93 H :   -0.015076
  94 H :    0.016705
  95 H :    0.018225
Sum of atomic charges:   -0.0000000

LOEWDIN ATOMIC CHARGES
----------------------
   0 C :   -0.029179
   1 C :    0.065517
   2 F :   -0.051894
   3 C :    0.066382
   4 F :   -0.053058
   5 C :   -0.034509
   6 C :   -0.010260
   7 C :   -0.007423
   8 C :    0.015604
   9 C :   -0.020150
  10 C :   -0.050008
  11 C :    0.025310
  12 C :    0.082717
  13 O :   -0.182960
  14 C :   -0.125891
  15 C :    0.076288
  16 C :   -0.150637
  17 C :   -0.023908
  18 N :   -0.055233
  19 C :   -0.017040
  20 N :   -0.062918
  21 C :    0.054858
  22 C :   -0.188829
  23 C :    0.019935
  24 C :   -0.088513
  25 C :   -0.151196
  26 S :    0.527382
  27 C :   -0.214687
  28 C :   -0.038757
  29 C :    0.079830
  30 C :   -0.103703
  31 C :   -0.014360
  32 N :   -0.038829
  33 C :   -0.020468
  34 N :   -0.025509
  35 C :   -0.042484
  36 C :   -0.137739
  37 S :    0.442058
  38 C :   -0.033861
  39 N :    0.064191
  40 C :   -0.005229
  41 C :   -0.108422
  42 C :    0.017052
  43 N :    0.069129
  44 C :   -0.024950
  45 C :   -0.071534
  46 C :   -0.052504
  47 C :   -0.025106
  48 C :   -0.006537
  49 N :    0.068337
  50 C :   -0.018621
  51 C :   -0.093671
  52 C :   -0.000849
  53 N :    0.066421
  54 C :   -0.019557
  55 C :   -0.096220
  56 C :   -0.037266
  57 C :   -0.034101
  58 C :   -0.058215
  59 C :   -0.151814
  60 C :   -0.035606
  61 C :   -0.037959
  62 C :   -0.178214
  63 S :    0.358846
  64 C :   -0.183928
  65 C :   -0.026623
  66 C :   -0.037508
  67 C :   -0.138357
  68 S :    0.345235
  69 C :   -0.084833
  70 H :    0.047507
  71 H :    0.043318
  72 H :    0.039692
  73 H :    0.038232
  74 H :    0.052910
  75 H :    0.048372
  76 H :    0.039399
  77 H :    0.082614
  78 H :    0.021610
  79 H :    0.090050
  80 H :    0.029648
  81 H :    0.025107
  82 H :    0.026128
  83 H :    0.087838
  84 H :    0.023829
  85 H :    0.087471
  86 H :    0.020378
  87 H :    0.024556
  88 H :    0.021943
  89 H :    0.029764
  90 H :    0.031489
  91 H :    0.029952
  92 H :    0.031145
  93 H :    0.031860
  94 H :    0.027167
  95 H :    0.024556

  Mayer bond orders larger than 0.100000
B(  0-C ,  1-C ) :   1.4363 B(  0-C ,  5-C ) :   0.1087 B(  0-C ,  7-C ) :   1.1914
B(  0-C , 70-H ) :   1.0075 B(  1-C ,  2-F ) :   1.1315 B(  1-C ,  3-C ) :   1.1958
B(  3-C ,  4-F ) :   1.1293 B(  3-C ,  5-C ) :   1.4404 B(  5-C ,  6-C ) :   1.1933
B(  5-C , 71-H ) :   1.0075 B(  6-C ,  7-C ) :   1.2608 B(  6-C , 11-C ) :   1.1817
B(  7-C ,  8-C ) :   1.2080 B(  8-C ,  9-C ) :   1.4601 B(  8-C , 72-H ) :   0.9895
B(  9-C , 10-C ) :   1.2219 B(  9-C , 15-C ) :   0.9750 B( 10-C , 11-C ) :   1.4742
B( 10-C , 12-C ) :   0.9563 B( 11-C , 73-H ) :   1.0167 B( 12-C , 13-O ) :   2.1153
B( 12-C , 14-C ) :   0.9960 B( 14-C , 15-C ) :   1.1061 B( 14-C , 21-C ) :   1.4206
B( 15-C , 16-C ) :   1.6050 B( 16-C , 17-C ) :   1.1452 B( 16-C , 19-C ) :   1.1531
B( 17-C , 18-N ) :   2.9596 B( 19-C , 20-N ) :   2.9538 B( 21-C , 22-C ) :   1.3297
B( 21-C , 74-H ) :   0.9387 B( 22-C , 23-C ) :   1.2966 B( 22-C , 26-S ) :   1.0377
B( 23-C , 24-C ) :   1.3597 B( 23-C , 75-H ) :   1.0071 B( 24-C , 25-C ) :   1.3012
B( 24-C , 29-C ) :   0.9993 B( 25-C , 26-S ) :   1.1223 B( 25-C , 27-C ) :   1.2695
B( 27-C , 28-C ) :   1.3944 B( 27-C , 37-S ) :   1.0695 B( 28-C , 29-C ) :   0.9880
B( 28-C , 35-C ) :   1.3261 B( 29-C , 30-C ) :   1.7059 B( 30-C , 31-C ) :   1.1390
B( 30-C , 33-C ) :   1.1365 B( 31-C , 32-N ) :   2.9839 B( 33-C , 34-N ) :   2.9945
B( 35-C , 36-C ) :   1.4168 B( 35-C , 76-H ) :   0.9929 B( 36-C , 37-S ) :   1.0958
B( 36-C , 38-C ) :   1.1417 B( 38-C , 39-N ) :   1.1863 B( 38-C , 45-C ) :   1.3812
B( 39-N , 40-C ) :   1.1686 B( 39-N , 77-H ) :   0.9312 B( 40-C , 41-C ) :   1.2659
B( 40-C , 44-C ) :   1.2989 B( 41-C , 42-C ) :   1.3858 B( 41-C , 78-H ) :   1.0331
B( 42-C , 43-N ) :   1.1825 B( 42-C , 46-C ) :   1.1148 B( 43-N , 44-C ) :   1.1550
B( 43-N , 79-H ) :   0.9361 B( 44-C , 45-C ) :   1.2825 B( 45-C , 80-H ) :   1.0308
B( 46-C , 47-C ) :   1.6518 B( 46-C , 81-H ) :   0.9665 B( 47-C , 48-C ) :   1.1266
B( 47-C , 82-H ) :   0.9659 B( 48-C , 49-N ) :   1.1663 B( 48-C , 55-C ) :   1.3851
B( 49-N , 50-C ) :   1.1653 B( 49-N , 83-H ) :   0.9375 B( 50-C , 51-C ) :   1.2714
B( 50-C , 54-C ) :   1.2995 B( 51-C , 52-C ) :   1.3850 B( 51-C , 84-H ) :   1.0316
B( 52-C , 53-N ) :   1.1633 B( 52-C , 56-C ) :   1.1190 B( 53-N , 54-C ) :   1.1651
B( 53-N , 85-H ) :   0.9385 B( 54-C , 55-C ) :   1.2721 B( 55-C , 86-H ) :   1.0304
B( 56-C , 57-C ) :   1.6115 B( 56-C , 87-H ) :   0.9729 B( 57-C , 58-C ) :   1.1763
B( 57-C , 88-H ) :   0.9732 B( 58-C , 59-C ) :   1.5492 B( 58-C , 89-H ) :   0.9820
B( 59-C , 60-C ) :   1.1457 B( 59-C , 63-S ) :   1.0269 B( 60-C , 61-C ) :   1.5932
B( 60-C , 90-H ) :   0.9983 B( 61-C , 62-C ) :   1.1792 B( 61-C , 91-H ) :   0.9939
B( 62-C , 63-S ) :   1.0380 B( 62-C , 64-C ) :   1.5457 B( 64-C , 65-C ) :   1.1606
B( 64-C , 68-S ) :   1.0389 B( 65-C , 66-C ) :   1.6536 B( 65-C , 92-H ) :   0.9915
B( 66-C , 67-C ) :   1.0838 B( 66-C , 93-H ) :   0.9929 B( 67-C , 68-S ) :   1.0086
B( 67-C , 69-C ) :   1.8604 B( 69-C , 94-H ) :   0.9502 B( 69-C , 95-H ) :   0.9417

-----------------------------------------------------------------------------
         ABSORPTION SPECTRUM VIA TRANSITION ELECTRIC DIPOLE MOMENTS
-----------------------------------------------------------------------------
State   Energy  Wavelength   fosc         T2         TX        TY        TZ
        (cm-1)    (nm)                  (au**2)     (au)      (au)      (au)
-----------------------------------------------------------------------------
   0    7983.7   1252.6   0.942758508  38.87520   0.39962   6.21379   0.32305
   1   13232.1    755.7   1.124020063  27.96547   0.14864  -5.04697  -1.57209
   2   14783.1    676.4   1.133229837  25.23645   0.11878  -4.93496  -0.93192
   3   16007.3    624.7   0.630703499  12.97124   0.82291  -0.05145  -3.50591
   4   19131.0    522.7   0.162634826   2.79867  -0.34429  -1.36028   0.91091
   5   20691.4    483.3   0.297331691   4.73072   0.16756   1.82791  -1.16679
   6   22047.2    453.6   0.062979426   0.94042  -0.21722  -0.87776   0.35039
   7   22539.7    443.7   0.078291595   1.14351  -0.41067  -0.19596   0.96771
   8   23294.0    429.3   0.352386363   4.98025   0.78009   2.04770  -0.42267
   9   24265.5    412.1   0.018493976   0.25091   0.04840   0.32928  -0.37436
  10   25675.2    389.5   0.141857433   1.81892   0.13283   1.06185  -0.82082
  11   26526.6    377.0   0.009191302   0.11407   0.09062   0.30144  -0.12245
  12   26865.0    372.2   0.002570420   0.03150   0.11070   0.13331  -0.03839
  13   27554.0    362.9   0.005552678   0.06634  -0.11154   0.10068   0.20920
  14   28269.3    353.7   0.063074387   0.73454   0.24448  -0.38984   0.72304
  15   28629.6    349.3   0.335531344   3.85828   0.11985   0.11590  -1.95716
  16   28933.1    345.6   0.005407900   0.06153  -0.09147   0.09234  -0.21129
  17   29460.5    339.4   0.142484518   1.59222   0.00445   0.40663  -1.19451
  18   29895.7    334.5   0.054620980   0.60149  -0.10226   0.75649  -0.13697
  19   30289.9    330.1   0.169384022   1.84099   0.00249  -0.21236  -1.34011
  20   30771.8    325.0   0.130156018   1.39247  -0.31267  -1.01491  -0.51446
  21   30784.3    324.8   0.060402960   0.64596   0.04778   0.08339  -0.79795
  22   30906.2    323.6   0.111546250   1.18819  -0.01191  -0.63306   0.88729
  23   31370.5    318.8   0.012867766   0.13504  -0.00669   0.36657  -0.02491
  24   32280.0    309.8   0.445322754   4.54168  -0.27325   0.36654  -2.08151
  25   32462.1    308.1   0.206358885   2.09277   0.18209  -0.18953   1.42257
  26   32962.4    303.4   0.003679037   0.03674  -0.07178   0.16980  -0.05253
  27   33176.3    301.4   0.016765534   0.16637  -0.01295  -0.18009   0.36574
  28   33337.4    300.0   0.120952824   1.19443  -0.18552  -0.99662  -0.40837
  29   33381.3    299.6   0.016467546   0.16241   0.04401   0.30649   0.25794
  30   33494.9    298.6   0.023022091   0.22628   0.16944  -0.30435   0.32395
  31   33654.5    297.1   0.259601110   2.53944   0.17966  -0.41068   1.52922
  32   34057.3    293.6   0.053569773   0.51783   0.28309   0.65956  -0.05160
  33   34440.6    290.4   0.204444094   1.95425  -0.10465   0.25911  -1.36973
  34   34602.3    289.0   0.104262569   0.99197  -0.11031  -0.45331  -0.87995
  35   34787.2    287.5   0.079552184   0.75285  -0.06916  -0.14712  -0.85230
  36   35495.2    281.7   0.054484855   0.50534   0.23832   0.24656   0.62269
  37   35754.3    279.7   0.014032134   0.12920   0.00852   0.17273  -0.31511
  38   36084.5    277.1   0.196176757   1.78979  -0.34445  -0.60928  -1.14014
  39   36618.0    273.1   0.060049676   0.53987  -0.04358   0.28025  -0.67781
  40   37024.4    270.1   0.022823935   0.20294  -0.06552  -0.23156  -0.38083
  41   37435.7    267.1   0.007730799   0.06799  -0.07341  -0.17103  -0.18261
  42   37808.1    264.5   0.067729132   0.58975   0.00925   0.71275  -0.28575
  43   38159.5    262.1   0.019848688   0.17124  -0.10355  -0.38666  -0.10494
  44   38191.1    261.8   0.003714907   0.03202   0.00278  -0.03428   0.17561
  45   38501.1    259.7   0.084788699   0.72500   0.12222   0.78385   0.30928
  46   38818.8    257.6   0.018700219   0.15859   0.17937   0.35234   0.04773
  47   39300.7    254.4   0.088271999   0.73943   0.15354   0.16068  -0.83069
  48   39612.3    252.4   0.008304491   0.06902  -0.01958   0.23761  -0.11035
  49   39746.8    251.6   0.047078590   0.38994   0.20106   0.36052  -0.46855
  50   39868.4    250.8   0.197074418   1.62734  -0.00746  -1.22716  -0.34838

FINAL SINGLE POINT ENERGY     -4413.000082516841

DIPOLE MOMENT
-------------
                                X             Y             Z
Electronic contribution:      6.32008     144.33380      -8.99074
Nuclear contribution   :     -7.54025    -151.28904       7.78762
                        -----------------------------------------
Total Dipole Moment    :     -1.22017      -6.95524      -1.20312
                        -----------------------------------------
Magnitude (a.u.)       :      7.16322
Magnitude (Debye)      :     18.20745

Rotational constants in cm-1:     0.001265     0.000139     0.000126
Rotational constants in MHz :    37.920493     4.172885     3.782244

                             ****ORCA TERMINATED NORMALLY****
TOTAL RUN TIME: 0 days 0 hours 9 minutes 54 seconds 755 msec
