                         Program Version 4.2.0 -  RELEASE  -
|  1> # ORCA input file
|  2> # SCF done       -170.165491262303          0.000390748532
|  3> ! CAM-B3LYP def2-SVP def2/J RIJCOSX Grid4 TightSCF
|  4> %maxcore 5000
|  5> %tddft
|  6>     Mode sTDDFT
|  7>     Ethresh 5.0
|  8>     maxcore 5000
|  9> end
| 10>
| 11> %pal
| 12>   nprocs 6
| 13>   end
| 14> * xyz 0 1
| 15>    C       -1.54773        -0.47015         4.68777
| 16>    C       -1.92304         0.10830         5.86172
| 17>    C       -1.34049         1.37964         6.01990
| 18>    C       -0.52328         1.72898         4.92784
| 19>    S       -0.50274         0.52142         3.71730
| 20>    C        0.03808         2.99704         5.16686
| 21>    C       -0.44893         3.48275         6.40008
| 22>    C       -1.34475         2.47233         6.96378
| 23>    C       -2.07479         2.57099         8.11578
| 24>    C       -2.02862         3.71852         8.93045
| 25>    N       -1.99331         4.66123         9.58393
| 26>    C       -2.95240         1.54794         8.52950
| 27>    N       -3.68457         0.72318         8.84360
| 28>    C        0.03751         4.73958         6.71270
| 29>    C        0.90378         5.24087         5.72854
| 30>    S        1.09202         4.09905         4.39440
| 31>    C        1.56396         6.46964         5.75142
| 32>    C        2.49447         6.91052         4.82621
| 33>    C        3.14030         8.16193         4.77764
| 34>    C        4.04455         8.29347         3.75364
| 35>    C        4.16872         7.14263         2.96271
| 36>    S        3.08153         5.90004         3.52547
| 37>    C        4.98747         6.84625         1.87361
| 38>    C        5.84828         7.65244         1.11484
| 39>    C        6.45557         6.97706         0.08714
| 40>    C        6.13765         5.60258         0.01546
| 41>    S        5.02151         5.20260         1.29410
| 42>    C        6.52064         4.73053        -0.99053
| 43>    C        6.25633         3.35154        -1.10963
| 44>    C        6.01022         2.48398        -0.00080
| 45>    O        6.28872         2.98145         1.22890
| 46>    C        5.97014         2.21968         2.37106
| 47>    C        5.58981         1.19952        -0.21696
| 48>    C        5.39263         0.66324        -1.50511
| 49>    C        5.82389         1.46814        -2.61025
| 50>    C        6.24245         2.75636        -2.39469
| 51>    O        5.73649         0.87956        -3.83443
| 52>    C        6.12515         1.61441        -4.96904
| 53>    C        4.80702        -0.59586        -1.73071
| 54>    C        4.10603        -1.38586        -0.83626
| 55>    C        3.51068        -2.63343        -1.12001
| 56>    C        2.79703        -3.18320        -0.08425
| 57>    C        2.79007        -2.39470         1.07361
| 58>    S        3.72173        -0.94266         0.81582
| 59>    C        2.18624        -2.57427         2.31676
| 60>    C        1.34473        -3.58258         2.80745
| 61>    C        0.91173        -3.36061         4.09051
| 62>    C        1.38620        -2.16588         4.66797
| 63>    S        2.43689        -1.34892         3.53450
| 64>    C        1.04604        -1.62357         5.89511
| 65>    C        1.47818        -0.39640         6.39858
| 66>    C        1.01508         0.23730         7.56270
| 67>    C        1.58584         1.48316         7.75121
| 68>    C        2.50597         1.82510         6.73567
| 69>    S        2.67024         0.59822         5.55609
| 70>    C        3.02739         3.10222         7.00964
| 71>    C        2.42303         3.59933         8.18061
| 72>    C        1.52272         2.59644         8.69883
| 73>    C        0.79354         2.65261         9.85462
| 74>    C        0.85204         3.76702        10.71606
| 75>    N        0.92633         4.66749        11.42215
| 76>    C       -0.02547         1.58553        10.27012
| 77>    N       -0.68563         0.70844        10.60500
| 78>    C        2.87368         4.89321         8.50233
| 79>    C        3.78058         5.34708         7.59384
| 80>    S        4.14780         4.20595         6.33660
| 81>    H       -1.83962        -1.42723         4.30380
| 82>    H       -2.57525        -0.35963         6.57638
| 83>    H       -0.20436         5.29950         7.59857
| 84>    H        1.31476         7.13765         6.56502
| 85>    H        2.92210         8.93462         5.49397
| 86>    H        4.62805         9.17881         3.57337
| 87>    H        5.99204         8.69818         1.32151
| 88>    H        7.13411         7.43283        -0.61306
| 89>    H        7.01045         5.19620        -1.83854
| 90>    H        6.17460         2.87021         3.21992
| 91>    H        6.59417         1.32408         2.43994
| 92>    H        4.91464         1.93411         2.38269
| 93>    H        5.44246         0.55216         0.62781
| 94>    H        6.51177         3.38894        -3.22611
| 95>    H        5.99111         0.94153        -5.81465
| 96>    H        7.17517         1.91793        -4.91107
| 97>    H        5.49644         2.49959        -5.10862
| 98>    H        4.85530        -0.96698        -2.74547
| 99>    H        3.61933        -3.09690        -2.08498
|100>    H        2.28137        -4.12548        -0.13949
|101>    H        1.06517        -4.43544         2.21472
|102>    H        0.25345        -4.02053         4.62821
|103>    H        0.35598        -2.18346         6.51198
|104>    H        0.29103        -0.22203         8.21189
|105>    H        2.54113         5.46427         9.34989
|106>    H        4.29134         6.28923         7.58909
|107> *
|108>
|109>                          ****END OF INPUT****

CARTESIAN COORDINATES (ANGSTROEM)
---------------------------------
  C     -1.547730   -0.470150    4.687770
  C     -1.923040    0.108300    5.861720
  C     -1.340490    1.379640    6.019900
  C     -0.523280    1.728980    4.927840
  S     -0.502740    0.521420    3.717300
  C      0.038080    2.997040    5.166860
  C     -0.448930    3.482750    6.400080
  C     -1.344750    2.472330    6.963780
  C     -2.074790    2.570990    8.115780
  C     -2.028620    3.718520    8.930450
  N     -1.993310    4.661230    9.583930
  C     -2.952400    1.547940    8.529500
  N     -3.684570    0.723180    8.843600
  C      0.037510    4.739580    6.712700
  C      0.903780    5.240870    5.728540
  S      1.092020    4.099050    4.394400
  C      1.563960    6.469640    5.751420
  C      2.494470    6.910520    4.826210
  C      3.140300    8.161930    4.777640
  C      4.044550    8.293470    3.753640
  C      4.168720    7.142630    2.962710
  S      3.081530    5.900040    3.525470
  C      4.987470    6.846250    1.873610
  C      5.848280    7.652440    1.114840
  C      6.455570    6.977060    0.087140
  C      6.137650    5.602580    0.015460
  S      5.021510    5.202600    1.294100
  C      6.520640    4.730530   -0.990530
  C      6.256330    3.351540   -1.109630
  C      6.010220    2.483980   -0.000800
  O      6.288720    2.981450    1.228900
  C      5.970140    2.219680    2.371060
  C      5.589810    1.199520   -0.216960
  C      5.392630    0.663240   -1.505110
  C      5.823890    1.468140   -2.610250
  C      6.242450    2.756360   -2.394690
  O      5.736490    0.879560   -3.834430
  C      6.125150    1.614410   -4.969040
  C      4.807020   -0.595860   -1.730710
  C      4.106030   -1.385860   -0.836260
  C      3.510680   -2.633430   -1.120010
  C      2.797030   -3.183200   -0.084250
  C      2.790070   -2.394700    1.073610
  S      3.721730   -0.942660    0.815820
  C      2.186240   -2.574270    2.316760
  C      1.344730   -3.582580    2.807450
  C      0.911730   -3.360610    4.090510
  C      1.386200   -2.165880    4.667970
  S      2.436890   -1.348920    3.534500
  C      1.046040   -1.623570    5.895110
  C      1.478180   -0.396400    6.398580
  C      1.015080    0.237300    7.562700
  C      1.585840    1.483160    7.751210
  C      2.505970    1.825100    6.735670
  S      2.670240    0.598220    5.556090
  C      3.027390    3.102220    7.009640
  C      2.423030    3.599330    8.180610
  C      1.522720    2.596440    8.698830
  C      0.793540    2.652610    9.854620
  C      0.852040    3.767020   10.716060
  N      0.926330    4.667490   11.422150
  C     -0.025470    1.585530   10.270120
  N     -0.685630    0.708440   10.605000
  C      2.873680    4.893210    8.502330
  C      3.780580    5.347080    7.593840
  S      4.147800    4.205950    6.336600
  H     -1.839620   -1.427230    4.303800
  H     -2.575250   -0.359630    6.576380
  H     -0.204360    5.299500    7.598570
  H      1.314760    7.137650    6.565020
  H      2.922100    8.934620    5.493970
  H      4.628050    9.178810    3.573370
  H      5.992040    8.698180    1.321510
  H      7.134110    7.432830   -0.613060
  H      7.010450    5.196200   -1.838540
  H      6.174600    2.870210    3.219920
  H      6.594170    1.324080    2.439940
  H      4.914640    1.934110    2.382690
  H      5.442460    0.552160    0.627810
  H      6.511770    3.388940   -3.226110
  H      5.991110    0.941530   -5.814650
  H      7.175170    1.917930   -4.911070
  H      5.496440    2.499590   -5.108620
  H      4.855300   -0.966980   -2.745470
  H      3.619330   -3.096900   -2.084980
  H      2.281370   -4.125480   -0.139490
  H      1.065170   -4.435440    2.214720
  H      0.253450   -4.020530    4.628210
  H      0.355980   -2.183460    6.511980
  H      0.291030   -0.222030    8.211890
  H      2.541130    5.464270    9.349890
  H      4.291340    6.289230    7.589090

 Total Charge           Charge          ....    0
 Multiplicity           Mult            ....    1
 Number of Electrons    NEL             ....  510
 Basis Dimension        Dim             .... 1086

ORBITAL ENERGIES
----------------

  NO   OCC          E(Eh)            E(eV)
   0   2.0000     -88.974602     -2421.1220
   1   2.0000     -88.973986     -2421.1052
   2   2.0000     -88.972845     -2421.0742
   3   2.0000     -88.972577     -2421.0669
   4   2.0000     -88.954570     -2420.5769
   5   2.0000     -88.952697     -2420.5259
   6   2.0000     -88.951075     -2420.4818
   7   2.0000     -88.943455     -2420.2745
   8   2.0000     -19.249528      -523.8063
   9   2.0000     -19.249314      -523.8005
  10   2.0000     -14.417913      -392.3313
  11   2.0000     -14.417455      -392.3189
  12   2.0000     -14.412100      -392.1732
  13   2.0000     -14.411854      -392.1665
  14   2.0000     -10.347430      -281.5679
  15   2.0000     -10.347219      -281.5621
  16   2.0000     -10.338273      -281.3187
  17   2.0000     -10.337435      -281.2959
  18   2.0000     -10.333547      -281.1901
  19   2.0000     -10.333200      -281.1807
  20   2.0000     -10.327236      -281.0184
  21   2.0000     -10.323272      -280.9105
  22   2.0000     -10.318450      -280.7793
  23   2.0000     -10.317879      -280.7638
  24   2.0000     -10.316015      -280.7130
  25   2.0000     -10.315297      -280.6935
  26   2.0000     -10.314064      -280.6600
  27   2.0000     -10.313472      -280.6438
  28   2.0000     -10.312841      -280.6267
  29   2.0000     -10.312828      -280.6263
  30   2.0000     -10.312579      -280.6195
  31   2.0000     -10.312518      -280.6179
  32   2.0000     -10.311664      -280.5947
  33   2.0000     -10.311301      -280.5848
  34   2.0000     -10.309252      -280.5290
  35   2.0000     -10.308398      -280.5058
  36   2.0000     -10.307542      -280.4825
  37   2.0000     -10.306945      -280.4662
  38   2.0000     -10.306923      -280.4656
  39   2.0000     -10.303230      -280.3651
  40   2.0000     -10.302806      -280.3536
  41   2.0000     -10.301643      -280.3220
  42   2.0000     -10.294158      -280.1183
  43   2.0000     -10.293401      -280.0977
  44   2.0000     -10.293386      -280.0973
  45   2.0000     -10.292657      -280.0774
  46   2.0000     -10.292396      -280.0703
  47   2.0000     -10.291696      -280.0513
  48   2.0000     -10.287788      -279.9450
  49   2.0000     -10.287012      -279.9238
  50   2.0000     -10.286650      -279.9140
  51   2.0000     -10.286238      -279.9028
  52   2.0000     -10.285956      -279.8951
  53   2.0000     -10.285660      -279.8870
  54   2.0000     -10.285657      -279.8870
  55   2.0000     -10.285548      -279.8840
  56   2.0000     -10.285242      -279.8757
  57   2.0000     -10.284688      -279.8606
  58   2.0000     -10.284375      -279.8521
  59   2.0000     -10.284302      -279.8501
  60   2.0000     -10.282993      -279.8145
  61   2.0000     -10.282609      -279.8040
  62   2.0000     -10.282131      -279.7910
  63   2.0000     -10.279835      -279.7285
  64   2.0000     -10.271742      -279.5083
  65   2.0000     -10.269224      -279.4398
  66   2.0000      -8.068441      -219.5534
  67   2.0000      -8.068310      -219.5499
  68   2.0000      -8.066802      -219.5088
  69   2.0000      -8.066705      -219.5062
  70   2.0000      -8.050252      -219.0585
  71   2.0000      -8.048511      -219.0111
  72   2.0000      -8.046769      -218.9637
  73   2.0000      -8.039014      -218.7527
  74   2.0000      -6.037838      -164.2979
  75   2.0000      -6.037687      -164.2938
  76   2.0000      -6.036180      -164.2528
  77   2.0000      -6.036073      -164.2499
  78   2.0000      -6.033622      -164.1832
  79   2.0000      -6.033239      -164.1728
  80   2.0000      -6.031900      -164.1363
  81   2.0000      -6.031665      -164.1299
  82   2.0000      -6.030779      -164.1058
  83   2.0000      -6.030601      -164.1010
  84   2.0000      -6.029339      -164.0667
  85   2.0000      -6.028877      -164.0541
  86   2.0000      -6.019801      -163.8071
  87   2.0000      -6.018022      -163.7587
  88   2.0000      -6.016367      -163.7137
  89   2.0000      -6.015651      -163.6942
  90   2.0000      -6.013875      -163.6458
  91   2.0000      -6.012199      -163.6003
  92   2.0000      -6.011714      -163.5871
  93   2.0000      -6.009975      -163.5397
  94   2.0000      -6.008657      -163.5039
  95   2.0000      -6.008184      -163.4910
  96   2.0000      -6.004342      -163.3865
  97   2.0000      -6.000391      -163.2789
  98   2.0000      -1.156419       -31.4678
  99   2.0000      -1.153011       -31.3750
 100   2.0000      -1.034230       -28.1428
 101   2.0000      -1.024668       -27.8826
 102   2.0000      -1.010554       -27.4986
 103   2.0000      -1.004215       -27.3261
 104   2.0000      -1.000657       -27.2293
 105   2.0000      -0.997910       -27.1545
 106   2.0000      -0.993443       -27.0329
 107   2.0000      -0.991043       -26.9677
 108   2.0000      -0.985523       -26.8175
 109   2.0000      -0.979740       -26.6601
 110   2.0000      -0.973638       -26.4940
 111   2.0000      -0.971126       -26.4257
 112   2.0000      -0.953423       -25.9440
 113   2.0000      -0.944922       -25.7126
 114   2.0000      -0.940208       -25.5843
 115   2.0000      -0.907517       -24.6948
 116   2.0000      -0.906372       -24.6636
 117   2.0000      -0.898297       -24.4439
 118   2.0000      -0.880920       -23.9710
 119   2.0000      -0.875762       -23.8307
 120   2.0000      -0.862449       -23.4684
 121   2.0000      -0.853877       -23.2352
 122   2.0000      -0.852682       -23.2027
 123   2.0000      -0.851667       -23.1750
 124   2.0000      -0.849160       -23.1068
 125   2.0000      -0.846068       -23.0227
 126   2.0000      -0.840268       -22.8648
 127   2.0000      -0.836076       -22.7508
 128   2.0000      -0.830713       -22.6049
 129   2.0000      -0.822668       -22.3859
 130   2.0000      -0.819835       -22.3089
 131   2.0000      -0.808098       -21.9895
 132   2.0000      -0.807392       -21.9703
 133   2.0000      -0.796985       -21.6871
 134   2.0000      -0.775895       -21.1132
 135   2.0000      -0.770218       -20.9587
 136   2.0000      -0.763841       -20.7852
 137   2.0000      -0.761685       -20.7265
 138   2.0000      -0.749727       -20.4011
 139   2.0000      -0.744966       -20.2716
 140   2.0000      -0.721219       -19.6254
 141   2.0000      -0.705321       -19.1928
 142   2.0000      -0.690773       -18.7969
 143   2.0000      -0.689536       -18.7632
 144   2.0000      -0.688656       -18.7393
 145   2.0000      -0.686756       -18.6876
 146   2.0000      -0.672671       -18.3043
 147   2.0000      -0.671913       -18.2837
 148   2.0000      -0.669677       -18.2228
 149   2.0000      -0.665436       -18.1074
 150   2.0000      -0.663559       -18.0564
 151   2.0000      -0.644261       -17.5312
 152   2.0000      -0.638278       -17.3684
 153   2.0000      -0.633316       -17.2334
 154   2.0000      -0.628595       -17.1049
 155   2.0000      -0.627679       -17.0800
 156   2.0000      -0.625947       -17.0329
 157   2.0000      -0.623203       -16.9582
 158   2.0000      -0.610912       -16.6238
 159   2.0000      -0.609735       -16.5917
 160   2.0000      -0.604730       -16.4555
 161   2.0000      -0.604125       -16.4391
 162   2.0000      -0.600436       -16.3387
 163   2.0000      -0.598651       -16.2901
 164   2.0000      -0.597648       -16.2628
 165   2.0000      -0.596204       -16.2235
 166   2.0000      -0.590639       -16.0721
 167   2.0000      -0.574171       -15.6240
 168   2.0000      -0.561782       -15.2869
 169   2.0000      -0.560161       -15.2428
 170   2.0000      -0.559416       -15.2225
 171   2.0000      -0.556039       -15.1306
 172   2.0000      -0.553827       -15.0704
 173   2.0000      -0.544784       -14.8243
 174   2.0000      -0.543672       -14.7941
 175   2.0000      -0.542379       -14.7589
 176   2.0000      -0.536786       -14.6067
 177   2.0000      -0.531188       -14.4544
 178   2.0000      -0.526096       -14.3158
 179   2.0000      -0.515651       -14.0316
 180   2.0000      -0.515207       -14.0195
 181   2.0000      -0.514120       -13.9899
 182   2.0000      -0.512570       -13.9477
 183   2.0000      -0.510626       -13.8948
 184   2.0000      -0.506553       -13.7840
 185   2.0000      -0.504479       -13.7276
 186   2.0000      -0.502462       -13.6727
 187   2.0000      -0.498456       -13.5637
 188   2.0000      -0.497684       -13.5427
 189   2.0000      -0.492925       -13.4132
 190   2.0000      -0.492259       -13.3950
 191   2.0000      -0.490888       -13.3577
 192   2.0000      -0.487274       -13.2594
 193   2.0000      -0.485579       -13.2133
 194   2.0000      -0.481667       -13.1068
 195   2.0000      -0.480702       -13.0806
 196   2.0000      -0.477397       -12.9906
 197   2.0000      -0.474980       -12.9249
 198   2.0000      -0.473968       -12.8973
 199   2.0000      -0.472417       -12.8551
 200   2.0000      -0.469552       -12.7772
 201   2.0000      -0.468107       -12.7378
 202   2.0000      -0.465271       -12.6607
 203   2.0000      -0.464471       -12.6389
 204   2.0000      -0.457150       -12.4397
 205   2.0000      -0.456228       -12.4146
 206   2.0000      -0.454895       -12.3783
 207   2.0000      -0.450663       -12.2632
 208   2.0000      -0.448814       -12.2128
 209   2.0000      -0.447811       -12.1856
 210   2.0000      -0.446912       -12.1611
 211   2.0000      -0.445679       -12.1275
 212   2.0000      -0.442742       -12.0476
 213   2.0000      -0.441680       -12.0187
 214   2.0000      -0.438930       -11.9439
 215   2.0000      -0.437041       -11.8925
 216   2.0000      -0.434467       -11.8225
 217   2.0000      -0.433068       -11.7844
 218   2.0000      -0.431327       -11.7370
 219   2.0000      -0.430728       -11.7207
 220   2.0000      -0.427549       -11.6342
 221   2.0000      -0.426200       -11.5975
 222   2.0000      -0.422496       -11.4967
 223   2.0000      -0.421314       -11.4645
 224   2.0000      -0.419453       -11.4139
 225   2.0000      -0.415470       -11.3055
 226   2.0000      -0.414587       -11.2815
 227   2.0000      -0.412950       -11.2370
 228   2.0000      -0.411751       -11.2043
 229   2.0000      -0.408370       -11.1123
 230   2.0000      -0.403281       -10.9738
 231   2.0000      -0.401129       -10.9153
 232   2.0000      -0.395800       -10.7703
 233   2.0000      -0.386605       -10.5201
 234   2.0000      -0.385219       -10.4824
 235   2.0000      -0.384340       -10.4584
 236   2.0000      -0.382223       -10.4008
 237   2.0000      -0.369526       -10.0553
 238   2.0000      -0.356704        -9.7064
 239   2.0000      -0.348936        -9.4950
 240   2.0000      -0.344397        -9.3715
 241   2.0000      -0.340570        -9.2674
 242   2.0000      -0.333398        -9.0722
 243   2.0000      -0.330226        -8.9859
 244   2.0000      -0.322247        -8.7688
 245   2.0000      -0.321778        -8.7560
 246   2.0000      -0.317499        -8.6396
 247   2.0000      -0.308883        -8.4051
 248   2.0000      -0.299755        -8.1568
 249   2.0000      -0.296788        -8.0760
 250   2.0000      -0.281159        -7.6507
 251   2.0000      -0.270535        -7.3616
 252   2.0000      -0.263686        -7.1753
 253   2.0000      -0.201705        -5.4887
 254   2.0000      -0.200102        -5.4450
 255   0.0000      -0.100718        -2.7407
 256   0.0000      -0.097925        -2.6647
 257   0.0000      -0.079905        -2.1743
 258   0.0000      -0.068002        -1.8504
 259   0.0000      -0.020466        -0.5569

MULLIKEN ATOMIC CHARGES
-----------------------
   0 C :   -0.069240
   1 C :    0.012552
   2 C :   -0.008585
   3 C :   -0.126532
   4 S :    0.184156
   5 C :   -0.069507
   6 C :    0.013586
   7 C :    0.283182
   8 C :   -0.319858
   9 C :   -0.194741
  10 N :    0.180691
  11 C :   -0.197819
  12 N :    0.184984
  13 C :    0.009211
  14 C :   -0.113638
  15 S :    0.126267
  16 C :    0.066146
  17 C :   -0.071499
  18 C :    0.023972
  19 C :    0.025985
  20 C :   -0.031486
  21 S :    0.045064
  22 C :   -0.043006
  23 C :    0.021789
  24 C :    0.027198
  25 C :   -0.015081
  26 S :    0.102475
  27 C :   -0.035888
  28 C :    0.074628
  29 C :    0.200853
  30 O :   -0.319785
  31 C :    0.181685
  32 C :   -0.170700
  33 C :    0.054029
  34 C :    0.239453
  35 C :   -0.156292
  36 O :   -0.317948
  37 C :    0.179744
  38 C :   -0.015610
  39 C :   -0.013499
  40 C :    0.030542
  41 C :    0.022424
  42 C :   -0.030619
  43 S :    0.046985
  44 C :   -0.025909
  45 C :    0.021861
  46 C :    0.024489
  47 C :   -0.069835
  48 S :    0.039435
  49 C :    0.069103
  50 C :   -0.112378
  51 C :    0.007896
  52 C :    0.014986
  53 C :   -0.068780
  54 S :    0.117971
  55 C :   -0.128219
  56 C :   -0.009962
  57 C :    0.284319
  58 C :   -0.319004
  59 C :   -0.200055
  60 N :    0.189592
  61 C :   -0.194298
  62 N :    0.176919
  63 C :    0.017574
  64 C :   -0.066400
  65 S :    0.173787
  66 H :    0.027680
  67 H :    0.007037
  68 H :    0.004442
  69 H :   -0.007278
  70 H :   -0.013909
  71 H :   -0.016401
  72 H :   -0.017163
  73 H :   -0.015109
  74 H :   -0.017990
  75 H :    0.034346
  76 H :    0.034903
  77 H :    0.024572
  78 H :   -0.016687
  79 H :   -0.043302
  80 H :    0.036810
  81 H :    0.023760
  82 H :    0.025081
  83 H :   -0.006800
  84 H :   -0.012949
  85 H :   -0.016393
  86 H :   -0.016333
  87 H :   -0.012773
  88 H :   -0.005905
  89 H :    0.005265
  90 H :    0.006640
  91 H :    0.029095
Sum of atomic charges:    0.0000000

LOEWDIN ATOMIC CHARGES
----------------------
   0 C :   -0.170265
   1 C :   -0.040487
   2 C :   -0.075408
   3 C :   -0.182909
   4 S :    0.478308
   5 C :   -0.193989
   6 C :   -0.066946
   7 C :    0.076932
   8 C :   -0.113191
   9 C :   -0.020176
  10 N :   -0.034987
  11 C :   -0.017538
  12 N :   -0.034025
  13 C :   -0.013328
  14 C :   -0.167544
  15 S :    0.450852
  16 C :   -0.059719
  17 C :   -0.173071
  18 C :   -0.043855
  19 C :   -0.045381
  20 C :   -0.187410
  21 S :    0.387018
  22 C :   -0.180964
  23 C :   -0.048640
  24 C :   -0.033246
  25 C :   -0.154789
  26 S :    0.427118
  27 C :   -0.043228
  28 C :   -0.041517
  29 C :    0.044172
  30 O :   -0.100733
  31 C :    0.073383
  32 C :   -0.075199
  33 C :   -0.041799
  34 C :    0.056047
  35 C :   -0.069526
  36 O :   -0.102430
  37 C :    0.077247
  38 C :   -0.036284
  39 C :   -0.151672
  40 C :   -0.033098
  41 C :   -0.046092
  42 C :   -0.181240
  43 S :    0.401525
  44 C :   -0.186530
  45 C :   -0.046927
  46 C :   -0.043190
  47 C :   -0.174946
  48 S :    0.382770
  49 C :   -0.059365
  50 C :   -0.168029
  51 C :   -0.012797
  52 C :   -0.067068
  53 C :   -0.194061
  54 S :    0.444375
  55 C :   -0.185226
  56 C :   -0.074216
  57 C :    0.077935
  58 C :   -0.114430
  59 C :   -0.018555
  60 N :   -0.033636
  61 C :   -0.019692
  62 N :   -0.036084
  63 C :   -0.039258
  64 C :   -0.169279
  65 S :    0.470167
  66 H :    0.023462
  67 H :    0.040262
  68 H :    0.039696
  69 H :    0.042257
  70 H :    0.032459
  71 H :    0.031901
  72 H :    0.030292
  73 H :    0.031181
  74 H :    0.033091
  75 H :    0.026125
  76 H :    0.019910
  77 H :    0.015485
  78 H :    0.009358
  79 H :    0.027225
  80 H :    0.028936
  81 H :    0.015519
  82 H :    0.015819
  83 H :    0.036596
  84 H :    0.033043
  85 H :    0.031547
  86 H :    0.031935
  87 H :    0.032444
  88 H :    0.042549
  89 H :    0.039989
  90 H :    0.040384
  91 H :    0.024655

  Mayer bond orders larger than 0.100000
B(  0-C ,  1-C ) :   1.5259 B(  0-C ,  4-S ) :   1.1396 B(  0-C , 66-H ) :   0.9636
B(  1-C ,  2-C ) :   1.2740 B(  1-C , 67-H ) :   0.9991 B(  2-C ,  3-C ) :   1.3897
B(  2-C ,  7-C ) :   1.0426 B(  3-C ,  4-S ) :   1.1212 B(  3-C ,  5-C ) :   1.2595
B(  5-C ,  6-C ) :   1.3823 B(  5-C , 15-S ) :   1.0916 B(  6-C ,  7-C ) :   0.9628
B(  6-C , 13-C ) :   1.3768 B(  7-C ,  8-C ) :   1.7128 B(  8-C ,  9-C ) :   1.1371
B(  8-C , 11-C ) :   1.1329 B(  9-C , 10-N ) :   2.9546 B( 11-C , 12-N ) :   2.9952
B( 13-C , 14-C ) :   1.2844 B( 13-C , 68-H ) :   1.0106 B( 14-C , 15-S ) :   1.0725
B( 14-C , 16-C ) :   1.2913 B( 16-C , 17-C ) :   1.4203 B( 16-C , 69-H ) :   0.9719
B( 17-C , 18-C ) :   1.2256 B( 17-C , 21-S ) :   1.0538 B( 18-C , 19-C ) :   1.4900
B( 18-C , 70-H ) :   1.0017 B( 19-C , 20-C ) :   1.2714 B( 19-C , 71-H ) :   0.9952
B( 20-C , 21-S ) :   1.0649 B( 20-C , 22-C ) :   1.3645 B( 22-C , 23-C ) :   1.2645
B( 22-C , 26-S ) :   1.0880 B( 23-C , 24-C ) :   1.4982 B( 23-C , 72-H ) :   0.9963
B( 24-C , 25-C ) :   1.2196 B( 24-C , 73-H ) :   0.9975 B( 25-C , 26-S ) :   1.0676
B( 25-C , 27-C ) :   1.4536 B( 27-C , 28-C ) :   1.2350 B( 27-C , 74-H ) :   0.9616
B( 28-C , 29-C ) :   1.2394 B( 28-C , 35-C ) :   1.2130 B( 29-C , 30-O ) :   1.1416
B( 29-C , 32-C ) :   1.4094 B( 30-O , 31-C ) :   0.9436 B( 31-C , 75-H ) :   0.9727
B( 31-C , 76-H ) :   0.9692 B( 31-C , 77-H ) :   0.9664 B( 32-C , 33-C ) :   1.2175
B( 32-C , 78-H ) :   0.9559 B( 33-C , 34-C ) :   1.2259 B( 33-C , 38-C ) :   1.2702
B( 34-C , 35-C ) :   1.3915 B( 34-C , 36-O ) :   1.1589 B( 35-C , 79-H ) :   0.9970
B( 36-O , 37-C ) :   0.9655 B( 37-C , 80-H ) :   0.9786 B( 37-C , 81-H ) :   0.9681
B( 37-C , 82-H ) :   0.9680 B( 38-C , 39-C ) :   1.4230 B( 38-C , 83-H ) :   0.9663
B( 39-C , 40-C ) :   1.2314 B( 39-C , 43-S ) :   1.0462 B( 40-C , 41-C ) :   1.4881
B( 40-C , 84-H ) :   0.9984 B( 41-C , 42-C ) :   1.2750 B( 41-C , 85-H ) :   0.9955
B( 42-C , 43-S ) :   1.0665 B( 42-C , 44-C ) :   1.3707 B( 44-C , 45-C ) :   1.2705
B( 44-C , 48-S ) :   1.0641 B( 45-C , 46-C ) :   1.4922 B( 45-C , 86-H ) :   0.9959
B( 46-C , 47-C ) :   1.2239 B( 46-C , 87-H ) :   1.0014 B( 47-C , 48-S ) :   1.0521
B( 47-C , 49-C ) :   1.4230 B( 49-C , 50-C ) :   1.2977 B( 49-C , 88-H ) :   0.9686
B( 50-C , 51-C ) :   1.2887 B( 50-C , 54-S ) :   1.0686 B( 51-C , 52-C ) :   1.3821
B( 51-C , 89-H ) :   1.0073 B( 52-C , 53-C ) :   1.3783 B( 52-C , 57-C ) :   0.9652
B( 53-C , 54-S ) :   1.0920 B( 53-C , 55-C ) :   1.2634 B( 55-C , 56-C ) :   1.3891
B( 55-C , 65-S ) :   1.1151 B( 56-C , 57-C ) :   1.0435 B( 56-C , 63-C ) :   1.2732
B( 57-C , 58-C ) :   1.7121 B( 58-C , 59-C ) :   1.1330 B( 58-C , 61-C ) :   1.1371
B( 59-C , 60-N ) :   2.9959 B( 61-C , 62-N ) :   2.9514 B( 63-C , 64-C ) :   1.5272
B( 63-C , 90-H ) :   0.9992 B( 64-C , 65-S ) :   1.1388 B( 64-C , 91-H ) :   0.9637

-----------------------------------------------------------------------------
         ABSORPTION SPECTRUM VIA TRANSITION ELECTRIC DIPOLE MOMENTS
-----------------------------------------------------------------------------
State   Energy  Wavelength   fosc         T2         TX        TY        TZ
        (cm-1)    (nm)                  (au**2)     (au)      (au)      (au)
-----------------------------------------------------------------------------
   0    5713.6   1750.2   0.004842594   0.27903   0.25634   0.11449  -0.44744
   1    7260.9   1377.2   0.032632376   1.47956   0.69041   0.93991   0.34562
   2    8629.0   1158.9   0.106312787   4.05602  -1.10950   1.67650  -0.11986
   3    9192.9   1087.8   0.249774166   8.94477   1.36797   0.22537  -2.65003
   4   11654.6    858.0   0.206264265   5.82644  -0.97364   1.19241   1.85920
   5   11942.7    837.3   0.171797582   4.73576   0.68564   1.84949  -0.91926
   6   16170.1    618.4   1.281739247  26.09537   2.60294  -0.82631  -4.31709
   7   16524.5    605.2   0.684767209  13.64236  -1.13716  -3.44235   0.70672
   8   18744.4    533.5   0.011716239   0.20577  -0.26567  -0.20582   0.30468
   9   19685.9    508.0   0.112257303   1.87730   0.64475   1.17792   0.27223
  10   21733.2    460.1   0.102216810   1.54837   0.32588   1.20090  -0.00245
  11   21980.1    455.0   0.021373347   0.32012   0.28332  -0.15576  -0.46432
  12   23271.6    429.7   0.056752030   0.80284  -0.48420  -0.73979  -0.14526
  13   23686.9    422.2   0.034683237   0.48204  -0.03674   0.57013   0.39452
  14   24573.4    406.9   0.308316764   4.13054   0.70307   1.81907   0.57202
  15   24657.1    405.6   0.127715773   1.70521   0.68173   0.66696  -0.89197
  16   25342.0    394.6   0.417834861   5.42799   1.35642   1.81265   0.54991
  17   25972.7    385.0   0.048418730   0.61372  -0.47649  -0.60087  -0.16009
  18   26556.1    376.6   0.001203187   0.01492   0.07836   0.00292   0.09363
  19   26715.4    374.3   0.002044272   0.02519   0.10107   0.12166  -0.01327
  20   27400.5    365.0   0.228269106   2.74261  -0.29333   1.04731   1.24888
  21   27927.1    358.1   0.403171191   4.75269  -1.21300  -1.76158  -0.42208
  22   28262.7    353.8   0.021100004   0.24578   0.39221   0.10570  -0.28422
  23   28840.3    346.7   0.037432401   0.42729  -0.02283  -0.56042   0.33571
  24   28992.2    344.9   0.046766288   0.53104   0.43262  -0.01126  -0.58631
  25   29410.7    340.0   0.089859226   1.00585   0.73875  -0.08003  -0.67357
  26   29585.7    338.0   0.046544628   0.51792  -0.06401   0.13569  -0.70386
  27   29705.4    336.6   0.028627673   0.31727   0.16931   0.51228   0.16177
  28   30027.4    333.0   0.003729061   0.04088   0.19440   0.03911   0.03955
  29   30321.0    329.8   0.002813452   0.03055   0.16584  -0.00492   0.05495
  30   30430.0    328.6   0.013321056   0.14412   0.01667   0.31063  -0.21759
  31   30916.7    323.5   0.036270060   0.38622   0.26579  -0.40604  -0.38821
  32   31011.6    322.5   0.026137073   0.27746  -0.44863  -0.24884   0.11946
  33   31279.7    319.7   0.068611561   0.72212   0.01525   0.30999   0.79107
  34   31483.8    317.6   0.038807377   0.40579  -0.11674  -0.62406   0.05209
  35   32035.8    312.2   0.041714668   0.42868   0.14879   0.35510  -0.52957
  36   32395.1    308.7   0.020712638   0.21049  -0.07444  -0.35361  -0.28268
  37   32460.6    308.1   0.247277768   2.50787  -0.82564  -0.31953   1.31304
  38   32601.3    306.7   0.385821788   3.89607   1.09134  -0.30293  -1.61657
  39   32909.3    303.9   0.169177065   1.69238   0.79540  -0.21482  -1.00677
  40   33026.7    302.8   0.009866066   0.09835   0.15392  -0.27319   0.00489
  41   33494.1    298.6   0.174260906   1.71280  -0.31541  -1.21041  -0.38501
  42   33598.1    297.6   0.012038693   0.11796   0.06482   0.33630   0.02574
  43   33820.0    295.7   0.000843415   0.00821   0.00477   0.02640   0.08655
  44   34010.6    294.0   0.008270897   0.08006   0.12832  -0.03134  -0.25022
  45   34395.5    290.7   0.028059200   0.26856  -0.21607  -0.21794  -0.41759
  46   34618.8    288.9   0.070910011   0.67433   0.45711   0.45898  -0.50470
  47   34686.9    288.3   0.023669399   0.22465  -0.13529  -0.45417  -0.00828
  48   34989.6    285.8   0.128189463   1.20612   0.45477   0.97366   0.22644
  49   35264.1    283.6   0.033267733   0.31057  -0.23452   0.05164   0.50290
  50   35545.1    281.3   0.100633403   0.93205   0.40555  -0.20347  -0.85216
  51   35750.8    279.7   0.007651598   0.07046   0.14332  -0.08917  -0.20486
  52   35930.2    278.3   0.013313858   0.12199   0.19865  -0.23646  -0.16313
  53   36219.4    276.1   0.018550046   0.16861  -0.35023  -0.08644  -0.19616
  54   36394.1    274.8   0.017453838   0.15788  -0.30764  -0.04128   0.24807
  55   37127.5    269.3   0.002693093   0.02388  -0.10850  -0.04344   0.10109
  56   37189.3    268.9   0.014417726   0.12763  -0.08933  -0.18541   0.29202
  57   37332.8    267.9   0.039107506   0.34486   0.36411   0.27747  -0.36783
  58   37523.1    266.5   0.009515176   0.08348  -0.18436  -0.22147  -0.02102
  59   37798.5    264.6   0.094645615   0.82433  -0.43181   0.12064   0.78950
  60   37821.8    264.4   0.006647013   0.05786  -0.04698   0.20289   0.12037
  61   38142.6    262.2   0.025986308   0.22429   0.30823   0.08949  -0.34824
  62   38420.4    260.3   0.006391246   0.05476   0.17264   0.14447  -0.06394
  63   38770.2    257.9   0.049824063   0.42307  -0.02490   0.36257   0.53944
  64   38968.1    256.6   0.109446915   0.92463  -0.50861  -0.81604   0.00574
  65   39308.9    254.4   0.027639227   0.23148   0.14215   0.33679   0.31280
  66   39460.4    253.4   0.274913843   2.29356  -0.55240  -1.27655  -0.59903
  67   39717.1    251.8   0.029987639   0.24857   0.37415   0.31392   0.10018
  68   39754.9    251.5   0.002263793   0.01875   0.02084  -0.01154  -0.13483
  69   39847.5    251.0   0.029152376   0.24085  -0.22837  -0.43425   0.01128
  70   40000.7    250.0   0.030851595   0.25391   0.15918   0.23523   0.41622
  71   40254.3    248.4   0.014433181   0.11804  -0.05742  -0.33738  -0.03033

FINAL SINGLE POINT ENERGY     -5547.931605891181

DIPOLE MOMENT
-------------
                                X             Y             Z
Electronic contribution:    -24.38643       1.88949      40.89043
Nuclear contribution   :     27.16504      -2.03820     -45.72104
                        -----------------------------------------
Total Dipole Moment    :      2.77861      -0.14872      -4.83061
                        -----------------------------------------
Magnitude (a.u.)       :      5.57473
Magnitude (Debye)      :     14.16984

Rotational constants in cm-1:     0.001514     0.000836     0.000601
Rotational constants in MHz :    45.388352    25.073558    18.019503

                             ****ORCA TERMINATED NORMALLY****
TOTAL RUN TIME: 0 days 0 hours 12 minutes 51 seconds 279 msec
