                         Program Version 4.2.0 -  RELEASE  -
|  1> # ORCA input file
|  2> # SCF done       -191.906878482876          0.000719839036
|  3> ! CAM-B3LYP def2-SVP def2/J RIJCOSX Grid4 TightSCF
|  4> %maxcore 5000
|  5> %tddft
|  6>     Mode sTDDFT
|  7>     Ethresh 5.0
|  8>     maxcore 5000
|  9> end
| 10>
| 11> %pal
| 12>   nprocs 6
| 13>   end
| 14> * xyz 0 1
| 15>    C       -5.10562         2.87375        -2.37458
| 16>    C       -5.01689         3.41670        -3.62586
| 17>    F       -4.80747         4.73205        -3.77614
| 18>    C       -5.14276         2.60487        -4.77012
| 19>    F       -5.05034         3.16359        -5.98559
| 20>    C       -5.35598         1.26028        -4.64769
| 21>    C       -5.45071         0.67130        -3.37222
| 22>    C       -5.32370         1.49103        -2.21416
| 23>    C       -5.41209         0.92176        -0.92215
| 24>    C       -5.61630        -0.42591        -0.79312
| 25>    C       -5.73761        -1.23574        -1.95499
| 26>    C       -5.66317        -0.71653        -3.21491
| 27>    C       -5.92634        -2.63976        -1.55207
| 28>    O       -6.08540        -3.57238        -2.32986
| 29>    C       -5.87545        -2.65587        -0.08565
| 30>    C       -5.73762        -1.28939         0.38023
| 31>    C       -5.74489        -0.83874         1.67735
| 32>    C       -5.90121        -1.62320         2.83837
| 33>    N       -6.02871        -2.17465         3.83863
| 34>    C       -5.61397         0.51793         2.04020
| 35>    N       -5.50912         1.60053         2.40884
| 36>    C       -5.89003        -3.75110         0.75562
| 37>    C       -5.99601        -5.11825         0.49123
| 38>    N       -6.17641        -5.70333        -0.74375
| 39>    C       -6.21074        -7.03879        -0.57913
| 40>    C       -6.34603        -8.25256        -1.25008
| 41>    C       -6.24500        -9.25093        -0.27715
| 42>    N       -6.05946        -8.67726         0.96256
| 43>    C       -6.04611        -7.32445         0.81271
| 44>    C       -5.91975        -6.12875         1.48533
| 45>    C       -6.28619       -10.65793        -0.49948
| 46>    C       -5.95634       -11.58967         0.42104
| 47>    C       -5.94424       -13.01962         0.24921
| 48>    C       -5.26331       -13.80426         1.18966
| 49>    C       -5.19189       -15.16984         1.07155
| 50>    F       -4.49725       -15.83626         2.02698
| 51>    C       -5.81098       -15.88212         0.03425
| 52>    C       -6.51238       -15.10172        -0.89403
| 53>    C       -6.56427       -13.73175        -0.78911
| 54>    F       -7.26552       -13.07433        -1.73508
| 55>    C       -5.76238       -17.31705        -0.09251
| 56>    N       -4.82932       -18.09089         0.55930
| 57>    C       -5.04838       -19.39137         0.23692
| 58>    C       -4.58336       -20.68518         0.41812
| 59>    C       -5.45070       -21.51670        -0.31333
| 60>    N       -6.41046       -20.73939        -0.93518
| 61>    C       -6.16752       -19.44002        -0.63667
| 62>    C       -6.60551       -18.13450        -0.84924
| 63>    C       -5.36051       -22.92075        -0.40811
| 64>    C       -6.30737       -23.79793        -0.86058
| 65>    C       -7.67244       -23.51537        -1.04512
| 66>    C       -8.61742       -24.35237        -1.58101
| 67>    C      -10.04867       -24.16709        -1.25647
| 68>    O      -10.56162       -23.19076        -0.75273
| 69>    C      -10.69891       -25.44160        -1.63362
| 70>    C      -11.98668       -25.84328        -1.43111
| 71>    C      -12.37473       -27.13985        -1.83987
| 72>    C      -11.41633       -27.99529        -2.45609
| 73>    C      -11.80799       -29.28935        -2.85265
| 74>    C      -13.09082       -29.71420        -2.64784
| 75>    C      -14.03770       -28.86747        -2.03912
| 76>    C      -13.68876       -27.60643        -1.64376
| 77>    F      -15.28887       -29.31059        -1.84857
| 78>    F      -13.46057       -30.94621        -3.02509
| 79>    C      -10.09104       -27.54678        -2.66415
| 80>    C       -9.73880       -26.28825        -2.25916
| 81>    C       -8.47499       -25.55991        -2.35247
| 82>    C       -7.42909       -25.86913        -3.18768
| 83>    C       -6.38621       -24.96401        -3.46938
| 84>    N       -5.56236       -24.22000        -3.76332
| 85>    C       -7.35064       -27.05647        -3.94019
| 86>    N       -7.23463       -28.02082        -4.55291
| 87>    H       -5.00739         3.50966        -1.50862
| 88>    H       -5.44981         0.65221        -5.53380
| 89>    H       -5.30906         1.57119        -0.06846
| 90>    H       -5.76023        -1.35598        -4.07916
| 91>    H       -5.77985        -3.53970         1.81063
| 92>    H       -6.22752        -5.14494        -1.59848
| 93>    H       -6.48431        -8.41921        -2.29893
| 94>    H       -6.01263        -9.17963         1.83105
| 95>    H       -5.78540        -5.95149         2.53355
| 96>    H       -6.57178       -10.94716        -1.49848
| 97>    H       -5.60849       -11.26835         1.39499
| 98>    H       -4.76657       -13.33378         2.02429
| 99>    H       -7.01284       -15.57201        -1.72398
|100>    H       -4.11389       -17.74318         1.17380
|101>    H       -3.75889       -21.02223         1.01348
|102>    H       -7.06364       -21.08548        -1.61717
|103>    H       -7.43664       -17.81163        -1.44155
|104>    H       -4.40751       -23.32855        -0.09928
|105>    H       -5.99818       -24.82585        -0.99696
|106>    H       -8.07378       -22.62209        -0.57787
|107>    H      -12.70060       -25.18399        -0.96123
|108>    H      -11.09584       -29.94974        -3.32231
|109>    H      -14.42544       -26.97040        -1.17843
|110>    H       -9.38348       -28.21540        -3.12839
|111> *
|112>
|113>                          ****END OF INPUT****

CARTESIAN COORDINATES (ANGSTROEM)
---------------------------------
  C     -5.105620    2.873750   -2.374580
  C     -5.016890    3.416700   -3.625860
  F     -4.807470    4.732050   -3.776140
  C     -5.142760    2.604870   -4.770120
  F     -5.050340    3.163590   -5.985590
  C     -5.355980    1.260280   -4.647690
  C     -5.450710    0.671300   -3.372220
  C     -5.323700    1.491030   -2.214160
  C     -5.412090    0.921760   -0.922150
  C     -5.616300   -0.425910   -0.793120
  C     -5.737610   -1.235740   -1.954990
  C     -5.663170   -0.716530   -3.214910
  C     -5.926340   -2.639760   -1.552070
  O     -6.085400   -3.572380   -2.329860
  C     -5.875450   -2.655870   -0.085650
  C     -5.737620   -1.289390    0.380230
  C     -5.744890   -0.838740    1.677350
  C     -5.901210   -1.623200    2.838370
  N     -6.028710   -2.174650    3.838630
  C     -5.613970    0.517930    2.040200
  N     -5.509120    1.600530    2.408840
  C     -5.890030   -3.751100    0.755620
  C     -5.996010   -5.118250    0.491230
  N     -6.176410   -5.703330   -0.743750
  C     -6.210740   -7.038790   -0.579130
  C     -6.346030   -8.252560   -1.250080
  C     -6.245000   -9.250930   -0.277150
  N     -6.059460   -8.677260    0.962560
  C     -6.046110   -7.324450    0.812710
  C     -5.919750   -6.128750    1.485330
  C     -6.286190  -10.657930   -0.499480
  C     -5.956340  -11.589670    0.421040
  C     -5.944240  -13.019620    0.249210
  C     -5.263310  -13.804260    1.189660
  C     -5.191890  -15.169840    1.071550
  F     -4.497250  -15.836260    2.026980
  C     -5.810980  -15.882120    0.034250
  C     -6.512380  -15.101720   -0.894030
  C     -6.564270  -13.731750   -0.789110
  F     -7.265520  -13.074330   -1.735080
  C     -5.762380  -17.317050   -0.092510
  N     -4.829320  -18.090890    0.559300
  C     -5.048380  -19.391370    0.236920
  C     -4.583360  -20.685180    0.418120
  C     -5.450700  -21.516700   -0.313330
  N     -6.410460  -20.739390   -0.935180
  C     -6.167520  -19.440020   -0.636670
  C     -6.605510  -18.134500   -0.849240
  C     -5.360510  -22.920750   -0.408110
  C     -6.307370  -23.797930   -0.860580
  C     -7.672440  -23.515370   -1.045120
  C     -8.617420  -24.352370   -1.581010
  C    -10.048670  -24.167090   -1.256470
  O    -10.561620  -23.190760   -0.752730
  C    -10.698910  -25.441600   -1.633620
  C    -11.986680  -25.843280   -1.431110
  C    -12.374730  -27.139850   -1.839870
  C    -11.416330  -27.995290   -2.456090
  C    -11.807990  -29.289350   -2.852650
  C    -13.090820  -29.714200   -2.647840
  C    -14.037700  -28.867470   -2.039120
  C    -13.688760  -27.606430   -1.643760
  F    -15.288870  -29.310590   -1.848570
  F    -13.460570  -30.946210   -3.025090
  C    -10.091040  -27.546780   -2.664150
  C     -9.738800  -26.288250   -2.259160
  C     -8.474990  -25.559910   -2.352470
  C     -7.429090  -25.869130   -3.187680
  C     -6.386210  -24.964010   -3.469380
  N     -5.562360  -24.220000   -3.763320
  C     -7.350640  -27.056470   -3.940190
  N     -7.234630  -28.020820   -4.552910
  H     -5.007390    3.509660   -1.508620
  H     -5.449810    0.652210   -5.533800
  H     -5.309060    1.571190   -0.068460
  H     -5.760230   -1.355980   -4.079160
  H     -5.779850   -3.539700    1.810630
  H     -6.227520   -5.144940   -1.598480
  H     -6.484310   -8.419210   -2.298930
  H     -6.012630   -9.179630    1.831050
  H     -5.785400   -5.951490    2.533550
  H     -6.571780  -10.947160   -1.498480
  H     -5.608490  -11.268350    1.394990
  H     -4.766570  -13.333780    2.024290
  H     -7.012840  -15.572010   -1.723980
  H     -4.113890  -17.743180    1.173800
  H     -3.758890  -21.022230    1.013480
  H     -7.063640  -21.085480   -1.617170
  H     -7.436640  -17.811630   -1.441550
  H     -4.407510  -23.328550   -0.099280
  H     -5.998180  -24.825850   -0.996960
  H     -8.073780  -22.622090   -0.577870
  H    -12.700600  -25.183990   -0.961230
  H    -11.095840  -29.949740   -3.322310
  H    -14.425440  -26.970400   -1.178430
  H     -9.383480  -28.215400   -3.128390

 Total Charge           Charge          ....    0
 Multiplicity           Mult            ....    1
 Number of Electrons    NEL             ....  486
 Basis Dimension        Dim             .... 1128

ORBITAL ENERGIES
----------------

  NO   OCC          E(Eh)            E(eV)
   0   2.0000     -24.808219      -675.0659
   1   2.0000     -24.799886      -674.8392
   2   2.0000     -24.795036      -674.7072
   3   2.0000     -24.794876      -674.7029
   4   2.0000     -24.794079      -674.6812
   5   2.0000     -24.793865      -674.6754
   6   2.0000     -19.221493      -523.0434
   7   2.0000     -19.209633      -522.7207
   8   2.0000     -14.473580      -393.8461
   9   2.0000     -14.472445      -393.8152
  10   2.0000     -14.471744      -393.7962
  11   2.0000     -14.455725      -393.3603
  12   2.0000     -14.411771      -392.1642
  13   2.0000     -14.410298      -392.1241
  14   2.0000     -14.408825      -392.0841
  15   2.0000     -14.406663      -392.0252
  16   2.0000     -10.378442      -282.4118
  17   2.0000     -10.377637      -282.3899
  18   2.0000     -10.377461      -282.3851
  19   2.0000     -10.376988      -282.3722
  20   2.0000     -10.376970      -282.3717
  21   2.0000     -10.376874      -282.3691
  22   2.0000     -10.370564      -282.1974
  23   2.0000     -10.360795      -281.9316
  24   2.0000     -10.337450      -281.2963
  25   2.0000     -10.335256      -281.2366
  26   2.0000     -10.334863      -281.2259
  27   2.0000     -10.331970      -281.1472
  28   2.0000     -10.331837      -281.1436
  29   2.0000     -10.331466      -281.1335
  30   2.0000     -10.320170      -280.8261
  31   2.0000     -10.319682      -280.8128
  32   2.0000     -10.319004      -280.7944
  33   2.0000     -10.316711      -280.7320
  34   2.0000     -10.315331      -280.6944
  35   2.0000     -10.314733      -280.6782
  36   2.0000     -10.314328      -280.6671
  37   2.0000     -10.314176      -280.6630
  38   2.0000     -10.312473      -280.6167
  39   2.0000     -10.312441      -280.6158
  40   2.0000     -10.311606      -280.5931
  41   2.0000     -10.310844      -280.5723
  42   2.0000     -10.310621      -280.5663
  43   2.0000     -10.308087      -280.4973
  44   2.0000     -10.307769      -280.4886
  45   2.0000     -10.306327      -280.4494
  46   2.0000     -10.306147      -280.4445
  47   2.0000     -10.306021      -280.4411
  48   2.0000     -10.305744      -280.4336
  49   2.0000     -10.304307      -280.3944
  50   2.0000     -10.304160      -280.3905
  51   2.0000     -10.302818      -280.3539
  52   2.0000     -10.302756      -280.3522
  53   2.0000     -10.301627      -280.3215
  54   2.0000     -10.300292      -280.2852
  55   2.0000     -10.298654      -280.2406
  56   2.0000     -10.298165      -280.2273
  57   2.0000     -10.297780      -280.2168
  58   2.0000     -10.297620      -280.2125
  59   2.0000     -10.297455      -280.2080
  60   2.0000     -10.296726      -280.1881
  61   2.0000     -10.296615      -280.1851
  62   2.0000     -10.296547      -280.1833
  63   2.0000     -10.290450      -280.0174
  64   2.0000     -10.289902      -280.0025
  65   2.0000     -10.289258      -279.9849
  66   2.0000     -10.288935      -279.9761
  67   2.0000     -10.288014      -279.9511
  68   2.0000     -10.286365      -279.9062
  69   2.0000     -10.285854      -279.8923
  70   2.0000     -10.280655      -279.7508
  71   2.0000     -10.280435      -279.7449
  72   2.0000      -1.319890       -35.9160
  73   2.0000      -1.317050       -35.8387
  74   2.0000      -1.317039       -35.8384
  75   2.0000      -1.313675       -35.7469
  76   2.0000      -1.302241       -35.4358
  77   2.0000      -1.302217       -35.4351
  78   2.0000      -1.134517       -30.8718
  79   2.0000      -1.123724       -30.5781
  80   2.0000      -1.106461       -30.1083
  81   2.0000      -1.105045       -30.0698
  82   2.0000      -1.069810       -29.1110
  83   2.0000      -1.066130       -29.0109
  84   2.0000      -1.014503       -27.6060
  85   2.0000      -1.013768       -27.5860
  86   2.0000      -0.999652       -27.2019
  87   2.0000      -0.999280       -27.1918
  88   2.0000      -0.989780       -26.9333
  89   2.0000      -0.989234       -26.9184
  90   2.0000      -0.987444       -26.8697
  91   2.0000      -0.976620       -26.5752
  92   2.0000      -0.976485       -26.5715
  93   2.0000      -0.932435       -25.3728
  94   2.0000      -0.929201       -25.2848
  95   2.0000      -0.927595       -25.2412
  96   2.0000      -0.917700       -24.9719
  97   2.0000      -0.905641       -24.6437
  98   2.0000      -0.899794       -24.4846
  99   2.0000      -0.894291       -24.3349
 100   2.0000      -0.890889       -24.2423
 101   2.0000      -0.887757       -24.1571
 102   2.0000      -0.885217       -24.0880
 103   2.0000      -0.880736       -23.9660
 104   2.0000      -0.878071       -23.8935
 105   2.0000      -0.873984       -23.7823
 106   2.0000      -0.864548       -23.5256
 107   2.0000      -0.858028       -23.3481
 108   2.0000      -0.850580       -23.1455
 109   2.0000      -0.836315       -22.7573
 110   2.0000      -0.836267       -22.7560
 111   2.0000      -0.824242       -22.4288
 112   2.0000      -0.811561       -22.0837
 113   2.0000      -0.795723       -21.6527
 114   2.0000      -0.774846       -21.0846
 115   2.0000      -0.763805       -20.7842
 116   2.0000      -0.761458       -20.7203
 117   2.0000      -0.756314       -20.5804
 118   2.0000      -0.740436       -20.1483
 119   2.0000      -0.737728       -20.0746
 120   2.0000      -0.730657       -19.8822
 121   2.0000      -0.720609       -19.6088
 122   2.0000      -0.713486       -19.4149
 123   2.0000      -0.711750       -19.3677
 124   2.0000      -0.709005       -19.2930
 125   2.0000      -0.706611       -19.2279
 126   2.0000      -0.705809       -19.2060
 127   2.0000      -0.704294       -19.1648
 128   2.0000      -0.701461       -19.0877
 129   2.0000      -0.693519       -18.8716
 130   2.0000      -0.686056       -18.6685
 131   2.0000      -0.679349       -18.4860
 132   2.0000      -0.678448       -18.4615
 133   2.0000      -0.665981       -18.1223
 134   2.0000      -0.661666       -18.0048
 135   2.0000      -0.655951       -17.8493
 136   2.0000      -0.655179       -17.8283
 137   2.0000      -0.651380       -17.7250
 138   2.0000      -0.649759       -17.6809
 139   2.0000      -0.638639       -17.3783
 140   2.0000      -0.638111       -17.3639
 141   2.0000      -0.637165       -17.3381
 142   2.0000      -0.633356       -17.2345
 143   2.0000      -0.629270       -17.1233
 144   2.0000      -0.615797       -16.7567
 145   2.0000      -0.613111       -16.6836
 146   2.0000      -0.606253       -16.4970
 147   2.0000      -0.601480       -16.3671
 148   2.0000      -0.593883       -16.1604
 149   2.0000      -0.589745       -16.0478
 150   2.0000      -0.584969       -15.9178
 151   2.0000      -0.581815       -15.8320
 152   2.0000      -0.581782       -15.8311
 153   2.0000      -0.581388       -15.8204
 154   2.0000      -0.577842       -15.7239
 155   2.0000      -0.574750       -15.6398
 156   2.0000      -0.573015       -15.5925
 157   2.0000      -0.571077       -15.5398
 158   2.0000      -0.569181       -15.4882
 159   2.0000      -0.565216       -15.3803
 160   2.0000      -0.557363       -15.1666
 161   2.0000      -0.551531       -15.0079
 162   2.0000      -0.551166       -14.9980
 163   2.0000      -0.550064       -14.9680
 164   2.0000      -0.549991       -14.9660
 165   2.0000      -0.547095       -14.8872
 166   2.0000      -0.544765       -14.8238
 167   2.0000      -0.544424       -14.8145
 168   2.0000      -0.543547       -14.7907
 169   2.0000      -0.543500       -14.7894
 170   2.0000      -0.540217       -14.7001
 171   2.0000      -0.538456       -14.6521
 172   2.0000      -0.534661       -14.5489
 173   2.0000      -0.534323       -14.5397
 174   2.0000      -0.530915       -14.4469
 175   2.0000      -0.530693       -14.4409
 176   2.0000      -0.528559       -14.3828
 177   2.0000      -0.527247       -14.3471
 178   2.0000      -0.525249       -14.2928
 179   2.0000      -0.519951       -14.1486
 180   2.0000      -0.518467       -14.1082
 181   2.0000      -0.515982       -14.0406
 182   2.0000      -0.512927       -13.9574
 183   2.0000      -0.510470       -13.8906
 184   2.0000      -0.507254       -13.8031
 185   2.0000      -0.500936       -13.6312
 186   2.0000      -0.496696       -13.5158
 187   2.0000      -0.494342       -13.4517
 188   2.0000      -0.493216       -13.4211
 189   2.0000      -0.492828       -13.4105
 190   2.0000      -0.490957       -13.3596
 191   2.0000      -0.489929       -13.3316
 192   2.0000      -0.487956       -13.2779
 193   2.0000      -0.482746       -13.1362
 194   2.0000      -0.481474       -13.1016
 195   2.0000      -0.480106       -13.0643
 196   2.0000      -0.479189       -13.0394
 197   2.0000      -0.471078       -12.8187
 198   2.0000      -0.468466       -12.7476
 199   2.0000      -0.465927       -12.6785
 200   2.0000      -0.463986       -12.6257
 201   2.0000      -0.460487       -12.5305
 202   2.0000      -0.460199       -12.5227
 203   2.0000      -0.456774       -12.4295
 204   2.0000      -0.455462       -12.3937
 205   2.0000      -0.449943       -12.2436
 206   2.0000      -0.446490       -12.1496
 207   2.0000      -0.443949       -12.0805
 208   2.0000      -0.443513       -12.0686
 209   2.0000      -0.442693       -12.0463
 210   2.0000      -0.442161       -12.0318
 211   2.0000      -0.437885       -11.9155
 212   2.0000      -0.437355       -11.9010
 213   2.0000      -0.433026       -11.7832
 214   2.0000      -0.427908       -11.6440
 215   2.0000      -0.422910       -11.5080
 216   2.0000      -0.421170       -11.4606
 217   2.0000      -0.421047       -11.4573
 218   2.0000      -0.417554       -11.3622
 219   2.0000      -0.415858       -11.3161
 220   2.0000      -0.413823       -11.2607
 221   2.0000      -0.402736       -10.9590
 222   2.0000      -0.401020       -10.9123
 223   2.0000      -0.400139       -10.8883
 224   2.0000      -0.387336       -10.5399
 225   2.0000      -0.385022       -10.4770
 226   2.0000      -0.380698       -10.3593
 227   2.0000      -0.374838       -10.1999
 228   2.0000      -0.362509        -9.8644
 229   2.0000      -0.351228        -9.5574
 230   2.0000      -0.347130        -9.4459
 231   2.0000      -0.337347        -9.1797
 232   2.0000      -0.333881        -9.0854
 233   2.0000      -0.324721        -8.8361
 234   2.0000      -0.314649        -8.5620
 235   2.0000      -0.313160        -8.5215
 236   2.0000      -0.306876        -8.3505
 237   2.0000      -0.305039        -8.3005
 238   2.0000      -0.303179        -8.2499
 239   2.0000      -0.296282        -8.0623
 240   2.0000      -0.294277        -8.0077
 241   2.0000      -0.255294        -6.9469
 242   2.0000      -0.238248        -6.4831
 243   0.0000      -0.098222        -2.6727
 244   0.0000      -0.088956        -2.4206
 245   0.0000      -0.060865        -1.6562
 246   0.0000      -0.055752        -1.5171
 247   0.0000      -0.045895        -1.2489

MULLIKEN ATOMIC CHARGES
-----------------------
   0 C :   -0.108446
   1 C :    0.240620
   2 F :   -0.173040
   3 C :    0.236861
   4 F :   -0.174397
   5 C :   -0.106404
   6 C :    0.116473
   7 C :    0.114045
   8 C :   -0.085262
   9 C :    0.048878
  10 C :   -0.001104
  11 C :   -0.085668
  12 C :    0.172880
  13 O :   -0.219055
  14 C :   -0.091215
  15 C :    0.322372
  16 C :   -0.369481
  17 C :   -0.185568
  18 N :    0.141294
  19 C :   -0.184334
  20 N :    0.139264
  21 C :    0.010673
  22 C :    0.028080
  23 N :   -0.012090
  24 C :    0.134627
  25 C :   -0.163181
  26 C :    0.090400
  27 N :   -0.041291
  28 C :    0.141331
  29 C :   -0.159908
  30 C :    0.050069
  31 C :   -0.021030
  32 C :    0.049503
  33 C :   -0.096853
  34 C :    0.227592
  35 F :   -0.207967
  36 C :    0.060077
  37 C :   -0.088571
  38 C :    0.257891
  39 F :   -0.189043
  40 C :    0.065185
  41 N :   -0.028082
  42 C :    0.117070
  43 C :   -0.145459
  44 C :    0.061575
  45 N :   -0.029919
  46 C :    0.120453
  47 C :   -0.165867
  48 C :    0.051048
  49 C :    0.009836
  50 C :   -0.011565
  51 C :   -0.129810
  52 C :    0.142367
  53 O :   -0.153677
  54 C :    0.005951
  55 C :   -0.086473
  56 C :    0.112864
  57 C :    0.113920
  58 C :   -0.107708
  59 C :    0.239534
  60 C :    0.237957
  61 C :   -0.105618
  62 F :   -0.174082
  63 F :   -0.172783
  64 C :   -0.089718
  65 C :    0.048117
  66 C :    0.274813
  67 C :   -0.332832
  68 C :   -0.216373
  69 N :    0.158920
  70 C :   -0.173350
  71 N :    0.142063
  72 H :    0.006638
  73 H :   -0.002290
  74 H :   -0.007390
  75 H :   -0.013672
  76 H :   -0.009454
  77 H :    0.144313
  78 H :   -0.021680
  79 H :    0.129546
  80 H :   -0.007715
  81 H :    0.005325
  82 H :   -0.039260
  83 H :   -0.010216
  84 H :   -0.008097
  85 H :    0.132928
  86 H :   -0.024331
  87 H :    0.140095
  88 H :   -0.026101
  89 H :    0.004855
  90 H :    0.011376
  91 H :    0.013071
  92 H :   -0.012083
  93 H :    0.004926
  94 H :   -0.002174
  95 H :   -0.005991
Sum of atomic charges:   -0.0000000

LOEWDIN ATOMIC CHARGES
----------------------
   0 C :   -0.029404
   1 C :    0.065405
   2 F :   -0.050773
   3 C :    0.065918
   4 F :   -0.051774
   5 C :   -0.034371
   6 C :   -0.010583
   7 C :   -0.007047
   8 C :    0.015425
   9 C :   -0.020187
  10 C :   -0.049414
  11 C :    0.026478
  12 C :    0.095779
  13 O :   -0.171768
  14 C :   -0.127960
  15 C :    0.077936
  16 C :   -0.154313
  17 C :   -0.022783
  18 N :   -0.063328
  19 C :   -0.017701
  20 N :   -0.064480
  21 C :    0.059051
  22 C :   -0.014952
  23 N :    0.084585
  24 C :    0.014863
  25 C :   -0.088991
  26 C :    0.027328
  27 N :    0.063081
  28 C :   -0.018932
  29 C :   -0.044611
  30 C :   -0.015576
  31 C :   -0.029629
  32 C :   -0.045709
  33 C :   -0.032335
  34 C :    0.078195
  35 F :   -0.075615
  36 C :   -0.045479
  37 C :   -0.027259
  38 C :    0.090218
  39 F :   -0.061337
  40 C :    0.016155
  41 N :    0.076569
  42 C :   -0.023042
  43 C :   -0.058997
  44 C :   -0.009994
  45 N :    0.078581
  46 C :   -0.001498
  47 C :   -0.092316
  48 C :    0.031654
  49 C :   -0.057303
  50 C :    0.045356
  51 C :   -0.104932
  52 C :    0.078861
  53 O :   -0.155389
  54 C :   -0.052305
  55 C :    0.026760
  56 C :   -0.010484
  57 C :   -0.006794
  58 C :   -0.030819
  59 C :    0.065471
  60 C :    0.065546
  61 C :   -0.033843
  62 F :   -0.051789
  63 F :   -0.050880
  64 C :    0.011341
  65 C :   -0.018996
  66 C :    0.068069
  67 C :   -0.146221
  68 C :   -0.023161
  69 N :   -0.057909
  70 C :   -0.019811
  71 N :   -0.058034
  72 H :    0.047452
  73 H :    0.043774
  74 H :    0.039713
  75 H :    0.038427
  76 H :    0.051126
  77 H :    0.069164
  78 H :    0.030969
  79 H :    0.088733
  80 H :    0.035042
  81 H :    0.038048
  82 H :    0.022058
  83 H :    0.040472
  84 H :    0.042692
  85 H :    0.085029
  86 H :    0.029938
  87 H :    0.094135
  88 H :    0.027271
  89 H :    0.045703
  90 H :    0.037503
  91 H :    0.035666
  92 H :    0.039340
  93 H :    0.046778
  94 H :    0.044022
  95 H :    0.039150

  Mayer bond orders larger than 0.100000
B(  0-C ,  1-C ) :   1.4371 B(  0-C ,  5-C ) :   0.1085 B(  0-C ,  7-C ) :   1.1921
B(  0-C , 72-H ) :   1.0071 B(  1-C ,  2-F ) :   1.1327 B(  1-C ,  3-C ) :   1.1951
B(  3-C ,  4-F ) :   1.1313 B(  3-C ,  5-C ) :   1.4405 B(  5-C ,  6-C ) :   1.1940
B(  5-C , 73-H ) :   1.0073 B(  6-C ,  7-C ) :   1.2593 B(  6-C , 11-C ) :   1.1825
B(  7-C ,  8-C ) :   1.2078 B(  8-C ,  9-C ) :   1.4621 B(  8-C , 74-H ) :   0.9891
B(  9-C , 10-C ) :   1.2223 B(  9-C , 15-C ) :   0.9713 B( 10-C , 11-C ) :   1.4725
B( 10-C , 12-C ) :   0.9707 B( 11-C , 75-H ) :   1.0166 B( 12-C , 13-O ) :   2.0517
B( 12-C , 14-C ) :   0.9974 B( 13-O , 77-H ) :   0.1409 B( 14-C , 15-C ) :   1.1181
B( 14-C , 21-C ) :   1.3799 B( 15-C , 16-C ) :   1.5980 B( 16-C , 17-C ) :   1.1441
B( 16-C , 19-C ) :   1.1531 B( 17-C , 18-N ) :   2.9607 B( 19-C , 20-N ) :   2.9555
B( 21-C , 22-C ) :   1.3277 B( 21-C , 76-H ) :   0.9238 B( 22-C , 23-N ) :   1.2085
B( 22-C , 29-C ) :   1.2214 B( 23-N , 24-C ) :   1.2411 B( 23-N , 77-H ) :   0.8585
B( 24-C , 25-C ) :   1.2321 B( 24-C , 28-C ) :   1.2391 B( 25-C , 26-C ) :   1.3699
B( 25-C , 78-H ) :   1.0450 B( 26-C , 27-N ) :   1.2037 B( 26-C , 30-C ) :   1.1344
B( 27-N , 28-C ) :   1.1405 B( 27-N , 79-H ) :   0.9310 B( 28-C , 29-C ) :   1.3276
B( 29-C , 80-H ) :   1.0463 B( 30-C , 31-C ) :   1.6531 B( 30-C , 81-H ) :   0.9604
B( 31-C , 32-C ) :   1.1100 B( 31-C , 82-H ) :   0.9708 B( 32-C , 33-C ) :   1.2719
B( 32-C , 38-C ) :   1.2813 B( 33-C , 34-C ) :   1.3841 B( 33-C , 83-H ) :   1.0009
B( 34-C , 35-F ) :   1.0833 B( 34-C , 36-C ) :   1.2878 B( 36-C , 37-C ) :   1.3040
B( 36-C , 40-C ) :   1.0195 B( 37-C , 38-C ) :   1.3949 B( 37-C , 84-H ) :   0.9923
B( 38-C , 39-F ) :   1.0912 B( 40-C , 41-N ) :   1.2284 B( 40-C , 47-C ) :   1.4254
B( 41-N , 42-C ) :   1.1649 B( 41-N , 85-H ) :   0.9208 B( 42-C , 43-C ) :   1.2812
B( 42-C , 46-C ) :   1.2888 B( 43-C , 44-C ) :   1.3190 B( 43-C , 86-H ) :   1.0422
B( 44-C , 45-N ) :   1.1647 B( 44-C , 48-C ) :   1.2085 B( 45-N , 46-C ) :   1.1964
B( 45-N , 87-H ) :   0.9243 B( 46-C , 47-C ) :   1.2529 B( 47-C , 88-H ) :   1.0265
B( 48-C , 49-C ) :   1.5856 B( 48-C , 89-H ) :   0.9566 B( 49-C , 50-C ) :   1.1819
B( 49-C , 90-H ) :   0.9460 B( 50-C , 51-C ) :   1.5706 B( 50-C , 91-H ) :   0.9371
B( 51-C , 52-C ) :   0.9577 B( 51-C , 66-C ) :   1.0746 B( 52-C , 53-O ) :   2.2576
B( 52-C , 54-C ) :   0.9148 B( 54-C , 55-C ) :   1.4837 B( 54-C , 65-C ) :   1.2180
B( 55-C , 56-C ) :   1.1884 B( 55-C , 92-H ) :   1.0148 B( 56-C , 57-C ) :   1.2598
B( 56-C , 61-C ) :   1.1968 B( 57-C , 58-C ) :   1.1917 B( 57-C , 64-C ) :   1.2077
B( 58-C , 59-C ) :   1.4399 B( 58-C , 61-C ) :   0.1090 B( 58-C , 93-H ) :   1.0058
B( 59-C , 60-C ) :   1.1947 B( 59-C , 63-F ) :   1.1329 B( 60-C , 61-C ) :   1.4412
B( 60-C , 62-F ) :   1.1311 B( 61-C , 94-H ) :   1.0058 B( 64-C , 65-C ) :   1.4645
B( 64-C , 95-H ) :   0.9929 B( 65-C , 66-C ) :   0.9943 B( 66-C , 67-C ) :   1.6219
B( 67-C , 68-C ) :   1.1606 B( 67-C , 70-C ) :   1.1336 B( 68-C , 69-N ) :   3.0134
B( 70-C , 71-N ) :   2.9756

-----------------------------------------------------------------------------
         ABSORPTION SPECTRUM VIA TRANSITION ELECTRIC DIPOLE MOMENTS
-----------------------------------------------------------------------------
State   Energy  Wavelength   fosc         T2         TX        TY        TZ
        (cm-1)    (nm)                  (au**2)     (au)      (au)      (au)
-----------------------------------------------------------------------------
   0   15938.2    627.4   2.776933071  57.35901  -1.66646  -7.30835  -1.08161
   1   18964.2    527.3   0.768722329  13.34473  -0.67972   3.50159  -0.78839
   2   24232.8    412.7   0.130560458   1.77372  -0.00671   0.85652  -1.01982
   3   24382.3    410.1   0.016809513   0.22696   0.18954   0.22417   0.37522
   4   25260.6    395.9   0.027555738   0.35912   0.44796   0.39649  -0.03534
   5   26496.2    377.4   0.054127012   0.67252   0.67467  -0.40856   0.22457
   6   27786.8    359.9   0.058814614   0.69682  -0.00381   0.20919   0.80811
   7   27904.9    358.4   0.116371395   1.37291   1.09377   0.35093  -0.23114
   8   28193.7    354.7   0.049349469   0.57624  -0.08336  -0.69951   0.28280
   9   28982.3    345.0   0.051110765   0.58057   0.17805   0.73182   0.11535
  10   29207.5    342.4   0.290686505   3.27647   0.15444   1.57439  -0.87972
  11   29503.0    338.9   0.185307289   2.06777   0.16395  -1.40144  -0.27725
  12   30120.6    332.0   0.037209265   0.40669   0.53235   0.32113  -0.14201
  13   30211.1    331.0   0.013237926   0.14425  -0.03678   0.33687   0.17153
  14   32324.2    309.4   0.018663288   0.19008  -0.05065  -0.35573   0.24692
  15   32338.4    309.2   0.008764189   0.08922  -0.04531   0.25059  -0.15611
  16   32701.6    305.8   0.087213536   0.87799  -0.33242   0.34414  -0.80564
  17   33657.1    297.1   0.040901594   0.40007   0.38050  -0.49965   0.07511
  18   33733.0    296.4   0.231946196   2.26364  -1.39004  -0.40716   0.40700
  19   34241.9    292.0   0.400180753   3.84746   0.71540   1.05482  -1.49098
  20   34611.0    288.9   0.299112414   2.84509   1.18525   0.72953  -0.95292
  21   34768.0    287.6   0.200681990   1.90022  -0.22264   0.27202  -1.33291
  22   35284.1    283.4   0.483554229   4.51171   2.04908   0.46812   0.30637
  23   35700.5    280.1   0.263912297   2.43367   0.03716  -0.05990  -1.55843
  24   35878.3    278.7   0.025330982   0.23243  -0.01095  -0.06078  -0.47814
  25   36049.1    277.4   0.001162002   0.01061  -0.04906  -0.02964   0.08560
  26   36261.2    275.8   0.010154012   0.09219   0.02270   0.13112   0.27291
  27   36429.8    274.5   0.052531887   0.47472   0.47119  -0.03980   0.50112
  28   36593.6    273.3   0.010635072   0.09568  -0.21419  -0.00207   0.22315
  29   37149.2    269.2   0.006462704   0.05727   0.03228   0.23703   0.00689
  30   37566.1    266.2   0.071385724   0.62559  -0.67833  -0.36951  -0.17008
  31   38382.3    260.5   0.132297273   1.13474   0.47300  -0.47179  -0.82971
  32   38623.6    258.9   0.040645684   0.34645   0.03478   0.36603   0.45963
  33   39192.2    255.2   0.054496805   0.45777   0.62420   0.15161  -0.21249
  34   39369.8    254.0   0.029255070   0.24463  -0.11211   0.40502   0.26080
  35   39809.5    251.2   0.045313794   0.37473  -0.20171   0.55896   0.14701
  36   39952.9    250.3   0.138544167   1.14160   0.43935   0.64500   0.72976

FINAL SINGLE POINT ENERGY     -3331.786175090390

DIPOLE MOMENT
-------------
                                X             Y             Z
Electronic contribution:    -13.70265       9.23978     -13.73427
Nuclear contribution   :     14.27283     -10.29262      14.36607
                        -----------------------------------------
Total Dipole Moment    :      0.57018      -1.05283       0.63180
                        -----------------------------------------
Magnitude (a.u.)       :      1.35379
Magnitude (Debye)      :      3.44105

Rotational constants in cm-1:     0.002325     0.000133     0.000131
Rotational constants in MHz :    69.688474     3.976691     3.930541

                             ****ORCA TERMINATED NORMALLY****
TOTAL RUN TIME: 0 days 0 hours 8 minutes 32 seconds 804 msec
