                         Program Version 4.2.0 -  RELEASE  -
|  1> # ORCA input file
|  2> # SCF done       -195.136184850002          0.000728269457
|  3> ! CAM-B3LYP def2-SVP def2/J RIJCOSX Grid4 TightSCF
|  4> %maxcore 5000
|  5> %tddft
|  6>     Mode sTDDFT
|  7>     Ethresh 5.0
|  8>     maxcore 5000
|  9> end
| 10>
| 11> %pal
| 12>   nprocs 6
| 13>   end
| 14> * xyz 0 1
| 15>    C       -3.84951        -2.27731        -3.63202
| 16>    C       -4.85492        -1.44126        -4.01107
| 17>    C       -4.63450        -0.13075        -3.54467
| 18>    C       -3.44624        -0.01692        -2.81370
| 19>    S       -2.61078        -1.50034        -2.70098
| 20>    C       -3.30424         1.33405        -2.38373
| 21>    C       -4.40490         2.06504        -2.84720
| 22>    C       -5.28050         1.16739        -3.59224
| 23>    C       -6.45896         1.48900        -4.19971
| 24>    C       -6.98570         2.79714        -4.16970
| 25>    N       -7.41664         3.85982        -4.14649
| 26>    C       -7.23055         0.53620        -4.89730
| 27>    N       -7.86158        -0.23417        -5.46579
| 28>    C       -4.35990         3.41084        -2.47746
| 29>    C       -3.23214         3.70364        -1.73506
| 30>    S       -2.21079         2.29449        -1.49080
| 31>    C       -2.85471         4.95787        -1.18830
| 32>    C       -1.73859         5.24732        -0.42787
| 33>    C       -1.69379         6.59270        -0.05746
| 34>    C       -2.78404         7.32971        -0.54323
| 35>    S       -3.86605         6.37201        -1.45300
| 36>    C       -2.64723         8.67649        -0.11174
| 37>    C       -1.47404         8.78712         0.64644
| 38>    C       -0.83347         7.48357         0.70766
| 39>    C        0.32679         7.15987         1.34781
| 40>    C        1.07667         8.11259         2.06844
| 41>    N        1.68576         8.88558         2.65716
| 42>    C        0.85294         5.85122         1.33055
| 43>    N        1.28138         4.78754         1.31658
| 44>    C       -1.25220        10.08552         1.11800
| 45>    C       -2.23953        10.96373         0.72634
| 46>    S       -3.46883        10.16384        -0.24671
| 47>    C       -2.35878        12.37210         1.01380
| 48>    C       -1.48559        12.99849         1.91412
| 49>    C       -1.59334        14.34471         2.19741
| 50>    C       -2.58706        15.08771         1.57602
| 51>    C       -3.46888        14.47156         0.67149
| 52>    C       -3.36000        13.13306         0.39255
| 53>    C       -4.45902        15.47248         0.12102
| 54>    C       -4.30594        15.62088        -1.39607
| 55>    C       -5.89687        15.08623         0.48020
| 56>    C       -4.03605        16.73538         0.83619
| 57>    C       -4.57841        17.99203         0.74738
| 58>    C       -4.03296        19.04067         1.50274
| 59>    C       -2.93643        18.78111         2.33702
| 60>    C       -2.38873        17.51791         2.42849
| 61>    C       -2.93807        16.48803         1.67803
| 62>    C       -4.60254        20.36307         1.41926
| 63>    C       -4.16465        21.52845         2.01082
| 64>    C       -4.98016        22.62303         1.70435
| 65>    C       -6.05360        22.28535         0.86931
| 66>    S       -6.05582        20.63008         0.46234
| 67>    C       -6.81817        23.45592         0.61650
| 68>    C       -6.22412        24.53155         1.29332
| 69>    C       -5.04880        24.04444         2.00094
| 70>    C       -4.19544        24.77070         2.77887
| 71>    C       -4.36868        26.15409         2.99265
| 72>    N       -4.50708        27.27896         3.16720
| 73>    C       -3.08457        24.18545         3.42156
| 74>    N       -2.18240        23.71065         3.94654
| 75>    C       -6.90574        25.73541         1.10573
| 76>    C       -8.01200        25.58145         0.29308
| 77>    S       -8.21482        23.92086        -0.24910
| 78>    C       -8.93398        26.57949        -0.11717
| 79>    C      -10.04634        26.42277        -0.92153
| 80>    C      -10.72035        27.62966        -1.11892
| 81>    C      -10.11521        28.70739        -0.46098
| 82>    S       -8.71787        28.24389         0.40405
| 83>    C      -10.87405        29.88325        -0.72852
| 84>    C      -11.95275        29.54123        -1.55242
| 85>    C      -11.89856        28.11783        -1.82701
| 86>    C      -12.76268        27.38271        -2.58479
| 87>    C      -13.87737        27.95981        -3.22859
| 88>    N      -14.78516        28.42295        -3.75435
| 89>    C      -12.59895        25.99473        -2.77485
| 90>    N      -12.46757        24.86626        -2.93170
| 91>    C      -12.75928        30.65129        -1.87010
| 92>    C      -12.28525        31.78923        -1.29238
| 93>    S      -10.85107        31.54655        -0.34901
| 94>    H       -3.75036        -3.32336        -3.84205
| 95>    H       -5.70358        -1.75268        -4.59208
| 96>    H       -5.10117         4.14870        -2.72706
| 97>    H       -1.00551         4.50625        -0.16400
| 98>    H       -0.40284        10.37046         1.71035
| 99>    H       -0.71924        12.41835         2.40299
|100>    H       -0.91335        14.80848         2.89565
|101>    H       -4.03519        12.65694        -0.30442
|102>    H       -4.54747        14.68425        -1.89252
|103>    H       -3.28293        15.89369        -1.64657
|104>    H       -4.97315        16.39442        -1.76830
|105>    H       -6.16080        14.14037         0.01357
|106>    H       -6.58965        15.84975         0.13503
|107>    H       -6.00121        14.98341         1.55824
|108>    H       -5.42219        18.18507         0.09998
|109>    H       -2.51365        19.58014         2.92482
|110>    H       -1.54598        17.33767         3.07834
|111>    H       -3.29088        21.58924         2.63231
|112>    H       -6.62338        26.68134         1.53202
|113>    H      -10.33786        25.47374        -1.33455
|114>    H      -13.63778        30.61638        -2.48805
|115>    H      -12.69155        32.77850        -1.35880
|116> *
|117>
|118>                          ****END OF INPUT****

CARTESIAN COORDINATES (ANGSTROEM)
---------------------------------
  C     -3.849510   -2.277310   -3.632020
  C     -4.854920   -1.441260   -4.011070
  C     -4.634500   -0.130750   -3.544670
  C     -3.446240   -0.016920   -2.813700
  S     -2.610780   -1.500340   -2.700980
  C     -3.304240    1.334050   -2.383730
  C     -4.404900    2.065040   -2.847200
  C     -5.280500    1.167390   -3.592240
  C     -6.458960    1.489000   -4.199710
  C     -6.985700    2.797140   -4.169700
  N     -7.416640    3.859820   -4.146490
  C     -7.230550    0.536200   -4.897300
  N     -7.861580   -0.234170   -5.465790
  C     -4.359900    3.410840   -2.477460
  C     -3.232140    3.703640   -1.735060
  S     -2.210790    2.294490   -1.490800
  C     -2.854710    4.957870   -1.188300
  C     -1.738590    5.247320   -0.427870
  C     -1.693790    6.592700   -0.057460
  C     -2.784040    7.329710   -0.543230
  S     -3.866050    6.372010   -1.453000
  C     -2.647230    8.676490   -0.111740
  C     -1.474040    8.787120    0.646440
  C     -0.833470    7.483570    0.707660
  C      0.326790    7.159870    1.347810
  C      1.076670    8.112590    2.068440
  N      1.685760    8.885580    2.657160
  C      0.852940    5.851220    1.330550
  N      1.281380    4.787540    1.316580
  C     -1.252200   10.085520    1.118000
  C     -2.239530   10.963730    0.726340
  S     -3.468830   10.163840   -0.246710
  C     -2.358780   12.372100    1.013800
  C     -1.485590   12.998490    1.914120
  C     -1.593340   14.344710    2.197410
  C     -2.587060   15.087710    1.576020
  C     -3.468880   14.471560    0.671490
  C     -3.360000   13.133060    0.392550
  C     -4.459020   15.472480    0.121020
  C     -4.305940   15.620880   -1.396070
  C     -5.896870   15.086230    0.480200
  C     -4.036050   16.735380    0.836190
  C     -4.578410   17.992030    0.747380
  C     -4.032960   19.040670    1.502740
  C     -2.936430   18.781110    2.337020
  C     -2.388730   17.517910    2.428490
  C     -2.938070   16.488030    1.678030
  C     -4.602540   20.363070    1.419260
  C     -4.164650   21.528450    2.010820
  C     -4.980160   22.623030    1.704350
  C     -6.053600   22.285350    0.869310
  S     -6.055820   20.630080    0.462340
  C     -6.818170   23.455920    0.616500
  C     -6.224120   24.531550    1.293320
  C     -5.048800   24.044440    2.000940
  C     -4.195440   24.770700    2.778870
  C     -4.368680   26.154090    2.992650
  N     -4.507080   27.278960    3.167200
  C     -3.084570   24.185450    3.421560
  N     -2.182400   23.710650    3.946540
  C     -6.905740   25.735410    1.105730
  C     -8.012000   25.581450    0.293080
  S     -8.214820   23.920860   -0.249100
  C     -8.933980   26.579490   -0.117170
  C    -10.046340   26.422770   -0.921530
  C    -10.720350   27.629660   -1.118920
  C    -10.115210   28.707390   -0.460980
  S     -8.717870   28.243890    0.404050
  C    -10.874050   29.883250   -0.728520
  C    -11.952750   29.541230   -1.552420
  C    -11.898560   28.117830   -1.827010
  C    -12.762680   27.382710   -2.584790
  C    -13.877370   27.959810   -3.228590
  N    -14.785160   28.422950   -3.754350
  C    -12.598950   25.994730   -2.774850
  N    -12.467570   24.866260   -2.931700
  C    -12.759280   30.651290   -1.870100
  C    -12.285250   31.789230   -1.292380
  S    -10.851070   31.546550   -0.349010
  H     -3.750360   -3.323360   -3.842050
  H     -5.703580   -1.752680   -4.592080
  H     -5.101170    4.148700   -2.727060
  H     -1.005510    4.506250   -0.164000
  H     -0.402840   10.370460    1.710350
  H     -0.719240   12.418350    2.402990
  H     -0.913350   14.808480    2.895650
  H     -4.035190   12.656940   -0.304420
  H     -4.547470   14.684250   -1.892520
  H     -3.282930   15.893690   -1.646570
  H     -4.973150   16.394420   -1.768300
  H     -6.160800   14.140370    0.013570
  H     -6.589650   15.849750    0.135030
  H     -6.001210   14.983410    1.558240
  H     -5.422190   18.185070    0.099980
  H     -2.513650   19.580140    2.924820
  H     -1.545980   17.337670    3.078340
  H     -3.290880   21.589240    2.632310
  H     -6.623380   26.681340    1.532020
  H    -10.337860   25.473740   -1.334550
  H    -13.637780   30.616380   -2.488050
  H    -12.691550   32.778500   -1.358800

 Total Charge           Charge          ....    0
 Multiplicity           Mult            ....    1
 Number of Electrons    NEL             ....  584
 Basis Dimension        Dim             .... 1248

ORBITAL ENERGIES
----------------

  NO   OCC          E(Eh)            E(eV)
   0   2.0000     -88.990946     -2421.5668
   1   2.0000     -88.990857     -2421.5643
   2   2.0000     -88.990655     -2421.5588
   3   2.0000     -88.990565     -2421.5564
   4   2.0000     -88.986881     -2421.4561
   5   2.0000     -88.986845     -2421.4552
   6   2.0000     -88.986002     -2421.4322
   7   2.0000     -88.985909     -2421.4297
   8   2.0000     -14.430726      -392.6800
   9   2.0000     -14.430659      -392.6782
  10   2.0000     -14.430262      -392.6674
  11   2.0000     -14.430164      -392.6647
  12   2.0000     -14.430001      -392.6603
  13   2.0000     -14.429922      -392.6581
  14   2.0000     -14.428704      -392.6250
  15   2.0000     -14.428605      -392.6223
  16   2.0000     -10.363869      -282.0152
  17   2.0000     -10.363838      -282.0144
  18   2.0000     -10.362825      -281.9868
  19   2.0000     -10.362791      -281.9859
  20   2.0000     -10.351468      -281.6778
  21   2.0000     -10.351421      -281.6765
  22   2.0000     -10.350657      -281.6557
  23   2.0000     -10.350616      -281.6546
  24   2.0000     -10.331692      -281.1396
  25   2.0000     -10.331681      -281.1393
  26   2.0000     -10.331292      -281.1287
  27   2.0000     -10.331226      -281.1269
  28   2.0000     -10.330817      -281.1158
  29   2.0000     -10.330704      -281.1127
  30   2.0000     -10.330642      -281.1110
  31   2.0000     -10.330574      -281.1092
  32   2.0000     -10.330307      -281.1019
  33   2.0000     -10.330292      -281.1015
  34   2.0000     -10.329328      -281.0753
  35   2.0000     -10.329223      -281.0724
  36   2.0000     -10.329118      -281.0696
  37   2.0000     -10.329092      -281.0689
  38   2.0000     -10.329023      -281.0670
  39   2.0000     -10.329011      -281.0667
  40   2.0000     -10.328988      -281.0660
  41   2.0000     -10.328923      -281.0643
  42   2.0000     -10.328291      -281.0471
  43   2.0000     -10.328143      -281.0431
  44   2.0000     -10.319375      -280.8045
  45   2.0000     -10.319342      -280.8036
  46   2.0000     -10.310760      -280.5700
  47   2.0000     -10.310647      -280.5670
  48   2.0000     -10.302402      -280.3426
  49   2.0000     -10.302364      -280.3416
  50   2.0000     -10.302121      -280.3350
  51   2.0000     -10.302088      -280.3341
  52   2.0000     -10.301914      -280.3293
  53   2.0000     -10.301898      -280.3289
  54   2.0000     -10.301473      -280.3173
  55   2.0000     -10.301464      -280.3171
  56   2.0000     -10.299484      -280.2632
  57   2.0000     -10.299434      -280.2619
  58   2.0000     -10.298239      -280.2293
  59   2.0000     -10.298196      -280.2282
  60   2.0000     -10.296790      -280.1899
  61   2.0000     -10.296777      -280.1895
  62   2.0000     -10.296303      -280.1766
  63   2.0000     -10.296208      -280.1741
  64   2.0000     -10.295573      -280.1568
  65   2.0000     -10.295509      -280.1550
  66   2.0000     -10.292190      -280.0647
  67   2.0000     -10.282044      -279.7887
  68   2.0000     -10.281940      -279.7858
  69   2.0000     -10.280731      -279.7529
  70   2.0000     -10.280631      -279.7502
  71   2.0000     -10.280287      -279.7408
  72   2.0000     -10.280193      -279.7383
  73   2.0000     -10.279663      -279.7238
  74   2.0000     -10.279533      -279.7203
  75   2.0000     -10.278586      -279.6945
  76   2.0000     -10.278482      -279.6917
  77   2.0000     -10.268189      -279.4116
  78   2.0000     -10.268082      -279.4087
  79   2.0000      -8.085301      -220.0122
  80   2.0000      -8.085299      -220.0122
  81   2.0000      -8.085029      -220.0048
  82   2.0000      -8.085019      -220.0046
  83   2.0000      -8.081920      -219.9202
  84   2.0000      -8.081887      -219.9193
  85   2.0000      -8.080385      -219.8784
  86   2.0000      -8.080337      -219.8771
  87   2.0000      -6.054616      -164.7545
  88   2.0000      -6.054595      -164.7539
  89   2.0000      -6.054335      -164.7468
  90   2.0000      -6.054304      -164.7460
  91   2.0000      -6.051162      -164.6605
  92   2.0000      -6.051140      -164.6599
  93   2.0000      -6.050433      -164.6407
  94   2.0000      -6.050427      -164.6405
  95   2.0000      -6.050166      -164.6334
  96   2.0000      -6.050164      -164.6333
  97   2.0000      -6.049562      -164.6170
  98   2.0000      -6.049523      -164.6159
  99   2.0000      -6.047592      -164.5633
 100   2.0000      -6.047567      -164.5627
 101   2.0000      -6.047320      -164.5560
 102   2.0000      -6.047290      -164.5551
 103   2.0000      -6.046722      -164.5397
 104   2.0000      -6.046681      -164.5385
 105   2.0000      -6.045428      -164.5045
 106   2.0000      -6.045367      -164.5028
 107   2.0000      -6.044533      -164.4801
 108   2.0000      -6.044495      -164.4791
 109   2.0000      -6.042908      -164.4359
 110   2.0000      -6.042852      -164.4344
 111   2.0000      -1.044586       -28.4246
 112   2.0000      -1.044579       -28.4244
 113   2.0000      -1.041339       -28.3363
 114   2.0000      -1.041333       -28.3361
 115   2.0000      -1.022299       -27.8182
 116   2.0000      -1.022250       -27.8168
 117   2.0000      -1.020648       -27.7732
 118   2.0000      -1.020622       -27.7725
 119   2.0000      -1.008279       -27.4367
 120   2.0000      -1.008218       -27.4350
 121   2.0000      -1.006987       -27.4015
 122   2.0000      -1.006965       -27.4009
 123   2.0000      -1.003721       -27.3126
 124   2.0000      -1.002777       -27.2869
 125   2.0000      -0.996419       -27.1139
 126   2.0000      -0.989250       -26.9189
 127   2.0000      -0.987018       -26.8581
 128   2.0000      -0.964445       -26.2439
 129   2.0000      -0.960657       -26.1408
 130   2.0000      -0.953976       -25.9590
 131   2.0000      -0.952942       -25.9309
 132   2.0000      -0.947405       -25.7802
 133   2.0000      -0.926079       -25.1999
 134   2.0000      -0.915765       -24.9192
 135   2.0000      -0.912754       -24.8373
 136   2.0000      -0.900799       -24.5120
 137   2.0000      -0.900497       -24.5038
 138   2.0000      -0.881812       -23.9953
 139   2.0000      -0.869814       -23.6688
 140   2.0000      -0.867375       -23.6025
 141   2.0000      -0.867292       -23.6002
 142   2.0000      -0.866356       -23.5747
 143   2.0000      -0.855749       -23.2861
 144   2.0000      -0.854532       -23.2530
 145   2.0000      -0.850897       -23.1541
 146   2.0000      -0.848657       -23.0931
 147   2.0000      -0.844792       -22.9880
 148   2.0000      -0.839410       -22.8415
 149   2.0000      -0.829474       -22.5711
 150   2.0000      -0.825835       -22.4721
 151   2.0000      -0.813634       -22.1401
 152   2.0000      -0.786087       -21.3905
 153   2.0000      -0.780290       -21.2328
 154   2.0000      -0.778770       -21.1914
 155   2.0000      -0.776178       -21.1209
 156   2.0000      -0.773584       -21.0503
 157   2.0000      -0.773545       -21.0492
 158   2.0000      -0.765884       -20.8408
 159   2.0000      -0.748879       -20.3780
 160   2.0000      -0.737796       -20.0764
 161   2.0000      -0.727929       -19.8080
 162   2.0000      -0.713728       -19.4215
 163   2.0000      -0.706085       -19.2136
 164   2.0000      -0.702279       -19.1100
 165   2.0000      -0.702170       -19.1070
 166   2.0000      -0.696434       -18.9509
 167   2.0000      -0.691928       -18.8283
 168   2.0000      -0.685009       -18.6401
 169   2.0000      -0.683160       -18.5897
 170   2.0000      -0.680217       -18.5097
 171   2.0000      -0.674835       -18.3632
 172   2.0000      -0.670201       -18.2371
 173   2.0000      -0.668604       -18.1937
 174   2.0000      -0.663482       -18.0543
 175   2.0000      -0.655441       -17.8355
 176   2.0000      -0.645480       -17.5644
 177   2.0000      -0.632558       -17.2128
 178   2.0000      -0.628262       -17.0959
 179   2.0000      -0.627623       -17.0785
 180   2.0000      -0.621961       -16.9244
 181   2.0000      -0.621217       -16.9042
 182   2.0000      -0.619475       -16.8568
 183   2.0000      -0.618250       -16.8234
 184   2.0000      -0.614693       -16.7266
 185   2.0000      -0.612219       -16.6593
 186   2.0000      -0.610293       -16.6069
 187   2.0000      -0.608425       -16.5561
 188   2.0000      -0.600843       -16.3498
 189   2.0000      -0.582620       -15.8539
 190   2.0000      -0.582109       -15.8400
 191   2.0000      -0.568853       -15.4793
 192   2.0000      -0.563132       -15.3236
 193   2.0000      -0.558932       -15.2093
 194   2.0000      -0.548670       -14.9301
 195   2.0000      -0.547775       -14.9057
 196   2.0000      -0.547751       -14.9051
 197   2.0000      -0.543479       -14.7888
 198   2.0000      -0.543433       -14.7876
 199   2.0000      -0.542209       -14.7542
 200   2.0000      -0.540527       -14.7085
 201   2.0000      -0.532766       -14.4973
 202   2.0000      -0.530914       -14.4469
 203   2.0000      -0.528930       -14.3929
 204   2.0000      -0.526304       -14.3215
 205   2.0000      -0.521757       -14.1977
 206   2.0000      -0.519475       -14.1356
 207   2.0000      -0.516325       -14.0499
 208   2.0000      -0.510955       -13.9038
 209   2.0000      -0.510761       -13.8985
 210   2.0000      -0.508254       -13.8303
 211   2.0000      -0.508245       -13.8300
 212   2.0000      -0.505821       -13.7641
 213   2.0000      -0.502832       -13.6828
 214   2.0000      -0.502250       -13.6669
 215   2.0000      -0.498992       -13.5783
 216   2.0000      -0.496581       -13.5127
 217   2.0000      -0.496170       -13.5015
 218   2.0000      -0.494780       -13.4636
 219   2.0000      -0.493360       -13.4250
 220   2.0000      -0.490333       -13.3427
 221   2.0000      -0.489590       -13.3224
 222   2.0000      -0.487039       -13.2530
 223   2.0000      -0.484068       -13.1722
 224   2.0000      -0.482383       -13.1263
 225   2.0000      -0.480719       -13.0810
 226   2.0000      -0.479165       -13.0387
 227   2.0000      -0.475362       -12.9353
 228   2.0000      -0.474823       -12.9206
 229   2.0000      -0.471979       -12.8432
 230   2.0000      -0.471557       -12.8317
 231   2.0000      -0.468784       -12.7563
 232   2.0000      -0.464795       -12.6477
 233   2.0000      -0.461994       -12.5715
 234   2.0000      -0.461944       -12.5701
 235   2.0000      -0.461482       -12.5576
 236   2.0000      -0.460961       -12.5434
 237   2.0000      -0.460924       -12.5424
 238   2.0000      -0.458009       -12.4630
 239   2.0000      -0.457968       -12.4619
 240   2.0000      -0.456805       -12.4303
 241   2.0000      -0.456752       -12.4289
 242   2.0000      -0.456384       -12.4188
 243   2.0000      -0.451674       -12.2907
 244   2.0000      -0.449826       -12.2404
 245   2.0000      -0.447832       -12.1861
 246   2.0000      -0.445235       -12.1154
 247   2.0000      -0.441919       -12.0252
 248   2.0000      -0.441789       -12.0217
 249   2.0000      -0.440880       -11.9969
 250   2.0000      -0.440792       -11.9945
 251   2.0000      -0.440434       -11.9848
 252   2.0000      -0.440194       -11.9783
 253   2.0000      -0.439672       -11.9641
 254   2.0000      -0.439609       -11.9624
 255   2.0000      -0.437931       -11.9167
 256   2.0000      -0.437567       -11.9068
 257   2.0000      -0.436028       -11.8649
 258   2.0000      -0.435906       -11.8616
 259   2.0000      -0.431437       -11.7400
 260   2.0000      -0.430985       -11.7277
 261   2.0000      -0.430172       -11.7056
 262   2.0000      -0.426111       -11.5951
 263   2.0000      -0.425495       -11.5783
 264   2.0000      -0.424144       -11.5415
 265   2.0000      -0.423769       -11.5314
 266   2.0000      -0.421740       -11.4761
 267   2.0000      -0.417820       -11.3695
 268   2.0000      -0.407255       -11.0820
 269   2.0000      -0.405797       -11.0423
 270   2.0000      -0.400915       -10.9095
 271   2.0000      -0.400163       -10.8890
 272   2.0000      -0.392189       -10.6720
 273   2.0000      -0.386804       -10.5255
 274   2.0000      -0.378266       -10.2932
 275   2.0000      -0.361138        -9.8271
 276   2.0000      -0.349960        -9.5229
 277   2.0000      -0.349684        -9.5154
 278   2.0000      -0.345268        -9.3952
 279   2.0000      -0.345250        -9.3947
 280   2.0000      -0.343243        -9.3401
 281   2.0000      -0.332284        -9.0419
 282   2.0000      -0.325839        -8.8665
 283   2.0000      -0.322070        -8.7640
 284   2.0000      -0.320738        -8.7277
 285   2.0000      -0.320626        -8.7247
 286   2.0000      -0.320187        -8.7127
 287   2.0000      -0.316531        -8.6132
 288   2.0000      -0.294274        -8.0076
 289   2.0000      -0.274375        -7.4661
 290   2.0000      -0.248449        -6.7606
 291   2.0000      -0.237308        -6.4575
 292   0.0000      -0.105580        -2.8730
 293   0.0000      -0.104028        -2.8307
 294   0.0000      -0.100361        -2.7310
 295   0.0000      -0.100205        -2.7267
 296   0.0000      -0.050448        -1.3728

MULLIKEN ATOMIC CHARGES
-----------------------
   0 C :   -0.082415
   1 C :    0.038022
   2 C :   -0.033741
   3 C :   -0.115421
   4 S :    0.184229
   5 C :   -0.102872
   6 C :    0.016206
   7 C :    0.296089
   8 C :   -0.298950
   9 C :   -0.185625
  10 N :    0.167007
  11 C :   -0.191541
  12 N :    0.176052
  13 C :   -0.068303
  14 C :   -0.050578
  15 S :    0.191793
  16 C :   -0.048844
  17 C :   -0.068905
  18 C :    0.015218
  19 C :   -0.099726
  20 S :    0.192132
  21 C :   -0.092463
  22 C :    0.009090
  23 C :    0.302089
  24 C :   -0.300247
  25 C :   -0.185899
  26 N :    0.170644
  27 C :   -0.187230
  28 N :    0.168805
  29 C :   -0.042111
  30 C :   -0.070434
  31 S :    0.159440
  32 C :    0.157875
  33 C :   -0.038275
  34 C :   -0.041832
  35 C :    0.094365
  36 C :    0.034972
  37 C :   -0.136564
  38 C :   -0.152775
  39 C :    0.108651
  40 C :    0.107925
  41 C :    0.035312
  42 C :   -0.137268
  43 C :    0.159816
  44 C :   -0.037868
  45 C :   -0.044654
  46 C :    0.097642
  47 C :   -0.069438
  48 C :   -0.044952
  49 C :    0.010348
  50 C :   -0.092819
  51 S :    0.158081
  52 C :   -0.098914
  53 C :    0.013115
  54 C :    0.306293
  55 C :   -0.298536
  56 C :   -0.188501
  57 N :    0.168331
  58 C :   -0.185698
  59 N :    0.169830
  60 C :   -0.065988
  61 C :   -0.050992
  62 S :    0.191488
  63 C :   -0.052982
  64 C :   -0.065421
  65 C :    0.014117
  66 C :   -0.101619
  67 S :    0.191102
  68 C :   -0.116814
  69 C :   -0.031861
  70 C :    0.299674
  71 C :   -0.296584
  72 C :   -0.191176
  73 N :    0.175545
  74 C :   -0.187239
  75 N :    0.166158
  76 C :    0.037075
  77 C :   -0.083546
  78 S :    0.183959
  79 H :    0.036453
  80 H :    0.011853
  81 H :    0.009955
  82 H :    0.009862
  83 H :    0.003394
  84 H :   -0.019454
  85 H :   -0.029326
  86 H :   -0.026979
  87 H :    0.008917
  88 H :    0.021297
  89 H :    0.008842
  90 H :    0.008536
  91 H :    0.008902
  92 H :    0.022118
  93 H :   -0.026532
  94 H :   -0.020285
  95 H :   -0.029135
  96 H :    0.004097
  97 H :    0.008938
  98 H :    0.008934
  99 H :    0.012439
 100 H :    0.036305
Sum of atomic charges:   -0.0000000

LOEWDIN ATOMIC CHARGES
----------------------
   0 C :   -0.178390
   1 C :   -0.033866
   2 C :   -0.078377
   3 C :   -0.183293
   4 S :    0.479332
   5 C :   -0.181110
   6 C :   -0.069343
   7 C :    0.084280
   8 C :   -0.104675
   9 C :   -0.015524
  10 N :   -0.037119
  11 C :   -0.017217
  12 N :   -0.033062
  13 C :   -0.041265
  14 C :   -0.180381
  15 S :    0.483295
  16 C :   -0.181032
  17 C :   -0.040152
  18 C :   -0.071160
  19 C :   -0.178106
  20 S :    0.482528
  21 C :   -0.184578
  22 C :   -0.071255
  23 C :    0.084783
  24 C :   -0.104353
  25 C :   -0.015792
  26 N :   -0.034906
  27 C :   -0.015841
  28 N :   -0.035823
  29 C :   -0.033127
  30 C :   -0.150429
  31 S :    0.475938
  32 C :   -0.037851
  33 C :   -0.012171
  34 C :   -0.012341
  35 C :   -0.017020
  36 C :    0.006524
  37 C :   -0.032494
  38 C :   -0.038253
  39 C :   -0.025004
  40 C :   -0.025632
  41 C :    0.006562
  42 C :   -0.032546
  43 C :   -0.037647
  44 C :   -0.012019
  45 C :   -0.012484
  46 C :   -0.017091
  47 C :   -0.150543
  48 C :   -0.033046
  49 C :   -0.071425
  50 C :   -0.184294
  51 S :    0.475760
  52 C :   -0.178146
  53 C :   -0.071098
  54 C :    0.084900
  55 C :   -0.104331
  56 C :   -0.015980
  57 N :   -0.035812
  58 C :   -0.015683
  59 N :   -0.034933
  60 C :   -0.039807
  61 C :   -0.181069
  62 S :    0.482468
  63 C :   -0.180421
  64 C :   -0.040844
  65 C :   -0.069310
  66 C :   -0.181141
  67 S :    0.483226
  68 C :   -0.183149
  69 C :   -0.078531
  70 C :    0.084399
  71 C :   -0.104659
  72 C :   -0.017164
  73 N :   -0.033057
  74 C :   -0.015594
  75 N :   -0.037169
  76 C :   -0.033799
  77 C :   -0.178508
  78 S :    0.479286
  79 H :    0.027712
  80 H :    0.042534
  81 H :    0.034781
  82 H :    0.035043
  83 H :    0.038205
  84 H :    0.030648
  85 H :    0.030008
  86 H :    0.014666
  87 H :    0.023044
  88 H :    0.030057
  89 H :    0.023002
  90 H :    0.022953
  91 H :    0.023088
  92 H :    0.030116
  93 H :    0.014567
  94 H :    0.030636
  95 H :    0.030046
  96 H :    0.038147
  97 H :    0.034846
  98 H :    0.034596
  99 H :    0.042587
 100 H :    0.027684

  Mayer bond orders larger than 0.100000
B(  0-C ,  1-C ) :   1.5506 B(  0-C ,  4-S ) :   1.1495 B(  0-C , 79-H ) :   0.9641
B(  1-C ,  2-C ) :   1.2758 B(  1-C , 80-H ) :   0.9957 B(  2-C ,  3-C ) :   1.4583
B(  2-C ,  7-C ) :   1.0178 B(  3-C ,  4-S ) :   1.1385 B(  3-C ,  5-C ) :   1.1778
B(  5-C ,  6-C ) :   1.4680 B(  5-C , 15-S ) :   1.1213 B(  6-C ,  7-C ) :   0.9912
B(  6-C , 13-C ) :   1.2928 B(  7-C ,  8-C ) :   1.7096 B(  8-C ,  9-C ) :   1.1337
B(  8-C , 11-C ) :   1.1300 B(  9-C , 10-N ) :   2.9895 B( 11-C , 12-N ) :   3.0041
B( 13-C , 14-C ) :   1.4693 B( 13-C , 81-H ) :   0.9867 B( 14-C , 15-S ) :   1.1101
B( 14-C , 16-C ) :   1.1615 B( 16-C , 17-C ) :   1.4690 B( 16-C , 20-S ) :   1.1055
B( 17-C , 18-C ) :   1.2935 B( 17-C , 82-H ) :   0.9866 B( 18-C , 19-C ) :   1.4564
B( 18-C , 23-C ) :   0.9918 B( 19-C , 20-S ) :   1.1207 B( 19-C , 21-C ) :   1.1710
B( 21-C , 22-C ) :   1.4578 B( 21-C , 31-S ) :   1.1191 B( 22-C , 23-C ) :   1.0012
B( 22-C , 29-C ) :   1.2672 B( 23-C , 24-C ) :   1.7086 B( 24-C , 25-C ) :   1.1338
B( 24-C , 27-C ) :   1.1331 B( 25-C , 26-N ) :   2.9897 B( 27-C , 28-N ) :   2.9908
B( 29-C , 30-C ) :   1.5009 B( 29-C , 83-H ) :   0.9897 B( 30-C , 31-S ) :   1.1064
B( 30-C , 32-C ) :   1.0589 B( 32-C , 33-C ) :   1.3551 B( 32-C , 37-C ) :   1.2870
B( 33-C , 34-C ) :   1.3951 B( 33-C , 84-H ) :   0.9897 B( 34-C , 35-C ) :   1.3304
B( 34-C , 85-H ) :   0.9925 B( 35-C , 36-C ) :   1.3848 B( 35-C , 46-C ) :   0.9915
B( 36-C , 37-C ) :   1.4218 B( 36-C , 38-C ) :   0.9328 B( 37-C , 86-H ) :   0.9856
B( 38-C , 39-C ) :   1.0281 B( 38-C , 40-C ) :   1.0328 B( 38-C , 41-C ) :   0.9328
B( 39-C , 87-H ) :   0.9633 B( 39-C , 88-H ) :   0.9646 B( 39-C , 89-H ) :   0.9633
B( 40-C , 90-H ) :   0.9626 B( 40-C , 91-H ) :   0.9625 B( 40-C , 92-H ) :   0.9644
B( 41-C , 42-C ) :   1.4233 B( 41-C , 46-C ) :   1.3840 B( 42-C , 43-C ) :   1.2848
B( 42-C , 93-H ) :   0.9856 B( 43-C , 44-C ) :   1.3524 B( 43-C , 47-C ) :   1.0618
B( 44-C , 45-C ) :   1.3968 B( 44-C , 94-H ) :   0.9898 B( 45-C , 46-C ) :   1.3277
B( 45-C , 95-H ) :   0.9928 B( 47-C , 48-C ) :   1.5008 B( 47-C , 51-S ) :   1.1053
B( 48-C , 49-C ) :   1.2686 B( 48-C , 96-H ) :   0.9895 B( 49-C , 50-C ) :   1.4567
B( 49-C , 54-C ) :   1.0008 B( 50-C , 51-S ) :   1.1205 B( 50-C , 52-C ) :   1.1724
B( 52-C , 53-C ) :   1.4545 B( 52-C , 62-S ) :   1.1200 B( 53-C , 54-C ) :   0.9909
B( 53-C , 60-C ) :   1.2940 B( 54-C , 55-C ) :   1.7088 B( 55-C , 56-C ) :   1.1324
B( 55-C , 58-C ) :   1.1334 B( 56-C , 57-N ) :   2.9914 B( 58-C , 59-N ) :   2.9897
B( 60-C , 61-C ) :   1.4674 B( 60-C , 97-H ) :   0.9876 B( 61-C , 62-S ) :   1.1069
B( 61-C , 63-C ) :   1.1612 B( 63-C , 64-C ) :   1.4677 B( 63-C , 67-S ) :   1.1114
B( 64-C , 65-C ) :   1.2931 B( 64-C , 98-H ) :   0.9877 B( 65-C , 66-C ) :   1.4661
B( 65-C , 70-C ) :   0.9907 B( 66-C , 67-S ) :   1.1206 B( 66-C , 68-C ) :   1.1798
B( 68-C , 69-C ) :   1.4572 B( 68-C , 78-S ) :   1.1390 B( 69-C , 70-C ) :   1.0173
B( 69-C , 76-C ) :   1.2763 B( 70-C , 71-C ) :   1.7098 B( 71-C , 72-C ) :   1.1293
B( 71-C , 74-C ) :   1.1330 B( 72-C , 73-N ) :   3.0045 B( 74-C , 75-N ) :   2.9901
B( 76-C , 77-C ) :   1.5484 B( 76-C , 99-H ) :   0.9964 B( 77-C , 78-S ) :   1.1489
B( 77-C ,100-H ) :   0.9648

-----------------------------------------------------------------------------
         ABSORPTION SPECTRUM VIA TRANSITION ELECTRIC DIPOLE MOMENTS
-----------------------------------------------------------------------------
State   Energy  Wavelength   fosc         T2         TX        TY        TZ
        (cm-1)    (nm)                  (au**2)     (au)      (au)      (au)
-----------------------------------------------------------------------------
   0   11683.3    855.9   0.295955127   8.33944  -0.72489   2.79048   0.16483
   1   11905.3    840.0   0.046458976   1.28471   0.87081   0.26682   0.67470
   2   13568.2    737.0   0.111583353   2.70741  -0.28390   1.61083   0.17901
   3   13579.2    736.4   0.036601693   0.88737  -0.77637   0.10896  -0.52225
   4   21254.6    470.5   0.142570689   2.20827   0.43301  -1.42058  -0.05208
   5   21262.2    470.3   0.068994517   1.06827   0.14470  -1.01241  -0.14956
   6   23385.4    427.6   0.317495276   4.46959  -0.53253   2.04242   0.12053
   7   23448.5    426.5   0.027557318   0.38690   0.45289   0.21135   0.37030
   8   24562.8    407.1   0.893974059  11.98180   0.83104  -3.35245  -0.22859
   9   25130.1    397.9   0.005384110   0.07053   0.20267   0.06999   0.15672
  10   26139.3    382.6   1.812965722  22.83341  -1.15439   4.62679   0.30603
  11   26727.5    374.1   0.163820656   2.01784   1.13175   0.20338   0.83403
  12   27032.6    369.9   0.300144830   3.65526  -0.45905   1.85141   0.12960
  13   28061.8    356.4   0.911354488  10.69171  -2.59177  -0.54979  -1.91628
  14   29868.7    334.8   0.001487751   0.01640  -0.02972   0.12307   0.01916
  15   30058.8    332.7   0.114205863   1.25081  -0.89852  -0.19060  -0.63808
  16   30957.2    323.0   0.065668393   0.69835  -0.24192   0.78170   0.16961
  17   31920.6    313.3   0.015954494   0.16455   0.33072   0.02091   0.23395
  18   31992.4    312.6   0.003231709   0.03326  -0.04445  -0.13945  -0.10878
  19   32323.8    309.4   1.003318801  10.21861   2.60030   0.53931   1.77938
  20   32496.1    307.7   0.012566685   0.12731  -0.23706   0.26157  -0.05188
  21   32632.5    306.4   0.547710826   5.52556   1.84951   0.68201   1.28052
  22   32726.7    305.6   0.778345654   7.82972  -0.93708   2.63316   0.13437
  23   33000.4    303.0   0.080833744   0.80640   0.68725   0.17469   0.55097
  24   33483.8    298.7   0.488554450   4.80346   1.76908   0.35109   1.24521
  25   33500.1    298.5   0.013230771   0.13002  -0.24979  -0.06189  -0.25258
  26   34213.6    292.3   0.162797298   1.56648   0.23121  -1.22282  -0.13316
  27   34223.8    292.2   0.015433645   0.14846   0.28770  -0.22194   0.12821
  28   34408.5    290.6   0.065883673   0.63036   0.62311   0.15292   0.46767
  29   34478.8    290.0   0.043138708   0.41190   0.14479  -0.62500  -0.01764
  30   34682.2    288.3   0.211709661   2.00960  -1.12635  -0.26356  -0.81944
  31   34764.8    287.6   0.123233028   1.16698   0.28569  -1.04155  -0.02324
  32   35333.0    283.0   0.106156833   0.98911   0.81007   0.12014   0.56432
  33   35383.1    282.6   0.055867985   0.51981  -0.12646   0.70726   0.05996
  34   36081.8    277.1   0.263637132   2.40544  -0.38263   1.49830   0.11884
  35   36119.3    276.9   0.000435495   0.00397  -0.02586   0.00844  -0.05683
  36   36221.5    276.1   0.007808791   0.07097  -0.05355   0.26097   0.00001
  37   36738.1    272.2   0.022623787   0.20273  -0.37703  -0.06575  -0.23719
  38   37217.0    268.7   0.003831784   0.03389  -0.03953   0.17930   0.01354
  39   37404.9    267.3   0.002965271   0.02610   0.04397  -0.15372  -0.02313
  40   37544.3    266.4   0.012597391   0.11046  -0.27099  -0.04953  -0.18594
  41   38138.1    262.2   0.006662511   0.05751  -0.17870  -0.02748  -0.15756
  42   38587.3    259.2   0.000323187   0.00276  -0.01266   0.05008   0.00942
  43   38793.9    257.8   0.118825844   1.00838  -0.23723   0.97187   0.08702
  44   39217.9    255.0   0.020668437   0.17350  -0.33800  -0.03852  -0.24036
  45   39607.0    252.5   0.012333264   0.10251  -0.05462   0.31290   0.04034
  46   39645.5    252.2   0.004732635   0.03930  -0.16709   0.00436  -0.10659
  47   39949.5    250.3   0.001241104   0.01023   0.07952   0.00310   0.06241
  48   39972.2    250.2   0.000299116   0.00246   0.01620   0.03997   0.02457

FINAL SINGLE POINT ENERGY     -6032.678351891451

DIPOLE MOMENT
-------------
                                X             Y             Z
Electronic contribution:     -8.26383      -1.68277      -5.26240
Nuclear contribution   :      8.38920       1.72218       5.22290
                        -----------------------------------------
Total Dipole Moment    :      0.12537       0.03941      -0.03951
                        -----------------------------------------
Magnitude (a.u.)       :      0.13723
Magnitude (Debye)      :      0.34881

Rotational constants in cm-1:     0.001274     0.000126     0.000114
Rotational constants in MHz :    38.188552     3.764981     3.430264

                             ****ORCA TERMINATED NORMALLY****
TOTAL RUN TIME: 0 days 0 hours 11 minutes 10 seconds 477 msec
