                         Program Version 4.2.0 -  RELEASE  -
|  1> # ORCA input file
|  2> # SCF done       -212.113278087086          0.000492400752
|  3> ! CAM-B3LYP def2-SVP def2/J RIJCOSX Grid4 TightSCF
|  4> %maxcore 5000
|  5> %tddft
|  6>     Mode sTDDFT
|  7>     Ethresh 5.0
|  8>     maxcore 5000
|  9> end
| 10>
| 11> %pal
| 12>   nprocs 6
| 13>   end
| 14> * xyz 0 1
| 15>    C       -0.88262         2.89983        -0.03366
| 16>    C       -1.03450         3.86090        -0.99324
| 17>    F       -0.62113         5.11406        -0.76251
| 18>    C       -1.62573         3.54910        -2.23415
| 19>    F       -1.76226         4.51225        -3.15558
| 20>    C       -2.05708         2.27948        -2.49840
| 21>    C       -1.91471         1.26710        -1.52973
| 22>    C       -1.31631         1.58051        -0.27484
| 23>    C       -1.15906         0.58017         0.71170
| 24>    C       -1.58664        -0.69537         0.45064
| 25>    C       -2.18875        -0.99548        -0.80110
| 26>    C       -2.35438        -0.05264        -1.77397
| 27>    C       -2.57549        -2.41895        -0.83696
| 28>    O       -3.12692        -2.97706        -1.76149
| 29>    C       -2.20108        -2.96958         0.48700
| 30>    C       -1.54871        -1.91777         1.24837
| 31>    C       -0.93114        -2.03962         2.46678
| 32>    C       -0.79533        -3.22921         3.21338
| 33>    N       -0.62147        -4.15319         3.87351
| 34>    C       -0.30142        -0.97182         3.14117
| 35>    N        0.22224        -0.14868         3.74605
| 36>    C       -2.50705        -4.20312         1.00029
| 37>    C       -3.04150        -5.35098         0.38826
| 38>    C       -3.26657        -5.69341        -0.94107
| 39>    C       -3.76455        -6.98040        -1.07383
| 40>    C       -3.93555        -7.64317         0.16569
| 41>    S       -3.46162        -6.68263         1.48245
| 42>    C       -4.45741        -8.93255        -0.08308
| 43>    C       -4.61154        -9.09678        -1.47188
| 44>    C       -4.17785        -7.87733        -2.13975
| 45>    C       -4.15824        -7.64523        -3.48278
| 46>    C       -4.60351        -8.61327        -4.40877
| 47>    N       -4.96787        -9.40077        -5.15836
| 48>    C       -3.68435        -6.44391        -4.05475
| 49>    N       -3.28886        -5.49094        -4.55330
| 50>    C       -5.11326       -10.34859        -1.81744
| 51>    C       -5.34913       -11.13723        -0.70305
| 52>    S       -4.94041       -10.31933         0.79530
| 53>    C       -5.85781       -12.45891        -0.68107
| 54>    C       -6.16660       -13.22882         0.42605
| 55>    C       -6.65339       -14.48472         0.06825
| 56>    C       -6.70690       -14.67467        -1.32558
| 57>    S       -6.16881       -13.30665        -2.19218
| 58>    C       -7.20931       -15.97103        -1.58859
| 59>    C       -7.48804       -16.60055        -0.35992
| 60>    C       -7.14041       -15.68882         0.72097
| 61>    C       -7.24273       -15.91448         2.06139
| 62>    C       -7.72637       -17.12901         2.59382
| 63>    N       -8.11451       -18.10944         3.04299
| 64>    C       -6.86541       -14.94133         3.01151
| 65>    N       -6.56089       -14.14876         3.78207
| 66>    C       -8.00120       -17.88178        -0.51557
| 67>    C       -8.11540       -18.24321        -1.85313
| 68>    S       -7.56795       -16.96711        -2.92874
| 69>    C       -8.61782       -19.48082        -2.31739
| 70>    C       -8.73689       -19.94885        -3.62677
| 71>    C       -9.27117       -21.24248        -3.67709
| 72>    S       -9.56715       -22.21597        -5.10063
| 73>    C       -8.61043       -21.31352        -6.36013
| 74>    C       -8.98360       -19.85060        -6.38656
| 75>    S       -8.23902       -18.95295        -4.98592
| 76>    C       -9.60499       -21.76052        -2.41076
| 77>    S       -9.22556       -20.61877        -1.14977
| 78>    C      -10.13654       -23.04402        -2.24296
| 79>    C      -10.56090       -23.67943        -1.10295
| 80>    C      -11.09673       -25.02400        -1.02409
| 81>    C      -11.16033       -25.95399        -2.03041
| 82>    C      -11.68901       -27.25227        -1.87149
| 83>    N      -12.10637       -28.31990        -1.80836
| 84>    C      -10.70080       -25.77444        -3.35199
| 85>    N      -10.34809       -25.71992        -4.44397
| 86>    C      -11.53968       -25.23707         0.35117
| 87>    C      -11.24602       -24.07595         1.10899
| 88>    C      -10.60939       -23.08005         0.23313
| 89>    O      -10.21223       -21.97561         0.56350
| 90>    C      -11.54160       -23.96285         2.44548
| 91>    C      -12.16400       -25.05030         3.06730
| 92>    C      -12.45669       -26.20598         2.30429
| 93>    C      -12.15318       -26.31974         0.95246
| 94>    S      -13.22992       -27.42750         3.26713
| 95>    C      -13.15117       -26.38408         4.66220
| 96>    C      -12.57507       -25.18219         4.42166
| 97>   Br      -13.83825       -26.97923         6.30212
| 98>    H       -0.42663         3.15534         0.91010
| 99>    H       -2.50748         2.05602        -3.45280
|100>    H       -0.70663         0.85263         1.65116
|101>    H       -2.81263        -0.31309        -2.71588
|102>    H       -2.32036        -4.33699         2.05959
|103>    H       -3.07656        -5.01385        -1.75201
|104>    H       -5.30721       -10.68664        -2.81947
|105>    H       -6.04149       -12.87517         1.43385
|106>    H       -8.28630       -18.54222         0.28365
|107>    H       -8.86897       -21.80280        -7.29919
|108>    H       -7.54768       -21.45184        -6.15962
|109>    H      -10.06477       -19.71317        -6.35626
|110>    H       -8.57879       -19.35646        -7.26980
|111>    H      -10.22935       -23.59492        -3.17197
|112>    H      -11.30186       -23.06454         2.99235
|113>    H      -12.39899       -27.22151         0.41738
|114>    H      -12.44503       -24.41866         5.16668
|115> *
|116>
|117>                          ****END OF INPUT****

CARTESIAN COORDINATES (ANGSTROEM)
---------------------------------
  C     -0.882620    2.899830   -0.033660
  C     -1.034500    3.860900   -0.993240
  F     -0.621130    5.114060   -0.762510
  C     -1.625730    3.549100   -2.234150
  F     -1.762260    4.512250   -3.155580
  C     -2.057080    2.279480   -2.498400
  C     -1.914710    1.267100   -1.529730
  C     -1.316310    1.580510   -0.274840
  C     -1.159060    0.580170    0.711700
  C     -1.586640   -0.695370    0.450640
  C     -2.188750   -0.995480   -0.801100
  C     -2.354380   -0.052640   -1.773970
  C     -2.575490   -2.418950   -0.836960
  O     -3.126920   -2.977060   -1.761490
  C     -2.201080   -2.969580    0.487000
  C     -1.548710   -1.917770    1.248370
  C     -0.931140   -2.039620    2.466780
  C     -0.795330   -3.229210    3.213380
  N     -0.621470   -4.153190    3.873510
  C     -0.301420   -0.971820    3.141170
  N      0.222240   -0.148680    3.746050
  C     -2.507050   -4.203120    1.000290
  C     -3.041500   -5.350980    0.388260
  C     -3.266570   -5.693410   -0.941070
  C     -3.764550   -6.980400   -1.073830
  C     -3.935550   -7.643170    0.165690
  S     -3.461620   -6.682630    1.482450
  C     -4.457410   -8.932550   -0.083080
  C     -4.611540   -9.096780   -1.471880
  C     -4.177850   -7.877330   -2.139750
  C     -4.158240   -7.645230   -3.482780
  C     -4.603510   -8.613270   -4.408770
  N     -4.967870   -9.400770   -5.158360
  C     -3.684350   -6.443910   -4.054750
  N     -3.288860   -5.490940   -4.553300
  C     -5.113260  -10.348590   -1.817440
  C     -5.349130  -11.137230   -0.703050
  S     -4.940410  -10.319330    0.795300
  C     -5.857810  -12.458910   -0.681070
  C     -6.166600  -13.228820    0.426050
  C     -6.653390  -14.484720    0.068250
  C     -6.706900  -14.674670   -1.325580
  S     -6.168810  -13.306650   -2.192180
  C     -7.209310  -15.971030   -1.588590
  C     -7.488040  -16.600550   -0.359920
  C     -7.140410  -15.688820    0.720970
  C     -7.242730  -15.914480    2.061390
  C     -7.726370  -17.129010    2.593820
  N     -8.114510  -18.109440    3.042990
  C     -6.865410  -14.941330    3.011510
  N     -6.560890  -14.148760    3.782070
  C     -8.001200  -17.881780   -0.515570
  C     -8.115400  -18.243210   -1.853130
  S     -7.567950  -16.967110   -2.928740
  C     -8.617820  -19.480820   -2.317390
  C     -8.736890  -19.948850   -3.626770
  C     -9.271170  -21.242480   -3.677090
  S     -9.567150  -22.215970   -5.100630
  C     -8.610430  -21.313520   -6.360130
  C     -8.983600  -19.850600   -6.386560
  S     -8.239020  -18.952950   -4.985920
  C     -9.604990  -21.760520   -2.410760
  S     -9.225560  -20.618770   -1.149770
  C    -10.136540  -23.044020   -2.242960
  C    -10.560900  -23.679430   -1.102950
  C    -11.096730  -25.024000   -1.024090
  C    -11.160330  -25.953990   -2.030410
  C    -11.689010  -27.252270   -1.871490
  N    -12.106370  -28.319900   -1.808360
  C    -10.700800  -25.774440   -3.351990
  N    -10.348090  -25.719920   -4.443970
  C    -11.539680  -25.237070    0.351170
  C    -11.246020  -24.075950    1.108990
  C    -10.609390  -23.080050    0.233130
  O    -10.212230  -21.975610    0.563500
  C    -11.541600  -23.962850    2.445480
  C    -12.164000  -25.050300    3.067300
  C    -12.456690  -26.205980    2.304290
  C    -12.153180  -26.319740    0.952460
  S    -13.229920  -27.427500    3.267130
  C    -13.151170  -26.384080    4.662200
  C    -12.575070  -25.182190    4.421660
  Br   -13.838250  -26.979230    6.302120
  H     -0.426630    3.155340    0.910100
  H     -2.507480    2.056020   -3.452800
  H     -0.706630    0.852630    1.651160
  H     -2.812630   -0.313090   -2.715880
  H     -2.320360   -4.336990    2.059590
  H     -3.076560   -5.013850   -1.752010
  H     -5.307210  -10.686640   -2.819470
  H     -6.041490  -12.875170    1.433850
  H     -8.286300  -18.542220    0.283650
  H     -8.868970  -21.802800   -7.299190
  H     -7.547680  -21.451840   -6.159620
  H    -10.064770  -19.713170   -6.356260
  H     -8.578790  -19.356460   -7.269800
  H    -10.229350  -23.594920   -3.171970
  H    -11.301860  -23.064540    2.992350
  H    -12.398990  -27.221510    0.417380
  H    -12.445030  -24.418660    5.166680

 Total Charge           Charge          ....    0
 Multiplicity           Mult            ....    1
 Number of Electrons    NEL             ....  642
 Basis Dimension        Dim             .... 1297

ORBITAL ENERGIES
----------------

  NO   OCC          E(Eh)            E(eV)
   0   2.0000    -482.885601    -13139.9852
   1   2.0000     -89.004606     -2421.9385
   2   2.0000     -89.002860     -2421.8910
   3   2.0000     -89.001529     -2421.8547
   4   2.0000     -88.999702     -2421.8050
   5   2.0000     -88.975767     -2421.1537
   6   2.0000     -88.971405     -2421.0350
   7   2.0000     -88.954487     -2420.5747
   8   2.0000     -88.952889     -2420.5312
   9   2.0000     -62.563292     -1702.4337
  10   2.0000     -56.397242     -1534.6470
  11   2.0000     -56.394527     -1534.5731
  12   2.0000     -56.394494     -1534.5722
  13   2.0000     -24.798741      -674.8080
  14   2.0000     -24.797860      -674.7841
  15   2.0000     -19.223464      -523.0970
  16   2.0000     -19.222355      -523.0669
  17   2.0000     -14.440770      -392.9533
  18   2.0000     -14.439085      -392.9075
  19   2.0000     -14.436815      -392.8457
  20   2.0000     -14.435898      -392.8208
  21   2.0000     -14.420530      -392.4026
  22   2.0000     -14.417140      -392.3103
  23   2.0000     -14.416296      -392.2873
  24   2.0000     -14.413757      -392.2183
  25   2.0000     -10.382091      -282.5110
  26   2.0000     -10.381389      -282.4920
  27   2.0000     -10.376003      -282.3454
  28   2.0000     -10.373775      -282.2848
  29   2.0000     -10.373719      -282.2832
  30   2.0000     -10.370733      -282.2020
  31   2.0000     -10.362286      -281.9721
  32   2.0000     -10.360772      -281.9309
  33   2.0000     -10.358952      -281.8814
  34   2.0000     -10.353729      -281.7393
  35   2.0000     -10.347881      -281.5802
  36   2.0000     -10.345453      -281.5141
  37   2.0000     -10.345359      -281.5115
  38   2.0000     -10.344850      -281.4977
  39   2.0000     -10.343659      -281.4653
  40   2.0000     -10.341521      -281.4071
  41   2.0000     -10.341455      -281.4053
  42   2.0000     -10.340864      -281.3892
  43   2.0000     -10.340746      -281.3860
  44   2.0000     -10.339256      -281.3454
  45   2.0000     -10.338189      -281.3164
  46   2.0000     -10.336702      -281.2760
  47   2.0000     -10.336485      -281.2701
  48   2.0000     -10.335220      -281.2356
  49   2.0000     -10.334793      -281.2240
  50   2.0000     -10.333744      -281.1955
  51   2.0000     -10.332698      -281.1670
  52   2.0000     -10.330079      -281.0957
  53   2.0000     -10.328679      -281.0576
  54   2.0000     -10.327365      -281.0219
  55   2.0000     -10.326749      -281.0051
  56   2.0000     -10.325695      -280.9765
  57   2.0000     -10.324346      -280.9397
  58   2.0000     -10.323521      -280.9173
  59   2.0000     -10.322293      -280.8839
  60   2.0000     -10.322022      -280.8765
  61   2.0000     -10.320277      -280.8290
  62   2.0000     -10.318736      -280.7871
  63   2.0000     -10.317042      -280.7410
  64   2.0000     -10.315946      -280.7112
  65   2.0000     -10.315480      -280.6985
  66   2.0000     -10.314756      -280.6788
  67   2.0000     -10.314544      -280.6730
  68   2.0000     -10.312997      -280.6309
  69   2.0000     -10.312750      -280.6242
  70   2.0000     -10.311338      -280.5858
  71   2.0000     -10.311075      -280.5786
  72   2.0000     -10.310414      -280.5606
  73   2.0000     -10.308599      -280.5112
  74   2.0000     -10.308408      -280.5060
  75   2.0000     -10.307573      -280.4833
  76   2.0000     -10.305585      -280.4292
  77   2.0000     -10.305584      -280.4292
  78   2.0000     -10.303519      -280.3730
  79   2.0000     -10.303035      -280.3598
  80   2.0000     -10.301697      -280.3234
  81   2.0000     -10.301619      -280.3213
  82   2.0000     -10.301064      -280.3062
  83   2.0000     -10.297868      -280.2192
  84   2.0000     -10.296656      -280.1862
  85   2.0000     -10.294097      -280.1166
  86   2.0000     -10.292834      -280.0823
  87   2.0000      -8.792719      -239.2620
  88   2.0000      -8.099040      -220.3861
  89   2.0000      -8.097322      -220.3393
  90   2.0000      -8.096372      -220.3135
  91   2.0000      -8.093534      -220.2362
  92   2.0000      -8.071735      -219.6431
  93   2.0000      -8.064447      -219.4447
  94   2.0000      -8.050119      -219.0549
  95   2.0000      -8.048235      -219.0036
  96   2.0000      -6.629000      -180.3843
  97   2.0000      -6.614462      -179.9887
  98   2.0000      -6.614259      -179.9831
  99   2.0000      -6.068366      -165.1286
 100   2.0000      -6.066623      -165.0812
 101   2.0000      -6.065455      -165.0494
 102   2.0000      -6.064184      -165.0148
 103   2.0000      -6.062895      -164.9798
 104   2.0000      -6.062448      -164.9676
 105   2.0000      -6.061342      -164.9375
 106   2.0000      -6.061234      -164.9346
 107   2.0000      -6.059565      -164.8891
 108   2.0000      -6.058893      -164.8709
 109   2.0000      -6.058447      -164.8587
 110   2.0000      -6.055929      -164.7902
 111   2.0000      -6.041414      -164.3952
 112   2.0000      -6.037144      -164.2790
 113   2.0000      -6.034214      -164.1993
 114   2.0000      -6.032976      -164.1656
 115   2.0000      -6.029594      -164.0736
 116   2.0000      -6.025997      -163.9757
 117   2.0000      -6.020554      -163.8276
 118   2.0000      -6.018606      -163.7746
 119   2.0000      -6.016384      -163.7141
 120   2.0000      -6.014430      -163.6610
 121   2.0000      -6.009740      -163.5333
 122   2.0000      -6.007974      -163.4853
 123   2.0000      -2.744912       -74.6928
 124   2.0000      -2.740769       -74.5801
 125   2.0000      -2.740635       -74.5765
 126   2.0000      -2.729077       -74.2620
 127   2.0000      -2.729059       -74.2615
 128   2.0000      -1.321207       -35.9519
 129   2.0000      -1.306323       -35.5468
 130   2.0000      -1.139066       -30.9956
 131   2.0000      -1.138149       -30.9706
 132   2.0000      -1.058821       -28.8120
 133   2.0000      -1.054269       -28.6881
 134   2.0000      -1.031445       -28.0671
 135   2.0000      -1.030402       -28.0387
 136   2.0000      -1.024416       -27.8758
 137   2.0000      -1.023192       -27.8425
 138   2.0000      -1.022609       -27.8266
 139   2.0000      -1.015881       -27.6435
 140   2.0000      -1.015195       -27.6249
 141   2.0000      -1.013746       -27.5854
 142   2.0000      -1.012866       -27.5615
 143   2.0000      -1.006541       -27.3894
 144   2.0000      -1.000694       -27.2303
 145   2.0000      -0.997313       -27.1383
 146   2.0000      -0.993782       -27.0422
 147   2.0000      -0.990245       -26.9459
 148   2.0000      -0.983687       -26.7675
 149   2.0000      -0.973352       -26.4862
 150   2.0000      -0.964894       -26.2561
 151   2.0000      -0.953618       -25.9493
 152   2.0000      -0.943486       -25.6736
 153   2.0000      -0.937337       -25.5062
 154   2.0000      -0.931232       -25.3401
 155   2.0000      -0.924729       -25.1631
 156   2.0000      -0.911331       -24.7986
 157   2.0000      -0.908776       -24.7291
 158   2.0000      -0.903030       -24.5727
 159   2.0000      -0.893650       -24.3174
 160   2.0000      -0.891545       -24.2602
 161   2.0000      -0.886419       -24.1207
 162   2.0000      -0.886019       -24.1098
 163   2.0000      -0.882736       -24.0205
 164   2.0000      -0.877025       -23.8651
 165   2.0000      -0.873599       -23.7718
 166   2.0000      -0.867016       -23.5927
 167   2.0000      -0.864539       -23.5253
 168   2.0000      -0.858140       -23.3512
 169   2.0000      -0.843352       -22.9488
 170   2.0000      -0.841413       -22.8960
 171   2.0000      -0.829876       -22.5821
 172   2.0000      -0.825989       -22.4763
 173   2.0000      -0.811352       -22.0780
 174   2.0000      -0.792837       -21.5742
 175   2.0000      -0.789497       -21.4833
 176   2.0000      -0.781851       -21.2752
 177   2.0000      -0.770057       -20.9543
 178   2.0000      -0.768030       -20.8992
 179   2.0000      -0.763281       -20.7699
 180   2.0000      -0.759887       -20.6776
 181   2.0000      -0.751727       -20.4555
 182   2.0000      -0.737346       -20.0642
 183   2.0000      -0.724410       -19.7122
 184   2.0000      -0.720130       -19.5957
 185   2.0000      -0.715581       -19.4720
 186   2.0000      -0.715164       -19.4606
 187   2.0000      -0.705915       -19.2089
 188   2.0000      -0.699787       -19.0422
 189   2.0000      -0.697235       -18.9727
 190   2.0000      -0.692682       -18.8488
 191   2.0000      -0.691179       -18.8079
 192   2.0000      -0.688224       -18.7275
 193   2.0000      -0.686276       -18.6745
 194   2.0000      -0.669711       -18.2238
 195   2.0000      -0.664531       -18.0828
 196   2.0000      -0.659121       -17.9356
 197   2.0000      -0.656161       -17.8551
 198   2.0000      -0.648929       -17.6583
 199   2.0000      -0.644574       -17.5397
 200   2.0000      -0.643464       -17.5095
 201   2.0000      -0.640875       -17.4391
 202   2.0000      -0.634064       -17.2538
 203   2.0000      -0.630451       -17.1554
 204   2.0000      -0.627398       -17.0724
 205   2.0000      -0.625718       -17.0266
 206   2.0000      -0.620799       -16.8928
 207   2.0000      -0.619473       -16.8567
 208   2.0000      -0.612041       -16.6545
 209   2.0000      -0.601612       -16.3707
 210   2.0000      -0.600169       -16.3314
 211   2.0000      -0.592723       -16.1288
 212   2.0000      -0.590069       -16.0566
 213   2.0000      -0.587112       -15.9761
 214   2.0000      -0.585786       -15.9400
 215   2.0000      -0.579986       -15.7822
 216   2.0000      -0.573759       -15.6128
 217   2.0000      -0.567917       -15.4538
 218   2.0000      -0.563967       -15.3463
 219   2.0000      -0.561342       -15.2749
 220   2.0000      -0.556834       -15.1522
 221   2.0000      -0.556189       -15.1347
 222   2.0000      -0.554644       -15.0926
 223   2.0000      -0.552301       -15.0289
 224   2.0000      -0.548053       -14.9133
 225   2.0000      -0.547331       -14.8936
 226   2.0000      -0.544414       -14.8143
 227   2.0000      -0.543948       -14.8016
 228   2.0000      -0.542486       -14.7618
 229   2.0000      -0.540734       -14.7141
 230   2.0000      -0.536686       -14.6040
 231   2.0000      -0.533130       -14.5072
 232   2.0000      -0.531606       -14.4657
 233   2.0000      -0.528203       -14.3731
 234   2.0000      -0.522880       -14.2283
 235   2.0000      -0.521384       -14.1876
 236   2.0000      -0.520298       -14.1580
 237   2.0000      -0.518705       -14.1147
 238   2.0000      -0.517545       -14.0831
 239   2.0000      -0.516141       -14.0449
 240   2.0000      -0.514768       -14.0075
 241   2.0000      -0.512430       -13.9439
 242   2.0000      -0.511042       -13.9062
 243   2.0000      -0.509711       -13.8699
 244   2.0000      -0.509059       -13.8522
 245   2.0000      -0.502910       -13.6849
 246   2.0000      -0.501684       -13.6515
 247   2.0000      -0.500812       -13.6278
 248   2.0000      -0.498112       -13.5543
 249   2.0000      -0.497228       -13.5303
 250   2.0000      -0.495913       -13.4945
 251   2.0000      -0.495190       -13.4748
 252   2.0000      -0.494959       -13.4685
 253   2.0000      -0.492352       -13.3976
 254   2.0000      -0.487978       -13.2785
 255   2.0000      -0.481966       -13.1150
 256   2.0000      -0.479386       -13.0448
 257   2.0000      -0.474467       -12.9109
 258   2.0000      -0.470945       -12.8151
 259   2.0000      -0.470207       -12.7950
 260   2.0000      -0.469609       -12.7787
 261   2.0000      -0.467805       -12.7296
 262   2.0000      -0.465695       -12.6722
 263   2.0000      -0.464520       -12.6402
 264   2.0000      -0.462535       -12.5862
 265   2.0000      -0.459739       -12.5101
 266   2.0000      -0.458841       -12.4857
 267   2.0000      -0.453876       -12.3506
 268   2.0000      -0.452576       -12.3152
 269   2.0000      -0.451506       -12.2861
 270   2.0000      -0.450755       -12.2657
 271   2.0000      -0.449623       -12.2349
 272   2.0000      -0.448229       -12.1969
 273   2.0000      -0.447953       -12.1894
 274   2.0000      -0.447812       -12.1856
 275   2.0000      -0.447616       -12.1802
 276   2.0000      -0.446857       -12.1596
 277   2.0000      -0.446160       -12.1406
 278   2.0000      -0.445739       -12.1292
 279   2.0000      -0.444007       -12.0821
 280   2.0000      -0.443469       -12.0674
 281   2.0000      -0.439428       -11.9575
 282   2.0000      -0.434944       -11.8354
 283   2.0000      -0.433809       -11.8045
 284   2.0000      -0.432962       -11.7815
 285   2.0000      -0.431703       -11.7472
 286   2.0000      -0.430851       -11.7241
 287   2.0000      -0.427437       -11.6311
 288   2.0000      -0.426172       -11.5967
 289   2.0000      -0.425331       -11.5739
 290   2.0000      -0.421479       -11.4690
 291   2.0000      -0.417136       -11.3508
 292   2.0000      -0.412638       -11.2285
 293   2.0000      -0.412016       -11.2115
 294   2.0000      -0.408771       -11.1232
 295   2.0000      -0.406618       -11.0646
 296   2.0000      -0.404155       -10.9976
 297   2.0000      -0.398962       -10.8563
 298   2.0000      -0.394288       -10.7291
 299   2.0000      -0.390722       -10.6321
 300   2.0000      -0.386134       -10.5072
 301   2.0000      -0.384146       -10.4531
 302   2.0000      -0.374851       -10.2002
 303   2.0000      -0.371172       -10.1001
 304   2.0000      -0.365398        -9.9430
 305   2.0000      -0.363409        -9.8889
 306   2.0000      -0.358675        -9.7600
 307   2.0000      -0.347376        -9.4526
 308   2.0000      -0.342673        -9.3246
 309   2.0000      -0.338681        -9.2160
 310   2.0000      -0.334790        -9.1101
 311   2.0000      -0.332524        -9.0484
 312   2.0000      -0.330345        -8.9891
 313   2.0000      -0.319481        -8.6935
 314   2.0000      -0.316906        -8.6234
 315   2.0000      -0.310235        -8.4419
 316   2.0000      -0.300496        -8.1769
 317   2.0000      -0.293983        -7.9997
 318   2.0000      -0.285513        -7.7692
 319   2.0000      -0.274821        -7.4782
 320   2.0000      -0.248243        -6.7550
 321   0.0000      -0.123651        -3.3647
 322   0.0000      -0.113426        -3.0865
 323   0.0000      -0.095878        -2.6090
 324   0.0000      -0.094626        -2.5749
 325   0.0000      -0.065142        -1.7726

MULLIKEN ATOMIC CHARGES
-----------------------
   0 C :   -0.107058
   1 C :    0.241426
   2 F :   -0.171139
   3 C :    0.239072
   4 F :   -0.171747
   5 C :   -0.102828
   6 C :    0.116895
   7 C :    0.113986
   8 C :   -0.083859
   9 C :    0.046754
  10 C :   -0.001960
  11 C :   -0.082219
  12 C :    0.155663
  13 O :   -0.148823
  14 C :   -0.093280
  15 C :    0.317258
  16 C :   -0.357040
  17 C :   -0.198592
  18 N :    0.153913
  19 C :   -0.180408
  20 N :    0.148857
  21 C :    0.035691
  22 C :   -0.114214
  23 C :    0.001737
  24 C :   -0.012985
  25 C :   -0.078633
  26 S :    0.211674
  27 C :   -0.105689
  28 C :    0.032241
  29 C :    0.308898
  30 C :   -0.293878
  31 C :   -0.190386
  32 N :    0.169625
  33 C :   -0.188835
  34 N :    0.197821
  35 C :   -0.077824
  36 C :   -0.037446
  37 S :    0.207783
  38 C :   -0.052773
  39 C :   -0.066218
  40 C :    0.017099
  41 C :   -0.090104
  42 S :    0.199470
  43 C :   -0.093019
  44 C :    0.034508
  45 C :    0.302810
  46 C :   -0.295427
  47 C :   -0.189974
  48 N :    0.187608
  49 C :   -0.190765
  50 N :    0.171427
  51 C :   -0.065729
  52 C :   -0.090422
  53 S :    0.196880
  54 C :   -0.054163
  55 C :   -0.036345
  56 C :   -0.021794
  57 S :    0.027135
  58 C :   -0.045813
  59 C :   -0.038318
  60 S :   -0.019901
  61 C :   -0.071540
  62 S :    0.188237
  63 C :   -0.056347
  64 C :   -0.094460
  65 C :    0.324184
  66 C :   -0.355010
  67 C :   -0.187601
  68 N :    0.148399
  69 C :   -0.195362
  70 N :    0.150259
  71 C :    0.012085
  72 C :   -0.009352
  73 C :    0.160912
  74 O :   -0.182795
  75 C :   -0.073633
  76 C :    0.119415
  77 C :   -0.091184
  78 C :   -0.023039
  79 S :    0.187192
  80 C :   -0.123539
  81 C :    0.037793
  82 Br:    0.024744
  83 H :    0.007637
  84 H :   -0.000383
  85 H :   -0.005426
  86 H :   -0.007108
  87 H :    0.012555
  88 H :    0.038998
  89 H :    0.013428
  90 H :    0.013245
  91 H :    0.031002
  92 H :    0.072746
  93 H :    0.080981
  94 H :    0.080270
  95 H :    0.067364
  96 H :    0.033822
  97 H :   -0.006871
  98 H :   -0.006692
  99 H :   -0.001548
Sum of atomic charges:   -0.0000000

LOEWDIN ATOMIC CHARGES
----------------------
   0 C :   -0.029265
   1 C :    0.066762
   2 F :   -0.048879
   3 C :    0.067979
   4 F :   -0.049150
   5 C :   -0.032518
   6 C :   -0.008461
   7 C :   -0.006583
   8 C :    0.017684
   9 C :   -0.023743
  10 C :   -0.052036
  11 C :    0.031239
  12 C :    0.085654
  13 O :   -0.137777
  14 C :   -0.099052
  15 C :    0.076332
  16 C :   -0.142943
  17 C :   -0.024846
  18 N :   -0.053230
  19 C :   -0.017498
  20 N :   -0.053928
  21 C :    0.043973
  22 C :   -0.177456
  23 C :    0.021365
  24 C :   -0.077178
  25 C :   -0.155269
  26 S :    0.499201
  27 C :   -0.193249
  28 C :   -0.048397
  29 C :    0.075908
  30 C :   -0.092064
  31 C :   -0.014291
  32 N :   -0.031667
  33 C :   -0.022801
  34 N :   -0.012608
  35 C :   -0.043801
  36 C :   -0.164790
  37 S :    0.490628
  38 C :   -0.184899
  39 C :   -0.031079
  40 C :   -0.068569
  41 C :   -0.171550
  42 S :    0.487479
  43 C :   -0.189667
  44 C :   -0.063890
  45 C :    0.079976
  46 C :   -0.097507
  47 C :   -0.019773
  48 N :   -0.022907
  49 C :   -0.015569
  50 N :   -0.031452
  51 C :   -0.023059
  52 C :   -0.186081
  53 S :    0.490862
  54 C :   -0.187819
  55 C :   -0.225799
  56 C :   -0.173137
  57 S :    0.343896
  58 C :   -0.139621
  59 C :   -0.138354
  60 S :    0.292022
  61 C :   -0.209444
  62 S :    0.516253
  63 C :    0.046082
  64 C :   -0.109325
  65 C :    0.076038
  66 C :   -0.144465
  67 C :   -0.018244
  68 N :   -0.056230
  69 C :   -0.024777
  70 N :   -0.052645
  71 C :   -0.019711
  72 C :   -0.050756
  73 C :    0.085642
  74 O :   -0.167380
  75 C :    0.023616
  76 C :   -0.033161
  77 C :   -0.143952
  78 C :   -0.009925
  79 S :    0.433668
  80 C :   -0.271803
  81 C :   -0.069741
  82 Br:    0.137460
  83 H :    0.047779
  84 H :    0.045197
  85 H :    0.039986
  86 H :    0.041496
  87 H :    0.043182
  88 H :    0.044016
  89 H :    0.036024
  90 H :    0.036978
  91 H :    0.039195
  92 H :    0.039946
  93 H :    0.031621
  94 H :    0.030953
  95 H :    0.037398
  96 H :    0.039260
  97 H :    0.042468
  98 H :    0.041071
  99 H :    0.039479

  Mayer bond orders larger than 0.100000
B(  0-C ,  1-C ) :   1.4418 B(  0-C ,  5-C ) :   0.1085 B(  0-C ,  7-C ) :   1.1874
B(  0-C , 83-H ) :   1.0061 B(  1-C ,  2-F ) :   1.1347 B(  1-C ,  3-C ) :   1.1918
B(  3-C ,  4-F ) :   1.1334 B(  3-C ,  5-C ) :   1.4413 B(  5-C ,  6-C ) :   1.1943
B(  5-C , 84-H ) :   1.0068 B(  6-C ,  7-C ) :   1.2574 B(  6-C , 11-C ) :   1.1844
B(  7-C ,  8-C ) :   1.2181 B(  8-C ,  9-C ) :   1.4486 B(  8-C , 85-H ) :   0.9887
B(  9-C , 10-C ) :   1.2236 B(  9-C , 15-C ) :   0.9809 B( 10-C , 11-C ) :   1.4739
B( 10-C , 12-C ) :   0.9476 B( 11-C , 86-H ) :   1.0166 B( 12-C , 13-O ) :   2.1769
B( 12-C , 14-C ) :   0.9440 B( 14-C , 15-C ) :   1.0853 B( 14-C , 21-C ) :   1.5750
B( 15-C , 16-C ) :   1.6209 B( 16-C , 17-C ) :   1.1418 B( 16-C , 19-C ) :   1.1478
B( 17-C , 18-N ) :   2.9770 B( 19-C , 20-N ) :   2.9624 B( 21-C , 22-C ) :   1.2280
B( 21-C , 87-H ) :   0.9135 B( 22-C , 23-C ) :   1.3888 B( 22-C , 26-S ) :   1.0711
B( 23-C , 24-C ) :   1.3259 B( 23-C , 88-H ) :   0.9700 B( 24-C , 25-C ) :   1.3710
B( 24-C , 29-C ) :   0.9977 B( 25-C , 26-S ) :   1.1716 B( 25-C , 27-C ) :   1.2097
B( 27-C , 28-C ) :   1.4334 B( 27-C , 37-S ) :   1.1035 B( 28-C , 29-C ) :   0.9900
B( 28-C , 35-C ) :   1.3117 B( 29-C , 30-C ) :   1.7183 B( 30-C , 31-C ) :   1.1364
B( 30-C , 33-C ) :   1.1333 B( 31-C , 32-N ) :   2.9853 B( 33-C , 34-N ) :   2.9982
B( 35-C , 36-C ) :   1.4380 B( 35-C , 89-H ) :   0.9877 B( 36-C , 37-S ) :   1.1237
B( 36-C , 38-C ) :   1.1766 B( 38-C , 39-C ) :   1.4510 B( 38-C , 42-S ) :   1.1011
B( 39-C , 40-C ) :   1.3031 B( 39-C , 90-H ) :   0.9880 B( 40-C , 41-C ) :   1.4310
B( 40-C , 45-C ) :   0.9957 B( 41-C , 42-S ) :   1.1267 B( 41-C , 43-C ) :   1.1897
B( 43-C , 44-C ) :   1.4126 B( 43-C , 53-S ) :   1.1255 B( 44-C , 45-C ) :   0.9883
B( 44-C , 51-C ) :   1.3250 B( 45-C , 46-C ) :   1.7167 B( 46-C , 47-C ) :   1.1336
B( 46-C , 49-C ) :   1.1347 B( 47-C , 48-N ) :   2.9962 B( 49-C , 50-N ) :   2.9890
B( 51-C , 52-C ) :   1.4155 B( 51-C , 91-H ) :   0.9888 B( 52-C , 53-S ) :   1.1049
B( 52-C , 54-C ) :   1.2010 B( 54-C , 55-C ) :   1.4667 B( 54-C , 61-C ) :   0.1014
B( 54-C , 62-S ) :   1.1130 B( 55-C , 56-C ) :   1.3470 B( 55-C , 60-S ) :   0.9949
B( 56-C , 57-S ) :   1.0542 B( 56-C , 61-C ) :   1.4275 B( 57-S , 58-C ) :   1.0148
B( 58-C , 59-C ) :   1.0178 B( 58-C , 92-H ) :   0.9461 B( 58-C , 93-H ) :   0.9486
B( 59-C , 60-S ) :   1.0095 B( 59-C , 94-H ) :   0.9493 B( 59-C , 95-H ) :   0.9460
B( 61-C , 62-S ) :   1.0754 B( 61-C , 63-C ) :   1.2752 B( 63-C , 64-C ) :   1.5209
B( 63-C , 96-H ) :   0.9268 B( 64-C , 65-C ) :   1.0824 B( 64-C , 73-C ) :   0.9796
B( 65-C , 66-C ) :   1.6179 B( 65-C , 71-C ) :   0.9960 B( 66-C , 67-C ) :   1.1468
B( 66-C , 69-C ) :   1.1458 B( 67-C , 68-N ) :   2.9674 B( 69-C , 70-N ) :   2.9680
B( 71-C , 72-C ) :   1.2739 B( 71-C , 78-C ) :   1.4179 B( 72-C , 73-C ) :   0.9614
B( 72-C , 75-C ) :   1.4209 B( 73-C , 74-O ) :   2.1150 B( 75-C , 76-C ) :   1.2429
B( 75-C , 97-H ) :   1.0178 B( 76-C , 77-C ) :   1.3067 B( 76-C , 81-C ) :   1.1625
B( 77-C , 78-C ) :   1.3244 B( 77-C , 79-S ) :   1.0884 B( 78-C , 98-H ) :   0.9791
B( 79-S , 80-C ) :   1.0863 B( 80-C , 81-C ) :   1.6181 B( 80-C , 82-Br) :   1.0199
B( 81-C , 99-H ) :   1.0006

-----------------------------------------------------------------------------
         ABSORPTION SPECTRUM VIA TRANSITION ELECTRIC DIPOLE MOMENTS
-----------------------------------------------------------------------------
State   Energy  Wavelength   fosc         T2         TX        TY        TZ
        (cm-1)    (nm)                  (au**2)     (au)      (au)      (au)
-----------------------------------------------------------------------------
   0   11403.8    876.9   0.739700354  21.35411  -1.72953  -4.26120  -0.45280
   1   12697.1    787.6   0.128648002   3.33561   0.66815   1.69552   0.11998
   2   18159.4    550.7   1.809485395  32.80417   2.25872   5.25902  -0.21216
   3   20145.1    496.4   0.074728308   1.22121  -0.21479  -0.71243  -0.81702
   4   20256.9    493.7   0.351554358   5.71341  -0.80714  -2.07791  -0.86268
   5   21505.9    465.0   0.058024930   0.88824  -0.31404  -0.61717   0.63932
   6   22009.4    454.4   0.130913897   1.95818  -0.50782  -1.13685  -0.63865
   7   24386.4    410.1   0.022849940   0.30847  -0.17818  -0.42162  -0.31457
   8   25171.1    397.3   0.008563108   0.11200   0.06022   0.04077  -0.32666
   9   25706.6    389.0   0.023307384   0.29849  -0.07630   0.31177  -0.44211
  10   26774.3    373.5   0.070928715   0.87213   0.23180  -0.26986  -0.86346
  11   26813.7    372.9   0.154821631   1.90086   0.41489   0.68804  -1.12041
  12   27266.6    366.7   0.081902931   0.98888   0.40744   0.89363   0.15586
  13   27520.2    363.4   0.056079479   0.67085   0.10132  -0.80964  -0.07126
  14   27713.0    360.8   0.009296344   0.11043  -0.20367   0.23864   0.10957
  15   27889.3    358.6   0.030245755   0.35703  -0.02556  -0.16976  -0.57233
  16   28189.8    354.7   0.061450031   0.71764   0.00655  -0.36493   0.76448
  17   28420.3    351.9   0.006254704   0.07245  -0.02472   0.05895   0.26147
  18   28741.2    347.9   0.012522434   0.14344   0.22616   0.11479   0.28126
  19   29363.4    340.6   0.149222038   1.67302   0.10864   1.27919  -0.15776
  20   29589.9    338.0   0.004724838   0.05257  -0.15991  -0.13564   0.09273
  21   29897.3    334.5   0.349350056   3.84684  -0.67252  -1.68676   0.74122
  22   30534.6    327.5   0.178667352   1.92632  -0.15615  -1.22081  -0.64153
  23   30675.7    326.0   0.124003499   1.33081  -0.43460  -0.02727   1.06826
  24   30904.6    323.6   0.300485172   3.20092   0.11462  -0.57732   1.68952
  25   31455.8    317.9   0.765350027   8.01005   0.06571   0.32194  -2.81107
  26   31893.3    313.5   0.001235365   0.01275   0.01818   0.10405  -0.03992
  27   32072.2    311.8   0.009876089   0.10138   0.11863   0.22716  -0.18894
  28   32542.7    307.3   0.123512818   1.24950  -0.34886  -0.01856   1.06181
  29   32623.0    306.5   0.132005379   1.33212  -0.03484  -1.12117   0.27180
  30   32665.6    306.1   0.290667453   2.92942  -0.39510  -0.75808   1.48278
  31   32938.7    303.6   0.059497505   0.59466   0.04010  -0.20615  -0.74199
  32   33062.8    302.5   0.275671249   2.74491  -0.12542  -0.86836  -1.40539
  33   33098.4    302.1   0.229591804   2.28363   0.08068  -0.06445  -1.50764
  34   33388.4    299.5   0.128376248   1.26580  -0.32674  -0.59918   0.89444
  35   33463.8    298.8   0.145198458   1.42844   0.30550   0.83714  -0.79643
  36   34033.6    293.8   0.026528684   0.25662   0.28332   0.00813   0.41985
  37   34230.3    292.1   0.118816142   1.14272  -0.10862   0.85766  -0.62877
  38   34394.5    290.7   0.081704033   0.78204   0.14545   0.83485  -0.25280
  39   34509.0    289.8   0.182542669   1.74144  -0.01176  -0.81571   1.03726
  40   34608.1    288.9   0.057306914   0.54514   0.15876   0.36028   0.62460
  41   34728.0    288.0   0.100688415   0.95450   0.25794  -0.88789   0.31563
  42   34768.7    287.6   0.101721064   0.96316   0.28603  -0.87183   0.34822
  43   35006.6    285.7   0.036164347   0.34010   0.22252   0.53844   0.02589
  44   35198.9    284.1   0.058910831   0.55099   0.03576   0.45803   0.58302
  45   35341.4    283.0   0.299166252   2.78679   0.21397   0.56609   1.55581
  46   35502.5    281.7   0.148729025   1.37915   0.50256   0.99955  -0.35704
  47   35723.1    279.9   0.009974805   0.09192   0.12226   0.20570  -0.18618
  48   36079.0    277.2   0.011401019   0.10403  -0.19116  -0.25939  -0.01430
  49   36400.5    274.7   0.114129738   1.03221   0.27298  -0.38921   0.89789
  50   37038.5    270.0   0.001541667   0.01370  -0.03456   0.07126  -0.08620
  51   37161.9    269.1   0.093265707   0.82623   0.14078   0.04063   0.89708
  52   37183.3    268.9   0.030812973   0.27281  -0.17781  -0.21760  -0.44028
  53   37352.4    267.7   0.003187287   0.02809   0.12528   0.02568   0.10834
  54   37637.7    265.7   0.097543798   0.85320   0.00871   0.12395   0.91529
  55   38072.6    262.7   0.261195432   2.25854  -0.34372  -0.88632   1.16398
  56   38139.4    262.2   0.040035198   0.34558   0.42022   0.30025   0.28079
  57   38380.0    260.6   0.028270671   0.24250   0.31216   0.38085  -0.00229
  58   38495.6    259.8   0.001973076   0.01687  -0.07035   0.10404   0.03318
  59   38676.9    258.6   0.068546470   0.58346   0.24634   0.62641   0.36108
  60   39128.6    255.6   0.165557010   1.39293  -0.53326  -0.62801  -0.84508
  61   39496.6    253.2   0.094578557   0.78833  -0.27366  -0.84465  -0.00370
  62   39623.6    252.4   0.012262574   0.10188   0.07941   0.29566   0.09035
  63   40121.8    249.2   0.012451668   0.10217  -0.15108  -0.22629  -0.16774
  64   40309.7    248.1   0.009308273   0.07602  -0.10463  -0.24523  -0.07024

FINAL SINGLE POINT ENERGY     -8915.363272244322

DIPOLE MOMENT
-------------
                                X             Y             Z
Electronic contribution:    -59.30448     -97.33701      76.32250
Nuclear contribution   :     58.06576      97.29670     -77.72030
                        -----------------------------------------
Total Dipole Moment    :     -1.23872      -0.04030      -1.39780
                        -----------------------------------------
Magnitude (a.u.)       :      1.86813
Magnitude (Debye)      :      4.74840

Rotational constants in cm-1:     0.001344     0.000114     0.000106
Rotational constants in MHz :    40.292807     3.405425     3.170346

                             ****ORCA TERMINATED NORMALLY****
TOTAL RUN TIME: 0 days 0 hours 13 minutes 10 seconds 336 msec
