                         Program Version 4.2.0 -  RELEASE  -
|  1> # ORCA input file
|  2> # SCF done       -196.288206901485          0.000255044941
|  3> ! CAM-B3LYP def2-SVP def2/J RIJCOSX Grid4 TightSCF
|  4> %maxcore 5000
|  5> %tddft
|  6>     Mode sTDDFT
|  7>     Ethresh 5.0
|  8>     maxcore 5000
|  9> end
| 10>
| 11> %pal
| 12>   nprocs 6
| 13>   end
| 14> * xyz 0 1
| 15>    C        1.14940        -1.88967        -3.86516
| 16>    C        0.59718        -1.05871        -4.79122
| 17>    C        0.26755         0.18941        -4.22789
| 18>    C        0.58808         0.26256        -2.86694
| 19>    S        1.28486        -1.18323        -2.28759
| 20>    C        0.22511         1.55198        -2.38256
| 21>    C       -0.32411         2.28481        -3.44203
| 22>    C       -0.31485         1.45198        -4.63969
| 23>    C       -0.75886         1.79917        -5.88231
| 24>    C       -1.30634         3.06996        -6.15524
| 25>    N       -1.75183         4.10255        -6.38032
| 26>    C       -0.69882         0.91273        -6.97783
| 27>    N       -0.65296         0.19691        -7.87250
| 28>    C       -0.71080         3.57351        -3.07067
| 29>    C       -0.45604         3.82353        -1.73547
| 30>    S        0.26952         2.44284        -0.92587
| 31>    C       -0.70103         5.02297        -1.01883
| 32>    C       -0.41525         5.29388         0.30496
| 33>    C       -0.77497         6.59473         0.66233
| 34>    C       -1.34400         7.31589        -0.40121
| 35>    S       -1.43687         6.39649        -1.83757
| 36>    C       -1.65214         8.62205         0.05130
| 37>    C       -1.27428         8.73230         1.39922
| 38>    C       -0.71984         7.45622         1.83088
| 39>    C       -0.25106         7.13769         3.07152
| 40>    C       -0.25134         8.06316         4.13616
| 41>    N       -0.24967         8.81148         5.00491
| 42>    C        0.26118         5.85825         3.37256
| 43>    N        0.67816         4.81870         3.61848
| 44>    C       -1.51337         9.99868         1.93112
| 45>    C       -2.07525        10.85511         1.00031
| 46>    S       -2.31567        10.07475        -0.55827
| 47>    C       -2.42283        12.21639         1.16956
| 48>    S       -2.04860        13.04661         2.66914
| 49>    C       -2.70106        14.49937         2.02829
| 50>    C       -3.19187        14.34234         0.73065
| 51>    C       -3.03181        13.05303         0.24652
| 52>    C       -3.75164        15.64429         0.20811
| 53>    C       -3.00731        16.10949        -1.04595
| 54>    C       -5.25445        15.52998        -0.06461
| 55>    C       -3.47608        16.55264         1.38399
| 56>    C       -2.87077        15.84317         2.42587
| 57>    S       -2.52295        16.83597         3.77774
| 58>    C       -3.18750        18.23028         2.94180
| 59>    C       -3.65559        17.89402         1.67644
| 60>    C       -3.15924        19.48722         3.59138
| 61>    C       -3.61702        20.64702         3.05304
| 62>    C       -3.56099        21.91213         3.68690
| 63>    C       -3.05058        22.26224         4.92850
| 64>    C       -3.16911        23.62642         5.18026
| 65>    C       -3.77598        24.33270         4.12664
| 66>    S       -4.19941        23.30959         2.82744
| 67>    C       -3.84264        25.70218         4.47945
| 68>    C       -3.27856        25.86610         5.75675
| 69>    C       -2.83596        24.57010         6.23939
| 70>    C       -2.23030        24.29322         7.43012
| 71>    C       -1.95309        25.29702         8.38147
| 72>    N       -1.72675        26.11139         9.15646
| 73>    C       -1.83932        22.98588         7.78653
| 74>    N       -1.52021        21.92360         8.07792
| 75>    C       -3.29592        27.19264         6.19176
| 76>    C       -3.86545        28.03621         5.25835
| 77>    S       -4.39207        27.17671         3.81505
| 78>    C       -4.04964        29.43967         5.35052
| 79>    C       -4.60440        30.28070         4.40442
| 80>    C       -4.62270        31.60835         4.83483
| 81>    C       -4.08006        31.77580         6.11495
| 82>    S       -3.54378        30.30358         6.79493
| 83>    C       -4.14666        33.15723         6.45559
| 84>    C       -4.72940        33.85322         5.38963
| 85>    C       -5.04856        32.91089         4.33463
| 86>    C       -5.62289        33.17645         3.12574
| 87>    C       -5.99531        34.48103         2.73987
| 88>    N       -6.30031        35.53919         2.42005
| 89>    C       -5.88156        32.16321         2.17939
| 90>    N       -6.09300        31.34154         1.40771
| 91>    C       -4.83480        35.23463         5.64348
| 92>    C       -4.34021        35.55166         6.87143
| 93>    S       -3.73399        34.18677         7.75223
| 94>    H        1.49464        -2.89419        -4.00622
| 95>    H        0.43794        -1.33071        -5.81859
| 96>    H       -1.15234         4.30289        -3.72583
| 97>    H        0.03741         4.57296         0.96197
| 98>    H       -1.29472        10.30239         2.93908
| 99>    H       -3.33135        12.71076        -0.72811
|100>    H       -3.15813        15.39886        -1.85467
|101>    H       -1.94133        16.18909        -0.84525
|102>    H       -3.37664        17.08242        -1.36020
|103>    H       -5.43595        14.81161        -0.86011
|104>    H       -5.65383        16.49543        -0.36495
|105>    H       -5.77691        15.19948         0.83027
|106>    H       -4.09926        18.61001         1.00958
|107>    H       -2.72621        19.49596         4.58156
|108>    H       -4.05496        20.63841         2.06496
|109>    H       -2.61432        21.55252         5.60636
|110>    H       -2.91599        27.54062         7.13562
|111>    H       -4.97042        29.92972         3.45623
|112>    H       -5.25041        35.95475         4.96265
|113>    H       -4.28951        36.51876         7.33000
|114> *
|115>
|116>                          ****END OF INPUT****

CARTESIAN COORDINATES (ANGSTROEM)
---------------------------------
  C      1.149400   -1.889670   -3.865160
  C      0.597180   -1.058710   -4.791220
  C      0.267550    0.189410   -4.227890
  C      0.588080    0.262560   -2.866940
  S      1.284860   -1.183230   -2.287590
  C      0.225110    1.551980   -2.382560
  C     -0.324110    2.284810   -3.442030
  C     -0.314850    1.451980   -4.639690
  C     -0.758860    1.799170   -5.882310
  C     -1.306340    3.069960   -6.155240
  N     -1.751830    4.102550   -6.380320
  C     -0.698820    0.912730   -6.977830
  N     -0.652960    0.196910   -7.872500
  C     -0.710800    3.573510   -3.070670
  C     -0.456040    3.823530   -1.735470
  S      0.269520    2.442840   -0.925870
  C     -0.701030    5.022970   -1.018830
  C     -0.415250    5.293880    0.304960
  C     -0.774970    6.594730    0.662330
  C     -1.344000    7.315890   -0.401210
  S     -1.436870    6.396490   -1.837570
  C     -1.652140    8.622050    0.051300
  C     -1.274280    8.732300    1.399220
  C     -0.719840    7.456220    1.830880
  C     -0.251060    7.137690    3.071520
  C     -0.251340    8.063160    4.136160
  N     -0.249670    8.811480    5.004910
  C      0.261180    5.858250    3.372560
  N      0.678160    4.818700    3.618480
  C     -1.513370    9.998680    1.931120
  C     -2.075250   10.855110    1.000310
  S     -2.315670   10.074750   -0.558270
  C     -2.422830   12.216390    1.169560
  S     -2.048600   13.046610    2.669140
  C     -2.701060   14.499370    2.028290
  C     -3.191870   14.342340    0.730650
  C     -3.031810   13.053030    0.246520
  C     -3.751640   15.644290    0.208110
  C     -3.007310   16.109490   -1.045950
  C     -5.254450   15.529980   -0.064610
  C     -3.476080   16.552640    1.383990
  C     -2.870770   15.843170    2.425870
  S     -2.522950   16.835970    3.777740
  C     -3.187500   18.230280    2.941800
  C     -3.655590   17.894020    1.676440
  C     -3.159240   19.487220    3.591380
  C     -3.617020   20.647020    3.053040
  C     -3.560990   21.912130    3.686900
  C     -3.050580   22.262240    4.928500
  C     -3.169110   23.626420    5.180260
  C     -3.775980   24.332700    4.126640
  S     -4.199410   23.309590    2.827440
  C     -3.842640   25.702180    4.479450
  C     -3.278560   25.866100    5.756750
  C     -2.835960   24.570100    6.239390
  C     -2.230300   24.293220    7.430120
  C     -1.953090   25.297020    8.381470
  N     -1.726750   26.111390    9.156460
  C     -1.839320   22.985880    7.786530
  N     -1.520210   21.923600    8.077920
  C     -3.295920   27.192640    6.191760
  C     -3.865450   28.036210    5.258350
  S     -4.392070   27.176710    3.815050
  C     -4.049640   29.439670    5.350520
  C     -4.604400   30.280700    4.404420
  C     -4.622700   31.608350    4.834830
  C     -4.080060   31.775800    6.114950
  S     -3.543780   30.303580    6.794930
  C     -4.146660   33.157230    6.455590
  C     -4.729400   33.853220    5.389630
  C     -5.048560   32.910890    4.334630
  C     -5.622890   33.176450    3.125740
  C     -5.995310   34.481030    2.739870
  N     -6.300310   35.539190    2.420050
  C     -5.881560   32.163210    2.179390
  N     -6.093000   31.341540    1.407710
  C     -4.834800   35.234630    5.643480
  C     -4.340210   35.551660    6.871430
  S     -3.733990   34.186770    7.752230
  H      1.494640   -2.894190   -4.006220
  H      0.437940   -1.330710   -5.818590
  H     -1.152340    4.302890   -3.725830
  H      0.037410    4.572960    0.961970
  H     -1.294720   10.302390    2.939080
  H     -3.331350   12.710760   -0.728110
  H     -3.158130   15.398860   -1.854670
  H     -1.941330   16.189090   -0.845250
  H     -3.376640   17.082420   -1.360200
  H     -5.435950   14.811610   -0.860110
  H     -5.653830   16.495430   -0.364950
  H     -5.776910   15.199480    0.830270
  H     -4.099260   18.610010    1.009580
  H     -2.726210   19.495960    4.581560
  H     -4.054960   20.638410    2.064960
  H     -2.614320   21.552520    5.606360
  H     -2.915990   27.540620    7.135620
  H     -4.970420   29.929720    3.456230
  H     -5.250410   35.954750    4.962650
  H     -4.289510   36.518760    7.330000

 Total Charge           Charge          ....    0
 Multiplicity           Mult            ....    1
 Number of Electrons    NEL             ....  602
 Basis Dimension        Dim             .... 1246

ORBITAL ENERGIES
----------------

  NO   OCC          E(Eh)            E(eV)
   0   2.0000     -88.989992     -2421.5408
   1   2.0000     -88.989817     -2421.5360
   2   2.0000     -88.989323     -2421.5226
   3   2.0000     -88.989237     -2421.5202
   4   2.0000     -88.987641     -2421.4768
   5   2.0000     -88.986313     -2421.4407
   6   2.0000     -88.985791     -2421.4265
   7   2.0000     -88.984806     -2421.3997
   8   2.0000     -88.970794     -2421.0184
   9   2.0000     -88.966951     -2420.9138
  10   2.0000     -14.430435      -392.6721
  11   2.0000     -14.429807      -392.6550
  12   2.0000     -14.429460      -392.6456
  13   2.0000     -14.429369      -392.6431
  14   2.0000     -14.429275      -392.6405
  15   2.0000     -14.429039      -392.6341
  16   2.0000     -14.428149      -392.6099
  17   2.0000     -14.427805      -392.6005
  18   2.0000     -10.363884      -282.0156
  19   2.0000     -10.362906      -281.9890
  20   2.0000     -10.362178      -281.9692
  21   2.0000     -10.361777      -281.9583
  22   2.0000     -10.351127      -281.6685
  23   2.0000     -10.350516      -281.6518
  24   2.0000     -10.350069      -281.6397
  25   2.0000     -10.349663      -281.6287
  26   2.0000     -10.331717      -281.1403
  27   2.0000     -10.331355      -281.1305
  28   2.0000     -10.330889      -281.1178
  29   2.0000     -10.330332      -281.1026
  30   2.0000     -10.330153      -281.0978
  31   2.0000     -10.329819      -281.0887
  32   2.0000     -10.329710      -281.0857
  33   2.0000     -10.329645      -281.0839
  34   2.0000     -10.329249      -281.0732
  35   2.0000     -10.328793      -281.0607
  36   2.0000     -10.328557      -281.0543
  37   2.0000     -10.328468      -281.0519
  38   2.0000     -10.328452      -281.0515
  39   2.0000     -10.328222      -281.0452
  40   2.0000     -10.328099      -281.0419
  41   2.0000     -10.328002      -281.0392
  42   2.0000     -10.327726      -281.0317
  43   2.0000     -10.327461      -281.0245
  44   2.0000     -10.327050      -281.0133
  45   2.0000     -10.326204      -280.9903
  46   2.0000     -10.325548      -280.9724
  47   2.0000     -10.320205      -280.8270
  48   2.0000     -10.316621      -280.7295
  49   2.0000     -10.310000      -280.5494
  50   2.0000     -10.309574      -280.5378
  51   2.0000     -10.309343      -280.5315
  52   2.0000     -10.308465      -280.5076
  53   2.0000     -10.307785      -280.4891
  54   2.0000     -10.301516      -280.3185
  55   2.0000     -10.301450      -280.3167
  56   2.0000     -10.301336      -280.3136
  57   2.0000     -10.300950      -280.3031
  58   2.0000     -10.300936      -280.3027
  59   2.0000     -10.300913      -280.3021
  60   2.0000     -10.300735      -280.2973
  61   2.0000     -10.300549      -280.2922
  62   2.0000     -10.300481      -280.2903
  63   2.0000     -10.300226      -280.2834
  64   2.0000     -10.300080      -280.2794
  65   2.0000     -10.297433      -280.2074
  66   2.0000     -10.297245      -280.2023
  67   2.0000     -10.297072      -280.1976
  68   2.0000     -10.296236      -280.1748
  69   2.0000     -10.295772      -280.1622
  70   2.0000     -10.294974      -280.1405
  71   2.0000     -10.293889      -280.1110
  72   2.0000     -10.291591      -280.0484
  73   2.0000     -10.287884      -279.9475
  74   2.0000     -10.283196      -279.8200
  75   2.0000     -10.280638      -279.7504
  76   2.0000     -10.279697      -279.7248
  77   2.0000     -10.271255      -279.4951
  78   2.0000     -10.271200      -279.4936
  79   2.0000      -8.084389      -219.9874
  80   2.0000      -8.084227      -219.9830
  81   2.0000      -8.083722      -219.9692
  82   2.0000      -8.083649      -219.9673
  83   2.0000      -8.082061      -219.9241
  84   2.0000      -8.081316      -219.9038
  85   2.0000      -8.080858      -219.8913
  86   2.0000      -8.079620      -219.8576
  87   2.0000      -8.065493      -219.4732
  88   2.0000      -8.062025      -219.3788
  89   2.0000      -6.053714      -164.7299
  90   2.0000      -6.053538      -164.7251
  91   2.0000      -6.053021      -164.7111
  92   2.0000      -6.052968      -164.7096
  93   2.0000      -6.051379      -164.6664
  94   2.0000      -6.050569      -164.6443
  95   2.0000      -6.050116      -164.6320
  96   2.0000      -6.049524      -164.6159
  97   2.0000      -6.049362      -164.6115
  98   2.0000      -6.048859      -164.5978
  99   2.0000      -6.048807      -164.5964
 100   2.0000      -6.048794      -164.5960
 101   2.0000      -6.047221      -164.5533
 102   2.0000      -6.046635      -164.5373
 103   2.0000      -6.046491      -164.5334
 104   2.0000      -6.046117      -164.5232
 105   2.0000      -6.046007      -164.5202
 106   2.0000      -6.045905      -164.5174
 107   2.0000      -6.045645      -164.5104
 108   2.0000      -6.044694      -164.4845
 109   2.0000      -6.044329      -164.4746
 110   2.0000      -6.043940      -164.4640
 111   2.0000      -6.043464      -164.4510
 112   2.0000      -6.042044      -164.4124
 113   2.0000      -6.034920      -164.2185
 114   2.0000      -6.031295      -164.1199
 115   2.0000      -6.030841      -164.1075
 116   2.0000      -6.027412      -164.0142
 117   2.0000      -6.027273      -164.0104
 118   2.0000      -6.024154      -163.9256
 119   2.0000      -1.044231       -28.4150
 120   2.0000      -1.043291       -28.3894
 121   2.0000      -1.040928       -28.3251
 122   2.0000      -1.040153       -28.3040
 123   2.0000      -1.021987       -27.8097
 124   2.0000      -1.021251       -27.7897
 125   2.0000      -1.020438       -27.7675
 126   2.0000      -1.019683       -27.7470
 127   2.0000      -1.018352       -27.7108
 128   2.0000      -1.007611       -27.4185
 129   2.0000      -1.007286       -27.4096
 130   2.0000      -1.006511       -27.3886
 131   2.0000      -1.006103       -27.3775
 132   2.0000      -1.002395       -27.2765
 133   2.0000      -1.000928       -27.2366
 134   2.0000      -0.990264       -26.9465
 135   2.0000      -0.986980       -26.8571
 136   2.0000      -0.978143       -26.6166
 137   2.0000      -0.959966       -26.1220
 138   2.0000      -0.958719       -26.0881
 139   2.0000      -0.952255       -25.9122
 140   2.0000      -0.951792       -25.8996
 141   2.0000      -0.933960       -25.4143
 142   2.0000      -0.918954       -25.0060
 143   2.0000      -0.915321       -24.9072
 144   2.0000      -0.905113       -24.6294
 145   2.0000      -0.900794       -24.5119
 146   2.0000      -0.890735       -24.2381
 147   2.0000      -0.872522       -23.7425
 148   2.0000      -0.868047       -23.6208
 149   2.0000      -0.866688       -23.5838
 150   2.0000      -0.866042       -23.5662
 151   2.0000      -0.861342       -23.4383
 152   2.0000      -0.855685       -23.2844
 153   2.0000      -0.852471       -23.1969
 154   2.0000      -0.848378       -23.0855
 155   2.0000      -0.847535       -23.0626
 156   2.0000      -0.836825       -22.7712
 157   2.0000      -0.832760       -22.6605
 158   2.0000      -0.828912       -22.5558
 159   2.0000      -0.822211       -22.3735
 160   2.0000      -0.804573       -21.8935
 161   2.0000      -0.787554       -21.4304
 162   2.0000      -0.782797       -21.3010
 163   2.0000      -0.776881       -21.1400
 164   2.0000      -0.774618       -21.0784
 165   2.0000      -0.773181       -21.0393
 166   2.0000      -0.772343       -21.0165
 167   2.0000      -0.759495       -20.6669
 168   2.0000      -0.748143       -20.3580
 169   2.0000      -0.723648       -19.6915
 170   2.0000      -0.715039       -19.4572
 171   2.0000      -0.707856       -19.2617
 172   2.0000      -0.702863       -19.1259
 173   2.0000      -0.701451       -19.0874
 174   2.0000      -0.701252       -19.0820
 175   2.0000      -0.693229       -18.8637
 176   2.0000      -0.686352       -18.6766
 177   2.0000      -0.684004       -18.6127
 178   2.0000      -0.680685       -18.5224
 179   2.0000      -0.674135       -18.3441
 180   2.0000      -0.673202       -18.3188
 181   2.0000      -0.662625       -18.0309
 182   2.0000      -0.656588       -17.8667
 183   2.0000      -0.643614       -17.5136
 184   2.0000      -0.639246       -17.3948
 185   2.0000      -0.635592       -17.2953
 186   2.0000      -0.630925       -17.1683
 187   2.0000      -0.627315       -17.0701
 188   2.0000      -0.626685       -17.0530
 189   2.0000      -0.621951       -16.9241
 190   2.0000      -0.620791       -16.8926
 191   2.0000      -0.617990       -16.8164
 192   2.0000      -0.617506       -16.8032
 193   2.0000      -0.614669       -16.7260
 194   2.0000      -0.612103       -16.6562
 195   2.0000      -0.610161       -16.6033
 196   2.0000      -0.607846       -16.5403
 197   2.0000      -0.596446       -16.2301
 198   2.0000      -0.579004       -15.7555
 199   2.0000      -0.573830       -15.6147
 200   2.0000      -0.567386       -15.4394
 201   2.0000      -0.559828       -15.2337
 202   2.0000      -0.558226       -15.1901
 203   2.0000      -0.547686       -14.9033
 204   2.0000      -0.547501       -14.8983
 205   2.0000      -0.546558       -14.8726
 206   2.0000      -0.543142       -14.7796
 207   2.0000      -0.542324       -14.7574
 208   2.0000      -0.542116       -14.7517
 209   2.0000      -0.534840       -14.5537
 210   2.0000      -0.533616       -14.5204
 211   2.0000      -0.530697       -14.4410
 212   2.0000      -0.521972       -14.2036
 213   2.0000      -0.519197       -14.1281
 214   2.0000      -0.515186       -14.0189
 215   2.0000      -0.513962       -13.9856
 216   2.0000      -0.509166       -13.8551
 217   2.0000      -0.507626       -13.8132
 218   2.0000      -0.507128       -13.7997
 219   2.0000      -0.503338       -13.6965
 220   2.0000      -0.502638       -13.6775
 221   2.0000      -0.501262       -13.6400
 222   2.0000      -0.498141       -13.5551
 223   2.0000      -0.496889       -13.5210
 224   2.0000      -0.495655       -13.4875
 225   2.0000      -0.495550       -13.4846
 226   2.0000      -0.493531       -13.4297
 227   2.0000      -0.491894       -13.3851
 228   2.0000      -0.489752       -13.3268
 229   2.0000      -0.485692       -13.2164
 230   2.0000      -0.484951       -13.1962
 231   2.0000      -0.483350       -13.1526
 232   2.0000      -0.483168       -13.1477
 233   2.0000      -0.480651       -13.0792
 234   2.0000      -0.479356       -13.0439
 235   2.0000      -0.475931       -12.9507
 236   2.0000      -0.472580       -12.8596
 237   2.0000      -0.471991       -12.8435
 238   2.0000      -0.468292       -12.7429
 239   2.0000      -0.467063       -12.7094
 240   2.0000      -0.464477       -12.6391
 241   2.0000      -0.462875       -12.5955
 242   2.0000      -0.461224       -12.5505
 243   2.0000      -0.460993       -12.5443
 244   2.0000      -0.460514       -12.5312
 245   2.0000      -0.460125       -12.5206
 246   2.0000      -0.457871       -12.4593
 247   2.0000      -0.457345       -12.4450
 248   2.0000      -0.456885       -12.4325
 249   2.0000      -0.456285       -12.4161
 250   2.0000      -0.455896       -12.4056
 251   2.0000      -0.454251       -12.3608
 252   2.0000      -0.450760       -12.2658
 253   2.0000      -0.445824       -12.1315
 254   2.0000      -0.442080       -12.0296
 255   2.0000      -0.440874       -11.9968
 256   2.0000      -0.440216       -11.9789
 257   2.0000      -0.439996       -11.9729
 258   2.0000      -0.439934       -11.9712
 259   2.0000      -0.439497       -11.9593
 260   2.0000      -0.439243       -11.9524
 261   2.0000      -0.439086       -11.9481
 262   2.0000      -0.438872       -11.9423
 263   2.0000      -0.437721       -11.9110
 264   2.0000      -0.437058       -11.8929
 265   2.0000      -0.435596       -11.8532
 266   2.0000      -0.435411       -11.8481
 267   2.0000      -0.433887       -11.8067
 268   2.0000      -0.433062       -11.7842
 269   2.0000      -0.431967       -11.7544
 270   2.0000      -0.427286       -11.6271
 271   2.0000      -0.425381       -11.5752
 272   2.0000      -0.425222       -11.5709
 273   2.0000      -0.423498       -11.5240
 274   2.0000      -0.423163       -11.5149
 275   2.0000      -0.420845       -11.4518
 276   2.0000      -0.410170       -11.1613
 277   2.0000      -0.408325       -11.1111
 278   2.0000      -0.407896       -11.0994
 279   2.0000      -0.406096       -11.0504
 280   2.0000      -0.399507       -10.8711
 281   2.0000      -0.388843       -10.5810
 282   2.0000      -0.383022       -10.4226
 283   2.0000      -0.370105       -10.0711
 284   2.0000      -0.353557        -9.6208
 285   2.0000      -0.349849        -9.5199
 286   2.0000      -0.348487        -9.4828
 287   2.0000      -0.345019        -9.3885
 288   2.0000      -0.344173        -9.3654
 289   2.0000      -0.335644        -9.1333
 290   2.0000      -0.331287        -9.0148
 291   2.0000      -0.326462        -8.8835
 292   2.0000      -0.321587        -8.7508
 293   2.0000      -0.320817        -8.7299
 294   2.0000      -0.319809        -8.7025
 295   2.0000      -0.319217        -8.6863
 296   2.0000      -0.308300        -8.3893
 297   2.0000      -0.286688        -7.8012
 298   2.0000      -0.262853        -7.1526
 299   2.0000      -0.244347        -6.6490
 300   2.0000      -0.221037        -6.0147
 301   0.0000      -0.106249        -2.8912
 302   0.0000      -0.103359        -2.8125
 303   0.0000      -0.100056        -2.7227
 304   0.0000      -0.099516        -2.7080
 305   0.0000      -0.063109        -1.7173

MULLIKEN ATOMIC CHARGES
-----------------------
   0 C :   -0.082168
   1 C :    0.038202
   2 C :   -0.033114
   3 C :   -0.116993
   4 S :    0.183415
   5 C :   -0.102159
   6 C :    0.016691
   7 C :    0.297428
   8 C :   -0.302363
   9 C :   -0.188407
  10 N :    0.170578
  11 C :   -0.189811
  12 N :    0.175116
  13 C :   -0.069964
  14 C :   -0.049958
  15 S :    0.191571
  16 C :   -0.050607
  17 C :   -0.068909
  18 C :    0.013830
  19 C :   -0.095376
  20 S :    0.188989
  21 C :   -0.104444
  22 C :    0.019585
  23 C :    0.298619
  24 C :   -0.301301
  25 C :   -0.187493
  26 N :    0.176535
  27 C :   -0.190540
  28 N :    0.173843
  29 C :   -0.068462
  30 C :   -0.045473
  31 S :    0.176730
  32 C :   -0.059948
  33 S :    0.159059
  34 C :   -0.086567
  35 C :    0.017543
  36 C :   -0.069555
  37 C :   -0.109822
  38 C :    0.103846
  39 C :    0.107167
  40 C :    0.005991
  41 C :   -0.085951
  42 S :    0.158265
  43 C :   -0.083230
  44 C :   -0.037918
  45 C :    0.049356
  46 C :    0.035546
  47 C :   -0.071019
  48 C :   -0.037867
  49 C :    0.003644
  50 C :   -0.106660
  51 S :    0.181340
  52 C :   -0.096291
  53 C :    0.010279
  54 C :    0.304441
  55 C :   -0.301092
  56 C :   -0.188032
  57 N :    0.169392
  58 C :   -0.183894
  59 N :    0.170770
  60 C :   -0.066646
  61 C :   -0.051230
  62 S :    0.188716
  63 C :   -0.050124
  64 C :   -0.068759
  65 C :    0.015454
  66 C :   -0.102154
  67 S :    0.190791
  68 C :   -0.115364
  69 C :   -0.035408
  70 C :    0.299168
  71 C :   -0.300478
  72 C :   -0.190480
  73 N :    0.175985
  74 C :   -0.186555
  75 N :    0.167235
  76 C :    0.039180
  77 C :   -0.083907
  78 S :    0.182756
  79 H :    0.035440
  80 H :    0.011579
  81 H :    0.010193
  82 H :    0.009809
  83 H :    0.011185
  84 H :   -0.018236
  85 H :    0.011240
  86 H :    0.024053
  87 H :    0.010160
  88 H :    0.010913
  89 H :    0.010643
  90 H :    0.023212
  91 H :   -0.025803
  92 H :   -0.010463
  93 H :   -0.024326
  94 H :    0.004515
  95 H :    0.008742
  96 H :    0.009215
  97 H :    0.011705
  98 H :    0.035664
Sum of atomic charges:   -0.0000000

LOEWDIN ATOMIC CHARGES
----------------------
   0 C :   -0.178734
   1 C :   -0.033807
   2 C :   -0.079242
   3 C :   -0.182637
   4 S :    0.478872
   5 C :   -0.182014
   6 C :   -0.068902
   7 C :    0.084517
   8 C :   -0.105129
   9 C :   -0.015616
  10 N :   -0.037380
  11 C :   -0.017050
  12 N :   -0.033539
  13 C :   -0.042396
  14 C :   -0.179964
  15 S :    0.482412
  16 C :   -0.182080
  17 C :   -0.039252
  18 C :   -0.073900
  19 C :   -0.175452
  20 S :    0.480019
  21 C :   -0.188871
  22 C :   -0.066137
  23 C :    0.084082
  24 C :   -0.102434
  25 C :   -0.016883
  26 N :   -0.031786
  27 C :   -0.015717
  28 N :   -0.034794
  29 C :   -0.043018
  30 C :   -0.170962
  31 S :    0.470633
  32 C :   -0.186512
  33 S :    0.448321
  34 C :   -0.192077
  35 C :   -0.036879
  36 C :   -0.060154
  37 C :   -0.034697
  38 C :   -0.024234
  39 C :   -0.023236
  40 C :   -0.035234
  41 C :   -0.197148
  42 S :    0.445284
  43 C :   -0.167799
  44 C :   -0.051149
  45 C :   -0.029553
  46 C :   -0.054564
  47 C :   -0.156644
  48 C :   -0.033643
  49 C :   -0.064840
  50 C :   -0.194167
  51 S :    0.470827
  52 C :   -0.173669
  53 C :   -0.074881
  54 C :    0.084678
  55 C :   -0.104285
  56 C :   -0.015815
  57 N :   -0.035630
  58 C :   -0.015710
  59 N :   -0.035179
  60 C :   -0.039243
  61 C :   -0.182546
  62 S :    0.479898
  63 C :   -0.179819
  64 C :   -0.042339
  65 C :   -0.068933
  66 C :   -0.182220
  67 S :    0.482235
  68 C :   -0.182502
  69 C :   -0.079379
  70 C :    0.084644
  71 C :   -0.105097
  72 C :   -0.017102
  73 N :   -0.033663
  74 C :   -0.015556
  75 N :   -0.037446
  76 C :   -0.033808
  77 C :   -0.178881
  78 S :    0.478509
  79 H :    0.027465
  80 H :    0.042410
  81 H :    0.034442
  82 H :    0.035184
  83 H :    0.035970
  84 H :    0.024934
  85 H :    0.023863
  86 H :    0.031100
  87 H :    0.023649
  88 H :    0.023762
  89 H :    0.023748
  90 H :    0.031118
  91 H :    0.027842
  92 H :    0.031048
  93 H :    0.025399
  94 H :    0.037958
  95 H :    0.034910
  96 H :    0.034306
  97 H :    0.042446
  98 H :    0.027444

  Mayer bond orders larger than 0.100000
B(  0-C ,  1-C ) :   1.5510 B(  0-C ,  4-S ) :   1.1483 B(  0-C , 79-H ) :   0.9641
B(  1-C ,  2-C ) :   1.2757 B(  1-C , 80-H ) :   0.9958 B(  2-C ,  3-C ) :   1.4572
B(  2-C ,  7-C ) :   1.0182 B(  3-C ,  4-S ) :   1.1393 B(  3-C ,  5-C ) :   1.1803
B(  5-C ,  6-C ) :   1.4661 B(  5-C , 15-S ) :   1.1194 B(  6-C ,  7-C ) :   0.9923
B(  6-C , 13-C ) :   1.2945 B(  7-C ,  8-C ) :   1.7087 B(  8-C ,  9-C ) :   1.1359
B(  8-C , 11-C ) :   1.1304 B(  9-C , 10-N ) :   2.9907 B( 11-C , 12-N ) :   3.0042
B( 13-C , 14-C ) :   1.4671 B( 13-C , 81-H ) :   0.9858 B( 14-C , 15-S ) :   1.1113
B( 14-C , 16-C ) :   1.1632 B( 16-C , 17-C ) :   1.4703 B( 16-C , 20-S ) :   1.1015
B( 17-C , 18-C ) :   1.2940 B( 17-C , 82-H ) :   0.9861 B( 18-C , 19-C ) :   1.4443
B( 18-C , 23-C ) :   0.9983 B( 19-C , 20-S ) :   1.1209 B( 19-C , 21-C ) :   1.1888
B( 21-C , 22-C ) :   1.4522 B( 21-C , 31-S ) :   1.1081 B( 22-C , 23-C ) :   0.9899
B( 22-C , 29-C ) :   1.2965 B( 23-C , 24-C ) :   1.7134 B( 24-C , 25-C ) :   1.1329
B( 24-C , 27-C ) :   1.1359 B( 25-C , 26-N ) :   2.9949 B( 27-C , 28-N ) :   2.9932
B( 29-C , 30-C ) :   1.4546 B( 29-C , 83-H ) :   0.9890 B( 30-C , 31-S ) :   1.1076
B( 30-C , 32-C ) :   1.1757 B( 32-C , 33-S ) :   1.1121 B( 32-C , 36-C ) :   1.4468
B( 33-S , 34-C ) :   1.0808 B( 34-C , 35-C ) :   1.5324 B( 34-C , 41-C ) :   1.1809
B( 35-C , 36-C ) :   1.3232 B( 35-C , 37-C ) :   0.9392 B( 36-C , 84-H ) :   0.9951
B( 37-C , 38-C ) :   1.0386 B( 37-C , 39-C ) :   1.0306 B( 37-C , 40-C ) :   0.9403
B( 38-C , 85-H ) :   0.9640 B( 38-C , 86-H ) :   0.9647 B( 38-C , 87-H ) :   0.9638
B( 39-C , 88-H ) :   0.9648 B( 39-C , 89-H ) :   0.9648 B( 39-C , 90-H ) :   0.9643
B( 40-C , 41-C ) :   1.5091 B( 40-C , 44-C ) :   1.3379 B( 41-C , 42-S ) :   1.0893
B( 42-S , 43-C ) :   1.1068 B( 43-C , 44-C ) :   1.4385 B( 43-C , 45-C ) :   1.1411
B( 44-C , 91-H ) :   0.9979 B( 45-C , 46-C ) :   1.6917 B( 45-C , 92-H ) :   0.9579
B( 46-C , 47-C ) :   1.1333 B( 46-C , 93-H ) :   0.9559 B( 47-C , 48-C ) :   1.4456
B( 47-C , 51-S ) :   1.1088 B( 48-C , 49-C ) :   1.3103 B( 48-C , 94-H ) :   0.9899
B( 49-C , 50-C ) :   1.4373 B( 49-C , 54-C ) :   0.9932 B( 50-C , 51-S ) :   1.1123
B( 50-C , 52-C ) :   1.1937 B( 52-C , 53-C ) :   1.4438 B( 52-C , 62-S ) :   1.1223
B( 53-C , 54-C ) :   0.9994 B( 53-C , 60-C ) :   1.2921 B( 54-C , 55-C ) :   1.7108
B( 55-C , 56-C ) :   1.1331 B( 55-C , 58-C ) :   1.1333 B( 56-C , 57-N ) :   2.9920
B( 58-C , 59-N ) :   2.9898 B( 60-C , 61-C ) :   1.4717 B( 60-C , 95-H ) :   0.9865
B( 61-C , 62-S ) :   1.1000 B( 61-C , 63-C ) :   1.1636 B( 63-C , 64-C ) :   1.4672
B( 63-C , 67-S ) :   1.1109 B( 64-C , 65-C ) :   1.2944 B( 64-C , 96-H ) :   0.9862
B( 65-C , 66-C ) :   1.4668 B( 65-C , 70-C ) :   0.9906 B( 66-C , 67-S ) :   1.1191
B( 66-C , 68-C ) :   1.1797 B( 68-C , 69-C ) :   1.4571 B( 68-C , 78-S ) :   1.1389
B( 69-C , 70-C ) :   1.0174 B( 69-C , 76-C ) :   1.2763 B( 70-C , 71-C ) :   1.7100
B( 71-C , 72-C ) :   1.1298 B( 71-C , 74-C ) :   1.1339 B( 72-C , 73-N ) :   3.0045
B( 74-C , 75-N ) :   2.9900 B( 76-C , 77-C ) :   1.5492 B( 76-C , 97-H ) :   0.9960
B( 77-C , 78-S ) :   1.1481 B( 77-C , 98-H ) :   0.9649

-----------------------------------------------------------------------------
         ABSORPTION SPECTRUM VIA TRANSITION ELECTRIC DIPOLE MOMENTS
-----------------------------------------------------------------------------
State   Energy  Wavelength   fosc         T2         TX        TY        TZ
        (cm-1)    (nm)                  (au**2)     (au)      (au)      (au)
-----------------------------------------------------------------------------
   0    9712.7   1029.6   0.532003902  18.03222  -0.59421   4.04288   1.15511
   1   10200.0    980.4   0.008767175   0.28297  -0.13279  -0.51494   0.01305
   2   12918.9    774.1   0.201631924   5.13818  -0.29343   2.19111   0.50111
   3   12985.0    770.1   0.038784197   0.98330  -0.23982   0.78772   0.55253
   4   17831.9    560.8   0.577630182  10.66419   0.39179  -3.15300  -0.75451
   5   18127.3    551.7   0.170569426   3.09774  -0.26298   1.66827   0.49545
   6   19876.0    503.1   1.284305678  21.27236  -0.60089   4.41491   1.19157
   7   20266.1    493.4   0.055395644   0.89987  -0.04745   0.92211   0.21757
   8   20697.4    483.2   0.947798528  15.07565   0.50946  -3.71944  -0.99088
   9   23965.6    417.3   0.004781994   0.06569   0.01046  -0.25145  -0.04849
  10   24225.1    412.8   0.021485352   0.29198  -0.07941   0.51841   0.13012
  11   25342.5    394.6   0.053210528   0.69123  -0.31884  -0.05828   0.76562
  12   26090.9    383.3   0.033329259   0.42055   0.09874  -0.62541  -0.14021
  13   26405.2    378.7   0.017235580   0.21489  -0.14527   0.08511   0.43190
  14   28048.6    356.5   0.153162840   1.79771   0.24176  -1.27914  -0.32104
  15   28122.8    355.6   0.034467863   0.40349   0.12176  -0.51349  -0.35354
  16   28562.3    350.1   0.033743306   0.38893   0.12316  -0.61136  -0.00010
  17   28935.2    345.6   0.556601272   6.33276   0.51907  -2.34397  -0.75439
  18   30432.9    328.6   0.018211764   0.19701  -0.04439  -0.17149  -0.40698
  19   30589.0    326.9   0.020188903   0.21728  -0.14288   0.32796  -0.29884
  20   31129.4    321.2   0.956497697  10.11552   1.10073  -0.72060   2.89562
  21   31766.6    314.8   0.003240369   0.03358   0.08639  -0.13973  -0.08121
  22   31945.4    313.0   0.066782767   0.68823  -0.38339   0.47584  -0.56108
  23   32089.6    311.6   0.003404815   0.03493  -0.08374   0.15720  -0.05663
  24   32328.0    309.3   0.347245315   3.53616   0.64177  -1.26670   1.23278
  25   32356.8    309.1   0.945994170   9.62494   1.31506  -0.10315   2.80801
  26   32838.3    304.5   0.253949460   2.54590   0.19377   0.76801   1.38511
  27   33152.7    301.6   0.702077512   6.97175   0.96371  -0.92229   2.27868
  28   33701.0    296.7   0.400808370   3.91535   0.35808  -1.83691  -0.64255
  29   33816.0    295.7   0.057212968   0.55699   0.01336   0.74389  -0.05866
  30   33988.0    294.2   0.050017928   0.48448  -0.08851   0.61264   0.31831
  31   34177.0    292.6   0.039290704   0.37847  -0.29878   0.08449  -0.53110
  32   34292.2    291.6   0.082850358   0.79538  -0.31503   0.12734  -0.82457
  33   34576.5    289.2   0.018348659   0.17470  -0.26529   0.29958  -0.12073
  34   35088.0    285.0   0.000158223   0.00148   0.02154   0.01001   0.03034
  35   35217.9    283.9   0.408825784   3.82164   0.29786  -1.79770  -0.70795
  36   35288.3    283.4   0.136535547   1.27377   0.09126  -1.12487  -0.00990
  37   35589.8    281.0   0.103258082   0.95516  -0.46524   0.50912  -0.69246
  38   35713.3    280.0   0.006397684   0.05898  -0.07893   0.21248  -0.08715
  39   36184.5    276.4   0.004796885   0.04364   0.03546  -0.19750   0.05814
  40   36318.0    275.3   0.005638184   0.05111   0.05778   0.03035   0.21645
  41   36443.1    274.4   0.013634466   0.12317   0.14731  -0.14378   0.28424
  42   37315.5    268.0   0.008228260   0.07259  -0.11842   0.22019  -0.10042
  43   37798.9    264.6   0.020620141   0.17959   0.17426   0.17887   0.34239
  44   38028.6    263.0   0.010133152   0.08772  -0.16898  -0.02408  -0.24205
  45   38495.9    259.8   0.016854327   0.14414   0.15178  -0.14791   0.31499
  46   38829.7    257.5   0.006959149   0.05900   0.01975   0.08255   0.22759
  47   39343.3    254.2   0.008356930   0.06993  -0.07155   0.25263   0.03143
  48   39535.5    252.9   0.032413570   0.26991   0.22886  -0.25242   0.39219
  49   39755.5    251.5   0.011469784   0.09498  -0.13674   0.04559  -0.27241
  50   39769.6    251.4   0.008030524   0.06648   0.02000   0.23676   0.10010
  51   39923.4    250.5   0.008778284   0.07239  -0.11550   0.19242  -0.14839
  52   40019.3    249.9   0.025190043   0.20722  -0.18113  -0.02198  -0.41705
  53   40139.8    249.1   0.007203956   0.05908   0.04192  -0.21061  -0.11389
  54   40295.2    248.2   0.000950629   0.00777  -0.03673  -0.05453  -0.05869

FINAL SINGLE POINT ENERGY     -6751.446402741533

DIPOLE MOMENT
-------------
                                X             Y             Z
Electronic contribution:     11.21433      -3.96877      15.83606
Nuclear contribution   :    -11.43753       3.90505     -16.22645
                        -----------------------------------------
Total Dipole Moment    :     -0.22320      -0.06371      -0.39039
                        -----------------------------------------
Magnitude (a.u.)       :      0.45418
Magnitude (Debye)      :      1.15443

Rotational constants in cm-1:     0.002412     0.000097     0.000094
Rotational constants in MHz :    72.300169     2.903477     2.804295

                             ****ORCA TERMINATED NORMALLY****
TOTAL RUN TIME: 0 days 0 hours 13 minutes 55 seconds 445 msec
