                         Program Version 4.2.0 -  RELEASE  -
|  1> # ORCA input file
|  2> # SCF done       -176.942945489061          0.000668912185
|  3> ! CAM-B3LYP def2-SVP def2/J RIJCOSX Grid4 TightSCF
|  4> %maxcore 5000
|  5> %tddft
|  6>     Mode sTDDFT
|  7>     Ethresh 5.0
|  8>     maxcore 5000
|  9> end
| 10>
| 11> %pal
| 12>   nprocs 6
| 13>   end
| 14> * xyz 0 1
| 15>    C        0.40050         1.37732         8.71473
| 16>    C        1.11386         0.95205         7.63751
| 17>    C        1.33598         1.99832         6.72076
| 18>    C        0.76834         3.21300         7.14530
| 19>    S       -0.02434         3.05977         8.65044
| 20>    C        1.03769         4.21005         6.17241
| 21>    C        1.77388         3.61425         5.13431
| 22>    C        1.98125         2.20271         5.44599
| 23>    C        2.64773         1.29682         4.67003
| 24>    C        3.21232         1.63500         3.41990
| 25>    N        3.65871         1.89050         2.39485
| 26>    C        2.82678        -0.05004         5.03538
| 27>    N        3.00555        -1.15405         5.29501
| 28>    C        2.11479         4.49143         4.11966
| 29>    C        1.65133         5.78499         4.35471
| 30>    S        0.75983         5.87297         5.87792
| 31>    C        1.80643         6.94375         3.57544
| 32>    C        2.56445         7.06203         2.43392
| 33>    C        2.70363         8.22046         1.62471
| 34>    C        3.52467         8.06616         0.54694
| 35>    C        4.09124         6.77650         0.44628
| 36>    S        3.54072         5.77216         1.76377
| 37>    C        4.94622         6.21694        -0.48276
| 38>    C        5.50810         6.75712        -1.66444
| 39>    C        6.27936         5.87544        -2.35305
| 40>    C        6.38446         4.58687        -1.74687
| 41>    S        5.45952         4.56303        -0.25943
| 42>    C        6.99665         3.48943        -2.27685
| 43>    C        7.07703         2.19212        -1.65864
| 44>    C        6.95130         1.03306        -2.44294
| 45>    F        6.78143         1.17581        -3.76747
| 46>    C        6.95007        -0.23689        -1.89574
| 47>    F        6.75858        -1.28591        -2.69786
| 48>    C        7.09007        -0.42882        -0.51621
| 49>    C        7.28749         0.71165         0.26631
| 50>    C        7.28981         1.97948        -0.28686
| 51>    F        7.59292         3.01735         0.50699
| 52>    F        7.55791         0.58243         1.57055
| 53>    C        7.06189        -1.76475         0.07534
| 54>    N        7.72417        -2.73065        -0.52547
| 55>    N        7.73973        -3.95633        -0.10686
| 56>    C        7.16464        -4.33767         1.01572
| 57>    C        6.48173        -3.37340         1.80245
| 58>    C        6.36392        -2.04660         1.27829
| 59>    N        5.61304        -1.27064         2.05803
| 60>    S        5.15676        -2.11697         3.33878
| 61>    N        5.86825        -3.50865         2.97628
| 62>    C        7.23145        -5.72226         1.43638
| 63>    C        6.13758        -6.42283         1.80331
| 64>    C        6.07278        -7.75676         2.38781
| 65>    C        7.13427        -8.54768         2.73101
| 66>    C        7.01360        -9.82280         3.32529
| 67>    N        6.97880       -10.86331         3.80802
| 68>    C        8.49362        -8.20678         2.55691
| 69>    N        9.61916        -8.00464         2.46119
| 70>    C        4.66688        -8.07710         2.59533
| 71>    C        3.87182        -6.99339         2.14521
| 72>    C        4.74034        -5.93738         1.59957
| 73>    O        4.38756        -4.92483         1.03900
| 74>    C        2.49963        -6.99734         2.22036
| 75>    C        1.87925        -8.12290         2.77042
| 76>    C        2.67992        -9.20416         3.21343
| 77>    C        4.06628        -9.20169         3.13427
| 78>    S        1.71034       -10.49554         3.85402
| 79>    C        0.26399        -9.57847         3.52523
| 80>    C        0.49243        -8.36715         2.96386
| 81>   Br       -1.40942       -10.30421         3.95672
| 82>    H        0.08698         0.80505         9.56465
| 83>    H        1.46187        -0.05697         7.51017
| 84>    H        2.65714         4.19810         3.24344
| 85>    H        1.28809         7.83117         3.91392
| 86>    H        2.18644         9.13272         1.86556
| 87>    H        3.73917         8.84000        -0.16835
| 88>    H        5.31787         7.77032        -1.97134
| 89>    H        6.78233         6.09593        -3.27778
| 90>    H        7.37114         3.56001        -3.28896
| 91>    H        8.21708        -6.16671         1.44359
| 92>    H        1.92436        -6.15599         1.86722
| 93>    H        4.62976       -10.05082         3.48305
| 94>    H       -0.28344        -7.67315         2.69662
| 95> *
| 96>
| 97>                          ****END OF INPUT****

CARTESIAN COORDINATES (ANGSTROEM)
---------------------------------
  C      0.400500    1.377320    8.714730
  C      1.113860    0.952050    7.637510
  C      1.335980    1.998320    6.720760
  C      0.768340    3.213000    7.145300
  S     -0.024340    3.059770    8.650440
  C      1.037690    4.210050    6.172410
  C      1.773880    3.614250    5.134310
  C      1.981250    2.202710    5.445990
  C      2.647730    1.296820    4.670030
  C      3.212320    1.635000    3.419900
  N      3.658710    1.890500    2.394850
  C      2.826780   -0.050040    5.035380
  N      3.005550   -1.154050    5.295010
  C      2.114790    4.491430    4.119660
  C      1.651330    5.784990    4.354710
  S      0.759830    5.872970    5.877920
  C      1.806430    6.943750    3.575440
  C      2.564450    7.062030    2.433920
  C      2.703630    8.220460    1.624710
  C      3.524670    8.066160    0.546940
  C      4.091240    6.776500    0.446280
  S      3.540720    5.772160    1.763770
  C      4.946220    6.216940   -0.482760
  C      5.508100    6.757120   -1.664440
  C      6.279360    5.875440   -2.353050
  C      6.384460    4.586870   -1.746870
  S      5.459520    4.563030   -0.259430
  C      6.996650    3.489430   -2.276850
  C      7.077030    2.192120   -1.658640
  C      6.951300    1.033060   -2.442940
  F      6.781430    1.175810   -3.767470
  C      6.950070   -0.236890   -1.895740
  F      6.758580   -1.285910   -2.697860
  C      7.090070   -0.428820   -0.516210
  C      7.287490    0.711650    0.266310
  C      7.289810    1.979480   -0.286860
  F      7.592920    3.017350    0.506990
  F      7.557910    0.582430    1.570550
  C      7.061890   -1.764750    0.075340
  N      7.724170   -2.730650   -0.525470
  N      7.739730   -3.956330   -0.106860
  C      7.164640   -4.337670    1.015720
  C      6.481730   -3.373400    1.802450
  C      6.363920   -2.046600    1.278290
  N      5.613040   -1.270640    2.058030
  S      5.156760   -2.116970    3.338780
  N      5.868250   -3.508650    2.976280
  C      7.231450   -5.722260    1.436380
  C      6.137580   -6.422830    1.803310
  C      6.072780   -7.756760    2.387810
  C      7.134270   -8.547680    2.731010
  C      7.013600   -9.822800    3.325290
  N      6.978800  -10.863310    3.808020
  C      8.493620   -8.206780    2.556910
  N      9.619160   -8.004640    2.461190
  C      4.666880   -8.077100    2.595330
  C      3.871820   -6.993390    2.145210
  C      4.740340   -5.937380    1.599570
  O      4.387560   -4.924830    1.039000
  C      2.499630   -6.997340    2.220360
  C      1.879250   -8.122900    2.770420
  C      2.679920   -9.204160    3.213430
  C      4.066280   -9.201690    3.134270
  S      1.710340  -10.495540    3.854020
  C      0.263990   -9.578470    3.525230
  C      0.492430   -8.367150    2.963860
  Br    -1.409420  -10.304210    3.956720
  H      0.086980    0.805050    9.564650
  H      1.461870   -0.056970    7.510170
  H      2.657140    4.198100    3.243440
  H      1.288090    7.831170    3.913920
  H      2.186440    9.132720    1.865560
  H      3.739170    8.840000   -0.168350
  H      5.317870    7.770320   -1.971340
  H      6.782330    6.095930   -3.277780
  H      7.371140    3.560010   -3.288960
  H      8.217080   -6.166710    1.443590
  H      1.924360   -6.155990    1.867220
  H      4.629760  -10.050820    3.483050
  H     -0.283440   -7.673150    2.696620

 Total Charge           Charge          ....    0
 Multiplicity           Mult            ....    1
 Number of Electrons    NEL             ....  526
 Basis Dimension        Dim             .... 1045

ORBITAL ENERGIES
----------------

  NO   OCC          E(Eh)            E(eV)
   0   2.0000    -482.888636    -13140.0678
   1   2.0000     -89.032430     -2422.6956
   2   2.0000     -88.985319     -2421.4136
   3   2.0000     -88.982818     -2421.3456
   4   2.0000     -88.978840     -2421.2373
   5   2.0000     -88.949557     -2420.4405
   6   2.0000     -88.943206     -2420.2677
   7   2.0000     -62.566338     -1702.5166
   8   2.0000     -56.400293     -1534.7300
   9   2.0000     -56.397567     -1534.6558
  10   2.0000     -56.397541     -1534.6551
  11   2.0000     -24.789183      -674.5480
  12   2.0000     -24.788618      -674.5326
  13   2.0000     -24.788431      -674.5275
  14   2.0000     -24.783654      -674.3975
  15   2.0000     -19.222309      -523.0656
  16   2.0000     -14.444499      -393.0548
  17   2.0000     -14.443409      -393.0251
  18   2.0000     -14.440179      -392.9372
  19   2.0000     -14.436738      -392.8436
  20   2.0000     -14.433684      -392.7605
  21   2.0000     -14.425877      -392.5481
  22   2.0000     -14.421069      -392.4172
  23   2.0000     -14.419780      -392.3822
  24   2.0000     -10.372708      -282.2557
  25   2.0000     -10.371689      -282.2280
  26   2.0000     -10.371294      -282.2173
  27   2.0000     -10.367452      -282.1127
  28   2.0000     -10.366820      -282.0955
  29   2.0000     -10.362734      -281.9843
  30   2.0000     -10.360831      -281.9325
  31   2.0000     -10.350512      -281.6518
  32   2.0000     -10.348812      -281.6055
  33   2.0000     -10.346938      -281.5545
  34   2.0000     -10.338167      -281.3158
  35   2.0000     -10.335085      -281.2320
  36   2.0000     -10.333864      -281.1987
  37   2.0000     -10.330234      -281.1000
  38   2.0000     -10.330081      -281.0958
  39   2.0000     -10.329836      -281.0891
  40   2.0000     -10.329353      -281.0760
  41   2.0000     -10.325640      -280.9750
  42   2.0000     -10.323309      -280.9115
  43   2.0000     -10.323073      -280.9051
  44   2.0000     -10.321261      -280.8558
  45   2.0000     -10.319780      -280.8155
  46   2.0000     -10.318726      -280.7868
  47   2.0000     -10.315511      -280.6993
  48   2.0000     -10.315165      -280.6899
  49   2.0000     -10.315148      -280.6895
  50   2.0000     -10.314309      -280.6666
  51   2.0000     -10.313546      -280.6458
  52   2.0000     -10.312087      -280.6061
  53   2.0000     -10.309951      -280.5480
  54   2.0000     -10.309339      -280.5314
  55   2.0000     -10.309195      -280.5275
  56   2.0000     -10.308827      -280.5174
  57   2.0000     -10.305218      -280.4192
  58   2.0000     -10.305144      -280.4172
  59   2.0000     -10.299934      -280.2755
  60   2.0000     -10.296955      -280.1944
  61   2.0000     -10.296925      -280.1936
  62   2.0000     -10.296677      -280.1868
  63   2.0000     -10.295658      -280.1591
  64   2.0000     -10.294687      -280.1327
  65   2.0000     -10.294115      -280.1171
  66   2.0000     -10.294066      -280.1158
  67   2.0000     -10.291939      -280.0579
  68   2.0000     -10.290914      -280.0300
  69   2.0000     -10.290885      -280.0292
  70   2.0000     -10.288978      -279.9773
  71   2.0000      -8.795767      -239.3450
  72   2.0000      -8.123586      -221.0540
  73   2.0000      -8.080384      -219.8784
  74   2.0000      -8.077374      -219.7965
  75   2.0000      -8.074956      -219.7307
  76   2.0000      -8.045557      -218.9307
  77   2.0000      -8.039817      -218.7745
  78   2.0000      -6.632073      -180.4679
  79   2.0000      -6.617512      -180.0716
  80   2.0000      -6.617282      -180.0654
  81   2.0000      -6.094519      -165.8403
  82   2.0000      -6.086660      -165.6264
  83   2.0000      -6.086543      -165.6233
  84   2.0000      -6.049651      -164.6194
  85   2.0000      -6.046632      -164.5372
  86   2.0000      -6.045213      -164.4986
  87   2.0000      -6.044652      -164.4833
  88   2.0000      -6.042945      -164.4369
  89   2.0000      -6.042584      -164.4271
  90   2.0000      -6.040359      -164.3665
  91   2.0000      -6.039639      -164.3469
  92   2.0000      -6.036130      -164.2514
  93   2.0000      -6.015336      -163.6856
  94   2.0000      -6.011102      -163.5704
  95   2.0000      -6.009591      -163.5293
  96   2.0000      -6.006529      -163.4460
  97   2.0000      -6.005425      -163.4159
  98   2.0000      -6.000522      -163.2825
  99   2.0000      -2.747957       -74.7757
 100   2.0000      -2.743860       -74.6642
 101   2.0000      -2.743685       -74.6595
 102   2.0000      -2.732101       -74.3442
 103   2.0000      -2.732096       -74.3441
 104   2.0000      -1.312777       -35.7225
 105   2.0000      -1.310248       -35.6537
 106   2.0000      -1.296122       -35.2693
 107   2.0000      -1.294070       -35.2134
 108   2.0000      -1.141319       -31.0569
 109   2.0000      -1.134700       -30.8767
 110   2.0000      -1.115783       -30.3620
 111   2.0000      -1.039002       -28.2727
 112   2.0000      -1.027388       -27.9566
 113   2.0000      -1.021674       -27.8012
 114   2.0000      -1.017728       -27.6938
 115   2.0000      -1.006269       -27.3820
 116   2.0000      -1.002199       -27.2712
 117   2.0000      -0.998626       -27.1740
 118   2.0000      -0.995608       -27.0919
 119   2.0000      -0.991467       -26.9792
 120   2.0000      -0.989543       -26.9268
 121   2.0000      -0.980734       -26.6871
 122   2.0000      -0.974301       -26.5121
 123   2.0000      -0.953248       -25.9392
 124   2.0000      -0.950138       -25.8546
 125   2.0000      -0.939079       -25.5537
 126   2.0000      -0.921267       -25.0689
 127   2.0000      -0.913000       -24.8440
 128   2.0000      -0.912539       -24.8315
 129   2.0000      -0.897679       -24.4271
 130   2.0000      -0.891437       -24.2572
 131   2.0000      -0.890059       -24.2197
 132   2.0000      -0.880748       -23.9664
 133   2.0000      -0.864037       -23.5116
 134   2.0000      -0.855709       -23.2850
 135   2.0000      -0.852096       -23.1867
 136   2.0000      -0.848414       -23.0865
 137   2.0000      -0.843235       -22.9456
 138   2.0000      -0.841237       -22.8912
 139   2.0000      -0.833197       -22.6724
 140   2.0000      -0.824639       -22.4396
 141   2.0000      -0.810930       -22.0665
 142   2.0000      -0.794458       -21.6183
 143   2.0000      -0.777947       -21.1690
 144   2.0000      -0.774779       -21.0828
 145   2.0000      -0.767492       -20.8845
 146   2.0000      -0.760690       -20.6994
 147   2.0000      -0.752926       -20.4882
 148   2.0000      -0.738019       -20.0825
 149   2.0000      -0.725899       -19.7527
 150   2.0000      -0.718470       -19.5506
 151   2.0000      -0.712906       -19.3992
 152   2.0000      -0.699780       -19.0420
 153   2.0000      -0.695770       -18.9329
 154   2.0000      -0.694467       -18.8974
 155   2.0000      -0.690972       -18.8023
 156   2.0000      -0.682312       -18.5666
 157   2.0000      -0.673228       -18.3195
 158   2.0000      -0.671197       -18.2642
 159   2.0000      -0.663576       -18.0568
 160   2.0000      -0.661070       -17.9886
 161   2.0000      -0.655383       -17.8339
 162   2.0000      -0.646003       -17.5786
 163   2.0000      -0.638607       -17.3774
 164   2.0000      -0.635328       -17.2882
 165   2.0000      -0.631540       -17.1851
 166   2.0000      -0.628248       -17.0955
 167   2.0000      -0.626058       -17.0359
 168   2.0000      -0.623061       -16.9544
 169   2.0000      -0.611658       -16.6441
 170   2.0000      -0.608832       -16.5672
 171   2.0000      -0.607684       -16.5359
 172   2.0000      -0.606593       -16.5062
 173   2.0000      -0.602746       -16.4016
 174   2.0000      -0.597431       -16.2569
 175   2.0000      -0.593348       -16.1458
 176   2.0000      -0.582375       -15.8472
 177   2.0000      -0.580791       -15.8041
 178   2.0000      -0.573522       -15.6063
 179   2.0000      -0.568804       -15.4780
 180   2.0000      -0.564407       -15.3583
 181   2.0000      -0.561077       -15.2677
 182   2.0000      -0.560256       -15.2453
 183   2.0000      -0.559821       -15.2335
 184   2.0000      -0.550689       -14.9850
 185   2.0000      -0.543866       -14.7993
 186   2.0000      -0.541844       -14.7443
 187   2.0000      -0.539975       -14.6935
 188   2.0000      -0.539130       -14.6705
 189   2.0000      -0.535931       -14.5834
 190   2.0000      -0.533498       -14.5172
 191   2.0000      -0.530467       -14.4348
 192   2.0000      -0.529142       -14.3987
 193   2.0000      -0.527373       -14.3506
 194   2.0000      -0.517834       -14.0910
 195   2.0000      -0.514551       -14.0016
 196   2.0000      -0.512615       -13.9490
 197   2.0000      -0.511562       -13.9203
 198   2.0000      -0.506656       -13.7868
 199   2.0000      -0.504297       -13.7226
 200   2.0000      -0.501175       -13.6377
 201   2.0000      -0.500907       -13.6304
 202   2.0000      -0.499345       -13.5879
 203   2.0000      -0.496971       -13.5233
 204   2.0000      -0.495590       -13.4857
 205   2.0000      -0.492730       -13.4079
 206   2.0000      -0.492600       -13.4043
 207   2.0000      -0.490952       -13.3595
 208   2.0000      -0.484145       -13.1743
 209   2.0000      -0.480408       -13.0726
 210   2.0000      -0.479633       -13.0515
 211   2.0000      -0.478251       -13.0139
 212   2.0000      -0.471001       -12.8166
 213   2.0000      -0.465762       -12.6740
 214   2.0000      -0.463839       -12.6217
 215   2.0000      -0.462423       -12.5832
 216   2.0000      -0.457818       -12.4579
 217   2.0000      -0.455619       -12.3980
 218   2.0000      -0.454676       -12.3724
 219   2.0000      -0.452845       -12.3225
 220   2.0000      -0.452658       -12.3175
 221   2.0000      -0.451892       -12.2966
 222   2.0000      -0.447631       -12.1807
 223   2.0000      -0.444920       -12.1069
 224   2.0000      -0.443242       -12.0612
 225   2.0000      -0.440044       -11.9742
 226   2.0000      -0.439621       -11.9627
 227   2.0000      -0.437341       -11.9006
 228   2.0000      -0.434874       -11.8335
 229   2.0000      -0.433249       -11.7893
 230   2.0000      -0.431058       -11.7297
 231   2.0000      -0.428401       -11.6574
 232   2.0000      -0.427745       -11.6395
 233   2.0000      -0.426204       -11.5976
 234   2.0000      -0.424098       -11.5403
 235   2.0000      -0.419889       -11.4257
 236   2.0000      -0.416443       -11.3320
 237   2.0000      -0.413812       -11.2604
 238   2.0000      -0.410179       -11.1615
 239   2.0000      -0.396461       -10.7882
 240   2.0000      -0.394503       -10.7350
 241   2.0000      -0.392679       -10.6853
 242   2.0000      -0.386546       -10.5185
 243   2.0000      -0.380968       -10.3667
 244   2.0000      -0.377824       -10.2811
 245   2.0000      -0.375512       -10.2182
 246   2.0000      -0.372188       -10.1277
 247   2.0000      -0.362598        -9.8668
 248   2.0000      -0.355419        -9.6714
 249   2.0000      -0.344812        -9.3828
 250   2.0000      -0.343145        -9.3375
 251   2.0000      -0.339683        -9.2433
 252   2.0000      -0.338213        -9.2032
 253   2.0000      -0.326944        -8.8966
 254   2.0000      -0.321785        -8.7562
 255   2.0000      -0.318930        -8.6785
 256   2.0000      -0.316332        -8.6078
 257   2.0000      -0.306965        -8.3529
 258   2.0000      -0.304035        -8.2732
 259   2.0000      -0.296798        -8.0763
 260   2.0000      -0.295631        -8.0445
 261   2.0000      -0.273445        -7.4408
 262   2.0000      -0.218898        -5.9565
 263   0.0000      -0.104225        -2.8361
 264   0.0000      -0.098271        -2.6741
 265   0.0000      -0.080462        -2.1895
 266   0.0000      -0.070253        -1.9117
 267   0.0000      -0.053026        -1.4429

MULLIKEN ATOMIC CHARGES
-----------------------
   0 C :   -0.085465
   1 C :    0.039170
   2 C :   -0.042193
   3 C :   -0.118549
   4 S :    0.177254
   5 C :   -0.101092
   6 C :   -0.014810
   7 C :    0.327781
   8 C :   -0.313195
   9 C :   -0.202630
  10 N :    0.188315
  11 C :   -0.174995
  12 N :    0.143530
  13 C :   -0.047207
  14 C :   -0.094244
  15 S :    0.177096
  16 C :    0.031963
  17 C :   -0.026327
  18 C :    0.034608
  19 C :    0.035769
  20 C :   -0.030768
  21 S :    0.043898
  22 C :   -0.049576
  23 C :    0.040875
  24 C :    0.036739
  25 C :   -0.012014
  26 S :    0.111820
  27 C :   -0.026452
  28 C :   -0.063790
  29 C :    0.161862
  30 F :   -0.172335
  31 C :    0.232465
  32 F :   -0.149627
  33 C :   -0.142378
  34 C :    0.252368
  35 C :    0.154294
  36 F :   -0.166929
  37 F :   -0.163629
  38 C :   -0.049820
  39 N :   -0.038267
  40 N :   -0.036036
  41 C :   -0.056024
  42 C :    0.057850
  43 C :    0.054154
  44 N :   -0.235980
  45 S :    0.554560
  46 N :   -0.254160
  47 C :   -0.021352
  48 C :   -0.051157
  49 C :    0.307752
  50 C :   -0.334048
  51 C :   -0.186477
  52 N :    0.159572
  53 C :   -0.191428
  54 N :    0.168075
  55 C :    0.014710
  56 C :   -0.014065
  57 C :    0.158030
  58 O :   -0.142877
  59 C :   -0.063358
  60 C :    0.115199
  61 C :   -0.088613
  62 C :   -0.017827
  63 S :    0.190456
  64 C :   -0.123121
  65 C :    0.041307
  66 Br:    0.028257
  67 H :    0.033675
  68 H :    0.008325
  69 H :    0.033678
  70 H :   -0.019050
  71 H :   -0.011412
  72 H :   -0.011219
  73 H :   -0.010197
  74 H :   -0.006321
  75 H :    0.008644
  76 H :    0.051259
  77 H :   -0.007835
  78 H :   -0.004700
  79 H :   -0.001763
Sum of atomic charges:   -0.0000000

LOEWDIN ATOMIC CHARGES
----------------------
   0 C :   -0.182230
   1 C :   -0.034735
   2 C :   -0.085361
   3 C :   -0.174355
   4 S :    0.473222
   5 C :   -0.194190
   6 C :   -0.064705
   7 C :    0.087799
   8 C :   -0.110411
   9 C :   -0.022951
  10 N :   -0.025346
  11 C :   -0.013208
  12 N :   -0.058490
  13 C :   -0.046394
  14 C :   -0.160989
  15 S :    0.463888
  16 C :   -0.082810
  17 C :   -0.141929
  18 C :   -0.031219
  19 C :   -0.032966
  20 C :   -0.178627
  21 S :    0.405697
  22 C :   -0.173712
  23 C :   -0.026960
  24 C :   -0.025513
  25 C :   -0.130084
  26 S :    0.403439
  27 C :   -0.058827
  28 C :   -0.066126
  29 C :    0.059026
  30 F :   -0.051366
  31 C :    0.075120
  32 F :   -0.033341
  33 C :   -0.077380
  34 C :    0.076054
  35 C :    0.046737
  36 F :   -0.046465
  37 F :   -0.039608
  38 C :    0.006555
  39 N :   -0.037090
  40 N :   -0.034455
  41 C :   -0.012223
  42 C :   -0.053264
  43 C :   -0.059316
  44 N :   -0.264805
  45 S :    0.712735
  46 N :   -0.280449
  47 C :    0.078913
  48 C :   -0.057684
  49 C :    0.074599
  50 C :   -0.123839
  51 C :   -0.016712
  52 N :   -0.044354
  53 C :   -0.021163
  54 N :   -0.036213
  55 C :   -0.019909
  56 C :   -0.048747
  57 C :    0.089714
  58 O :   -0.131184
  59 C :    0.026045
  60 C :   -0.029971
  61 C :   -0.141413
  62 C :   -0.008195
  63 S :    0.435276
  64 C :   -0.269621
  65 C :   -0.069536
  66 Br:    0.140561
  67 H :    0.026445
  68 H :    0.041150
  69 H :    0.020886
  70 H :    0.032992
  71 H :    0.033566
  72 H :    0.033332
  73 H :    0.033672
  74 H :    0.035176
  75 H :    0.039116
  76 H :    0.054876
  77 H :    0.042480
  78 H :    0.041596
  79 H :    0.039774

  Mayer bond orders larger than 0.100000
B(  0-C ,  1-C ) :   1.5581 B(  0-C ,  4-S ) :   1.1394 B(  0-C , 67-H ) :   0.9644
B(  1-C ,  2-C ) :   1.2697 B(  1-C , 68-H ) :   0.9959 B(  2-C ,  3-C ) :   1.4410
B(  2-C ,  7-C ) :   1.0247 B(  3-C ,  4-S ) :   1.1400 B(  3-C ,  5-C ) :   1.1983
B(  5-C ,  6-C ) :   1.4419 B(  5-C , 15-S ) :   1.1112 B(  6-C ,  7-C ) :   0.9968
B(  6-C , 13-C ) :   1.3472 B(  7-C ,  8-C ) :   1.6870 B(  8-C ,  9-C ) :   1.1383
B(  8-C , 11-C ) :   1.1469 B(  9-C , 10-N ) :   2.9755 B( 11-C , 12-N ) :   2.9530
B( 13-C , 14-C ) :   1.4036 B( 13-C , 69-H ) :   0.9602 B( 14-C , 15-S ) :   1.0971
B( 14-C , 16-C ) :   1.1780 B( 16-C , 17-C ) :   1.5839 B( 16-C , 70-H ) :   0.9558
B( 17-C , 18-C ) :   1.1487 B( 17-C , 21-S ) :   1.0469 B( 18-C , 19-C ) :   1.5936
B( 18-C , 71-H ) :   0.9977 B( 19-C , 20-C ) :   1.1848 B( 19-C , 72-H ) :   0.9932
B( 20-C , 21-S ) :   1.0446 B( 20-C , 22-C ) :   1.5128 B( 22-C , 23-C ) :   1.1679
B( 22-C , 26-S ) :   1.0647 B( 23-C , 24-C ) :   1.6219 B( 23-C , 73-H ) :   0.9947
B( 24-C , 25-C ) :   1.1193 B( 24-C , 74-H ) :   0.9973 B( 25-C , 26-S ) :   1.0522
B( 25-C , 27-C ) :   1.6551 B( 27-C , 28-C ) :   1.0488 B( 27-C , 75-H ) :   0.9627
B( 28-C , 29-C ) :   1.3050 B( 28-C , 33-C ) :   0.1222 B( 28-C , 35-C ) :   1.2978
B( 29-C , 30-F ) :   1.1649 B( 29-C , 31-C ) :   1.3002 B( 31-C , 32-F ) :   1.2033
B( 31-C , 33-C ) :   1.3040 B( 33-C , 34-C ) :   1.3415 B( 33-C , 38-C ) :   0.9734
B( 34-C , 35-C ) :   1.2922 B( 34-C , 37-F ) :   1.1735 B( 35-C , 36-F ) :   1.1575
B( 38-C , 39-N ) :   1.7262 B( 38-C , 41-C ) :   0.1081 B( 38-C , 43-C ) :   1.1446
B( 39-N , 40-N ) :   1.2181 B( 40-N , 41-C ) :   1.6881 B( 41-C , 42-C ) :   1.1357
B( 41-C , 47-C ) :   1.0177 B( 42-C , 43-C ) :   1.2112 B( 42-C , 46-N ) :   1.5191
B( 43-C , 44-N ) :   1.5271 B( 44-N , 45-S ) :   1.3030 B( 44-N , 46-N ) :   0.1459
B( 45-S , 46-N ) :   1.2915 B( 47-C , 48-C ) :   1.7757 B( 47-C , 76-H ) :   0.9359
B( 48-C , 49-C ) :   1.0328 B( 48-C , 57-C ) :   0.9137 B( 49-C , 50-C ) :   1.6677
B( 49-C , 55-C ) :   1.0159 B( 50-C , 51-C ) :   1.1377 B( 50-C , 53-C ) :   1.1406
B( 51-C , 52-N ) :   2.9715 B( 53-C , 54-N ) :   2.9778 B( 55-C , 56-C ) :   1.2698
B( 55-C , 62-C ) :   1.4008 B( 56-C , 57-C ) :   0.9546 B( 56-C , 59-C ) :   1.4204
B( 57-C , 58-O ) :   2.2198 B( 59-C , 60-C ) :   1.2522 B( 59-C , 77-H ) :   1.0161
B( 60-C , 61-C ) :   1.2977 B( 60-C , 65-C ) :   1.1628 B( 61-C , 62-C ) :   1.3407
B( 61-C , 63-S ) :   1.0876 B( 62-C , 78-H ) :   0.9779 B( 63-S , 64-C ) :   1.0861
B( 64-C , 65-C ) :   1.6176 B( 64-C , 66-Br) :   1.0219 B( 65-C , 79-H ) :   1.0003

-----------------------------------------------------------------------------
         ABSORPTION SPECTRUM VIA TRANSITION ELECTRIC DIPOLE MOMENTS
-----------------------------------------------------------------------------
State   Energy  Wavelength   fosc         T2         TX        TY        TZ
        (cm-1)    (nm)                  (au**2)     (au)      (au)      (au)
-----------------------------------------------------------------------------
   0    8860.3   1128.6   0.097730690   3.63127  -0.97183  -0.30873   1.60982
   1   14642.3    683.0   0.444359375   9.99084  -1.75795   1.88815   1.82630
   2   17600.1    568.2   0.497581152   9.30733   1.71576   0.31233  -2.50319
   3   18569.5    538.5   0.015132237   0.26827  -0.33221  -0.11422   0.38061
   4   19515.6    512.4   0.028998310   0.48918   0.14503  -0.67966   0.07873
   5   21977.9    455.0   0.055978363   0.83851  -0.35623  -0.42753   0.72721
   6   25291.1    395.4   0.496587375   6.46404   0.13154   2.36567  -0.92215
   7   26269.1    380.7   0.023725065   0.29733   0.01907   0.52757  -0.13650
   8   26431.1    378.3   0.211837095   2.63854   0.12932   1.49316  -0.62632
   9   27134.8    368.5   0.265524110   3.22147  -1.74536  -0.35770   0.21735
  10   27270.2    366.7   0.124195203   1.49931   0.34847   1.11920  -0.35395
  11   27779.2    360.0   0.118362163   1.40271   0.00323   1.06118  -0.52593
  12   28447.4    351.5   0.040742870   0.47150   0.10089   0.16594  -0.65863
  13   28870.8    346.4   0.028435007   0.32424   0.43591  -0.07214  -0.35919
  14   29109.6    343.5   0.372115126   4.20839   0.42462  -1.88825   0.68016
  15   29406.1    340.1   0.004549944   0.05094   0.12708   0.18652  -0.00047
  16   30293.1    330.1   0.421520228   4.58089  -0.35840  -2.07337   0.39187
  17   30723.8    325.5   0.108790391   1.16571  -0.41060   0.98199   0.18113
  18   30922.3    323.4   0.088084645   0.93779   0.16154  -0.95400   0.03960
  19   31315.4    319.3   0.436844188   4.59244   1.14570  -1.13214  -1.41354
  20   31561.7    316.8   0.105923591   1.10486   0.87131   0.38834  -0.44144
  21   31903.8    313.4   0.113745564   1.17373  -0.39826   0.55829   0.83870
  22   32426.9    308.4   0.009367654   0.09510  -0.23392  -0.20075  -0.00920
  23   32748.7    305.4   0.232527172   2.33752  -0.63722  -0.66693   1.21929
  24   32859.9    304.3   0.397011415   3.97753  -1.91816   0.51314  -0.18679
  25   32888.5    304.1   0.141463633   1.41604  -1.17942  -0.05900   0.14674
  26   33171.8    301.5   0.071382341   0.70843   0.53907  -0.55799   0.32631
  27   33467.1    298.8   0.117895505   1.15972   0.98187   0.38475  -0.21826
  28   33666.7    297.0   0.050234444   0.49122   0.19027  -0.62366   0.25702
  29   33955.5    294.5   0.032692602   0.31697  -0.47871   0.29368   0.03942
  30   34210.7    292.3   0.008476098   0.08157   0.06158  -0.27868  -0.01057
  31   34414.7    290.6   0.090326161   0.86406   0.32666   0.08038  -0.86654
  32   34602.0    289.0   0.043806019   0.41678   0.27884  -0.57494  -0.09207
  33   34701.9    288.2   0.005903691   0.05601   0.11575  -0.18833  -0.08452
  34   35079.9    285.1   0.008806628   0.08265   0.14184   0.02875  -0.24840
  35   35207.4    284.0   0.028404648   0.26560  -0.21560  -0.42774   0.19013
  36   35253.2    283.7   0.005416983   0.05059  -0.20123   0.08796   0.04854
  37   35833.7    279.1   0.055797660   0.51263   0.55109  -0.23485  -0.39213
  38   35931.2    278.3   0.044273886   0.40565   0.08363   0.44305   0.44984
  39   36210.9    276.2   0.067923947   0.61753   0.28115  -0.69866  -0.22442
  40   37010.7    270.2   0.009616408   0.08554  -0.04233   0.16717   0.23622
  41   37148.6    269.2   0.022246132   0.19715  -0.18540   0.05997   0.39897
  42   37372.3    267.6   0.016869451   0.14860   0.29678  -0.18858   0.15799
  43   37446.6    267.0   0.031007432   0.27260  -0.27876   0.43320  -0.08505
  44   37639.3    265.7   0.001432416   0.01253  -0.02621   0.06785   0.08507
  45   37667.0    265.5   0.033800347   0.29542  -0.17735   0.45365   0.24118
  46   37723.0    265.1   0.006955595   0.06070   0.11675  -0.21670  -0.01061
  47   37801.2    264.5   0.009538134   0.08307  -0.15273  -0.24298  -0.02645
  48   38076.2    262.6   0.004362768   0.03772  -0.08852   0.05148  -0.16503
  49   38120.5    262.3   0.003889739   0.03359   0.13276  -0.01979   0.12480
  50   38336.0    260.9   0.101214022   0.86918  -0.17687   0.88996  -0.21416
  51   38654.5    258.7   0.115615614   0.98467   0.46764  -0.85881   0.16863
  52   38840.2    257.5   0.112212123   0.95112  -0.05771  -0.55983   0.79648
  53   39169.1    255.3   0.003797666   0.03192  -0.08630  -0.09655  -0.12308
  54   39343.9    254.2   0.011459016   0.09588  -0.01544  -0.01189  -0.30904
  55   39723.7    251.7   0.027645248   0.22911   0.11114  -0.42114   0.19850
  56   39770.8    251.4   0.019889491   0.16464   0.02075  -0.40174  -0.05304
  57   39838.2    251.0   0.003966372   0.03278  -0.00266   0.16033  -0.08404
  58   40017.2    249.9   0.036376917   0.29926   0.04487   0.50851  -0.19665
  59   40294.9    248.2   0.034298850   0.28022   0.49715   0.16906  -0.06700

FINAL SINGLE POINT ENERGY     -7670.261697021289

DIPOLE MOMENT
-------------
                                X             Y             Z
Electronic contribution:    -36.41712    -104.10921       7.34075
Nuclear contribution   :     32.57802     107.82604      -5.81972
                        -----------------------------------------
Total Dipole Moment    :     -3.83910       3.71682       1.52103
                        -----------------------------------------
Magnitude (a.u.)       :      5.55581
Magnitude (Debye)      :     14.12174

Rotational constants in cm-1:     0.001006     0.000429     0.000330
Rotational constants in MHz :    30.158284    12.852844     9.903921

                             ****ORCA TERMINATED NORMALLY****
TOTAL RUN TIME: 0 days 0 hours 8 minutes 19 seconds 532 msec
