                         Program Version 4.2.0 -  RELEASE  -
|  1> # ORCA input file
|  2> # SCF done       -187.862662043930          0.000723151030
|  3> ! CAM-B3LYP def2-SVP def2/J RIJCOSX Grid4 TightSCF
|  4> %maxcore 5000
|  5> %tddft
|  6>     Mode sTDDFT
|  7>     Ethresh 5.0
|  8>     maxcore 5000
|  9> end
| 10>
| 11> %pal
| 12>   nprocs 6
| 13>   end
| 14> * xyz 0 1
| 15>    C       -0.79754         3.63106         0.87247
| 16>    C        0.39535         4.07370         1.37112
| 17>    F        0.70370         5.37623         1.32206
| 18>    C        1.31489         3.17005         1.94105
| 19>    F        2.47695         3.63296         2.42054
| 20>    C        1.02837         1.83521         2.00424
| 21>    C       -0.19191         1.34789         1.49719
| 22>    C       -1.12339         2.26057         0.92187
| 23>    C       -2.35509         1.79477         0.40758
| 24>    C       -2.64446         0.45660         0.46522
| 25>    C       -1.70531        -0.44687         1.03349
| 26>    C       -0.50968        -0.02759         1.54126
| 27>    C       -2.23147        -1.82394         0.95960
| 28>    O       -1.66497        -2.82260         1.34582
| 29>    C       -3.53292        -1.71330         0.25427
| 30>    C       -3.80844        -0.30576         0.02574
| 31>    C       -4.97978         0.23176        -0.44037
| 32>    C       -5.19395         1.61451        -0.62176
| 33>    N       -5.42507         2.72489        -0.79785
| 34>    C       -6.14033        -0.50244        -0.76545
| 35>    N       -7.12616        -1.02880        -1.02970
| 36>    C       -4.26204        -2.73806        -0.28450
| 37>    C       -4.13892        -4.12716        -0.08141
| 38>    C       -3.53427        -4.86658         0.92755
| 39>    C       -3.66519        -6.23323         0.72299
| 40>    C       -4.37550        -6.55270        -0.45431
| 41>    S       -4.91599        -5.17173        -1.28010
| 42>    C       -4.38760        -7.96315        -0.60165
| 43>    C       -3.69600        -8.53342         0.47958
| 44>    C       -3.25261        -7.47120         1.36817
| 45>    C       -2.62553        -7.61072         2.56957
| 46>    C       -2.33204        -8.87889         3.11817
| 47>    N       -2.11154        -9.90216         3.58502
| 48>    C       -2.27735        -6.50852         3.38142
| 49>    N       -2.00462        -5.63213         4.06755
| 50>    C       -3.60322        -9.92396         0.38728
| 51>    C       -4.22970       -10.40469        -0.74316
| 52>    S       -4.95339        -9.13215        -1.70707
| 53>    C       -4.25281       -11.77158        -1.19562
| 54>    C       -3.20454       -12.65333        -0.97791
| 55>    C       -1.99614       -12.38203        -0.33190
| 56>    N       -0.99873       -12.16603         0.19304
| 57>    S       -3.47919       -14.20632        -1.68607
| 58>    C       -5.03470       -13.70839        -2.27987
| 59>    C       -5.30141       -12.38532        -1.93875
| 60>    C       -6.48206       -11.69826        -2.26240
| 61>    N       -7.43541       -11.10310        -2.49848
| 62>    C       -5.82951       -14.63301        -3.03135
| 63>    C       -5.26748       -15.79189        -3.51506
| 64>    C       -5.92490       -16.74267        -4.29027
| 65>    C       -7.37354       -16.65327        -4.50708
| 66>    C       -8.12529       -15.59825        -4.11559
| 67>    S       -7.51184       -14.21771        -3.30880
| 68>    C       -7.73141       -17.84941        -5.18557
| 69>    C       -6.59009       -18.62599        -5.40169
| 70>    C       -6.88245       -19.82233        -6.09133
| 71>    C       -8.20881       -19.92301        -6.37052
| 72>    S       -9.15114       -18.57979        -5.81929
| 73>    C       -5.44302       -17.93296        -4.87991
| 74>    C       -4.11044       -18.38816        -4.99485
| 75>    C       -3.01694       -17.59082        -4.84968
| 76>    C       -1.67372       -18.01349        -4.87695
| 77>    S       -1.19921       -19.61665        -5.36019
| 78>    C        0.49398       -19.25456        -5.16917
| 79>    C        0.67699       -17.95445        -4.74388
| 80>    C       -0.54617       -17.24800        -4.56459
| 81>    N       -0.55849       -15.92691        -4.07734
| 82>    O       -1.63213       -15.41487        -3.77314
| 83>    O        0.51084       -15.35690        -3.97198
| 84>    C        1.96414       -17.42903        -4.50833
| 85>    N        3.05067       -17.10300        -4.34398
| 86>    C        1.52059       -20.22143        -5.43252
| 87>    C        1.29222       -21.46506        -5.84897
| 88>    H       -1.49038         4.33662         0.44114
| 89>    H        1.74214         1.15580         2.44314
| 90>    H       -3.03524         2.50957        -0.02653
| 91>    H        0.18230        -0.73686         1.96918
| 92>    H       -5.02311        -2.46860        -1.00815
| 93>    H       -3.02340        -4.41472         1.75685
| 94>    H       -3.11455       -10.55581         1.10607
| 95>    H       -4.23206       -15.95760        -3.25566
| 96>    H       -9.18527       -15.54083        -4.30781
| 97>    H       -6.16002       -20.56922        -6.36566
| 98>    H       -8.71228       -20.72135        -6.87982
| 99>    H       -3.97136       -19.43608        -5.23378
|100>    H       -3.14896       -16.53084        -4.71250
|101>    H        2.52912       -19.86486        -5.26820
|102>    H        0.29168       -21.83051        -6.01673
|103>    H        2.09797       -22.15188        -6.03371
|104> *
|105>
|106>                          ****END OF INPUT****

CARTESIAN COORDINATES (ANGSTROEM)
---------------------------------
  C     -0.797540    3.631060    0.872470
  C      0.395350    4.073700    1.371120
  F      0.703700    5.376230    1.322060
  C      1.314890    3.170050    1.941050
  F      2.476950    3.632960    2.420540
  C      1.028370    1.835210    2.004240
  C     -0.191910    1.347890    1.497190
  C     -1.123390    2.260570    0.921870
  C     -2.355090    1.794770    0.407580
  C     -2.644460    0.456600    0.465220
  C     -1.705310   -0.446870    1.033490
  C     -0.509680   -0.027590    1.541260
  C     -2.231470   -1.823940    0.959600
  O     -1.664970   -2.822600    1.345820
  C     -3.532920   -1.713300    0.254270
  C     -3.808440   -0.305760    0.025740
  C     -4.979780    0.231760   -0.440370
  C     -5.193950    1.614510   -0.621760
  N     -5.425070    2.724890   -0.797850
  C     -6.140330   -0.502440   -0.765450
  N     -7.126160   -1.028800   -1.029700
  C     -4.262040   -2.738060   -0.284500
  C     -4.138920   -4.127160   -0.081410
  C     -3.534270   -4.866580    0.927550
  C     -3.665190   -6.233230    0.722990
  C     -4.375500   -6.552700   -0.454310
  S     -4.915990   -5.171730   -1.280100
  C     -4.387600   -7.963150   -0.601650
  C     -3.696000   -8.533420    0.479580
  C     -3.252610   -7.471200    1.368170
  C     -2.625530   -7.610720    2.569570
  C     -2.332040   -8.878890    3.118170
  N     -2.111540   -9.902160    3.585020
  C     -2.277350   -6.508520    3.381420
  N     -2.004620   -5.632130    4.067550
  C     -3.603220   -9.923960    0.387280
  C     -4.229700  -10.404690   -0.743160
  S     -4.953390   -9.132150   -1.707070
  C     -4.252810  -11.771580   -1.195620
  C     -3.204540  -12.653330   -0.977910
  C     -1.996140  -12.382030   -0.331900
  N     -0.998730  -12.166030    0.193040
  S     -3.479190  -14.206320   -1.686070
  C     -5.034700  -13.708390   -2.279870
  C     -5.301410  -12.385320   -1.938750
  C     -6.482060  -11.698260   -2.262400
  N     -7.435410  -11.103100   -2.498480
  C     -5.829510  -14.633010   -3.031350
  C     -5.267480  -15.791890   -3.515060
  C     -5.924900  -16.742670   -4.290270
  C     -7.373540  -16.653270   -4.507080
  C     -8.125290  -15.598250   -4.115590
  S     -7.511840  -14.217710   -3.308800
  C     -7.731410  -17.849410   -5.185570
  C     -6.590090  -18.625990   -5.401690
  C     -6.882450  -19.822330   -6.091330
  C     -8.208810  -19.923010   -6.370520
  S     -9.151140  -18.579790   -5.819290
  C     -5.443020  -17.932960   -4.879910
  C     -4.110440  -18.388160   -4.994850
  C     -3.016940  -17.590820   -4.849680
  C     -1.673720  -18.013490   -4.876950
  S     -1.199210  -19.616650   -5.360190
  C      0.493980  -19.254560   -5.169170
  C      0.676990  -17.954450   -4.743880
  C     -0.546170  -17.248000   -4.564590
  N     -0.558490  -15.926910   -4.077340
  O     -1.632130  -15.414870   -3.773140
  O      0.510840  -15.356900   -3.971980
  C      1.964140  -17.429030   -4.508330
  N      3.050670  -17.103000   -4.343980
  C      1.520590  -20.221430   -5.432520
  C      1.292220  -21.465060   -5.848970
  H     -1.490380    4.336620    0.441140
  H      1.742140    1.155800    2.443140
  H     -3.035240    2.509570   -0.026530
  H      0.182300   -0.736860    1.969180
  H     -5.023110   -2.468600   -1.008150
  H     -3.023400   -4.414720    1.756850
  H     -3.114550  -10.555810    1.106070
  H     -4.232060  -15.957600   -3.255660
  H     -9.185270  -15.540830   -4.307810
  H     -6.160020  -20.569220   -6.365660
  H     -8.712280  -20.721350   -6.879820
  H     -3.971360  -19.436080   -5.233780
  H     -3.148960  -16.530840   -4.712500
  H      2.529120  -19.864860   -5.268200
  H      0.291680  -21.830510   -6.016730
  H      2.097970  -22.151880   -6.033710

 Total Charge           Charge          ....    0
 Multiplicity           Mult            ....    1
 Number of Electrons    NEL             ....  534
 Basis Dimension        Dim             .... 1126

ORBITAL ENERGIES
----------------

  NO   OCC          E(Eh)            E(eV)
   0   2.0000     -89.004556     -2421.9371
   1   2.0000     -89.000620     -2421.8300
   2   2.0000     -89.000350     -2421.8227
   3   2.0000     -88.998742     -2421.7789
   4   2.0000     -88.994933     -2421.6753
   5   2.0000     -88.974541     -2421.1203
   6   2.0000     -24.797377      -674.7709
   7   2.0000     -24.796682      -674.7520
   8   2.0000     -19.251572      -523.8619
   9   2.0000     -19.250049      -523.8205
  10   2.0000     -19.220476      -523.0158
  11   2.0000     -14.661033      -398.9470
  12   2.0000     -14.432167      -392.7192
  13   2.0000     -14.430587      -392.6762
  14   2.0000     -14.430001      -392.6603
  15   2.0000     -14.423109      -392.4728
  16   2.0000     -14.418269      -392.3410
  17   2.0000     -14.416584      -392.2952
  18   2.0000     -14.406033      -392.0081
  19   2.0000     -10.380856      -282.4774
  20   2.0000     -10.380172      -282.4588
  21   2.0000     -10.372449      -282.2487
  22   2.0000     -10.369086      -282.1572
  23   2.0000     -10.365378      -282.0563
  24   2.0000     -10.355526      -281.7882
  25   2.0000     -10.355289      -281.7817
  26   2.0000     -10.354390      -281.7573
  27   2.0000     -10.353949      -281.7453
  28   2.0000     -10.349944      -281.6363
  29   2.0000     -10.348540      -281.5981
  30   2.0000     -10.348472      -281.5962
  31   2.0000     -10.344506      -281.4883
  32   2.0000     -10.344291      -281.4825
  33   2.0000     -10.344034      -281.4755
  34   2.0000     -10.343611      -281.4640
  35   2.0000     -10.343509      -281.4612
  36   2.0000     -10.341089      -281.3953
  37   2.0000     -10.339840      -281.3613
  38   2.0000     -10.336341      -281.2661
  39   2.0000     -10.332303      -281.1563
  40   2.0000     -10.331483      -281.1340
  41   2.0000     -10.331060      -281.1224
  42   2.0000     -10.329879      -281.0903
  43   2.0000     -10.329233      -281.0727
  44   2.0000     -10.324349      -280.9398
  45   2.0000     -10.323803      -280.9250
  46   2.0000     -10.321130      -280.8522
  47   2.0000     -10.320742      -280.8417
  48   2.0000     -10.319459      -280.8068
  49   2.0000     -10.314893      -280.6825
  50   2.0000     -10.313974      -280.6575
  51   2.0000     -10.313298      -280.6391
  52   2.0000     -10.312430      -280.6155
  53   2.0000     -10.311389      -280.5872
  54   2.0000     -10.311343      -280.5859
  55   2.0000     -10.310681      -280.5679
  56   2.0000     -10.310260      -280.5564
  57   2.0000     -10.309979      -280.5488
  58   2.0000     -10.309800      -280.5439
  59   2.0000     -10.307692      -280.4866
  60   2.0000     -10.307378      -280.4780
  61   2.0000     -10.304645      -280.4036
  62   2.0000     -10.304378      -280.3964
  63   2.0000     -10.302640      -280.3491
  64   2.0000     -10.301939      -280.3300
  65   2.0000     -10.300502      -280.2909
  66   2.0000     -10.300312      -280.2857
  67   2.0000     -10.299818      -280.2723
  68   2.0000     -10.298098      -280.2255
  69   2.0000     -10.294371      -280.1241
  70   2.0000     -10.294325      -280.1228
  71   2.0000     -10.293208      -280.0924
  72   2.0000     -10.293077      -280.0889
  73   2.0000      -8.099154      -220.3892
  74   2.0000      -8.095426      -220.2877
  75   2.0000      -8.094652      -220.2667
  76   2.0000      -8.093574      -220.2373
  77   2.0000      -8.090376      -220.1503
  78   2.0000      -8.069972      -219.5951
  79   2.0000      -6.068600      -165.1350
  80   2.0000      -6.064958      -165.0359
  81   2.0000      -6.064118      -165.0131
  82   2.0000      -6.063892      -165.0069
  83   2.0000      -6.062690      -164.9742
  84   2.0000      -6.061181      -164.9331
  85   2.0000      -6.060218      -164.9069
  86   2.0000      -6.059613      -164.8905
  87   2.0000      -6.059577      -164.8895
  88   2.0000      -6.058522      -164.8608
  89   2.0000      -6.057474      -164.8323
  90   2.0000      -6.057100      -164.8221
  91   2.0000      -6.056108      -164.7951
  92   2.0000      -6.055599      -164.7812
  93   2.0000      -6.052406      -164.6943
  94   2.0000      -6.039425      -164.3411
  95   2.0000      -6.035162      -164.2251
  96   2.0000      -6.031958      -164.1379
  97   2.0000      -1.329580       -36.1797
  98   2.0000      -1.319996       -35.9189
  99   2.0000      -1.305127       -35.5143
 100   2.0000      -1.146488       -31.1975
 101   2.0000      -1.136653       -30.9299
 102   2.0000      -1.055576       -28.7237
 103   2.0000      -1.047773       -28.5113
 104   2.0000      -1.034573       -28.1522
 105   2.0000      -1.027269       -27.9534
 106   2.0000      -1.023100       -27.8400
 107   2.0000      -1.021562       -27.7981
 108   2.0000      -1.014815       -27.6145
 109   2.0000      -1.008662       -27.4471
 110   2.0000      -1.006350       -27.3842
 111   2.0000      -1.004977       -27.3468
 112   2.0000      -1.003168       -27.2976
 113   2.0000      -0.996069       -27.1044
 114   2.0000      -0.990488       -26.9525
 115   2.0000      -0.988274       -26.8923
 116   2.0000      -0.982347       -26.7310
 117   2.0000      -0.965948       -26.2848
 118   2.0000      -0.952826       -25.9277
 119   2.0000      -0.937610       -25.5137
 120   2.0000      -0.935204       -25.4482
 121   2.0000      -0.931429       -25.3455
 122   2.0000      -0.923225       -25.1222
 123   2.0000      -0.916593       -24.9418
 124   2.0000      -0.906473       -24.6664
 125   2.0000      -0.899681       -24.4816
 126   2.0000      -0.892298       -24.2807
 127   2.0000      -0.888272       -24.1711
 128   2.0000      -0.883203       -24.0332
 129   2.0000      -0.881494       -23.9867
 130   2.0000      -0.869431       -23.6584
 131   2.0000      -0.864166       -23.5152
 132   2.0000      -0.863162       -23.4878
 133   2.0000      -0.853565       -23.2267
 134   2.0000      -0.840473       -22.8704
 135   2.0000      -0.829005       -22.5584
 136   2.0000      -0.821874       -22.3643
 137   2.0000      -0.811218       -22.0744
 138   2.0000      -0.794594       -21.6220
 139   2.0000      -0.784860       -21.3571
 140   2.0000      -0.780189       -21.2300
 141   2.0000      -0.768423       -20.9098
 142   2.0000      -0.764100       -20.7922
 143   2.0000      -0.758125       -20.6296
 144   2.0000      -0.751353       -20.4454
 145   2.0000      -0.741452       -20.1759
 146   2.0000      -0.734596       -19.9894
 147   2.0000      -0.725408       -19.7393
 148   2.0000      -0.716201       -19.4888
 149   2.0000      -0.712752       -19.3950
 150   2.0000      -0.706818       -19.2335
 151   2.0000      -0.697363       -18.9762
 152   2.0000      -0.691452       -18.8154
 153   2.0000      -0.688318       -18.7301
 154   2.0000      -0.685546       -18.6546
 155   2.0000      -0.677192       -18.4273
 156   2.0000      -0.664962       -18.0945
 157   2.0000      -0.661161       -17.9911
 158   2.0000      -0.658007       -17.9053
 159   2.0000      -0.654816       -17.8184
 160   2.0000      -0.645489       -17.5646
 161   2.0000      -0.642641       -17.4871
 162   2.0000      -0.641099       -17.4452
 163   2.0000      -0.640107       -17.4182
 164   2.0000      -0.632476       -17.2105
 165   2.0000      -0.625001       -17.0071
 166   2.0000      -0.623064       -16.9544
 167   2.0000      -0.617226       -16.7956
 168   2.0000      -0.614828       -16.7303
 169   2.0000      -0.612318       -16.6620
 170   2.0000      -0.603629       -16.4256
 171   2.0000      -0.601034       -16.3550
 172   2.0000      -0.599382       -16.3100
 173   2.0000      -0.593844       -16.1593
 174   2.0000      -0.589174       -16.0323
 175   2.0000      -0.584570       -15.9069
 176   2.0000      -0.584414       -15.9027
 177   2.0000      -0.580672       -15.8009
 178   2.0000      -0.574671       -15.6376
 179   2.0000      -0.566568       -15.4171
 180   2.0000      -0.557387       -15.1673
 181   2.0000      -0.555065       -15.1041
 182   2.0000      -0.554105       -15.0780
 183   2.0000      -0.551678       -15.0119
 184   2.0000      -0.547711       -14.9040
 185   2.0000      -0.546150       -14.8615
 186   2.0000      -0.544969       -14.8294
 187   2.0000      -0.540257       -14.7011
 188   2.0000      -0.539977       -14.6935
 189   2.0000      -0.536131       -14.5889
 190   2.0000      -0.532234       -14.4828
 191   2.0000      -0.530670       -14.4403
 192   2.0000      -0.529932       -14.4202
 193   2.0000      -0.526271       -14.3206
 194   2.0000      -0.524896       -14.2831
 195   2.0000      -0.522483       -14.2175
 196   2.0000      -0.519543       -14.1375
 197   2.0000      -0.516867       -14.0647
 198   2.0000      -0.515084       -14.0161
 199   2.0000      -0.507786       -13.8176
 200   2.0000      -0.507074       -13.7982
 201   2.0000      -0.505309       -13.7502
 202   2.0000      -0.502146       -13.6641
 203   2.0000      -0.497632       -13.5412
 204   2.0000      -0.494747       -13.4627
 205   2.0000      -0.491403       -13.3717
 206   2.0000      -0.487137       -13.2557
 207   2.0000      -0.485056       -13.1990
 208   2.0000      -0.484121       -13.1736
 209   2.0000      -0.482569       -13.1314
 210   2.0000      -0.480316       -13.0701
 211   2.0000      -0.474516       -12.9122
 212   2.0000      -0.474182       -12.9032
 213   2.0000      -0.469656       -12.7800
 214   2.0000      -0.468411       -12.7461
 215   2.0000      -0.465378       -12.6636
 216   2.0000      -0.462975       -12.5982
 217   2.0000      -0.461383       -12.5549
 218   2.0000      -0.460206       -12.5228
 219   2.0000      -0.457745       -12.4559
 220   2.0000      -0.457258       -12.4426
 221   2.0000      -0.456764       -12.4292
 222   2.0000      -0.453187       -12.3318
 223   2.0000      -0.451039       -12.2734
 224   2.0000      -0.449306       -12.2262
 225   2.0000      -0.448937       -12.2162
 226   2.0000      -0.446782       -12.1576
 227   2.0000      -0.445105       -12.1119
 228   2.0000      -0.442658       -12.0453
 229   2.0000      -0.441179       -12.0051
 230   2.0000      -0.439625       -11.9628
 231   2.0000      -0.439160       -11.9501
 232   2.0000      -0.435962       -11.8631
 233   2.0000      -0.434210       -11.8155
 234   2.0000      -0.433212       -11.7883
 235   2.0000      -0.432064       -11.7571
 236   2.0000      -0.430805       -11.7228
 237   2.0000      -0.426966       -11.6183
 238   2.0000      -0.426280       -11.5997
 239   2.0000      -0.424991       -11.5646
 240   2.0000      -0.423682       -11.5290
 241   2.0000      -0.419064       -11.4033
 242   2.0000      -0.418278       -11.3819
 243   2.0000      -0.413759       -11.2590
 244   2.0000      -0.411545       -11.1987
 245   2.0000      -0.407105       -11.0779
 246   2.0000      -0.403811       -10.9883
 247   2.0000      -0.392476       -10.6798
 248   2.0000      -0.390545       -10.6273
 249   2.0000      -0.387740       -10.5510
 250   2.0000      -0.382146       -10.3987
 251   2.0000      -0.377453       -10.2710
 252   2.0000      -0.371854       -10.1187
 253   2.0000      -0.362208        -9.8562
 254   2.0000      -0.356709        -9.7066
 255   2.0000      -0.354971        -9.6593
 256   2.0000      -0.350423        -9.5355
 257   2.0000      -0.344944        -9.3864
 258   2.0000      -0.340665        -9.2700
 259   2.0000      -0.328186        -8.9304
 260   2.0000      -0.323408        -8.8004
 261   2.0000      -0.317504        -8.6397
 262   2.0000      -0.312156        -8.4942
 263   2.0000      -0.301269        -8.1980
 264   2.0000      -0.294776        -8.0212
 265   2.0000      -0.273149        -7.4328
 266   2.0000      -0.252375        -6.8675
 267   0.0000      -0.115055        -3.1308
 268   0.0000      -0.105052        -2.8586
 269   0.0000      -0.091924        -2.5014
 270   0.0000      -0.068760        -1.8711
 271   0.0000      -0.061378        -1.6702

MULLIKEN ATOMIC CHARGES
-----------------------
   0 C :   -0.108733
   1 C :    0.244419
   2 F :   -0.171130
   3 C :    0.238847
   4 F :   -0.171361
   5 C :   -0.103549
   6 C :    0.115672
   7 C :    0.112787
   8 C :   -0.082746
   9 C :    0.050350
  10 C :   -0.006601
  11 C :   -0.078838
  12 C :    0.155783
  13 O :   -0.146553
  14 C :   -0.098730
  15 C :    0.303253
  16 C :   -0.344099
  17 C :   -0.180210
  18 N :    0.147510
  19 C :   -0.206372
  20 N :    0.160777
  21 C :    0.034732
  22 C :   -0.115021
  23 C :    0.028770
  24 C :   -0.017674
  25 C :   -0.079666
  26 S :    0.212849
  27 C :   -0.094696
  28 C :    0.015286
  29 C :    0.304357
  30 C :   -0.286499
  31 C :   -0.190469
  32 N :    0.186005
  33 C :   -0.189252
  34 N :    0.188104
  35 C :   -0.011959
  36 C :   -0.171212
  37 S :    0.230618
  38 C :    0.295962
  39 C :   -0.331296
  40 C :   -0.186338
  41 N :    0.169705
  42 S :    0.265417
  43 C :   -0.033222
  44 C :   -0.075334
  45 C :   -0.317658
  46 N :    0.179030
  47 C :   -0.065911
  48 C :   -0.084937
  49 C :    0.058783
  50 C :    0.058478
  51 C :   -0.110516
  52 S :    0.174397
  53 C :   -0.105478
  54 C :    0.056782
  55 C :    0.009426
  56 C :   -0.065027
  57 S :    0.142482
  58 C :    0.075803
  59 C :   -0.004923
  60 C :   -0.057418
  61 C :   -0.132331
  62 S :    0.148870
  63 C :   -0.082601
  64 C :   -0.060805
  65 C :    0.214337
  66 N :    0.272526
  67 O :   -0.277452
  68 O :   -0.215095
  69 C :   -0.221101
  70 N :    0.153843
  71 C :    0.001281
  72 C :   -0.013306
  73 H :    0.006898
  74 H :    0.001803
  75 H :   -0.005430
  76 H :   -0.006278
  77 H :    0.022671
  78 H :    0.035317
  79 H :    0.030980
  80 H :    0.020945
  81 H :    0.048738
  82 H :   -0.014770
  83 H :    0.033646
  84 H :   -0.010796
  85 H :    0.027170
  86 H :    0.028103
  87 H :    0.027370
  88 H :    0.042513
Sum of atomic charges:   -0.0000000

LOEWDIN ATOMIC CHARGES
----------------------
   0 C :   -0.029439
   1 C :    0.067111
   2 F :   -0.048776
   3 C :    0.068001
   4 F :   -0.048795
   5 C :   -0.032267
   6 C :   -0.008273
   7 C :   -0.006444
   8 C :    0.017703
   9 C :   -0.023635
  10 C :   -0.052023
  11 C :    0.032131
  12 C :    0.084842
  13 O :   -0.135150
  14 C :   -0.095343
  15 C :    0.075459
  16 C :   -0.140536
  17 C :   -0.017487
  18 N :   -0.052766
  19 C :   -0.025788
  20 N :   -0.051072
  21 C :    0.045606
  22 C :   -0.176298
  23 C :    0.024150
  24 C :   -0.070232
  25 C :   -0.160168
  26 S :    0.498980
  27 C :   -0.183838
  28 C :   -0.055856
  29 C :    0.074087
  30 C :   -0.088415
  31 C :   -0.018364
  32 N :   -0.019845
  33 C :   -0.019249
  34 N :   -0.018066
  35 C :   -0.010354
  36 C :   -0.168777
  37 S :    0.517706
  38 C :   -0.018961
  39 C :   -0.217802
  40 C :   -0.058700
  41 N :   -0.025306
  42 S :    0.551782
  43 C :   -0.134186
  44 C :   -0.120416
  45 C :   -0.072034
  46 N :   -0.039782
  47 C :   -0.191409
  48 C :   -0.011712
  49 C :   -0.010059
  50 C :   -0.046550
  51 C :   -0.132438
  52 S :    0.510002
  53 C :   -0.200675
  54 C :   -0.037918
  55 C :   -0.063851
  56 C :   -0.157165
  57 S :    0.432359
  58 C :   -0.049960
  59 C :    0.013779
  60 C :   -0.069458
  61 C :   -0.122224
  62 S :    0.470656
  63 C :   -0.132084
  64 C :   -0.089622
  65 C :   -0.068918
  66 N :    0.291737
  67 O :   -0.242083
  68 O :   -0.172257
  69 C :   -0.040643
  70 N :   -0.041214
  71 C :   -0.036902
  72 C :   -0.021638
  73 H :    0.047617
  74 H :    0.045756
  75 H :    0.040007
  76 H :    0.041829
  77 H :    0.044463
  78 H :    0.045460
  79 H :    0.047534
  80 H :    0.032406
  81 H :    0.042216
  82 H :    0.031559
  83 H :    0.026586
  84 H :    0.025543
  85 H :    0.032903
  86 H :    0.048199
  87 H :    0.019737
  88 H :    0.035316

  Mayer bond orders larger than 0.100000
B(  0-C ,  1-C ) :   1.4398 B(  0-C ,  5-C ) :   0.1088 B(  0-C ,  7-C ) :   1.1902
B(  0-C , 73-H ) :   1.0066 B(  1-C ,  2-F ) :   1.1345 B(  1-C ,  3-C ) :   1.1910
B(  3-C ,  4-F ) :   1.1336 B(  3-C ,  5-C ) :   1.4427 B(  5-C ,  6-C ) :   1.1911
B(  5-C , 74-H ) :   1.0070 B(  6-C ,  7-C ) :   1.2565 B(  6-C , 11-C ) :   1.1883
B(  7-C ,  8-C ) :   1.2158 B(  8-C ,  9-C ) :   1.4503 B(  8-C , 75-H ) :   0.9899
B(  9-C , 10-C ) :   1.2208 B(  9-C , 15-C ) :   0.9847 B( 10-C , 11-C ) :   1.4710
B( 10-C , 12-C ) :   0.9460 B( 11-C , 76-H ) :   1.0166 B( 12-C , 13-O ) :   2.1982
B( 12-C , 14-C ) :   0.9430 B( 14-C , 15-C ) :   1.0749 B( 14-C , 21-C ) :   1.5939
B( 15-C , 16-C ) :   1.6357 B( 16-C , 17-C ) :   1.1443 B( 16-C , 19-C ) :   1.1395
B( 17-C , 18-N ) :   2.9654 B( 19-C , 20-N ) :   2.9923 B( 21-C , 22-C ) :   1.2011
B( 21-C , 77-H ) :   0.9248 B( 22-C , 23-C ) :   1.4063 B( 22-C , 26-S ) :   1.0764
B( 23-C , 24-C ) :   1.3336 B( 23-C , 78-H ) :   0.9733 B( 24-C , 25-C ) :   1.3894
B( 24-C , 29-C ) :   0.9913 B( 25-C , 26-S ) :   1.1678 B( 25-C , 27-C ) :   1.1902
B( 27-C , 28-C ) :   1.4313 B( 27-C , 37-S ) :   1.1335 B( 28-C , 29-C ) :   0.9891
B( 28-C , 35-C ) :   1.2946 B( 29-C , 30-C ) :   1.7252 B( 30-C , 31-C ) :   1.1350
B( 30-C , 33-C ) :   1.1361 B( 31-C , 32-N ) :   2.9891 B( 33-C , 34-N ) :   2.9927
B( 35-C , 36-C ) :   1.4792 B( 35-C , 79-H ) :   0.9849 B( 36-C , 37-S ) :   1.1223
B( 36-C , 38-C ) :   1.0377 B( 38-C , 39-C ) :   1.4993 B( 38-C , 44-C ) :   1.2780
B( 39-C , 40-C ) :   1.2094 B( 39-C , 42-S ) :   1.1487 B( 39-C , 43-C ) :   0.1020
B( 40-C , 41-N ) :   2.9837 B( 42-S , 43-C ) :   1.1806 B( 43-C , 44-C ) :   1.4578
B( 43-C , 47-C ) :   1.1483 B( 44-C , 45-C ) :   1.0966 B( 45-C , 46-N ) :   2.9998
B( 47-C , 48-C ) :   1.4841 B( 47-C , 52-S ) :   1.0773 B( 48-C , 49-C ) :   1.2639
B( 48-C , 80-H ) :   0.9549 B( 49-C , 50-C ) :   1.0646 B( 49-C , 58-C ) :   1.3528
B( 50-C , 51-C ) :   1.5786 B( 50-C , 53-C ) :   1.1865 B( 51-C , 52-S ) :   1.1670
B( 51-C , 81-H ) :   0.9403 B( 53-C , 54-C ) :   1.4311 B( 53-C , 57-S ) :   1.0798
B( 54-C , 55-C ) :   1.2232 B( 54-C , 58-C ) :   1.1017 B( 55-C , 56-C ) :   1.5860
B( 55-C , 82-H ) :   0.9982 B( 56-C , 57-S ) :   1.1580 B( 56-C , 83-H ) :   0.9660
B( 58-C , 59-C ) :   1.1887 B( 59-C , 60-C ) :   1.5456 B( 59-C , 84-H ) :   0.9623
B( 60-C , 61-C ) :   1.2064 B( 60-C , 85-H ) :   0.9626 B( 61-C , 62-S ) :   1.1443
B( 61-C , 65-C ) :   1.4096 B( 62-S , 63-C ) :   1.0727 B( 63-C , 64-C ) :   1.5490
B( 63-C , 71-C ) :   1.1485 B( 64-C , 65-C ) :   1.2198 B( 64-C , 69-C ) :   1.1169
B( 65-C , 66-N ) :   0.9667 B( 66-N , 67-O ) :   1.4486 B( 66-N , 68-O ) :   1.5313
B( 67-O , 68-O ) :   0.2483 B( 69-C , 70-N ) :   3.0041 B( 71-C , 72-C ) :   1.9019
B( 71-C , 86-H ) :   0.9538 B( 72-C , 87-H ) :   0.9590 B( 72-C , 88-H ) :   0.9478

-----------------------------------------------------------------------------
         ABSORPTION SPECTRUM VIA TRANSITION ELECTRIC DIPOLE MOMENTS
-----------------------------------------------------------------------------
State   Energy  Wavelength   fosc         T2         TX        TY        TZ
        (cm-1)    (nm)                  (au**2)     (au)      (au)      (au)
-----------------------------------------------------------------------------
   0   15530.5    643.9   0.756401855  16.03403   1.31856  -3.60865  -1.12829
   1   16109.3    620.8   0.164411494   3.35993  -1.63885   0.09080   0.81599
   2   19932.7    501.7   0.006448818   0.10651  -0.30201  -0.11193  -0.05264
   3   21917.4    456.3   1.185783602  17.81118   0.52801   4.17779   0.28006
   4   22162.3    451.2   0.058122322   0.86339  -0.29919   0.80337  -0.35842
   5   23934.0    417.8   0.033279074   0.45775  -0.13158  -0.60338  -0.27636
   6   24488.5    408.4   0.577976003   7.77005  -2.54168  -0.76158  -0.85434
   7   25454.9    392.9   0.128531795   1.66232  -1.12836  -0.46266  -0.41841
   8   26161.2    382.2   0.060024236   0.75535   0.33958   0.77398   0.20244
   9   27103.7    369.0   0.005044140   0.06127   0.00076  -0.15408  -0.19372
  10   27266.1    366.8   0.008700031   0.10504   0.29828   0.00432  -0.12671
  11   28333.8    352.9   0.093305563   1.08412   0.54538  -0.86804  -0.18218
  12   28357.4    352.6   0.004705350   0.05463  -0.03028   0.05015   0.22626
  13   28703.6    348.4   0.055077590   0.63171  -0.02772   0.79298   0.04598
  14   29292.8    341.4   0.100885607   1.13382   0.78385  -0.68241  -0.23178
  15   29414.1    340.0   0.175843419   1.96810   1.23313   0.60601   0.28325
  16   30119.0    332.0   0.203682055   2.22632  -0.01776  -1.12443   0.98065
  17   30381.5    329.1   0.663904781   7.19403   1.31517   1.38612   1.88229
  18   31552.7    316.9   0.247042184   2.57757  -1.35817  -0.66773  -0.53581
  19   31757.7    314.9   0.112119605   1.16227  -0.79233  -0.56112  -0.46865
  20   32271.6    309.9   0.029190641   0.29778  -0.09982   0.47036   0.25803
  21   32392.5    308.7   0.040529572   0.41191  -0.49301   0.40198   0.08520
  22   32629.1    306.5   0.441291794   4.45242  -0.65751  -1.65264  -1.13528
  23   32979.3    303.2   0.296401110   2.95879   0.50379   1.64028   0.12028
  24   33220.7    301.0   0.084716556   0.83953   0.70675  -0.58146  -0.04410
  25   33641.6    297.3   0.059798399   0.58518   0.33186   0.44900   0.52292
  26   33860.7    295.3   0.016178006   0.15729   0.13790   0.23182   0.29075
  27   34306.7    291.5   0.032170846   0.30872   0.25923  -0.06830   0.48667
  28   34352.2    291.1   0.210768613   2.01989   0.59982   0.00278   1.28845
  29   34711.2    288.1   0.009477874   0.08989   0.04258  -0.26799  -0.12751
  30   35067.9    285.2   0.279178232   2.62088  -1.52740  -0.46226  -0.27251
  31   35286.6    283.4   0.165603218   1.54502  -0.25517  -1.02702  -0.65203
  32   35481.9    281.8   0.252428896   2.34211  -1.05101   1.11232   0.01485
  33   35591.5    281.0   0.027745135   0.25663  -0.34975   0.13409  -0.34107
  34   35797.0    279.4   0.076437416   0.70297   0.67064  -0.21363   0.45560
  35   35938.8    278.3   0.050272716   0.46052  -0.61461   0.00892  -0.28755
  36   36055.7    277.3   0.108124195   0.98725   0.42290   0.89173   0.11494
  37   36449.3    274.4   0.001768252   0.01597   0.07751  -0.09619   0.02664
  38   36561.1    273.5   0.075374097   0.67870  -0.63209  -0.02585  -0.52773
  39   37003.0    270.2   0.036960860   0.32884  -0.14554  -0.50307  -0.23362
  40   37539.6    266.4   0.032891623   0.28845  -0.40486  -0.04645  -0.34983
  41   37761.1    264.8   0.069655872   0.60728  -0.53863   0.55948  -0.06433
  42   38121.2    262.3   0.092424128   0.79817   0.07252  -0.81505  -0.35862
  43   38244.0    261.5   0.086360235   0.74341  -0.64122   0.26779  -0.51043
  44   38748.7    258.1   0.028645511   0.24337   0.45063  -0.11821   0.16227
  45   39179.3    255.2   0.131687202   1.10653   0.85816  -0.58772  -0.15706
  46   39454.8    253.5   0.115691484   0.96533  -0.31844   0.89845  -0.23816
  47   39662.7    252.1   0.009913525   0.08229  -0.15845   0.21864   0.09682
  48   39678.4    252.0   0.175241067   1.45398   0.22082  -1.17942   0.11909
  49   39839.1    251.0   0.078271206   0.64680   0.75544   0.16811   0.21873
  50   40228.7    248.6   0.006858361   0.05613  -0.00961  -0.22292   0.07963

FINAL SINGLE POINT ENERGY     -5315.217169864257

DIPOLE MOMENT
-------------
                                X             Y             Z
Electronic contribution:     -1.23699      49.05084      17.91981
Nuclear contribution   :     -0.87362     -54.02140     -20.72974
                        -----------------------------------------
Total Dipole Moment    :     -2.11061      -4.97055      -2.80993
                        -----------------------------------------
Magnitude (a.u.)       :      6.08743
Magnitude (Debye)      :     15.47301

Rotational constants in cm-1:     0.001535     0.000231     0.000212
Rotational constants in MHz :    46.026748     6.912001     6.349252

                             ****ORCA TERMINATED NORMALLY****
TOTAL RUN TIME: 0 days 0 hours 8 minutes 28 seconds 720 msec
