                         Program Version 4.2.0 -  RELEASE  -
|  1> # ORCA input file
|  2> # SCF done       -175.886882043500          0.000404353681
|  3> ! CAM-B3LYP def2-SVP def2/J RIJCOSX Grid4 TightSCF
|  4> %maxcore 5000
|  5> %tddft
|  6>     Mode sTDDFT
|  7>     Ethresh 5.0
|  8>     maxcore 5000
|  9> end
| 10>
| 11> %pal
| 12>   nprocs 6
| 13>   end
| 14> * xyz 0 1
| 15>    C       -3.10689         4.27365         9.55647
| 16>    C       -2.07556         3.50220         9.11897
| 17>    C       -1.33417         4.15321         8.11347
| 18>    C       -1.84129         5.42912         7.81652
| 19>    S       -3.21045         5.81563         8.76405
| 20>    C       -1.04477         6.01295         6.80108
| 21>    C       -0.03329         5.09992         6.45364
| 22>    C       -0.17678         3.90534         7.28374
| 23>    C        0.64010         2.81062         7.28134
| 24>    C        1.77642         2.73176         6.44813
| 25>    N        2.71031         2.69025         5.78403
| 26>    C        0.41587         1.71163         8.13509
| 27>    N        0.23045         0.82332         8.83677
| 28>    C        0.80275         5.55700         5.44660
| 29>    C        0.45412         6.83329         5.00862
| 30>    S       -0.94503         7.45625         5.88942
| 31>    C        1.03748         7.64057         4.02074
| 32>    C        2.03505         7.29749         3.13934
| 33>    C        2.60549         8.16437         2.17292
| 34>    C        3.55570         7.58624         1.38679
| 35>    C        3.78549         6.22420         1.68007
| 36>    S        2.76781         5.71005         3.00541
| 37>    C        4.64889         5.34162         1.05928
| 38>    C        5.54707         5.59605        -0.00130
| 39>    C        6.24626         4.50005        -0.40190
| 40>    C        5.93815         3.31229         0.31440
| 41>    S        4.72835         3.65900         1.53397
| 42>    C        6.50021         2.08528         0.07604
| 43>    C        6.23148         0.86664         0.73095
| 44>    S        7.14568        -0.55291         0.24665
| 45>    C        6.34881        -1.55843         1.41295
| 46>    C        5.38459        -0.81477         2.09236
| 47>    C        5.33262         0.53862         1.72240
| 48>    N        4.40676        -1.38010         2.95403
| 49>    O        4.50934        -2.55807         3.25226
| 50>    O        3.49261        -0.66277         3.30342
| 51>    C        6.64910        -2.94776         1.50099
| 52>    S        6.59312        -3.88682         0.04381
| 53>    C        6.75289        -5.38914         0.89469
| 54>    C        6.91271        -5.15163         2.27722
| 55>    C        6.90827        -3.76060         2.61031
| 56>    C        7.21833        -3.37040         3.93955
| 57>    C        7.55985        -1.96090         4.31885
| 58>    F        6.51575        -1.17009         4.61723
| 59>    F        8.35470        -1.92066         5.40350
| 60>    F        8.24796        -1.31286         3.35529
| 61>    C        7.33460        -4.33889         4.90463
| 62>    C        7.20716        -5.69641         4.60578
| 63>    C        7.04219        -6.12425         3.30544
| 64>    O        7.00462        -7.42547         2.93764
| 65>    C        7.10294        -8.41875         3.93416
| 66>    C        6.69870        -6.60927         0.20761
| 67>    C        6.50790        -6.72512        -1.14598
| 68>    C        6.43146        -7.94869        -1.81190
| 69>    C        6.20408        -8.09033        -3.16254
| 70>    C        6.09824        -9.30420        -3.88166
| 71>    C        5.85195        -9.15030        -5.21163
| 72>    C        5.74975        -7.80025        -5.62248
| 73>    S        5.98291        -6.73263        -4.25185
| 74>    C        5.50136        -7.31979        -6.88890
| 75>    C        5.29030        -8.07870        -8.07296
| 76>    C        5.06299        -7.33504        -9.17892
| 77>    C        5.07741        -5.91863        -8.95288
| 78>    S        5.40012        -5.60740        -7.23959
| 79>    C        4.88386        -4.94171        -9.84999
| 80>    H       -3.83290         4.03837        10.30864
| 81>    H       -1.86178         2.51954         9.49798
| 82>    H        1.63644         5.00546         5.05668
| 83>    H        0.64528         8.64569         3.93180
| 84>    H        2.29204         9.19035         2.09163
| 85>    H        4.08604         8.09724         0.60347
| 86>    H        5.65311         6.57466        -0.43391
| 87>    H        6.97488         4.49829        -1.19325
| 88>    H        7.24377         2.04239        -0.70921
| 89>    H        4.63442         1.21729         2.17581
| 90>    H        7.55045        -4.05439         5.92273
| 91>    H        7.28578        -6.40182         5.41542
| 92>    H        7.03759        -9.36882         3.40601
| 93>    H        6.28150        -8.34689         4.65233
| 94>    H        8.05957        -8.36324         4.46180
| 95>    H        6.80198        -7.50476         0.79962
| 96>    H        6.39844        -5.82489        -1.73958
| 97>    H        6.54477        -8.85658        -1.23343
| 98>    H        6.20526       -10.25524        -3.38988
| 99>    H        5.74009        -9.96531        -5.90387
|100>    H        5.31402        -9.15396        -8.06052
|101>    H        4.88217        -7.73216       -10.16194
|102>    H        4.68896        -5.17478       -10.88188
|103>    H        4.91411        -3.90440        -9.57153
|104> *
|105>
|106>                          ****END OF INPUT****

CARTESIAN COORDINATES (ANGSTROEM)
---------------------------------
  C     -3.106890    4.273650    9.556470
  C     -2.075560    3.502200    9.118970
  C     -1.334170    4.153210    8.113470
  C     -1.841290    5.429120    7.816520
  S     -3.210450    5.815630    8.764050
  C     -1.044770    6.012950    6.801080
  C     -0.033290    5.099920    6.453640
  C     -0.176780    3.905340    7.283740
  C      0.640100    2.810620    7.281340
  C      1.776420    2.731760    6.448130
  N      2.710310    2.690250    5.784030
  C      0.415870    1.711630    8.135090
  N      0.230450    0.823320    8.836770
  C      0.802750    5.557000    5.446600
  C      0.454120    6.833290    5.008620
  S     -0.945030    7.456250    5.889420
  C      1.037480    7.640570    4.020740
  C      2.035050    7.297490    3.139340
  C      2.605490    8.164370    2.172920
  C      3.555700    7.586240    1.386790
  C      3.785490    6.224200    1.680070
  S      2.767810    5.710050    3.005410
  C      4.648890    5.341620    1.059280
  C      5.547070    5.596050   -0.001300
  C      6.246260    4.500050   -0.401900
  C      5.938150    3.312290    0.314400
  S      4.728350    3.659000    1.533970
  C      6.500210    2.085280    0.076040
  C      6.231480    0.866640    0.730950
  S      7.145680   -0.552910    0.246650
  C      6.348810   -1.558430    1.412950
  C      5.384590   -0.814770    2.092360
  C      5.332620    0.538620    1.722400
  N      4.406760   -1.380100    2.954030
  O      4.509340   -2.558070    3.252260
  O      3.492610   -0.662770    3.303420
  C      6.649100   -2.947760    1.500990
  S      6.593120   -3.886820    0.043810
  C      6.752890   -5.389140    0.894690
  C      6.912710   -5.151630    2.277220
  C      6.908270   -3.760600    2.610310
  C      7.218330   -3.370400    3.939550
  C      7.559850   -1.960900    4.318850
  F      6.515750   -1.170090    4.617230
  F      8.354700   -1.920660    5.403500
  F      8.247960   -1.312860    3.355290
  C      7.334600   -4.338890    4.904630
  C      7.207160   -5.696410    4.605780
  C      7.042190   -6.124250    3.305440
  O      7.004620   -7.425470    2.937640
  C      7.102940   -8.418750    3.934160
  C      6.698700   -6.609270    0.207610
  C      6.507900   -6.725120   -1.145980
  C      6.431460   -7.948690   -1.811900
  C      6.204080   -8.090330   -3.162540
  C      6.098240   -9.304200   -3.881660
  C      5.851950   -9.150300   -5.211630
  C      5.749750   -7.800250   -5.622480
  S      5.982910   -6.732630   -4.251850
  C      5.501360   -7.319790   -6.888900
  C      5.290300   -8.078700   -8.072960
  C      5.062990   -7.335040   -9.178920
  C      5.077410   -5.918630   -8.952880
  S      5.400120   -5.607400   -7.239590
  C      4.883860   -4.941710   -9.849990
  H     -3.832900    4.038370   10.308640
  H     -1.861780    2.519540    9.497980
  H      1.636440    5.005460    5.056680
  H      0.645280    8.645690    3.931800
  H      2.292040    9.190350    2.091630
  H      4.086040    8.097240    0.603470
  H      5.653110    6.574660   -0.433910
  H      6.974880    4.498290   -1.193250
  H      7.243770    2.042390   -0.709210
  H      4.634420    1.217290    2.175810
  H      7.550450   -4.054390    5.922730
  H      7.285780   -6.401820    5.415420
  H      7.037590   -9.368820    3.406010
  H      6.281500   -8.346890    4.652330
  H      8.059570   -8.363240    4.461800
  H      6.801980   -7.504760    0.799620
  H      6.398440   -5.824890   -1.739580
  H      6.544770   -8.856580   -1.233430
  H      6.205260  -10.255240   -3.389880
  H      5.740090   -9.965310   -5.903870
  H      5.314020   -9.153960   -8.060520
  H      4.882170   -7.732160  -10.161940
  H      4.688960   -5.174780  -10.881880
  H      4.914110   -3.904400   -9.571530

 Total Charge           Charge          ....    0
 Multiplicity           Mult            ....    1
 Number of Electrons    NEL             ....  512
 Basis Dimension        Dim             .... 1062

ORBITAL ENERGIES
----------------

  NO   OCC          E(Eh)            E(eV)
   0   2.0000     -88.974045     -2421.1069
   1   2.0000     -88.972101     -2421.0539
   2   2.0000     -88.959942     -2420.7231
   3   2.0000     -88.958139     -2420.6740
   4   2.0000     -88.943054     -2420.2635
   5   2.0000     -88.942119     -2420.2381
   6   2.0000     -88.939038     -2420.1543
   7   2.0000     -88.935610     -2420.0610
   8   2.0000     -24.776965      -674.2155
   9   2.0000     -24.776866      -674.2128
  10   2.0000     -24.776232      -674.1955
  11   2.0000     -19.259166      -524.0685
  12   2.0000     -19.214459      -522.8520
  13   2.0000     -19.212228      -522.7913
  14   2.0000     -14.621851      -397.8808
  15   2.0000     -14.414526      -392.2392
  16   2.0000     -14.412222      -392.1765
  17   2.0000     -10.496687      -285.6294
  18   2.0000     -10.347971      -281.5826
  19   2.0000     -10.345023      -281.5024
  20   2.0000     -10.334878      -281.2263
  21   2.0000     -10.330253      -281.1005
  22   2.0000     -10.319833      -280.8169
  23   2.0000     -10.316926      -280.7378
  24   2.0000     -10.315014      -280.6858
  25   2.0000     -10.312937      -280.6293
  26   2.0000     -10.312181      -280.6087
  27   2.0000     -10.309817      -280.5444
  28   2.0000     -10.309318      -280.5308
  29   2.0000     -10.307845      -280.4907
  30   2.0000     -10.306990      -280.4674
  31   2.0000     -10.306946      -280.4663
  32   2.0000     -10.306768      -280.4614
  33   2.0000     -10.306228      -280.4467
  34   2.0000     -10.305467      -280.4260
  35   2.0000     -10.305288      -280.4212
  36   2.0000     -10.303647      -280.3765
  37   2.0000     -10.303412      -280.3701
  38   2.0000     -10.302476      -280.3446
  39   2.0000     -10.301256      -280.3114
  40   2.0000     -10.298221      -280.2289
  41   2.0000     -10.287874      -279.9473
  42   2.0000     -10.286911      -279.9211
  43   2.0000     -10.286745      -279.9166
  44   2.0000     -10.285360      -279.8789
  45   2.0000     -10.284788      -279.8633
  46   2.0000     -10.284572      -279.8574
  47   2.0000     -10.284511      -279.8558
  48   2.0000     -10.284127      -279.8453
  49   2.0000     -10.284090      -279.8443
  50   2.0000     -10.283872      -279.8384
  51   2.0000     -10.282940      -279.8130
  52   2.0000     -10.282804      -279.8093
  53   2.0000     -10.282161      -279.7918
  54   2.0000     -10.282027      -279.7882
  55   2.0000     -10.281864      -279.7837
  56   2.0000     -10.280447      -279.7452
  57   2.0000     -10.280102      -279.7358
  58   2.0000     -10.276798      -279.6459
  59   2.0000     -10.273850      -279.5657
  60   2.0000     -10.273743      -279.5627
  61   2.0000     -10.273435      -279.5544
  62   2.0000     -10.271539      -279.5028
  63   2.0000     -10.267390      -279.3899
  64   2.0000     -10.266003      -279.3521
  65   2.0000      -8.069073      -219.5706
  66   2.0000      -8.066862      -219.5105
  67   2.0000      -8.055198      -219.1931
  68   2.0000      -8.053915      -219.1582
  69   2.0000      -8.038890      -218.7493
  70   2.0000      -8.038037      -218.7261
  71   2.0000      -8.035341      -218.6527
  72   2.0000      -8.032331      -218.5708
  73   2.0000      -6.038348      -164.3118
  74   2.0000      -6.036103      -164.2507
  75   2.0000      -6.033949      -164.1921
  76   2.0000      -6.032076      -164.1411
  77   2.0000      -6.031605      -164.1283
  78   2.0000      -6.029106      -164.0603
  79   2.0000      -6.024150      -163.9254
  80   2.0000      -6.023160      -163.8985
  81   2.0000      -6.020148      -163.8165
  82   2.0000      -6.019128      -163.7888
  83   2.0000      -6.017860      -163.7543
  84   2.0000      -6.015911      -163.7013
  85   2.0000      -6.008670      -163.5042
  86   2.0000      -6.007802      -163.4806
  87   2.0000      -6.005064      -163.4061
  88   2.0000      -6.004503      -163.3908
  89   2.0000      -6.003668      -163.3681
  90   2.0000      -6.002134      -163.3264
  91   2.0000      -6.001140      -163.2993
  92   2.0000      -5.999846      -163.2641
  93   2.0000      -5.998974      -163.2404
  94   2.0000      -5.998240      -163.2204
  95   2.0000      -5.996168      -163.1640
  96   2.0000      -5.992870      -163.0743
  97   2.0000      -1.367488       -37.2112
  98   2.0000      -1.294268       -35.2188
  99   2.0000      -1.268209       -34.5097
 100   2.0000      -1.267436       -34.4887
 101   2.0000      -1.163161       -31.6512
 102   2.0000      -1.111985       -30.2586
 103   2.0000      -1.026872       -27.9426
 104   2.0000      -1.004642       -27.3377
 105   2.0000      -1.001842       -27.2615
 106   2.0000      -0.993256       -27.0279
 107   2.0000      -0.990752       -26.9597
 108   2.0000      -0.989029       -26.9129
 109   2.0000      -0.983480       -26.7618
 110   2.0000      -0.978685       -26.6314
 111   2.0000      -0.968435       -26.3525
 112   2.0000      -0.966223       -26.2923
 113   2.0000      -0.940541       -25.5934
 114   2.0000      -0.934560       -25.4307
 115   2.0000      -0.907696       -24.6997
 116   2.0000      -0.901903       -24.5420
 117   2.0000      -0.895681       -24.3727
 118   2.0000      -0.883414       -24.0389
 119   2.0000      -0.876883       -23.8612
 120   2.0000      -0.868320       -23.6282
 121   2.0000      -0.862158       -23.4605
 122   2.0000      -0.851497       -23.1704
 123   2.0000      -0.844224       -22.9725
 124   2.0000      -0.841840       -22.9076
 125   2.0000      -0.841122       -22.8881
 126   2.0000      -0.837586       -22.7919
 127   2.0000      -0.834633       -22.7115
 128   2.0000      -0.825655       -22.4672
 129   2.0000      -0.819527       -22.3005
 130   2.0000      -0.815130       -22.1808
 131   2.0000      -0.804510       -21.8918
 132   2.0000      -0.803547       -21.8656
 133   2.0000      -0.791786       -21.5456
 134   2.0000      -0.771624       -20.9970
 135   2.0000      -0.767712       -20.8905
 136   2.0000      -0.761090       -20.7103
 137   2.0000      -0.751732       -20.4557
 138   2.0000      -0.746502       -20.3133
 139   2.0000      -0.733614       -19.9627
 140   2.0000      -0.716981       -19.5100
 141   2.0000      -0.702284       -19.1101
 142   2.0000      -0.696302       -18.9474
 143   2.0000      -0.688031       -18.7223
 144   2.0000      -0.687481       -18.7073
 145   2.0000      -0.676559       -18.4101
 146   2.0000      -0.673707       -18.3325
 147   2.0000      -0.670652       -18.2494
 148   2.0000      -0.659552       -17.9473
 149   2.0000      -0.656042       -17.8518
 150   2.0000      -0.653652       -17.7868
 151   2.0000      -0.650665       -17.7055
 152   2.0000      -0.647148       -17.6098
 153   2.0000      -0.635173       -17.2839
 154   2.0000      -0.631824       -17.1928
 155   2.0000      -0.626339       -17.0436
 156   2.0000      -0.623002       -16.9527
 157   2.0000      -0.622227       -16.9316
 158   2.0000      -0.617640       -16.8068
 159   2.0000      -0.616534       -16.7767
 160   2.0000      -0.613388       -16.6911
 161   2.0000      -0.611657       -16.6440
 162   2.0000      -0.604121       -16.4390
 163   2.0000      -0.599118       -16.3028
 164   2.0000      -0.597200       -16.2506
 165   2.0000      -0.595149       -16.1948
 166   2.0000      -0.593925       -16.1615
 167   2.0000      -0.582658       -15.8549
 168   2.0000      -0.578646       -15.7458
 169   2.0000      -0.566696       -15.4206
 170   2.0000      -0.563406       -15.3311
 171   2.0000      -0.561854       -15.2888
 172   2.0000      -0.558500       -15.1976
 173   2.0000      -0.555101       -15.1051
 174   2.0000      -0.548059       -14.9134
 175   2.0000      -0.545165       -14.8347
 176   2.0000      -0.531278       -14.4568
 177   2.0000      -0.529773       -14.4159
 178   2.0000      -0.529538       -14.4095
 179   2.0000      -0.527640       -14.3578
 180   2.0000      -0.525977       -14.3126
 181   2.0000      -0.521562       -14.1924
 182   2.0000      -0.516955       -14.0671
 183   2.0000      -0.514473       -13.9995
 184   2.0000      -0.509617       -13.8674
 185   2.0000      -0.505971       -13.7682
 186   2.0000      -0.503624       -13.7043
 187   2.0000      -0.500576       -13.6214
 188   2.0000      -0.497291       -13.5320
 189   2.0000      -0.496056       -13.4984
 190   2.0000      -0.494172       -13.4471
 191   2.0000      -0.491533       -13.3753
 192   2.0000      -0.490587       -13.3496
 193   2.0000      -0.487536       -13.2665
 194   2.0000      -0.487284       -13.2597
 195   2.0000      -0.485268       -13.2048
 196   2.0000      -0.482477       -13.1289
 197   2.0000      -0.480189       -13.0666
 198   2.0000      -0.479516       -13.0483
 199   2.0000      -0.477134       -12.9835
 200   2.0000      -0.474750       -12.9186
 201   2.0000      -0.473036       -12.8720
 202   2.0000      -0.470237       -12.7958
 203   2.0000      -0.467856       -12.7310
 204   2.0000      -0.467322       -12.7165
 205   2.0000      -0.462209       -12.5774
 206   2.0000      -0.459519       -12.5042
 207   2.0000      -0.458607       -12.4793
 208   2.0000      -0.457302       -12.4438
 209   2.0000      -0.456391       -12.4190
 210   2.0000      -0.450903       -12.2697
 211   2.0000      -0.450412       -12.2563
 212   2.0000      -0.447950       -12.1893
 213   2.0000      -0.444974       -12.1083
 214   2.0000      -0.440423       -11.9845
 215   2.0000      -0.439300       -11.9540
 216   2.0000      -0.435000       -11.8369
 217   2.0000      -0.432092       -11.7578
 218   2.0000      -0.431338       -11.7373
 219   2.0000      -0.426538       -11.6067
 220   2.0000      -0.425456       -11.5773
 221   2.0000      -0.424804       -11.5595
 222   2.0000      -0.423500       -11.5240
 223   2.0000      -0.420704       -11.4479
 224   2.0000      -0.419362       -11.4114
 225   2.0000      -0.417348       -11.3566
 226   2.0000      -0.415674       -11.3111
 227   2.0000      -0.414488       -11.2788
 228   2.0000      -0.408869       -11.1259
 229   2.0000      -0.405785       -11.0420
 230   2.0000      -0.399270       -10.8647
 231   2.0000      -0.395886       -10.7726
 232   2.0000      -0.392233       -10.6732
 233   2.0000      -0.391181       -10.6446
 234   2.0000      -0.388554       -10.5731
 235   2.0000      -0.373454       -10.1622
 236   2.0000      -0.365130        -9.9357
 237   2.0000      -0.359234        -9.7752
 238   2.0000      -0.353020        -9.6062
 239   2.0000      -0.345945        -9.4136
 240   2.0000      -0.341617        -9.2959
 241   2.0000      -0.334909        -9.1133
 242   2.0000      -0.333947        -9.0872
 243   2.0000      -0.331576        -9.0227
 244   2.0000      -0.328087        -8.9277
 245   2.0000      -0.325502        -8.8574
 246   2.0000      -0.319673        -8.6988
 247   2.0000      -0.317175        -8.6308
 248   2.0000      -0.312177        -8.4948
 249   2.0000      -0.306426        -8.3383
 250   2.0000      -0.296865        -8.0781
 251   2.0000      -0.296458        -8.0670
 252   2.0000      -0.264027        -7.1845
 253   2.0000      -0.249332        -6.7847
 254   2.0000      -0.210041        -5.7155
 255   2.0000      -0.198510        -5.4017
 256   0.0000      -0.091697        -2.4952
 257   0.0000      -0.081070        -2.2060
 258   0.0000      -0.069096        -1.8802
 259   0.0000      -0.036875        -1.0034
 260   0.0000      -0.014662        -0.3990

MULLIKEN ATOMIC CHARGES
-----------------------
   0 C :   -0.086758
   1 C :    0.039880
   2 C :   -0.034072
   3 C :   -0.117370
   4 S :    0.169217
   5 C :   -0.105285
   6 C :   -0.006039
   7 C :    0.299251
   8 C :   -0.290742
   9 C :   -0.177679
  10 N :    0.171508
  11 C :   -0.187267
  12 N :    0.166034
  13 C :   -0.042875
  14 C :   -0.093220
  15 S :    0.168364
  16 C :    0.025408
  17 C :   -0.028172
  18 C :    0.030216
  19 C :    0.030764
  20 C :   -0.036409
  21 S :    0.069707
  22 C :   -0.035570
  23 C :    0.029967
  24 C :    0.033303
  25 C :   -0.027284
  26 S :    0.082313
  27 C :    0.043992
  28 C :   -0.068156
  29 S :    0.158130
  30 C :   -0.192727
  31 C :    0.196622
  32 C :   -0.056708
  33 N :    0.263085
  34 O :   -0.249988
  35 O :   -0.239202
  36 C :   -0.223284
  37 S :    0.164736
  38 C :   -0.110533
  39 C :    0.076103
  40 C :    0.255669
  41 C :   -0.149555
  42 C :    0.514684
  43 F :   -0.158706
  44 F :   -0.165841
  45 F :   -0.171232
  46 C :    0.013539
  47 C :   -0.117532
  48 C :    0.207347
  49 O :   -0.310745
  50 C :    0.178846
  51 C :   -0.010034
  52 C :    0.006418
  53 C :   -0.016885
  54 C :   -0.016730
  55 C :    0.033966
  56 C :    0.024726
  57 C :   -0.046656
  58 S :    0.074254
  59 C :   -0.065860
  60 C :    0.026374
  61 C :    0.052955
  62 C :   -0.063886
  63 S :    0.082067
  64 C :   -0.031921
  65 H :    0.031946
  66 H :    0.009378
  67 H :    0.026060
  68 H :   -0.020070
  69 H :   -0.013654
  70 H :   -0.013784
  71 H :   -0.014539
  72 H :   -0.010917
  73 H :   -0.017093
  74 H :    0.022046
  75 H :   -0.002461
  76 H :   -0.028034
  77 H :    0.037788
  78 H :    0.035755
  79 H :    0.030531
  80 H :   -0.001641
  81 H :    0.005433
  82 H :   -0.019988
  83 H :   -0.015520
  84 H :   -0.014765
  85 H :   -0.011132
  86 H :   -0.012561
  87 H :    0.019651
  88 H :    0.023052
Sum of atomic charges:   -0.0000000

LOEWDIN ATOMIC CHARGES
----------------------
   0 C :   -0.182938
   1 C :   -0.033964
   2 C :   -0.081123
   3 C :   -0.178327
   4 S :    0.465512
   5 C :   -0.192558
   6 C :   -0.063337
   7 C :    0.081950
   8 C :   -0.101520
   9 C :   -0.017126
  10 N :   -0.027190
  11 C :   -0.014919
  12 N :   -0.036790
  13 C :   -0.042601
  14 C :   -0.162452
  15 S :    0.458800
  16 C :   -0.083182
  17 C :   -0.144158
  18 C :   -0.032773
  19 C :   -0.035324
  20 C :   -0.178707
  21 S :    0.399911
  22 C :   -0.174575
  23 C :   -0.036318
  24 C :   -0.028583
  25 C :   -0.142936
  26 S :    0.400225
  27 C :   -0.077067
  28 C :   -0.164569
  29 S :    0.452915
  30 C :   -0.174914
  31 C :   -0.072458
  32 C :   -0.047270
  33 N :    0.285539
  34 O :   -0.210267
  35 O :   -0.203186
  36 C :   -0.219770
  37 S :    0.485462
  38 C :   -0.149259
  39 C :   -0.059694
  40 C :   -0.009553
  41 C :   -0.101685
  42 C :    0.173481
  43 F :   -0.059041
  44 F :   -0.062932
  45 F :   -0.065329
  46 C :    0.023070
  47 C :   -0.097959
  48 C :    0.084436
  49 O :   -0.084229
  50 C :    0.080897
  51 C :   -0.044842
  52 C :   -0.030139
  53 C :   -0.058909
  54 C :   -0.143780
  55 C :   -0.036632
  56 C :   -0.031588
  57 C :   -0.180799
  58 S :    0.368864
  59 C :   -0.177242
  60 C :   -0.027368
  61 C :   -0.032050
  62 C :   -0.139459
  63 S :    0.353884
  64 C :   -0.076648
  65 H :    0.025517
  66 H :    0.041799
  67 H :    0.024810
  68 H :    0.032240
  69 H :    0.032762
  70 H :    0.031804
  71 H :    0.031677
  72 H :    0.033509
  73 H :    0.032788
  74 H :    0.030403
  75 H :    0.036533
  76 H :    0.029277
  77 H :    0.029224
  78 H :    0.021055
  79 H :    0.019242
  80 H :    0.032499
  81 H :    0.014388
  82 H :    0.032055
  83 H :    0.032508
  84 H :    0.030874
  85 H :    0.032191
  86 H :    0.032993
  87 H :    0.028436
  88 H :    0.026508

  Mayer bond orders larger than 0.100000
B(  0-C ,  1-C ) :   1.5528 B(  0-C ,  4-S ) :   1.1381 B(  0-C , 65-H ) :   0.9649
B(  1-C ,  2-C ) :   1.2738 B(  1-C , 66-H ) :   0.9955 B(  2-C ,  3-C ) :   1.4438
B(  2-C ,  7-C ) :   1.0250 B(  3-C ,  4-S ) :   1.1337 B(  3-C ,  5-C ) :   1.2029
B(  5-C ,  6-C ) :   1.4442 B(  5-C , 15-S ) :   1.1103 B(  6-C ,  7-C ) :   0.9929
B(  6-C , 13-C ) :   1.3408 B(  7-C ,  8-C ) :   1.7069 B(  8-C ,  9-C ) :   1.1283
B(  8-C , 11-C ) :   1.1321 B(  9-C , 10-N ) :   2.9804 B( 11-C , 12-N ) :   2.9996
B( 13-C , 14-C ) :   1.4078 B( 13-C , 67-H ) :   0.9681 B( 14-C , 15-S ) :   1.0947
B( 14-C , 16-C ) :   1.1747 B( 16-C , 17-C ) :   1.5898 B( 16-C , 68-H ) :   0.9520
B( 17-C , 18-C ) :   1.1501 B( 17-C , 21-S ) :   1.0438 B( 18-C , 19-C ) :   1.5875
B( 18-C , 69-H ) :   0.9986 B( 19-C , 20-C ) :   1.1857 B( 19-C , 70-H ) :   0.9935
B( 20-C , 21-S ) :   1.0458 B( 20-C , 22-C ) :   1.5078 B( 22-C , 23-C ) :   1.1837
B( 22-C , 26-S ) :   1.0461 B( 23-C , 24-C ) :   1.5935 B( 23-C , 71-H ) :   0.9932
B( 24-C , 25-C ) :   1.1387 B( 24-C , 72-H ) :   0.9997 B( 25-C , 26-S ) :   1.0430
B( 25-C , 27-C ) :   1.6118 B( 27-C , 28-C ) :   1.1500 B( 27-C , 73-H ) :   0.9523
B( 28-C , 29-S ) :   1.0797 B( 28-C , 32-C ) :   1.4509 B( 29-S , 30-C ) :   1.1711
B( 30-C , 31-C ) :   1.4886 B( 30-C , 36-C ) :   1.0775 B( 31-C , 32-C ) :   1.2709
B( 31-C , 33-N ) :   0.9263 B( 32-C , 74-H ) :   0.9801 B( 33-N , 34-O ) :   1.5108
B( 33-N , 35-O ) :   1.5457 B( 34-O , 35-O ) :   0.2603 B( 36-C , 37-S ) :   1.1455
B( 36-C , 38-C ) :   0.1177 B( 36-C , 40-C ) :   1.4025 B( 37-S , 38-C ) :   1.1493
B( 38-C , 39-C ) :   1.3054 B( 38-C , 51-C ) :   1.2031 B( 39-C , 40-C ) :   1.2463
B( 39-C , 48-C ) :   1.1880 B( 40-C , 41-C ) :   1.1969 B( 41-C , 42-C ) :   0.9626
B( 41-C , 46-C ) :   1.5380 B( 42-C , 43-F ) :   1.1537 B( 42-C , 44-F ) :   1.1548
B( 42-C , 45-F ) :   1.1299 B( 46-C , 47-C ) :   1.2082 B( 46-C , 75-H ) :   0.9885
B( 47-C , 48-C ) :   1.4227 B( 47-C , 76-H ) :   0.9938 B( 48-C , 49-O ) :   1.1751
B( 49-O , 50-C ) :   0.9500 B( 50-C , 77-H ) :   0.9783 B( 50-C , 78-H ) :   0.9700
B( 50-C , 79-H ) :   0.9700 B( 51-C , 52-C ) :   1.5433 B( 51-C , 80-H ) :   0.9754
B( 52-C , 53-C ) :   1.1951 B( 52-C , 81-H ) :   0.9680 B( 53-C , 54-C ) :   1.5285
B( 53-C , 82-H ) :   0.9861 B( 54-C , 55-C ) :   1.1498 B( 54-C , 58-S ) :   1.0364
B( 55-C , 56-C ) :   1.5877 B( 55-C , 83-H ) :   0.9999 B( 56-C , 57-C ) :   1.1837
B( 56-C , 84-H ) :   0.9934 B( 57-C , 58-S ) :   1.0386 B( 57-C , 59-C ) :   1.5397
B( 59-C , 60-C ) :   1.1575 B( 59-C , 63-S ) :   1.0469 B( 60-C , 61-C ) :   1.6560
B( 60-C , 85-H ) :   0.9922 B( 61-C , 62-C ) :   1.0823 B( 61-C , 86-H ) :   0.9929
B( 62-C , 63-S ) :   1.0086 B( 62-C , 64-C ) :   1.8583 B( 64-C , 87-H ) :   0.9511
B( 64-C , 88-H ) :   0.9425

-----------------------------------------------------------------------------
         ABSORPTION SPECTRUM VIA TRANSITION ELECTRIC DIPOLE MOMENTS
-----------------------------------------------------------------------------
State   Energy  Wavelength   fosc         T2         TX        TY        TZ
        (cm-1)    (nm)                  (au**2)     (au)      (au)      (au)
-----------------------------------------------------------------------------
   0    9316.3   1073.4   0.256335343   9.05819   1.70441  -1.12201  -2.21230
   1   12309.0    812.4   1.335866197  35.72846  -0.85606   3.82292   4.51452
   2   15740.8    635.3   0.514461262  10.75973  -2.72547   1.59014  -0.89610
   3   16019.0    624.3   0.064570701   1.32702  -0.73108   0.23276   0.85928
   4   17741.9    563.6   0.082620058   1.53307   0.47541   0.04885  -1.14222
   5   19504.8    512.7   0.297049959   5.01376   0.52271   0.09121  -2.17537
   6   20458.0    488.8   0.196363778   3.15990  -0.13192  -0.93820   1.50409
   7   21106.4    473.8   0.131541360   2.05175  -0.68980   0.22261  -1.23546
   8   22591.4    442.6   0.333345388   4.85765  -0.54117   1.67575  -1.32538
   9   24765.1    403.8   0.131230411   1.74450  -0.02464  -1.00227   0.85985
  10   25741.8    388.5   0.046741233   0.59777  -0.12780   0.53220  -0.54608
  11   26144.1    382.5   0.200145269   2.52027   0.38075   1.18231  -0.98866
  12   26464.8    377.9   0.038278819   0.47617   0.30767  -0.61765  -0.00462
  13   28203.8    354.6   0.651032641   7.59924   0.65756   2.13077  -1.62070
  14   29055.9    344.2   0.047167929   0.53443  -0.01496  -0.66017   0.31366
  15   29670.3    337.0   0.034748842   0.38556  -0.03520   0.50661  -0.35731
  16   30124.7    332.0   0.313504392   3.42607   0.26381   1.75140  -0.53765
  17   30281.3    330.2   0.026197952   0.28482   0.08891   0.23630  -0.47019
  18   30555.4    327.3   0.008995769   0.09692   0.12963  -0.27364  -0.07239
  19   31376.4    318.7   0.577062722   6.05474   1.70770  -1.73903  -0.33805
  20   31754.1    314.9   0.058073778   0.60208   0.04340  -0.73920   0.23190
  21   31927.6    313.2   0.006092715   0.06282   0.05548  -0.08490  -0.22921
  22   32635.6    306.4   0.013563147   0.13682   0.11597  -0.30696  -0.17071
  23   32815.6    304.7   0.049626574   0.49786   0.30453  -0.39410  -0.49981
  24   32874.2    304.2   0.104580142   1.04730   0.87871   0.20239  -0.48394
  25   33460.0    298.9   0.040250023   0.39602   0.45373   0.12022  -0.41916
  26   33853.8    295.4   0.219668010   2.13617  -0.36615  -1.09640   0.89443
  27   33959.9    294.5   0.000029498   0.00029   0.01390   0.00499  -0.00823
  28   34598.8    289.0   0.122452338   1.16515   0.00768   0.47734   0.96811
  29   35039.2    285.4   0.029678167   0.27884   0.33071  -0.39925   0.10038
  30   35325.2    283.1   0.033493957   0.31215   0.43236  -0.10004  -0.33941
  31   36054.3    277.4   0.050502715   0.46114   0.21538  -0.11206  -0.63419
  32   36138.8    276.7   0.112167998   1.02181  -0.52874   0.84593  -0.16323
  33   36313.5    275.4   0.024556330   0.22262  -0.04516  -0.01362  -0.46947
  34   36484.3    274.1   0.035086927   0.31660  -0.08392   0.54884  -0.09131
  35   36852.1    271.4   0.014016301   0.12521  -0.29925  -0.08451  -0.16888
  36   37015.7    270.2   0.031108223   0.27667   0.38277  -0.33171  -0.14188
  37   37233.3    268.6   0.039849581   0.35234   0.04854  -0.48218  -0.34277
  38   37493.0    266.7   0.032920468   0.28906   0.47734  -0.21008   0.13068
  39   37671.0    265.5   0.037891242   0.33114  -0.37306  -0.18723   0.39612
  40   37978.0    263.3   0.059420387   0.51509   0.37847   0.07069  -0.60568
  41   38277.4    261.3   0.042060734   0.36175  -0.28675   0.09789  -0.51956
  42   38457.5    260.0   0.003253063   0.02785   0.11424  -0.11107   0.04962
  43   38732.4    258.2   0.007474436   0.06353  -0.22153   0.01806  -0.11886
  44   38915.2    257.0   0.004862217   0.04113  -0.10921  -0.03913   0.16636
  45   39125.1    255.6   0.021727995   0.18283  -0.05348   0.40966   0.11020
  46   39289.6    254.5   0.021398066   0.17930  -0.01494  -0.42299  -0.01242
  47   39589.5    252.6   0.096130262   0.79939   0.13765   0.53227  -0.70507
  48   39638.0    252.3   0.005586573   0.04640  -0.05148  -0.12921   0.16448
  49   39847.8    251.0   0.017463259   0.14428   0.06278  -0.00320  -0.37460
  50   40121.2    249.2   0.025117142   0.20610   0.00448  -0.10641   0.44131
  51   40196.6    248.8   0.021920472   0.17953   0.27493   0.12689  -0.29638

FINAL SINGLE POINT ENERGY     -5714.195503506153

DIPOLE MOMENT
-------------
                                X             Y             Z
Electronic contribution:     -4.03910      37.54718      41.17265
Nuclear contribution   :      4.05359     -37.82982     -43.14172
                        -----------------------------------------
Total Dipole Moment    :      0.01449      -0.28264      -1.96906
                        -----------------------------------------
Magnitude (a.u.)       :      1.98930
Magnitude (Debye)      :      5.05639

Rotational constants in cm-1:     0.001210     0.000329     0.000299
Rotational constants in MHz :    36.282839     9.874517     8.952004

                             ****ORCA TERMINATED NORMALLY****
TOTAL RUN TIME: 0 days 0 hours 9 minutes 1 seconds 316 msec
