                         Program Version 4.2.0 -  RELEASE  -
|  1> # ORCA input file
|  2> # SCF done       -186.235396164973          0.000517390433
|  3> ! CAM-B3LYP def2-SVP def2/J RIJCOSX Grid4 TightSCF
|  4> %maxcore 5000
|  5> %tddft
|  6>     Mode sTDDFT
|  7>     Ethresh 5.0
|  8>     maxcore 5000
|  9> end
| 10>
| 11> %pal
| 12>   nprocs 6
| 13>   end
| 14> * xyz 0 1
| 15>    C       -1.32370         2.95298         2.99399
| 16>    C       -0.08970         3.28609         3.47741
| 17>    F        0.17736         4.54939         3.82824
| 18>    C        0.91655         2.30718         3.61292
| 19>    F        2.11565         2.66309         4.08937
| 20>    C        0.67460         1.00877         3.26155
| 21>    C       -0.58675         0.63402         2.75843
| 22>    C       -1.60597         1.62218         2.62402
| 23>    C       -2.88082         1.26862         2.12858
| 24>    C       -3.12980        -0.03345         1.77858
| 25>    C       -2.10275        -1.01112         1.90428
| 26>    C       -0.86109        -0.69834         2.38046
| 27>    C       -2.59961        -2.31824         1.44449
| 28>    O       -1.96724        -3.34577         1.35021
| 29>    C       -4.00817        -2.07573         1.00862
| 30>    C       -4.33220        -0.67958         1.26961
| 31>    C       -5.56912        -0.10955         1.15753
| 32>    C       -6.73968        -0.80197         0.77501
| 33>    N       -7.72948        -1.31252         0.49948
| 34>    C       -5.84398         1.24360         1.45418
| 35>    N       -6.11957         2.33562         1.67128
| 36>    C       -4.75817        -2.96352         0.31625
| 37>    C       -4.46591        -4.36892         0.19802
| 38>    C       -4.64774        -5.08465        -0.97430
| 39>    C       -5.05564        -4.55511        -2.19829
| 40>    N       -5.39757        -4.10216        -3.19632
| 41>    S       -4.22534        -6.75786        -0.80069
| 42>    C       -3.85543        -6.53536         0.88312
| 43>    C       -4.02808        -5.20780         1.26102
| 44>    C       -3.89730        -4.74234         2.57686
| 45>    N       -3.82895        -4.36286         3.65919
| 46>    C       -3.44794        -7.64270         1.66959
| 47>    N       -3.06424        -7.53432         2.98953
| 48>    C       -2.75785        -8.77566         3.44300
| 49>    C       -2.33612        -9.49183         4.55889
| 50>    C       -2.28803       -10.83291         4.16164
| 51>    N       -2.66395       -10.93760         2.83775
| 52>    C       -2.95439        -9.69482         2.37748
| 53>    C       -3.38377        -8.98224         1.26392
| 54>    C       -1.94287       -11.93509         4.98579
| 55>    C       -1.96281       -13.23495         4.61071
| 56>    C       -1.65801       -14.35054         5.45124
| 57>    C       -1.77616       -15.65989         4.98424
| 58>    C       -2.18765       -16.03060         3.70562
| 59>    N       -2.53493       -16.30914         2.64640
| 60>    S       -1.37700       -16.85541         6.16806
| 61>    C       -1.03606       -15.62166         7.33921
| 62>    C       -1.24758       -14.35059         6.81556
| 63>    C       -1.02872       -13.21948         7.62035
| 64>    N       -0.84967       -12.33294         8.32649
| 65>    C       -0.70879       -15.90766         8.69522
| 66>    C       -0.16786       -17.02980         9.22593
| 67>    C       -0.34624       -17.30753        10.68627
| 68>    O       -0.69532       -16.52104        11.53052
| 69>    C       -0.07614       -18.75083        10.83139
| 70>    C       -0.23669       -19.54436        11.93124
| 71>    C        0.05842       -20.92209        11.83224
| 72>    C        0.51247       -21.45473        10.58963
| 73>    C        0.79585       -22.83238        10.49731
| 74>    C        0.63860       -23.64234        11.58687
| 75>    C        0.19122       -23.11418        12.81575
| 76>    C       -0.09248       -21.78273        12.93723
| 77>    F        0.04498       -23.93160        13.86478
| 78>    F        0.90772       -24.94949        11.49770
| 79>    C        0.67743       -20.60828         9.46989
| 80>    C        0.39225       -19.27439         9.59146
| 81>    C        0.49746       -18.17698         8.63595
| 82>    C        1.30740       -18.15395         7.53375
| 83>    C        1.56986       -16.97702         6.80063
| 84>    N        1.81856       -16.02435         6.21158
| 85>    C        2.02697       -19.27522         7.06962
| 86>    N        2.61557       -20.16659         6.65195
| 87>    H       -2.08280         3.71362         2.89869
| 88>    H        1.45495         0.27205         3.37092
| 89>    H       -3.62952         2.03841         2.03320
| 90>    H       -0.10136        -1.45980         2.46961
| 91>    H       -5.63746        -2.62640        -0.21919
| 92>    H       -3.01919        -6.67241         3.50820
| 93>    H       -2.09606        -9.12495         5.53603
| 94>    H       -2.70159       -11.79336         2.31226
| 95>    H       -3.62993        -9.34859         0.28706
| 96>    H       -1.66288       -11.67097         5.99435
| 97>    H       -2.24571       -13.50817         3.60201
| 98>    H       -1.00651       -15.14793         9.41382
| 99>    H       -0.58521       -19.12627        12.86324
|100>    H        1.14259       -23.25247         9.56613
|101>    H       -0.43388       -21.39410        13.88384
|102>    H        1.01336       -21.03608         8.53851
|103> *
|104>
|105>                          ****END OF INPUT****

CARTESIAN COORDINATES (ANGSTROEM)
---------------------------------
  C     -1.323700    2.952980    2.993990
  C     -0.089700    3.286090    3.477410
  F      0.177360    4.549390    3.828240
  C      0.916550    2.307180    3.612920
  F      2.115650    2.663090    4.089370
  C      0.674600    1.008770    3.261550
  C     -0.586750    0.634020    2.758430
  C     -1.605970    1.622180    2.624020
  C     -2.880820    1.268620    2.128580
  C     -3.129800   -0.033450    1.778580
  C     -2.102750   -1.011120    1.904280
  C     -0.861090   -0.698340    2.380460
  C     -2.599610   -2.318240    1.444490
  O     -1.967240   -3.345770    1.350210
  C     -4.008170   -2.075730    1.008620
  C     -4.332200   -0.679580    1.269610
  C     -5.569120   -0.109550    1.157530
  C     -6.739680   -0.801970    0.775010
  N     -7.729480   -1.312520    0.499480
  C     -5.843980    1.243600    1.454180
  N     -6.119570    2.335620    1.671280
  C     -4.758170   -2.963520    0.316250
  C     -4.465910   -4.368920    0.198020
  C     -4.647740   -5.084650   -0.974300
  C     -5.055640   -4.555110   -2.198290
  N     -5.397570   -4.102160   -3.196320
  S     -4.225340   -6.757860   -0.800690
  C     -3.855430   -6.535360    0.883120
  C     -4.028080   -5.207800    1.261020
  C     -3.897300   -4.742340    2.576860
  N     -3.828950   -4.362860    3.659190
  C     -3.447940   -7.642700    1.669590
  N     -3.064240   -7.534320    2.989530
  C     -2.757850   -8.775660    3.443000
  C     -2.336120   -9.491830    4.558890
  C     -2.288030  -10.832910    4.161640
  N     -2.663950  -10.937600    2.837750
  C     -2.954390   -9.694820    2.377480
  C     -3.383770   -8.982240    1.263920
  C     -1.942870  -11.935090    4.985790
  C     -1.962810  -13.234950    4.610710
  C     -1.658010  -14.350540    5.451240
  C     -1.776160  -15.659890    4.984240
  C     -2.187650  -16.030600    3.705620
  N     -2.534930  -16.309140    2.646400
  S     -1.377000  -16.855410    6.168060
  C     -1.036060  -15.621660    7.339210
  C     -1.247580  -14.350590    6.815560
  C     -1.028720  -13.219480    7.620350
  N     -0.849670  -12.332940    8.326490
  C     -0.708790  -15.907660    8.695220
  C     -0.167860  -17.029800    9.225930
  C     -0.346240  -17.307530   10.686270
  O     -0.695320  -16.521040   11.530520
  C     -0.076140  -18.750830   10.831390
  C     -0.236690  -19.544360   11.931240
  C      0.058420  -20.922090   11.832240
  C      0.512470  -21.454730   10.589630
  C      0.795850  -22.832380   10.497310
  C      0.638600  -23.642340   11.586870
  C      0.191220  -23.114180   12.815750
  C     -0.092480  -21.782730   12.937230
  F      0.044980  -23.931600   13.864780
  F      0.907720  -24.949490   11.497700
  C      0.677430  -20.608280    9.469890
  C      0.392250  -19.274390    9.591460
  C      0.497460  -18.176980    8.635950
  C      1.307400  -18.153950    7.533750
  C      1.569860  -16.977020    6.800630
  N      1.818560  -16.024350    6.211580
  C      2.026970  -19.275220    7.069620
  N      2.615570  -20.166590    6.651950
  H     -2.082800    3.713620    2.898690
  H      1.454950    0.272050    3.370920
  H     -3.629520    2.038410    2.033200
  H     -0.101360   -1.459800    2.469610
  H     -5.637460   -2.626400   -0.219190
  H     -3.019190   -6.672410    3.508200
  H     -2.096060   -9.124950    5.536030
  H     -2.701590  -11.793360    2.312260
  H     -3.629930   -9.348590    0.287060
  H     -1.662880  -11.670970    5.994350
  H     -2.245710  -13.508170    3.602010
  H     -1.006510  -15.147930    9.413820
  H     -0.585210  -19.126270   12.863240
  H      1.142590  -23.252470    9.566130
  H     -0.433880  -21.394100   13.883840
  H      1.013360  -21.036080    8.538510

 Total Charge           Charge          ....    0
 Multiplicity           Mult            ....    1
 Number of Electrons    NEL             ....  494
 Basis Dimension        Dim             .... 1096

ORBITAL ENERGIES
----------------

  NO   OCC          E(Eh)            E(eV)
   0   2.0000     -89.008585     -2422.0467
   1   2.0000     -89.001126     -2421.8438
   2   2.0000     -24.809406      -675.0982
   3   2.0000     -24.808959      -675.0861
   4   2.0000     -24.804670      -674.9694
   5   2.0000     -24.803869      -674.9476
   6   2.0000     -19.236464      -523.4508
   7   2.0000     -19.232333      -523.3384
   8   2.0000     -14.476186      -393.9170
   9   2.0000     -14.474281      -393.8652
  10   2.0000     -14.435611      -392.8129
  11   2.0000     -14.434655      -392.7869
  12   2.0000     -14.433878      -392.7658
  13   2.0000     -14.430119      -392.6635
  14   2.0000     -14.427776      -392.5997
  15   2.0000     -14.426796      -392.5731
  16   2.0000     -14.426219      -392.5574
  17   2.0000     -14.425309      -392.5326
  18   2.0000     -10.393894      -282.8322
  19   2.0000     -10.393555      -282.8230
  20   2.0000     -10.388704      -282.6910
  21   2.0000     -10.388182      -282.6768
  22   2.0000     -10.387861      -282.6681
  23   2.0000     -10.383792      -282.5573
  24   2.0000     -10.367922      -282.1255
  25   2.0000     -10.363731      -282.0115
  26   2.0000     -10.361968      -281.9635
  27   2.0000     -10.358948      -281.8813
  28   2.0000     -10.356658      -281.8190
  29   2.0000     -10.356316      -281.8097
  30   2.0000     -10.355403      -281.7848
  31   2.0000     -10.353858      -281.7428
  32   2.0000     -10.348783      -281.6047
  33   2.0000     -10.344601      -281.4909
  34   2.0000     -10.339895      -281.3628
  35   2.0000     -10.336862      -281.2803
  36   2.0000     -10.336754      -281.2774
  37   2.0000     -10.336146      -281.2608
  38   2.0000     -10.335441      -281.2416
  39   2.0000     -10.335259      -281.2367
  40   2.0000     -10.333427      -281.1868
  41   2.0000     -10.333267      -281.1825
  42   2.0000     -10.331331      -281.1298
  43   2.0000     -10.329301      -281.0746
  44   2.0000     -10.328787      -281.0606
  45   2.0000     -10.328148      -281.0432
  46   2.0000     -10.327898      -281.0364
  47   2.0000     -10.326318      -280.9934
  48   2.0000     -10.325411      -280.9687
  49   2.0000     -10.325203      -280.9631
  50   2.0000     -10.324617      -280.9471
  51   2.0000     -10.324354      -280.9399
  52   2.0000     -10.321615      -280.8654
  53   2.0000     -10.319064      -280.7960
  54   2.0000     -10.318775      -280.7881
  55   2.0000     -10.318739      -280.7872
  56   2.0000     -10.318506      -280.7808
  57   2.0000     -10.317719      -280.7594
  58   2.0000     -10.314381      -280.6686
  59   2.0000     -10.313454      -280.6433
  60   2.0000     -10.312840      -280.6266
  61   2.0000     -10.312825      -280.6262
  62   2.0000     -10.312094      -280.6064
  63   2.0000     -10.311660      -280.5945
  64   2.0000     -10.310832      -280.5720
  65   2.0000     -10.308168      -280.4995
  66   2.0000     -10.307395      -280.4785
  67   2.0000     -10.307342      -280.4770
  68   2.0000     -10.303512      -280.3728
  69   2.0000     -10.300973      -280.3037
  70   2.0000     -10.291257      -280.0393
  71   2.0000     -10.283880      -279.8386
  72   2.0000      -8.103328      -220.5028
  73   2.0000      -8.096182      -220.3083
  74   2.0000      -6.072718      -165.2471
  75   2.0000      -6.068414      -165.1299
  76   2.0000      -6.065693      -165.0559
  77   2.0000      -6.065374      -165.0472
  78   2.0000      -6.061352      -164.9378
  79   2.0000      -6.057984      -164.8461
  80   2.0000      -1.332808       -36.2675
  81   2.0000      -1.327660       -36.1275
  82   2.0000      -1.317866       -35.8610
  83   2.0000      -1.312743       -35.7216
  84   2.0000      -1.152863       -31.3710
  85   2.0000      -1.148816       -31.2609
  86   2.0000      -1.109859       -30.2008
  87   2.0000      -1.074113       -29.2281
  88   2.0000      -1.049076       -28.5468
  89   2.0000      -1.038316       -28.2540
  90   2.0000      -1.037660       -28.2362
  91   2.0000      -1.030983       -28.0545
  92   2.0000      -1.020742       -27.7758
  93   2.0000      -1.017040       -27.6751
  94   2.0000      -1.013997       -27.5923
  95   2.0000      -1.013422       -27.5766
  96   2.0000      -1.011467       -27.5234
  97   2.0000      -1.005750       -27.3678
  98   2.0000      -1.005513       -27.3614
  99   2.0000      -1.000222       -27.2174
 100   2.0000      -0.998025       -27.1576
 101   2.0000      -0.991629       -26.9836
 102   2.0000      -0.952446       -25.9174
 103   2.0000      -0.945599       -25.7311
 104   2.0000      -0.938603       -25.5407
 105   2.0000      -0.929248       -25.2861
 106   2.0000      -0.924464       -25.1559
 107   2.0000      -0.910176       -24.7672
 108   2.0000      -0.908740       -24.7281
 109   2.0000      -0.905952       -24.6522
 110   2.0000      -0.902786       -24.5661
 111   2.0000      -0.899293       -24.4710
 112   2.0000      -0.896883       -24.4054
 113   2.0000      -0.881995       -24.0003
 114   2.0000      -0.880476       -23.9590
 115   2.0000      -0.867156       -23.5965
 116   2.0000      -0.855957       -23.2918
 117   2.0000      -0.855484       -23.2789
 118   2.0000      -0.849269       -23.1098
 119   2.0000      -0.823081       -22.3972
 120   2.0000      -0.816053       -22.2059
 121   2.0000      -0.803825       -21.8732
 122   2.0000      -0.784508       -21.3475
 123   2.0000      -0.778656       -21.1883
 124   2.0000      -0.777437       -21.1551
 125   2.0000      -0.764114       -20.7926
 126   2.0000      -0.759676       -20.6718
 127   2.0000      -0.746637       -20.3170
 128   2.0000      -0.739791       -20.1307
 129   2.0000      -0.737790       -20.0763
 130   2.0000      -0.733524       -19.9602
 131   2.0000      -0.727642       -19.8001
 132   2.0000      -0.713818       -19.4240
 133   2.0000      -0.709960       -19.3190
 134   2.0000      -0.707321       -19.2472
 135   2.0000      -0.704252       -19.1637
 136   2.0000      -0.701770       -19.0961
 137   2.0000      -0.697587       -18.9823
 138   2.0000      -0.693785       -18.8788
 139   2.0000      -0.671499       -18.2724
 140   2.0000      -0.670238       -18.2381
 141   2.0000      -0.668461       -18.1898
 142   2.0000      -0.664873       -18.0921
 143   2.0000      -0.657732       -17.8978
 144   2.0000      -0.653728       -17.7888
 145   2.0000      -0.651275       -17.7221
 146   2.0000      -0.647588       -17.6218
 147   2.0000      -0.639744       -17.4083
 148   2.0000      -0.629037       -17.1170
 149   2.0000      -0.626175       -17.0391
 150   2.0000      -0.616631       -16.7794
 151   2.0000      -0.609249       -16.5785
 152   2.0000      -0.606582       -16.5059
 153   2.0000      -0.601089       -16.3565
 154   2.0000      -0.597006       -16.2454
 155   2.0000      -0.595037       -16.1918
 156   2.0000      -0.592423       -16.1207
 157   2.0000      -0.591963       -16.1081
 158   2.0000      -0.589513       -16.0415
 159   2.0000      -0.582925       -15.8622
 160   2.0000      -0.575664       -15.6646
 161   2.0000      -0.570355       -15.5202
 162   2.0000      -0.567801       -15.4507
 163   2.0000      -0.562293       -15.3008
 164   2.0000      -0.560238       -15.2449
 165   2.0000      -0.558657       -15.2018
 166   2.0000      -0.558253       -15.1908
 167   2.0000      -0.555857       -15.1256
 168   2.0000      -0.553347       -15.0573
 169   2.0000      -0.553325       -15.0567
 170   2.0000      -0.552268       -15.0280
 171   2.0000      -0.551094       -14.9960
 172   2.0000      -0.549846       -14.9621
 173   2.0000      -0.547659       -14.9026
 174   2.0000      -0.545018       -14.8307
 175   2.0000      -0.539890       -14.6911
 176   2.0000      -0.539443       -14.6790
 177   2.0000      -0.537381       -14.6229
 178   2.0000      -0.531881       -14.4732
 179   2.0000      -0.530737       -14.4421
 180   2.0000      -0.529747       -14.4151
 181   2.0000      -0.524798       -14.2805
 182   2.0000      -0.523820       -14.2539
 183   2.0000      -0.523474       -14.2445
 184   2.0000      -0.519688       -14.1414
 185   2.0000      -0.516997       -14.0682
 186   2.0000      -0.509663       -13.8686
 187   2.0000      -0.508436       -13.8352
 188   2.0000      -0.505039       -13.7428
 189   2.0000      -0.500148       -13.6097
 190   2.0000      -0.498986       -13.5781
 191   2.0000      -0.496421       -13.5083
 192   2.0000      -0.491011       -13.3611
 193   2.0000      -0.490199       -13.3390
 194   2.0000      -0.483831       -13.1657
 195   2.0000      -0.480738       -13.0815
 196   2.0000      -0.480310       -13.0699
 197   2.0000      -0.477426       -12.9914
 198   2.0000      -0.474572       -12.9137
 199   2.0000      -0.472254       -12.8507
 200   2.0000      -0.471942       -12.8422
 201   2.0000      -0.468381       -12.7453
 202   2.0000      -0.466152       -12.6847
 203   2.0000      -0.462643       -12.5892
 204   2.0000      -0.461887       -12.5686
 205   2.0000      -0.461176       -12.5492
 206   2.0000      -0.459511       -12.5039
 207   2.0000      -0.458982       -12.4895
 208   2.0000      -0.457590       -12.4517
 209   2.0000      -0.457465       -12.4483
 210   2.0000      -0.455553       -12.3962
 211   2.0000      -0.454523       -12.3682
 212   2.0000      -0.453617       -12.3435
 213   2.0000      -0.451865       -12.2959
 214   2.0000      -0.445447       -12.1212
 215   2.0000      -0.444543       -12.0966
 216   2.0000      -0.442928       -12.0527
 217   2.0000      -0.438290       -11.9265
 218   2.0000      -0.437489       -11.9047
 219   2.0000      -0.435539       -11.8516
 220   2.0000      -0.433320       -11.7912
 221   2.0000      -0.430605       -11.7174
 222   2.0000      -0.430078       -11.7030
 223   2.0000      -0.429595       -11.6899
 224   2.0000      -0.427205       -11.6248
 225   2.0000      -0.423413       -11.5217
 226   2.0000      -0.422374       -11.4934
 227   2.0000      -0.421648       -11.4736
 228   2.0000      -0.413280       -11.2459
 229   2.0000      -0.407723       -11.0947
 230   2.0000      -0.398236       -10.8366
 231   2.0000      -0.394797       -10.7430
 232   2.0000      -0.383829       -10.4445
 233   2.0000      -0.376707       -10.2507
 234   2.0000      -0.370544       -10.0830
 235   2.0000      -0.359562        -9.7842
 236   2.0000      -0.355727        -9.6798
 237   2.0000      -0.353767        -9.6265
 238   2.0000      -0.332952        -9.0601
 239   2.0000      -0.331873        -9.0307
 240   2.0000      -0.327512        -8.9121
 241   2.0000      -0.324432        -8.8283
 242   2.0000      -0.316842        -8.6217
 243   2.0000      -0.309927        -8.4335
 244   2.0000      -0.307726        -8.3736
 245   2.0000      -0.306224        -8.3328
 246   2.0000      -0.249450        -6.7879
 247   0.0000      -0.121560        -3.3078
 248   0.0000      -0.108264        -2.9460
 249   0.0000      -0.078310        -2.1309
 250   0.0000      -0.075929        -2.0661
 251   0.0000      -0.071624        -1.9490

MULLIKEN ATOMIC CHARGES
-----------------------
   0 C :   -0.109098
   1 C :    0.244429
   2 F :   -0.167650
   3 C :    0.241222
   4 F :   -0.168268
   5 C :   -0.105019
   6 C :    0.118001
   7 C :    0.118024
   8 C :   -0.086393
   9 C :    0.058424
  10 C :   -0.004963
  11 C :   -0.074056
  12 C :    0.157712
  13 O :   -0.137079
  14 C :   -0.070036
  15 C :    0.296442
  16 C :   -0.324811
  17 C :   -0.197773
  18 N :    0.176657
  19 C :   -0.180910
  20 N :    0.159959
  21 C :   -0.064820
  22 C :    0.223533
  23 C :   -0.289945
  24 C :   -0.189892
  25 N :    0.159235
  26 S :    0.232299
  27 C :   -0.027259
  28 C :   -0.018223
  29 C :   -0.316679
  30 N :    0.154094
  31 C :    0.052488
  32 N :   -0.028222
  33 C :    0.121903
  34 C :   -0.152043
  35 C :    0.070831
  36 N :   -0.028213
  37 C :    0.125205
  38 C :   -0.176388
  39 C :    0.050262
  40 C :   -0.047978
  41 C :    0.245564
  42 C :   -0.294150
  43 C :   -0.190109
  44 N :    0.144188
  45 S :    0.246753
  46 C :   -0.079776
  47 C :   -0.053472
  48 C :   -0.203658
  49 N :    0.151256
  50 C :    0.019451
  51 C :   -0.117792
  52 C :    0.141947
  53 O :   -0.124380
  54 C :    0.013168
  55 C :   -0.077927
  56 C :    0.112199
  57 C :    0.113098
  58 C :   -0.104085
  59 C :    0.242034
  60 C :    0.241839
  61 C :   -0.100700
  62 F :   -0.167133
  63 F :   -0.166493
  64 C :   -0.077640
  65 C :    0.039807
  66 C :    0.240150
  67 C :   -0.305163
  68 C :   -0.198174
  69 N :    0.181060
  70 C :   -0.171707
  71 N :    0.167589
  72 H :    0.010740
  73 H :    0.003606
  74 H :   -0.002817
  75 H :   -0.005261
  76 H :    0.058986
  77 H :    0.136739
  78 H :   -0.013706
  79 H :    0.133244
  80 H :   -0.018076
  81 H :   -0.001924
  82 H :   -0.027114
  83 H :    0.052465
  84 H :   -0.002943
  85 H :    0.008574
  86 H :    0.003909
  87 H :    0.000833
Sum of atomic charges:   -0.0000000

LOEWDIN ATOMIC CHARGES
----------------------
   0 C :   -0.028560
   1 C :    0.069376
   2 F :   -0.045434
   3 C :    0.069754
   4 F :   -0.046087
   5 C :   -0.031477
   6 C :   -0.007046
   7 C :   -0.003884
   8 C :    0.020266
   9 C :   -0.022062
  10 C :   -0.051763
  11 C :    0.037200
  12 C :    0.090459
  13 O :   -0.126277
  14 C :   -0.061748
  15 C :    0.072478
  16 C :   -0.118735
  17 C :   -0.023881
  18 N :   -0.033740
  19 C :   -0.016327
  20 N :   -0.039782
  21 C :    0.068807
  22 C :   -0.005270
  23 C :   -0.210519
  24 C :   -0.059475
  25 N :   -0.031753
  26 S :    0.507000
  27 C :   -0.114372
  28 C :   -0.109534
  29 C :   -0.028824
  30 N :   -0.066868
  31 C :   -0.027334
  32 N :    0.082904
  33 C :   -0.009977
  34 C :   -0.067964
  35 C :    0.000765
  36 N :    0.072086
  37 C :   -0.011239
  38 C :   -0.080568
  39 C :    0.009709
  40 C :   -0.058648
  41 C :    0.010230
  42 C :   -0.218564
  43 C :   -0.056475
  44 N :   -0.041195
  45 S :    0.526929
  46 C :   -0.135056
  47 C :   -0.073845
  48 C :   -0.027178
  49 N :   -0.036658
  50 C :    0.043865
  51 C :   -0.067592
  52 C :    0.085561
  53 O :   -0.123645
  54 C :   -0.056349
  55 C :    0.036330
  56 C :   -0.007647
  57 C :   -0.003806
  58 C :   -0.029050
  59 C :    0.070232
  60 C :    0.070061
  61 C :   -0.030904
  62 F :   -0.044815
  63 F :   -0.044218
  64 C :    0.017711
  65 C :   -0.021813
  66 C :    0.056827
  67 C :   -0.126587
  68 C :   -0.035659
  69 N :   -0.034760
  70 C :   -0.019694
  71 N :   -0.035111
  72 H :    0.048787
  73 H :    0.046214
  74 H :    0.040886
  75 H :    0.042353
  76 H :    0.055175
  77 H :    0.093045
  78 H :    0.033932
  79 H :    0.092672
  80 H :    0.025403
  81 H :    0.044825
  82 H :    0.027905
  83 H :    0.060875
  84 H :    0.043178
  85 H :    0.048406
  86 H :    0.046536
  87 H :    0.041024

  Mayer bond orders larger than 0.100000
B(  0-C ,  1-C ) :   1.4433 B(  0-C ,  5-C ) :   0.1079 B(  0-C ,  7-C ) :   1.1857
B(  0-C , 72-H ) :   1.0071 B(  1-C ,  2-F ) :   1.1381 B(  1-C ,  3-C ) :   1.1867
B(  3-C ,  4-F ) :   1.1364 B(  3-C ,  5-C ) :   1.4449 B(  5-C ,  6-C ) :   1.1908
B(  5-C , 73-H ) :   1.0070 B(  6-C ,  7-C ) :   1.2518 B(  6-C , 11-C ) :   1.1932
B(  7-C ,  8-C ) :   1.2236 B(  8-C ,  9-C ) :   1.4380 B(  8-C , 74-H ) :   0.9910
B(  9-C , 10-C ) :   1.2189 B(  9-C , 15-C ) :   1.0018 B( 10-C , 11-C ) :   1.4674
B( 10-C , 12-C ) :   0.9502 B( 11-C , 75-H ) :   1.0166 B( 12-C , 13-O ) :   2.2214
B( 12-C , 14-C ) :   0.9151 B( 14-C , 15-C ) :   1.0288 B( 14-C , 21-C ) :   1.7022
B( 15-C , 16-C ) :   1.6802 B( 16-C , 17-C ) :   1.1389 B( 16-C , 19-C ) :   1.1396
B( 17-C , 18-N ) :   2.9915 B( 19-C , 20-N ) :   2.9690 B( 21-C , 22-C ) :   1.0801
B( 21-C , 76-H ) :   0.9281 B( 22-C , 23-C ) :   1.4801 B( 22-C , 28-C ) :   1.2586
B( 23-C , 24-C ) :   1.2096 B( 23-C , 26-S ) :   1.1175 B( 23-C , 27-C ) :   0.1077
B( 24-C , 25-N ) :   2.9966 B( 26-S , 27-C ) :   1.1463 B( 27-C , 28-C ) :   1.4791
B( 27-C , 31-C ) :   1.1215 B( 28-C , 29-C ) :   1.1343 B( 29-C , 30-N ) :   2.9458
B( 31-C , 32-N ) :   1.2348 B( 31-C , 38-C ) :   1.3679 B( 32-N , 33-C ) :   1.1792
B( 32-N , 77-H ) :   0.9121 B( 33-C , 34-C ) :   1.2385 B( 33-C , 37-C ) :   1.2981
B( 34-C , 35-C ) :   1.3630 B( 34-C , 78-H ) :   1.0420 B( 35-C , 36-N ) :   1.1959
B( 35-C , 39-C ) :   1.1606 B( 36-N , 37-C ) :   1.1732 B( 36-N , 79-H ) :   0.9291
B( 37-C , 38-C ) :   1.2915 B( 38-C , 80-H ) :   1.0166 B( 39-C , 40-C ) :   1.6050
B( 39-C , 81-H ) :   0.9459 B( 40-C , 41-C ) :   1.1759 B( 40-C , 82-H ) :   0.9433
B( 41-C , 42-C ) :   1.4230 B( 41-C , 47-C ) :   1.2208 B( 42-C , 43-C ) :   1.2019
B( 42-C , 45-S ) :   1.1301 B( 42-C , 46-C ) :   0.1046 B( 43-C , 44-N ) :   2.9846
B( 45-S , 46-C ) :   1.1478 B( 46-C , 47-C ) :   1.4804 B( 46-C , 50-C ) :   1.0857
B( 47-C , 48-C ) :   1.1243 B( 48-C , 49-N ) :   2.9415 B( 50-C , 51-C ) :   1.7204
B( 50-C , 83-H ) :   0.9356 B( 51-C , 52-C ) :   0.9200 B( 51-C , 66-C ) :   1.0109
B( 52-C , 53-O ) :   2.2824 B( 52-C , 54-C ) :   0.9209 B( 54-C , 55-C ) :   1.4710
B( 54-C , 65-C ) :   1.2182 B( 55-C , 56-C ) :   1.2001 B( 55-C , 84-H ) :   1.0162
B( 56-C , 57-C ) :   1.2523 B( 56-C , 61-C ) :   1.1937 B( 57-C , 58-C ) :   1.1886
B( 57-C , 64-C ) :   1.2206 B( 58-C , 59-C ) :   1.4443 B( 58-C , 61-C ) :   0.1076
B( 58-C , 85-H ) :   1.0065 B( 59-C , 60-C ) :   1.1882 B( 59-C , 63-F ) :   1.1392
B( 60-C , 61-C ) :   1.4444 B( 60-C , 62-F ) :   1.1378 B( 61-C , 86-H ) :   1.0066
B( 64-C , 65-C ) :   1.4531 B( 64-C , 87-H ) :   0.9941 B( 65-C , 66-C ) :   1.0043
B( 66-C , 67-C ) :   1.6837 B( 67-C , 68-C ) :   1.1529 B( 67-C , 70-C ) :   1.1292
B( 68-C , 69-N ) :   3.0088 B( 70-C , 71-N ) :   2.9924

-----------------------------------------------------------------------------
         ABSORPTION SPECTRUM VIA TRANSITION ELECTRIC DIPOLE MOMENTS
-----------------------------------------------------------------------------
State   Energy  Wavelength   fosc         T2         TX        TY        TZ
        (cm-1)    (nm)                  (au**2)     (au)      (au)      (au)
-----------------------------------------------------------------------------
   0   15079.8    663.1   0.020684081   0.45156   0.34781   0.03916   0.57363
   1   17115.4    584.3   0.039536732   0.76048   0.28217   0.12272   0.81597
   2   21463.7    465.9   2.585770903  39.66070   1.38706  -5.61441   2.49303
   3   24732.0    404.3   0.060292969   0.80257   0.76454   0.46669  -0.01599
   4   25326.9    394.8   0.006454267   0.08390   0.17911   0.14330  -0.17686
   5   25677.2    389.5   0.038022394   0.48749   0.16598  -0.26098   0.62596
   6   25998.0    384.6   0.050520803   0.63974   0.60135  -0.45491  -0.26679
   7   26576.2    376.3   0.053592980   0.66388   0.36472  -0.50155   0.52850
   8   26959.1    370.9   0.080271741   0.98024   0.54516   0.69064   0.45394
   9   27057.8    369.6   0.118024475   1.43600   0.13617  -0.57177   1.04429
  10   28318.4    353.1   0.078067153   0.90756   0.12309   0.73183  -0.59735
  11   28580.5    349.9   0.062862506   0.72410  -0.74382  -0.29437  -0.29012
  12   29019.6    344.6   0.005669386   0.06432   0.11229  -0.15545   0.16596
  13   29736.7    336.3   0.022286196   0.24673   0.08975   0.08771   0.48060
  14   30223.4    330.9   0.069040103   0.75203   0.25609  -0.82835  -0.01691
  15   30378.2    329.2   0.060726235   0.65810   0.33145  -0.63673   0.37791
  16   30978.0    322.8   0.154958078   1.64678  -0.03638  -1.11902  -0.62710
  17   32243.9    310.1   0.053573616   0.54699  -0.24660   0.52022   0.46427
  18   32563.2    307.1   0.136862227   1.38367  -0.99103   0.34583  -0.53097
  19   32656.5    306.2   0.018838844   0.18992   0.21910   0.36793  -0.08086
  20   33356.4    299.8   0.675450657   6.66637   0.40828   1.56377  -2.01353
  21   33518.2    298.3   1.111802653  10.92000  -2.60824  -1.71653  -1.08195
  22   34187.1    292.5   0.160626297   1.54678   0.00152  -0.91508   0.84227
  23   34340.3    291.2   0.039450747   0.37820   0.44570  -0.42059   0.05157
  24   34476.3    290.1   0.002585691   0.02469  -0.12486   0.00172  -0.09538
  25   34600.9    289.0   0.054271379   0.51637  -0.66483   0.10694  -0.25088
  26   35265.1    283.6   0.095418535   0.89076  -0.19080   0.26386  -0.88586
  27   36241.3    275.9   0.138215844   1.25554   0.22301   0.78978   0.76292
  28   36680.7    272.6   0.046302327   0.41557  -0.00986   0.47478  -0.43595
  29   37249.0    268.5   0.016502965   0.14586   0.25402   0.18566   0.21648
  30   37509.2    266.6   0.033607232   0.29496  -0.45900  -0.28294  -0.06502
  31   37600.4    266.0   0.040495373   0.35456   0.33336  -0.29294   0.39700
  32   38067.1    262.7   0.126155286   1.09102  -0.59474   0.85053   0.11789
  33   38279.7    261.2   0.149013314   1.28154   0.39866  -0.93825  -0.49225
  34   38350.3    260.8   0.026174732   0.22469   0.40492   0.21235   0.12505
  35   38698.4    258.4   0.001089071   0.00926  -0.04611  -0.07679   0.03523
  36   38863.5    257.3   0.003642980   0.03086  -0.13458   0.09000   0.06817
  37   39410.4    253.7   0.006053992   0.05057   0.04539   0.21866   0.02646
  38   39910.3    250.6   0.016738009   0.13807   0.16618   0.17211   0.28431
  39   40290.3    248.2   0.047583099   0.38880  -0.14189   0.36885   0.48230

FINAL SINGLE POINT ENERGY     -3956.790517186967

DIPOLE MOMENT
-------------
                                X             Y             Z
Electronic contribution:      8.02786      -2.91800       7.13352
Nuclear contribution   :     -6.97035       0.56690      -5.44758
                        -----------------------------------------
Total Dipole Moment    :      1.05751      -2.35110       1.68594
                        -----------------------------------------
Magnitude (a.u.)       :      3.08033
Magnitude (Debye)      :      7.82957

Rotational constants in cm-1:     0.001961     0.000193     0.000183
Rotational constants in MHz :    58.793493     5.786468     5.475888

                             ****ORCA TERMINATED NORMALLY****
TOTAL RUN TIME: 0 days 0 hours 8 minutes 13 seconds 165 msec
