                         Program Version 4.2.0 -  RELEASE  -
|  1> # ORCA input file
|  2> # SCF done       -192.837714493622          0.000754759435
|  3> ! CAM-B3LYP def2-SVP def2/J RIJCOSX Grid4 TightSCF
|  4> %maxcore 5000
|  5> %tddft
|  6>     Mode sTDDFT
|  7>     Ethresh 5.0
|  8>     maxcore 5000
|  9> end
| 10>
| 11> %pal
| 12>   nprocs 6
| 13>   end
| 14> * xyz 0 1
| 15>    C        2.47944        -0.50636        -6.29055
| 16>    C        1.70255         0.34624        -7.01452
| 17>    C        1.32001         1.46443        -6.24917
| 18>    C        1.83059         1.41973        -4.94632
| 19>    S        2.76798         0.02178        -4.66591
| 20>    C        1.39751         2.58345        -4.24798
| 21>    C        0.61372         3.35537        -5.11587
| 22>    C        0.54046         2.67822        -6.40537
| 23>    C       -0.11934         3.10714        -7.51953
| 24>    C       -0.84181         4.31859        -7.54170
| 25>    N       -1.42964         5.30296        -7.56321
| 26>    C       -0.12059         2.37179        -8.72354
| 27>    N       -0.12559         1.77872        -9.70476
| 28>    C        0.13853         4.52620        -4.52371
| 29>    C        0.55948         4.64829        -3.21295
| 30>    S        1.55588         3.29291        -2.70390
| 31>    C        0.27904         5.70681        -2.31084
| 32>    C        0.72795         5.85353        -1.01143
| 33>    C        0.25876         7.03110        -0.42803
| 34>    C       -0.55634         7.78068        -1.29127
| 35>    S       -0.74449         7.04145        -2.81963
| 36>    C       -0.97413         8.95375        -0.61457
| 37>    C       -0.42060         8.94950         0.67700
| 38>    C        0.36561         7.73659         0.84101
| 39>    C        1.05007         7.33787         1.95046
| 40>    C        1.06236         8.09749         3.14008
| 41>    N        1.07075         8.70340         4.11300
| 42>    C        1.77997         6.13062         1.98472
| 43>    N        2.37267         5.14953         2.01160
| 44>    C       -0.76570        10.07629         1.42416
| 45>    C       -1.57914        10.93881         0.71229
| 46>    S       -1.92721        10.33655        -0.90651
| 47>    C       -2.14378        12.18161         1.10218
| 48>    S       -3.45786        12.84351         0.17495
| 49>    C       -3.55356        14.25574         1.18276
| 50>    C       -2.59912        14.19059         2.19157
| 51>    C       -1.80557        13.03234         2.14814
| 52>    S       -0.42365        12.69576         3.18572
| 53>    C       -0.06942        14.16048         4.12251
| 54>    O        1.01536        14.23924         4.62298
| 55>    C       -1.11461        15.21609         4.41332
| 56>    O       -0.97099        15.94618         5.35384
| 57>    S       -2.54986        15.45376         3.41474
| 58>    C       -4.49099        15.28895         0.94873
| 59>    C       -5.42695        15.23404        -0.03131
| 60>    C       -6.38027        16.23925        -0.31986
| 61>    C       -6.54296        17.49678         0.24147
| 62>    C       -7.60898        18.18987        -0.32608
| 63>    C       -8.27323        17.45519        -1.32649
| 64>    S       -7.57559        15.92037        -1.57238
| 65>    C       -9.34115        18.23825        -1.82910
| 66>    C       -9.35189        19.47058        -1.15461
| 67>    C       -8.26268        19.48359        -0.19079
| 68>    C       -7.92241        20.49607         0.65688
| 69>    C       -8.63490        21.71332         0.69415
| 70>    N       -9.21413        22.70241         0.72408
| 71>    C       -6.83375        20.39131         1.54837
| 72>    N       -5.94755        20.30687         2.27076
| 73>    C      -10.37901        20.31362        -1.58092
| 74>    C      -11.14975        19.72983        -2.56872
| 75>    S      -10.59440        18.11426        -2.98327
| 76>    C      -12.27806        20.27904        -3.23042
| 77>    C      -13.07216        19.67056        -4.18407
| 78>    C      -14.10237        20.50766        -4.61434
| 79>    C      -14.08772        21.75982        -3.98568
| 80>    S      -12.81229        21.91243        -2.86173
| 81>    C      -15.17146        22.53212        -4.49417
| 82>    C      -15.86384        21.76367        -5.43776
| 83>    C      -15.22295        20.46655        -5.54677
| 84>    C      -15.58744        19.42087        -6.34338
| 85>    C      -16.69881        19.48621        -7.20991
| 86>    N      -17.60093        19.53362        -7.91605
| 87>    C      -14.87669        18.20230        -6.35000
| 88>    N      -14.30318        17.20927        -6.35444
| 89>    C      -16.95676        22.45452        -5.99523
| 90>    C      -17.06809        23.70757        -5.47362
| 91>    S      -15.85466        24.08307        -4.29529
| 92>    H        2.91240        -1.43257        -6.61138
| 93>    H        1.42359         0.17694        -8.03837
| 94>    H       -0.47930         5.26096        -5.00813
| 95>    H        1.36584         5.13355        -0.53095
| 96>    H       -0.46161        10.24948         2.43899
| 97>    H       -4.42815        16.14277         1.60774
| 98>    H       -5.46897        14.34821        -0.65354
| 99>    H       -5.90828        17.87918         1.01916
|100>    H      -10.57065        21.30066        -1.19984
|101>    H      -12.89786        18.66915        -4.53495
|102>    H      -17.62339        22.05477        -6.73726
|103>    H      -17.80014        24.45385        -5.70899
|104> *
|105>
|106>                          ****END OF INPUT****

CARTESIAN COORDINATES (ANGSTROEM)
---------------------------------
  C      2.479440   -0.506360   -6.290550
  C      1.702550    0.346240   -7.014520
  C      1.320010    1.464430   -6.249170
  C      1.830590    1.419730   -4.946320
  S      2.767980    0.021780   -4.665910
  C      1.397510    2.583450   -4.247980
  C      0.613720    3.355370   -5.115870
  C      0.540460    2.678220   -6.405370
  C     -0.119340    3.107140   -7.519530
  C     -0.841810    4.318590   -7.541700
  N     -1.429640    5.302960   -7.563210
  C     -0.120590    2.371790   -8.723540
  N     -0.125590    1.778720   -9.704760
  C      0.138530    4.526200   -4.523710
  C      0.559480    4.648290   -3.212950
  S      1.555880    3.292910   -2.703900
  C      0.279040    5.706810   -2.310840
  C      0.727950    5.853530   -1.011430
  C      0.258760    7.031100   -0.428030
  C     -0.556340    7.780680   -1.291270
  S     -0.744490    7.041450   -2.819630
  C     -0.974130    8.953750   -0.614570
  C     -0.420600    8.949500    0.677000
  C      0.365610    7.736590    0.841010
  C      1.050070    7.337870    1.950460
  C      1.062360    8.097490    3.140080
  N      1.070750    8.703400    4.113000
  C      1.779970    6.130620    1.984720
  N      2.372670    5.149530    2.011600
  C     -0.765700   10.076290    1.424160
  C     -1.579140   10.938810    0.712290
  S     -1.927210   10.336550   -0.906510
  C     -2.143780   12.181610    1.102180
  S     -3.457860   12.843510    0.174950
  C     -3.553560   14.255740    1.182760
  C     -2.599120   14.190590    2.191570
  C     -1.805570   13.032340    2.148140
  S     -0.423650   12.695760    3.185720
  C     -0.069420   14.160480    4.122510
  O      1.015360   14.239240    4.622980
  C     -1.114610   15.216090    4.413320
  O     -0.970990   15.946180    5.353840
  S     -2.549860   15.453760    3.414740
  C     -4.490990   15.288950    0.948730
  C     -5.426950   15.234040   -0.031310
  C     -6.380270   16.239250   -0.319860
  C     -6.542960   17.496780    0.241470
  C     -7.608980   18.189870   -0.326080
  C     -8.273230   17.455190   -1.326490
  S     -7.575590   15.920370   -1.572380
  C     -9.341150   18.238250   -1.829100
  C     -9.351890   19.470580   -1.154610
  C     -8.262680   19.483590   -0.190790
  C     -7.922410   20.496070    0.656880
  C     -8.634900   21.713320    0.694150
  N     -9.214130   22.702410    0.724080
  C     -6.833750   20.391310    1.548370
  N     -5.947550   20.306870    2.270760
  C    -10.379010   20.313620   -1.580920
  C    -11.149750   19.729830   -2.568720
  S    -10.594400   18.114260   -2.983270
  C    -12.278060   20.279040   -3.230420
  C    -13.072160   19.670560   -4.184070
  C    -14.102370   20.507660   -4.614340
  C    -14.087720   21.759820   -3.985680
  S    -12.812290   21.912430   -2.861730
  C    -15.171460   22.532120   -4.494170
  C    -15.863840   21.763670   -5.437760
  C    -15.222950   20.466550   -5.546770
  C    -15.587440   19.420870   -6.343380
  C    -16.698810   19.486210   -7.209910
  N    -17.600930   19.533620   -7.916050
  C    -14.876690   18.202300   -6.350000
  N    -14.303180   17.209270   -6.354440
  C    -16.956760   22.454520   -5.995230
  C    -17.068090   23.707570   -5.473620
  S    -15.854660   24.083070   -4.295290
  H      2.912400   -1.432570   -6.611380
  H      1.423590    0.176940   -8.038370
  H     -0.479300    5.260960   -5.008130
  H      1.365840    5.133550   -0.530950
  H     -0.461610   10.249480    2.438990
  H     -4.428150   16.142770    1.607740
  H     -5.468970   14.348210   -0.653540
  H     -5.908280   17.879180    1.019160
  H    -10.570650   21.300660   -1.199840
  H    -12.897860   18.669150   -4.534950
  H    -17.623390   22.054770   -6.737260
  H    -17.800140   24.453850   -5.708990

 Total Charge           Charge          ....    0
 Multiplicity           Mult            ....    1
 Number of Electrons    NEL             ....  596
 Basis Dimension        Dim             .... 1182

ORBITAL ENERGIES
----------------

  NO   OCC          E(Eh)            E(eV)
   0   2.0000     -88.997580     -2421.7473
   1   2.0000     -88.996794     -2421.7259
   2   2.0000     -88.996186     -2421.7094
   3   2.0000     -88.995162     -2421.6815
   4   2.0000     -88.994952     -2421.6758
   5   2.0000     -88.994730     -2421.6697
   6   2.0000     -88.990304     -2421.5493
   7   2.0000     -88.989875     -2421.5376
   8   2.0000     -88.984786     -2421.3991
   9   2.0000     -88.974611     -2421.1223
  10   2.0000     -88.974001     -2421.1057
  11   2.0000     -19.246988      -523.7372
  12   2.0000     -19.243510      -523.6425
  13   2.0000     -14.436008      -392.8238
  14   2.0000     -14.435630      -392.8135
  15   2.0000     -14.434912      -392.7939
  16   2.0000     -14.434426      -392.7807
  17   2.0000     -14.433327      -392.7508
  18   2.0000     -14.432771      -392.7357
  19   2.0000     -14.431740      -392.7076
  20   2.0000     -14.431203      -392.6930
  21   2.0000     -10.409609      -283.2599
  22   2.0000     -10.408667      -283.2342
  23   2.0000     -10.370933      -282.2074
  24   2.0000     -10.370103      -282.1848
  25   2.0000     -10.366486      -282.0864
  26   2.0000     -10.365919      -282.0710
  27   2.0000     -10.357477      -281.8413
  28   2.0000     -10.357308      -281.8367
  29   2.0000     -10.354089      -281.7491
  30   2.0000     -10.353604      -281.7359
  31   2.0000     -10.340697      -281.3847
  32   2.0000     -10.340069      -281.3676
  33   2.0000     -10.339209      -281.3442
  34   2.0000     -10.337409      -281.2952
  35   2.0000     -10.337357      -281.2938
  36   2.0000     -10.337246      -281.2908
  37   2.0000     -10.337168      -281.2886
  38   2.0000     -10.337006      -281.2842
  39   2.0000     -10.336327      -281.2658
  40   2.0000     -10.336203      -281.2624
  41   2.0000     -10.335879      -281.2536
  42   2.0000     -10.335155      -281.2339
  43   2.0000     -10.335112      -281.2327
  44   2.0000     -10.335091      -281.2321
  45   2.0000     -10.334476      -281.2154
  46   2.0000     -10.334151      -281.2065
  47   2.0000     -10.333937      -281.2007
  48   2.0000     -10.333538      -281.1899
  49   2.0000     -10.333353      -281.1848
  50   2.0000     -10.333233      -281.1816
  51   2.0000     -10.332862      -281.1715
  52   2.0000     -10.332350      -281.1575
  53   2.0000     -10.332006      -281.1482
  54   2.0000     -10.331881      -281.1448
  55   2.0000     -10.331532      -281.1353
  56   2.0000     -10.328796      -281.0608
  57   2.0000     -10.314215      -280.6641
  58   2.0000     -10.313671      -280.6493
  59   2.0000     -10.310199      -280.5548
  60   2.0000     -10.309871      -280.5459
  61   2.0000     -10.309489      -280.5355
  62   2.0000     -10.309057      -280.5237
  63   2.0000     -10.309037      -280.5232
  64   2.0000     -10.309007      -280.5223
  65   2.0000     -10.307839      -280.4906
  66   2.0000     -10.307024      -280.4684
  67   2.0000     -10.306738      -280.4606
  68   2.0000     -10.306601      -280.4569
  69   2.0000     -10.306522      -280.4547
  70   2.0000     -10.306070      -280.4424
  71   2.0000     -10.305917      -280.4383
  72   2.0000     -10.305424      -280.4248
  73   2.0000     -10.302159      -280.3360
  74   2.0000     -10.301540      -280.3192
  75   2.0000     -10.300033      -280.2782
  76   2.0000     -10.299583      -280.2659
  77   2.0000      -8.092429      -220.2062
  78   2.0000      -8.091283      -220.1750
  79   2.0000      -8.090512      -220.1540
  80   2.0000      -8.089703      -220.1320
  81   2.0000      -8.089659      -220.1308
  82   2.0000      -8.089067      -220.1147
  83   2.0000      -8.085345      -220.0134
  84   2.0000      -8.084884      -220.0009
  85   2.0000      -8.080438      -219.8799
  86   2.0000      -8.071092      -219.6256
  87   2.0000      -8.070232      -219.6022
  88   2.0000      -6.061756      -164.9488
  89   2.0000      -6.060578      -164.9167
  90   2.0000      -6.059831      -164.8964
  91   2.0000      -6.058930      -164.8719
  92   2.0000      -6.058849      -164.8697
  93   2.0000      -6.058362      -164.8564
  94   2.0000      -6.057497      -164.8329
  95   2.0000      -6.056429      -164.8038
  96   2.0000      -6.055646      -164.7825
  97   2.0000      -6.054799      -164.7595
  98   2.0000      -6.054753      -164.7582
  99   2.0000      -6.054645      -164.7553
 100   2.0000      -6.054593      -164.7538
 101   2.0000      -6.054199      -164.7431
 102   2.0000      -6.054119      -164.7410
 103   2.0000      -6.053522      -164.7247
 104   2.0000      -6.052800      -164.7051
 105   2.0000      -6.052204      -164.6888
 106   2.0000      -6.051926      -164.6813
 107   2.0000      -6.051384      -164.6665
 108   2.0000      -6.050138      -164.6326
 109   2.0000      -6.049814      -164.6238
 110   2.0000      -6.049683      -164.6202
 111   2.0000      -6.047961      -164.5734
 112   2.0000      -6.047519      -164.5614
 113   2.0000      -6.045880      -164.5168
 114   2.0000      -6.042080      -164.4134
 115   2.0000      -6.040950      -164.3826
 116   2.0000      -6.040202      -164.3623
 117   2.0000      -6.036399      -164.2588
 118   2.0000      -6.035537      -164.2353
 119   2.0000      -6.031949      -164.1377
 120   2.0000      -6.030980      -164.1113
 121   2.0000      -1.183096       -32.1937
 122   2.0000      -1.151419       -31.3317
 123   2.0000      -1.052245       -28.6330
 124   2.0000      -1.050463       -28.5846
 125   2.0000      -1.046190       -28.4683
 126   2.0000      -1.045415       -28.4472
 127   2.0000      -1.031766       -28.0758
 128   2.0000      -1.027130       -27.9496
 129   2.0000      -1.026632       -27.9361
 130   2.0000      -1.024100       -27.8672
 131   2.0000      -1.023721       -27.8569
 132   2.0000      -1.013032       -27.5660
 133   2.0000      -1.012804       -27.5598
 134   2.0000      -1.010329       -27.4924
 135   2.0000      -1.009874       -27.4801
 136   2.0000      -1.008084       -27.4313
 137   2.0000      -1.007314       -27.4104
 138   2.0000      -0.993993       -27.0479
 139   2.0000      -0.993222       -27.0269
 140   2.0000      -0.967390       -26.3240
 141   2.0000      -0.966211       -26.2919
 142   2.0000      -0.957438       -26.0532
 143   2.0000      -0.956879       -26.0380
 144   2.0000      -0.943474       -25.6732
 145   2.0000      -0.935672       -25.4609
 146   2.0000      -0.924076       -25.1454
 147   2.0000      -0.917852       -24.9760
 148   2.0000      -0.908750       -24.7283
 149   2.0000      -0.904132       -24.6027
 150   2.0000      -0.893953       -24.3257
 151   2.0000      -0.876577       -23.8529
 152   2.0000      -0.873930       -23.7808
 153   2.0000      -0.872581       -23.7441
 154   2.0000      -0.871506       -23.7149
 155   2.0000      -0.862507       -23.4700
 156   2.0000      -0.860346       -23.4112
 157   2.0000      -0.856061       -23.2946
 158   2.0000      -0.853252       -23.2182
 159   2.0000      -0.850238       -23.1361
 160   2.0000      -0.840403       -22.8685
 161   2.0000      -0.833178       -22.6719
 162   2.0000      -0.818946       -22.2846
 163   2.0000      -0.798732       -21.7346
 164   2.0000      -0.784303       -21.3420
 165   2.0000      -0.781355       -21.2618
 166   2.0000      -0.778749       -21.1908
 167   2.0000      -0.778484       -21.1836
 168   2.0000      -0.770533       -20.9673
 169   2.0000      -0.756901       -20.5963
 170   2.0000      -0.753696       -20.5091
 171   2.0000      -0.735632       -20.0176
 172   2.0000      -0.721214       -19.6252
 173   2.0000      -0.714004       -19.4290
 174   2.0000      -0.705891       -19.2083
 175   2.0000      -0.705357       -19.1937
 176   2.0000      -0.701078       -19.0773
 177   2.0000      -0.695674       -18.9302
 178   2.0000      -0.692011       -18.8306
 179   2.0000      -0.688124       -18.7248
 180   2.0000      -0.681054       -18.5324
 181   2.0000      -0.679355       -18.4862
 182   2.0000      -0.669322       -18.2132
 183   2.0000      -0.665329       -18.1045
 184   2.0000      -0.658561       -17.9204
 185   2.0000      -0.650998       -17.7146
 186   2.0000      -0.639996       -17.4152
 187   2.0000      -0.636705       -17.3256
 188   2.0000      -0.633107       -17.2277
 189   2.0000      -0.632082       -17.1998
 190   2.0000      -0.628636       -17.1061
 191   2.0000      -0.625597       -17.0234
 192   2.0000      -0.624989       -17.0068
 193   2.0000      -0.621679       -16.9168
 194   2.0000      -0.618911       -16.8414
 195   2.0000      -0.616299       -16.7704
 196   2.0000      -0.615136       -16.7387
 197   2.0000      -0.610746       -16.6192
 198   2.0000      -0.592175       -16.1139
 199   2.0000      -0.582681       -15.8555
 200   2.0000      -0.577413       -15.7122
 201   2.0000      -0.573213       -15.5979
 202   2.0000      -0.562381       -15.3032
 203   2.0000      -0.557628       -15.1738
 204   2.0000      -0.555518       -15.1164
 205   2.0000      -0.554123       -15.0785
 206   2.0000      -0.553345       -15.0573
 207   2.0000      -0.551201       -14.9989
 208   2.0000      -0.548161       -14.9162
 209   2.0000      -0.547496       -14.8981
 210   2.0000      -0.547373       -14.8948
 211   2.0000      -0.537821       -14.6349
 212   2.0000      -0.535995       -14.5852
 213   2.0000      -0.528005       -14.3677
 214   2.0000      -0.526776       -14.3343
 215   2.0000      -0.521895       -14.2015
 216   2.0000      -0.519168       -14.1273
 217   2.0000      -0.515779       -14.0350
 218   2.0000      -0.514268       -13.9940
 219   2.0000      -0.512940       -13.9578
 220   2.0000      -0.512606       -13.9487
 221   2.0000      -0.507295       -13.8042
 222   2.0000      -0.505446       -13.7539
 223   2.0000      -0.504539       -13.7292
 224   2.0000      -0.502680       -13.6786
 225   2.0000      -0.500294       -13.6137
 226   2.0000      -0.498379       -13.5616
 227   2.0000      -0.496420       -13.5083
 228   2.0000      -0.495652       -13.4874
 229   2.0000      -0.495268       -13.4769
 230   2.0000      -0.492822       -13.4104
 231   2.0000      -0.492556       -13.4031
 232   2.0000      -0.488032       -13.2800
 233   2.0000      -0.486283       -13.2324
 234   2.0000      -0.485281       -13.2052
 235   2.0000      -0.481166       -13.0932
 236   2.0000      -0.477883       -13.0039
 237   2.0000      -0.476542       -12.9674
 238   2.0000      -0.473600       -12.8873
 239   2.0000      -0.473162       -12.8754
 240   2.0000      -0.470588       -12.8053
 241   2.0000      -0.466211       -12.6862
 242   2.0000      -0.466062       -12.6822
 243   2.0000      -0.464114       -12.6292
 244   2.0000      -0.463585       -12.6148
 245   2.0000      -0.462589       -12.5877
 246   2.0000      -0.462038       -12.5727
 247   2.0000      -0.459857       -12.5133
 248   2.0000      -0.459366       -12.5000
 249   2.0000      -0.458552       -12.4778
 250   2.0000      -0.456926       -12.4336
 251   2.0000      -0.449996       -12.2450
 252   2.0000      -0.448635       -12.2080
 253   2.0000      -0.446341       -12.1456
 254   2.0000      -0.445834       -12.1317
 255   2.0000      -0.445549       -12.1240
 256   2.0000      -0.445398       -12.1199
 257   2.0000      -0.445150       -12.1132
 258   2.0000      -0.444876       -12.1057
 259   2.0000      -0.443757       -12.0753
 260   2.0000      -0.443114       -12.0577
 261   2.0000      -0.442599       -12.0437
 262   2.0000      -0.442060       -12.0291
 263   2.0000      -0.441697       -12.0192
 264   2.0000      -0.441377       -12.0105
 265   2.0000      -0.440177       -11.9778
 266   2.0000      -0.439619       -11.9626
 267   2.0000      -0.432024       -11.7560
 268   2.0000      -0.431189       -11.7332
 269   2.0000      -0.430736       -11.7209
 270   2.0000      -0.428718       -11.6660
 271   2.0000      -0.427803       -11.6411
 272   2.0000      -0.427516       -11.6333
 273   2.0000      -0.418668       -11.3925
 274   2.0000      -0.412505       -11.2248
 275   2.0000      -0.410744       -11.1769
 276   2.0000      -0.404133       -10.9970
 277   2.0000      -0.397104       -10.8057
 278   2.0000      -0.394516       -10.7353
 279   2.0000      -0.389341       -10.5945
 280   2.0000      -0.380522       -10.3545
 281   2.0000      -0.364124        -9.9083
 282   2.0000      -0.357230        -9.7207
 283   2.0000      -0.356122        -9.6906
 284   2.0000      -0.352279        -9.5860
 285   2.0000      -0.349831        -9.5194
 286   2.0000      -0.349304        -9.5050
 287   2.0000      -0.343014        -9.3339
 288   2.0000      -0.329978        -8.9792
 289   2.0000      -0.327926        -8.9233
 290   2.0000      -0.326034        -8.8718
 291   2.0000      -0.323783        -8.8106
 292   2.0000      -0.322119        -8.7653
 293   2.0000      -0.311214        -8.4686
 294   2.0000      -0.302456        -8.2302
 295   2.0000      -0.278277        -7.5723
 296   2.0000      -0.255884        -6.9630
 297   2.0000      -0.238378        -6.4866
 298   0.0000      -0.113957        -3.1009
 299   0.0000      -0.109609        -2.9826
 300   0.0000      -0.104423        -2.8415
 301   0.0000      -0.103902        -2.8273
 302   0.0000      -0.074997        -2.0408

MULLIKEN ATOMIC CHARGES
-----------------------
   0 C :   -0.080750
   1 C :    0.038349
   2 C :   -0.034185
   3 C :   -0.117193
   4 S :    0.186596
   5 C :   -0.098572
   6 C :    0.015605
   7 C :    0.299228
   8 C :   -0.297972
   9 C :   -0.188041
  10 N :    0.170602
  11 C :   -0.188815
  12 N :    0.174840
  13 C :   -0.067690
  14 C :   -0.052965
  15 S :    0.194178
  16 C :   -0.045864
  17 C :   -0.071490
  18 C :    0.020715
  19 C :   -0.100145
  20 S :    0.194194
  21 C :   -0.094084
  22 C :   -0.001707
  23 C :    0.302191
  24 C :   -0.294059
  25 C :   -0.184393
  26 N :    0.178100
  27 C :   -0.189532
  28 N :    0.175867
  29 C :   -0.045746
  30 C :   -0.084300
  31 S :    0.185333
  32 C :   -0.090101
  33 S :    0.128450
  34 C :   -0.086940
  35 C :   -0.044802
  36 C :   -0.018695
  37 S :    0.077286
  38 C :    0.083994
  39 O :   -0.117574
  40 C :    0.084429
  41 O :   -0.129532
  42 S :    0.086743
  43 C :   -0.010899
  44 C :    0.038808
  45 C :   -0.081743
  46 C :   -0.029462
  47 C :    0.003806
  48 C :   -0.100978
  49 S :    0.192180
  50 C :   -0.100159
  51 C :    0.015581
  52 C :    0.299533
  53 C :   -0.292212
  54 C :   -0.186334
  55 N :    0.172219
  56 C :   -0.187811
  57 N :    0.175465
  58 C :   -0.066724
  59 C :   -0.048139
  60 S :    0.194831
  61 C :   -0.052413
  62 C :   -0.064883
  63 C :    0.013034
  64 C :   -0.100662
  65 S :    0.194612
  66 C :   -0.116444
  67 C :   -0.031407
  68 C :    0.296669
  69 C :   -0.295349
  70 C :   -0.192831
  71 N :    0.177743
  72 C :   -0.185628
  73 N :    0.167301
  74 C :    0.037253
  75 C :   -0.081663
  76 S :    0.185432
  77 H :    0.037323
  78 H :    0.013030
  79 H :    0.010857
  80 H :    0.011159
  81 H :    0.027846
  82 H :    0.017856
  83 H :   -0.007689
  84 H :    0.007584
  85 H :    0.010592
  86 H :    0.010862
  87 H :    0.012587
  88 H :    0.037713
Sum of atomic charges:   -0.0000000

LOEWDIN ATOMIC CHARGES
----------------------
   0 C :   -0.176644
   1 C :   -0.033645
   2 C :   -0.076670
   3 C :   -0.184692
   4 S :    0.481565
   5 C :   -0.178390
   6 C :   -0.069476
   7 C :    0.083622
   8 C :   -0.103270
   9 C :   -0.015689
  10 N :   -0.036095
  11 C :   -0.017211
  12 N :   -0.031439
  13 C :   -0.038276
  14 C :   -0.183402
  15 S :    0.485473
  16 C :   -0.175323
  17 C :   -0.040877
  18 C :   -0.064783
  19 C :   -0.184312
  20 S :    0.484898
  21 C :   -0.175802
  22 C :   -0.070718
  23 C :    0.081280
  24 C :   -0.097025
  25 C :   -0.018453
  26 N :   -0.024446
  27 C :   -0.015618
  28 N :   -0.030947
  29 C :   -0.032197
  30 C :   -0.188047
  31 S :    0.468766
  32 C :   -0.200513
  33 S :    0.442152
  34 C :   -0.181606
  35 C :   -0.216802
  36 C :   -0.215279
  37 S :    0.393633
  38 C :   -0.106220
  39 O :   -0.089409
  40 C :   -0.112040
  41 O :   -0.100041
  42 S :    0.390206
  43 C :   -0.043656
  44 C :   -0.042308
  45 C :   -0.166973
  46 C :   -0.022492
  47 C :   -0.067573
  48 C :   -0.182643
  49 S :    0.479647
  50 C :   -0.181175
  51 C :   -0.067532
  52 C :    0.082208
  53 C :   -0.099934
  54 C :   -0.015874
  55 N :   -0.031864
  56 C :   -0.016983
  57 N :   -0.029626
  58 C :   -0.040627
  59 C :   -0.176580
  60 S :    0.484603
  61 C :   -0.183073
  62 C :   -0.038825
  63 C :   -0.069348
  64 C :   -0.179046
  65 S :    0.484840
  66 C :   -0.184399
  67 C :   -0.077079
  68 C :    0.083655
  69 C :   -0.103391
  70 C :   -0.017489
  71 N :   -0.031527
  72 C :   -0.015503
  73 N :   -0.036345
  74 C :   -0.033593
  75 C :   -0.177134
  76 S :    0.481070
  77 H :    0.028218
  78 H :    0.042910
  79 H :    0.034961
  80 H :    0.035751
  81 H :    0.030735
  82 H :    0.033065
  83 H :    0.022654
  84 H :    0.040429
  85 H :    0.035615
  86 H :    0.034873
  87 H :    0.042851
  88 H :    0.028273

  Mayer bond orders larger than 0.100000
B(  0-C ,  1-C ) :   1.5483 B(  0-C ,  4-S ) :   1.1516 B(  0-C , 77-H ) :   0.9643
B(  1-C ,  2-C ) :   1.2780 B(  1-C , 78-H ) :   0.9956 B(  2-C ,  3-C ) :   1.4577
B(  2-C ,  7-C ) :   1.0166 B(  3-C ,  4-S ) :   1.1379 B(  3-C ,  5-C ) :   1.1790
B(  5-C ,  6-C ) :   1.4631 B(  5-C , 15-S ) :   1.1244 B(  6-C ,  7-C ) :   0.9915
B(  6-C , 13-C ) :   1.2962 B(  7-C ,  8-C ) :   1.7114 B(  8-C ,  9-C ) :   1.1347
B(  8-C , 11-C ) :   1.1288 B(  9-C , 10-N ) :   2.9897 B( 11-C , 12-N ) :   3.0031
B( 13-C , 14-C ) :   1.4642 B( 13-C , 79-H ) :   0.9870 B( 14-C , 15-S ) :   1.1091
B( 14-C , 16-C ) :   1.1648 B( 16-C , 17-C ) :   1.4613 B( 16-C , 20-S ) :   1.1116
B( 17-C , 18-C ) :   1.2975 B( 17-C , 80-H ) :   0.9881 B( 18-C , 19-C ) :   1.4501
B( 18-C , 23-C ) :   0.9917 B( 19-C , 20-S ) :   1.1149 B( 19-C , 21-C ) :   1.1866
B( 21-C , 22-C ) :   1.4445 B( 21-C , 31-S ) :   1.1255 B( 22-C , 23-C ) :   0.9950
B( 22-C , 29-C ) :   1.3042 B( 23-C , 24-C ) :   1.7178 B( 24-C , 25-C ) :   1.1311
B( 24-C , 27-C ) :   1.1354 B( 25-C , 26-N ) :   2.9868 B( 27-C , 28-N ) :   2.9911
B( 29-C , 30-C ) :   1.4714 B( 29-C , 81-H ) :   0.9765 B( 30-C , 31-S ) :   1.0918
B( 30-C , 32-C ) :   1.1363 B( 32-C , 33-S ) :   1.1182 B( 32-C , 34-C ) :   0.1148
B( 32-C , 36-C ) :   1.5866 B( 33-S , 34-C ) :   1.1023 B( 34-C , 35-C ) :   1.5469
B( 34-C , 43-C ) :   1.1807 B( 35-C , 36-C ) :   1.2818 B( 35-C , 42-S ) :   0.9727
B( 36-C , 37-S ) :   0.9722 B( 37-S , 38-C ) :   1.0392 B( 37-S , 39-O ) :   0.1304
B( 38-C , 39-O ) :   2.1755 B( 38-C , 40-C ) :   0.7679 B( 40-C , 41-O ) :   2.1566
B( 40-C , 42-S ) :   1.0497 B( 41-O , 42-S ) :   0.1378 B( 43-C , 44-C ) :   1.6706
B( 43-C , 82-H ) :   0.9610 B( 44-C , 45-C ) :   1.1384 B( 44-C , 83-H ) :   0.9551
B( 45-C , 46-C ) :   1.4468 B( 45-C , 49-S ) :   1.1007 B( 46-C , 47-C ) :   1.3113
B( 46-C , 84-H ) :   0.9913 B( 47-C , 48-C ) :   1.4312 B( 47-C , 52-C ) :   0.9930
B( 48-C , 49-S ) :   1.1284 B( 48-C , 50-C ) :   1.1918 B( 50-C , 51-C ) :   1.4484
B( 50-C , 60-S ) :   1.1180 B( 51-C , 52-C ) :   0.9963 B( 51-C , 58-C ) :   1.2973
B( 52-C , 53-C ) :   1.7160 B( 53-C , 54-C ) :   1.1316 B( 53-C , 56-C ) :   1.1318
B( 54-C , 55-N ) :   2.9914 B( 56-C , 57-N ) :   2.9909 B( 58-C , 59-C ) :   1.4650
B( 58-C , 85-H ) :   0.9867 B( 59-C , 60-S ) :   1.1088 B( 59-C , 61-C ) :   1.1635
B( 61-C , 62-C ) :   1.4647 B( 61-C , 65-S ) :   1.1094 B( 62-C , 63-C ) :   1.2982
B( 62-C , 86-H ) :   0.9855 B( 63-C , 64-C ) :   1.4646 B( 63-C , 68-C ) :   0.9917
B( 64-C , 65-S ) :   1.1237 B( 64-C , 66-C ) :   1.1799 B( 66-C , 67-C ) :   1.4571
B( 66-C , 76-S ) :   1.1382 B( 67-C , 68-C ) :   1.0156 B( 67-C , 74-C ) :   1.2772
B( 68-C , 69-C ) :   1.7119 B( 69-C , 70-C ) :   1.1302 B( 69-C , 72-C ) :   1.1319
B( 70-C , 71-N ) :   3.0046 B( 72-C , 73-N ) :   2.9892 B( 74-C , 75-C ) :   1.5472
B( 74-C , 87-H ) :   0.9971 B( 75-C , 76-S ) :   1.1507 B( 75-C , 88-H ) :   0.9645

-----------------------------------------------------------------------------
         ABSORPTION SPECTRUM VIA TRANSITION ELECTRIC DIPOLE MOMENTS
-----------------------------------------------------------------------------
State   Energy  Wavelength   fosc         T2         TX        TY        TZ
        (cm-1)    (nm)                  (au**2)     (au)      (au)      (au)
-----------------------------------------------------------------------------
   0   10939.6    914.1   0.371333726  11.17481   2.20222  -2.51282   0.10397
   1   11459.2    872.7   0.082478014   2.36952   0.29361   0.87768   1.23004
   2   13669.3    731.6   0.107509117   2.58925   1.23853  -0.88568   0.52044
   3   13788.6    725.2   0.070773016   1.68975  -0.22240   0.99578   0.80542
   4   18968.8    527.2   0.297681537   5.16639  -1.61665   1.47587  -0.61209
   5   19656.3    508.7   0.503375193   8.43075   1.78370  -2.29111  -0.00263
   6   20831.8    480.0   1.070279424  16.91396   2.72357  -3.07054   0.26063
   7   22634.8    441.8   0.033766610   0.49112  -0.45265   0.01312  -0.53484
   8   22907.2    436.5   0.015183761   0.21821  -0.10895   0.39554   0.22336
   9   24468.2    408.7   0.012830432   0.17263  -0.36271   0.19281  -0.06240
  10   24748.0    404.1   0.015589282   0.20738   0.28521  -0.35501  -0.00213
  11   25214.4    396.6   0.268861141   3.51038   1.42285  -1.06245   0.59757
  12   26159.3    382.3   1.039428892  13.08112  -1.38360  -1.43523  -3.01777
  13   27342.5    365.7   0.023363348   0.28130  -0.42544   0.03035  -0.31525
  14   27664.6    361.5   0.063894503   0.76035   0.15012   0.49046   0.70517
  15   28101.1    355.9   0.004557645   0.05339  -0.09774   0.18029  -0.10647
  16   28763.2    347.7   0.062635123   0.71690  -0.33574   0.61290   0.47805
  17   29066.5    344.0   0.104321742   1.18156   0.86709  -0.20709   0.62195
  18   29631.4    337.5   0.358386504   3.98176   0.60260   0.70774   1.76571
  19   29788.0    335.7   0.049094474   0.54258   0.06325  -0.38184  -0.62672
  20   30028.6    333.0   0.105431300   1.15587   1.07487  -0.00476   0.02227
  21   31211.1    320.4   0.033770898   0.35621   0.14434   0.38017   0.43687
  22   31730.7    315.2   0.123684594   1.28325   0.43841   0.22306   1.02044
  23   31845.8    314.0   0.057218282   0.59150  -0.39833   0.14707  -0.64125
  24   32040.4    312.1   0.827598548   8.50348   1.27101   0.36279   2.59931
  25   32189.6    310.7   0.087337029   0.89322   0.30318   0.64408   0.62167
  26   32372.5    308.9   0.847503987   8.61868  -0.27869   2.88529   0.46484
  27   32451.8    308.1   0.217723621   2.20873   0.80471  -0.12594   1.24310
  28   32714.9    305.7   0.553703597   5.57195  -1.45941   1.72526  -0.68232
  29   33035.3    302.7   0.140317654   1.39833  -0.22246  -0.79708  -0.84469
  30   33433.3    299.1   0.090247814   0.88865  -0.17431   0.72968   0.57083
  31   33531.5    298.2   0.009485389   0.09313   0.03181   0.03989   0.30087
  32   33582.9    297.8   0.094024253   0.92172   0.73426  -0.20909   0.58212
  33   34005.5    294.1   0.414506104   4.01289   0.26581   1.02052   1.70317
  34   34102.5    293.2   0.195206655   1.88445   1.05832   0.17189   0.85725
  35   34186.0    292.5   0.099445319   0.95766  -0.79225   0.15683  -0.55263
  36   34325.5    291.3   0.051268927   0.49171  -0.12770   0.62676   0.28738
  37   34583.3    289.2   0.056001070   0.53310  -0.56321   0.19208  -0.42308
  38   35012.3    285.6   0.111344679   1.04695  -0.72058   0.71483  -0.12934
  39   35126.6    284.7   0.107410623   1.00667  -0.23679  -0.71643  -0.66131
  40   35760.2    279.6   0.061783860   0.56879   0.59034  -0.38026   0.27512
  41   35810.1    279.3   0.046294234   0.42559  -0.45090   0.37893  -0.28053
  42   36064.3    277.3   0.169597514   1.54817  -0.53358   1.12045   0.08979
  43   36325.1    275.3   0.023048293   0.20888   0.06789  -0.35206  -0.28342
  44   36716.9    272.4   0.005761989   0.05166   0.07903  -0.20093   0.07102
  45   36835.6    271.5   0.012552822   0.11219   0.05209   0.26228   0.20170
  46   37057.6    269.9   0.088093311   0.78260  -0.34623  -0.40208  -0.70785
  47   37463.2    266.9   0.027476082   0.24145  -0.42997   0.05674  -0.23098
  48   37790.3    264.6   0.013167847   0.11471   0.26361   0.04989   0.20672
  49   37865.4    264.1   0.002788827   0.02425   0.08443  -0.09501   0.08995
  50   38008.0    263.1   0.017160415   0.14864  -0.02216  -0.34954  -0.16114
  51   38249.5    261.4   0.002544296   0.02190  -0.05747   0.12454  -0.05555
  52   38381.6    260.5   0.011137607   0.09553   0.14928  -0.24078   0.12357
  53   38657.4    258.7   0.027663977   0.23559  -0.22760  -0.14325  -0.40406
  54   38750.3    258.1   0.002227120   0.01892  -0.06853  -0.03756  -0.11320
  55   38867.3    257.3   0.024233569   0.20526  -0.23046   0.38743  -0.04527
  56   39217.3    255.0   0.003939620   0.03307   0.13328  -0.12148   0.02344
  57   39322.5    254.3   0.026191313   0.21928  -0.01675  -0.44781  -0.13588
  58   39628.3    252.3   0.006095457   0.05064   0.12481  -0.08256   0.16806
  59   40088.4    249.4   0.068648765   0.56375  -0.40837  -0.07422  -0.62568

FINAL SINGLE POINT ENERGY     -7104.703273776203

DIPOLE MOMENT
-------------
                                X             Y             Z
Electronic contribution:      8.56116      -0.43549       9.84374
Nuclear contribution   :     -9.68046      -0.23747     -11.42162
                        -----------------------------------------
Total Dipole Moment    :     -1.11930      -0.67297      -1.57788
                        -----------------------------------------
Magnitude (a.u.)       :      2.04828
Magnitude (Debye)      :      5.20631

Rotational constants in cm-1:     0.000776     0.000169     0.000140
Rotational constants in MHz :    23.267729     5.052245     4.183877

                             ****ORCA TERMINATED NORMALLY****
TOTAL RUN TIME: 0 days 0 hours 9 minutes 6 seconds 806 msec
