                         Program Version 4.2.0 -  RELEASE  -
|  1> # ORCA input file
|  2> # SCF done       -140.665344077318          0.000596239525
|  3> ! CAM-B3LYP def2-SVP def2/J RIJCOSX Grid4 TightSCF
|  4> %maxcore 5000
|  5> %tddft
|  6>     Mode sTDDFT
|  7>     Ethresh 5.0
|  8>     maxcore 5000
|  9> end
| 10>
| 11> %pal
| 12>   nprocs 6
| 13>   end
| 14> * xyz 0 1
| 15>    C        1.56345        -2.56986        -0.98383
| 16>    C        0.48419        -2.28934        -1.76219
| 17>    C        0.04265        -0.96441        -1.57202
| 18>    C        0.81797        -0.27166        -0.63395
| 19>    S        2.07310        -1.23566         0.00457
| 20>    C        0.30005         1.04836        -0.49976
| 21>    C       -0.79475         1.18121        -1.35918
| 22>    C       -0.99846        -0.08261        -2.05746
| 23>    C       -1.98441        -0.36811        -2.95964
| 24>    C       -2.95985         0.58204        -3.32112
| 25>    N       -3.76101         1.35164        -3.60911
| 26>    C       -2.10106        -1.63050        -3.57477
| 27>    N       -2.20227        -2.65535        -4.08045
| 28>    C       -1.37580         2.45207        -1.31149
| 29>    C       -0.74148         3.28611        -0.41527
| 30>    S        0.61388         2.48548         0.36955
| 31>    C       -1.03072         4.66544        -0.12006
| 32>    C       -0.00631         5.52653         0.23280
| 33>    C       -0.21039         6.89674         0.37346
| 34>    C       -1.45165         7.47218         0.16747
| 35>    C       -2.57812         6.61295         0.01283
| 36>    C       -3.91433         6.99011         0.17389
| 37>   Si       -4.81662         5.62060        -0.59586
| 38>    C       -3.54015         4.41715        -0.13918
| 39>    C       -2.36543         5.17344        -0.14517
| 40>    C       -1.58246         8.90874         0.16253
| 41>    C       -2.35202         9.72182        -0.65359
| 42>    O       -3.14032         9.17637        -1.62135
| 43>    C       -3.80761        10.06395        -2.48551
| 44>    C       -2.17535        11.09410        -0.39388
| 45>    C       -1.25706        11.35796         0.59270
| 46>    S       -0.60015         9.87686         1.21934
| 47>    C       -0.92635        12.64586         1.15530
| 48>    C       -1.90992        13.61492         1.24047
| 49>    C       -1.70214        14.82155         1.90528
| 50>    C       -0.49806        15.12642         2.51728
| 51>    C        0.60153        14.23661         2.32454
| 52>    C        1.94188        14.50366         2.61908
| 53>   Si        2.71019        12.86346         2.60619
| 54>    C        1.54386        12.23576         1.37149
| 55>    C        0.38009        12.96660         1.62948
| 56>    C       -0.41214        16.32401         3.31748
| 57>    C       -1.15250        17.47680         3.15919
| 58>    C       -0.90971        18.41378         4.16908
| 59>    C        0.01959        17.96719         5.11259
| 60>    S        0.59980        16.40229         4.75416
| 61>    C        0.20349        18.99129         6.08613
| 62>    C       -0.61424        20.07653         5.75234
| 63>    C       -1.34359        19.75520         4.54066
| 64>    C       -2.25456        20.53466         3.88699
| 65>    C       -2.60009        21.82533         4.33629
| 66>    N       -2.88558        22.87660         4.69580
| 67>    C       -2.91850        20.09823         2.72271
| 68>    N       -3.46894        19.74482         1.78008
| 69>    C       -0.49932        21.13918         6.67064
| 70>    C        0.38548        20.84584         7.66139
| 71>    S        1.10274        19.27251         7.50919
| 72>    H        2.10898        -3.48964        -0.91840
| 73>    H        0.03275        -2.99576        -2.43469
| 74>    H       -2.18992         2.77249        -1.93525
| 75>    H        0.99658         5.13655         0.33795
| 76>    H        0.63744         7.53302         0.58354
| 77>    H       -4.17434         8.03166         0.25537
| 78>    H       -3.51172         3.34841        -0.27109
| 79>    H       -4.33975         9.43576        -3.19783
| 80>    H       -3.10330        10.70618        -3.02343
| 81>    H       -4.52729        10.68773        -1.94514
| 82>    H       -2.67455        11.87718        -0.93466
| 83>    H       -2.89436        13.40790         0.84878
| 84>    H       -2.53411        15.50238         2.00155
| 85>    H        2.22442        15.38879         3.16406
| 86>    H        1.48780        11.26531         0.90762
| 87>    H       -1.81382        17.63925         2.32811
| 88>    H       -1.03625        22.06785         6.60555
| 89>    H        0.67418        21.45933         8.49098
| 90> *
| 91>
| 92>                          ****END OF INPUT****

CARTESIAN COORDINATES (ANGSTROEM)
---------------------------------
  C      1.563450   -2.569860   -0.983830
  C      0.484190   -2.289340   -1.762190
  C      0.042650   -0.964410   -1.572020
  C      0.817970   -0.271660   -0.633950
  S      2.073100   -1.235660    0.004570
  C      0.300050    1.048360   -0.499760
  C     -0.794750    1.181210   -1.359180
  C     -0.998460   -0.082610   -2.057460
  C     -1.984410   -0.368110   -2.959640
  C     -2.959850    0.582040   -3.321120
  N     -3.761010    1.351640   -3.609110
  C     -2.101060   -1.630500   -3.574770
  N     -2.202270   -2.655350   -4.080450
  C     -1.375800    2.452070   -1.311490
  C     -0.741480    3.286110   -0.415270
  S      0.613880    2.485480    0.369550
  C     -1.030720    4.665440   -0.120060
  C     -0.006310    5.526530    0.232800
  C     -0.210390    6.896740    0.373460
  C     -1.451650    7.472180    0.167470
  C     -2.578120    6.612950    0.012830
  C     -3.914330    6.990110    0.173890
  Si    -4.816620    5.620600   -0.595860
  C     -3.540150    4.417150   -0.139180
  C     -2.365430    5.173440   -0.145170
  C     -1.582460    8.908740    0.162530
  C     -2.352020    9.721820   -0.653590
  O     -3.140320    9.176370   -1.621350
  C     -3.807610   10.063950   -2.485510
  C     -2.175350   11.094100   -0.393880
  C     -1.257060   11.357960    0.592700
  S     -0.600150    9.876860    1.219340
  C     -0.926350   12.645860    1.155300
  C     -1.909920   13.614920    1.240470
  C     -1.702140   14.821550    1.905280
  C     -0.498060   15.126420    2.517280
  C      0.601530   14.236610    2.324540
  C      1.941880   14.503660    2.619080
  Si     2.710190   12.863460    2.606190
  C      1.543860   12.235760    1.371490
  C      0.380090   12.966600    1.629480
  C     -0.412140   16.324010    3.317480
  C     -1.152500   17.476800    3.159190
  C     -0.909710   18.413780    4.169080
  C      0.019590   17.967190    5.112590
  S      0.599800   16.402290    4.754160
  C      0.203490   18.991290    6.086130
  C     -0.614240   20.076530    5.752340
  C     -1.343590   19.755200    4.540660
  C     -2.254560   20.534660    3.886990
  C     -2.600090   21.825330    4.336290
  N     -2.885580   22.876600    4.695800
  C     -2.918500   20.098230    2.722710
  N     -3.468940   19.744820    1.780080
  C     -0.499320   21.139180    6.670640
  C      0.385480   20.845840    7.661390
  S      1.102740   19.272510    7.509190
  H      2.108980   -3.489640   -0.918400
  H      0.032750   -2.995760   -2.434690
  H     -2.189920    2.772490   -1.935250
  H      0.996580    5.136550    0.337950
  H      0.637440    7.533020    0.583540
  H     -4.174340    8.031660    0.255370
  H     -3.511720    3.348410   -0.271090
  H     -4.339750    9.435760   -3.197830
  H     -3.103300   10.706180   -3.023430
  H     -4.527290   10.687730   -1.945140
  H     -2.674550   11.877180   -0.934660
  H     -2.894360   13.407900    0.848780
  H     -2.534110   15.502380    2.001550
  H      2.224420   15.388790    3.164060
  H      1.487800   11.265310    0.907620
  H     -1.813820   17.639250    2.328110
  H     -1.036250   22.067850    6.605550
  H      0.674180   21.459330    8.490980

 Total Charge           Charge          ....    0
 Multiplicity           Mult            ....    1
 Number of Electrons    NEL             ....  432
 Basis Dimension        Dim             ....  916

ORBITAL ENERGIES
----------------

  NO   OCC          E(Eh)            E(eV)
   0   2.0000     -88.984173     -2421.3825
   1   2.0000     -88.984095     -2421.3803
   2   2.0000     -88.980695     -2421.2878
   3   2.0000     -88.979072     -2421.2436
   4   2.0000     -88.959382     -2420.7078
   5   2.0000     -66.195674     -1801.2759
   6   2.0000     -66.184697     -1800.9772
   7   2.0000     -19.249603      -523.8083
   8   2.0000     -14.426675      -392.5698
   9   2.0000     -14.425572      -392.5398
  10   2.0000     -14.422424      -392.4541
  11   2.0000     -14.422218      -392.4485
  12   2.0000     -10.358753      -281.8760
  13   2.0000     -10.355074      -281.7759
  14   2.0000     -10.347200      -281.5616
  15   2.0000     -10.343124      -281.4507
  16   2.0000     -10.336581      -281.2727
  17   2.0000     -10.327463      -281.0245
  18   2.0000     -10.326123      -280.9881
  19   2.0000     -10.326100      -280.9875
  20   2.0000     -10.326050      -280.9861
  21   2.0000     -10.323782      -280.9244
  22   2.0000     -10.323056      -280.9046
  23   2.0000     -10.322939      -280.9015
  24   2.0000     -10.322822      -280.8983
  25   2.0000     -10.319944      -280.8199
  26   2.0000     -10.317959      -280.7659
  27   2.0000     -10.312719      -280.6234
  28   2.0000     -10.309553      -280.5372
  29   2.0000     -10.308154      -280.4991
  30   2.0000     -10.304868      -280.4097
  31   2.0000     -10.304389      -280.3967
  32   2.0000     -10.303120      -280.3622
  33   2.0000     -10.299968      -280.2764
  34   2.0000     -10.299418      -280.2614
  35   2.0000     -10.295933      -280.1666
  36   2.0000     -10.295375      -280.1514
  37   2.0000     -10.294989      -280.1409
  38   2.0000     -10.294182      -280.1189
  39   2.0000     -10.293586      -280.1027
  40   2.0000     -10.292991      -280.0865
  41   2.0000     -10.292171      -280.0642
  42   2.0000     -10.291950      -280.0582
  43   2.0000     -10.291623      -280.0493
  44   2.0000     -10.291338      -280.0415
  45   2.0000     -10.290973      -280.0316
  46   2.0000     -10.289201      -279.9834
  47   2.0000     -10.289131      -279.9815
  48   2.0000     -10.287523      -279.9377
  49   2.0000     -10.287133      -279.9271
  50   2.0000     -10.282939      -279.8130
  51   2.0000     -10.279586      -279.7218
  52   2.0000     -10.278790      -279.7001
  53   2.0000     -10.257274      -279.1146
  54   2.0000     -10.257226      -279.1133
  55   2.0000     -10.245517      -278.7947
  56   2.0000     -10.244334      -278.7625
  57   2.0000      -8.079122      -219.8441
  58   2.0000      -8.078239      -219.8201
  59   2.0000      -8.075799      -219.7537
  60   2.0000      -8.073667      -219.6957
  61   2.0000      -8.054205      -219.1661
  62   2.0000      -6.048371      -164.5845
  63   2.0000      -6.047493      -164.5607
  64   2.0000      -6.045045      -164.4940
  65   2.0000      -6.043936      -164.4639
  66   2.0000      -6.043187      -164.4435
  67   2.0000      -6.042922      -164.4363
  68   2.0000      -6.041732      -164.4039
  69   2.0000      -6.040803      -164.3786
  70   2.0000      -6.040634      -164.3740
  71   2.0000      -6.038712      -164.3217
  72   2.0000      -6.038368      -164.3123
  73   2.0000      -6.036067      -164.2497
  74   2.0000      -6.023552      -163.9092
  75   2.0000      -6.019383      -163.7957
  76   2.0000      -6.016347      -163.7131
  77   2.0000      -5.367265      -146.0507
  78   2.0000      -5.355986      -145.7438
  79   2.0000      -3.734523      -101.6215
  80   2.0000      -3.726112      -101.3927
  81   2.0000      -3.724707      -101.3544
  82   2.0000      -3.723250      -101.3148
  83   2.0000      -3.714853      -101.0863
  84   2.0000      -3.713465      -101.0485
  85   2.0000      -1.153268       -31.3820
  86   2.0000      -1.038247       -28.2521
  87   2.0000      -1.034289       -28.1444
  88   2.0000      -1.017400       -27.6849
  89   2.0000      -1.013403       -27.5761
  90   2.0000      -1.003618       -27.3098
  91   2.0000      -0.999696       -27.2031
  92   2.0000      -0.997034       -27.1307
  93   2.0000      -0.991051       -26.9679
  94   2.0000      -0.987615       -26.8744
  95   2.0000      -0.974368       -26.5139
  96   2.0000      -0.964313       -26.2403
  97   2.0000      -0.950631       -25.8680
  98   2.0000      -0.946409       -25.7531
  99   2.0000      -0.911716       -24.8091
 100   2.0000      -0.905738       -24.6464
 101   2.0000      -0.899212       -24.4688
 102   2.0000      -0.890506       -24.2319
 103   2.0000      -0.884269       -24.0622
 104   2.0000      -0.873441       -23.7675
 105   2.0000      -0.858021       -23.3479
 106   2.0000      -0.853973       -23.2378
 107   2.0000      -0.846752       -23.0413
 108   2.0000      -0.842783       -22.9333
 109   2.0000      -0.838331       -22.8121
 110   2.0000      -0.824659       -22.4401
 111   2.0000      -0.800737       -21.7892
 112   2.0000      -0.790819       -21.5193
 113   2.0000      -0.784199       -21.3391
 114   2.0000      -0.777042       -21.1444
 115   2.0000      -0.770406       -20.9638
 116   2.0000      -0.767364       -20.8810
 117   2.0000      -0.762277       -20.7426
 118   2.0000      -0.757401       -20.6099
 119   2.0000      -0.746751       -20.3201
 120   2.0000      -0.720453       -19.6045
 121   2.0000      -0.705908       -19.2087
 122   2.0000      -0.698630       -19.0107
 123   2.0000      -0.695202       -18.9174
 124   2.0000      -0.682073       -18.5601
 125   2.0000      -0.671490       -18.2722
 126   2.0000      -0.670487       -18.2449
 127   2.0000      -0.663988       -18.0680
 128   2.0000      -0.659002       -17.9323
 129   2.0000      -0.649180       -17.6651
 130   2.0000      -0.640127       -17.4187
 131   2.0000      -0.631333       -17.1794
 132   2.0000      -0.627655       -17.0794
 133   2.0000      -0.624698       -16.9989
 134   2.0000      -0.619235       -16.8502
 135   2.0000      -0.612860       -16.6768
 136   2.0000      -0.610267       -16.6062
 137   2.0000      -0.609918       -16.5967
 138   2.0000      -0.605005       -16.4630
 139   2.0000      -0.598008       -16.2726
 140   2.0000      -0.589702       -16.0466
 141   2.0000      -0.582516       -15.8511
 142   2.0000      -0.569307       -15.4916
 143   2.0000      -0.558871       -15.2076
 144   2.0000      -0.554927       -15.1003
 145   2.0000      -0.550300       -14.9744
 146   2.0000      -0.544208       -14.8086
 147   2.0000      -0.540247       -14.7009
 148   2.0000      -0.537513       -14.6265
 149   2.0000      -0.535955       -14.5841
 150   2.0000      -0.528298       -14.3757
 151   2.0000      -0.520812       -14.1720
 152   2.0000      -0.517261       -14.0754
 153   2.0000      -0.514187       -13.9917
 154   2.0000      -0.511594       -13.9212
 155   2.0000      -0.508882       -13.8474
 156   2.0000      -0.505480       -13.7548
 157   2.0000      -0.500996       -13.6328
 158   2.0000      -0.500107       -13.6086
 159   2.0000      -0.496622       -13.5138
 160   2.0000      -0.495108       -13.4726
 161   2.0000      -0.493714       -13.4346
 162   2.0000      -0.490392       -13.3443
 163   2.0000      -0.488881       -13.3031
 164   2.0000      -0.487574       -13.2676
 165   2.0000      -0.483717       -13.1626
 166   2.0000      -0.481025       -13.0894
 167   2.0000      -0.478726       -13.0268
 168   2.0000      -0.472079       -12.8459
 169   2.0000      -0.467943       -12.7334
 170   2.0000      -0.464796       -12.6477
 171   2.0000      -0.463203       -12.6044
 172   2.0000      -0.459315       -12.4986
 173   2.0000      -0.458059       -12.4644
 174   2.0000      -0.455050       -12.3825
 175   2.0000      -0.454502       -12.3676
 176   2.0000      -0.453733       -12.3467
 177   2.0000      -0.452163       -12.3040
 178   2.0000      -0.449664       -12.2360
 179   2.0000      -0.445443       -12.1211
 180   2.0000      -0.442243       -12.0340
 181   2.0000      -0.438135       -11.9222
 182   2.0000      -0.436478       -11.8772
 183   2.0000      -0.436436       -11.8760
 184   2.0000      -0.434352       -11.8193
 185   2.0000      -0.433441       -11.7945
 186   2.0000      -0.432566       -11.7707
 187   2.0000      -0.430317       -11.7095
 188   2.0000      -0.424892       -11.5619
 189   2.0000      -0.422193       -11.4884
 190   2.0000      -0.421203       -11.4615
 191   2.0000      -0.417750       -11.3676
 192   2.0000      -0.413040       -11.2394
 193   2.0000      -0.412100       -11.2138
 194   2.0000      -0.406398       -11.0587
 195   2.0000      -0.403949       -10.9920
 196   2.0000      -0.391554       -10.6547
 197   2.0000      -0.388591       -10.5741
 198   2.0000      -0.385826       -10.4989
 199   2.0000      -0.380589       -10.3564
 200   2.0000      -0.377728       -10.2785
 201   2.0000      -0.367591       -10.0027
 202   2.0000      -0.351331        -9.5602
 203   2.0000      -0.343190        -9.3387
 204   2.0000      -0.340324        -9.2607
 205   2.0000      -0.337790        -9.1917
 206   2.0000      -0.316491        -8.6122
 207   2.0000      -0.313812        -8.5393
 208   2.0000      -0.312409        -8.5011
 209   2.0000      -0.288948        -7.8627
 210   2.0000      -0.286250        -7.7893
 211   2.0000      -0.280747        -7.6395
 212   2.0000      -0.277242        -7.5442
 213   2.0000      -0.273917        -7.4537
 214   2.0000      -0.245486        -6.6800
 215   2.0000      -0.225455        -6.1350
 216   0.0000      -0.107637        -2.9290
 217   0.0000      -0.097547        -2.6544
 218   0.0000      -0.096578        -2.6280
 219   0.0000      -0.090000        -2.4490
 220   0.0000      -0.035398        -0.9632

MULLIKEN ATOMIC CHARGES
-----------------------
   0 C :   -0.084410
   1 C :    0.037539
   2 C :   -0.035682
   3 C :   -0.117162
   4 S :    0.174263
   5 C :   -0.100620
   6 C :   -0.007530
   7 C :    0.298913
   8 C :   -0.299337
   9 C :   -0.187415
  10 N :    0.166862
  11 C :   -0.190985
  12 N :    0.171695
  13 C :   -0.021659
  14 C :   -0.114096
  15 S :    0.175268
  16 C :    0.120092
  17 C :   -0.042078
  18 C :   -0.040729
  19 C :    0.123673
  20 C :   -0.011373
  21 C :   -0.155993
  22 Si:    0.337062
  23 C :   -0.195113
  24 C :   -0.000050
  25 C :   -0.215604
  26 C :    0.245785
  27 O :   -0.307824
  28 C :    0.175087
  29 C :   -0.086541
  30 C :   -0.102781
  31 S :    0.149072
  32 C :    0.144973
  33 C :   -0.035790
  34 C :   -0.036180
  35 C :    0.129566
  36 C :   -0.010831
  37 C :   -0.203294
  38 Si:    0.342826
  39 C :   -0.184412
  40 C :   -0.026005
  41 C :   -0.117906
  42 C :   -0.027489
  43 C :    0.008775
  44 C :   -0.113081
  45 S :    0.191796
  46 C :   -0.118585
  47 C :   -0.032610
  48 C :    0.296123
  49 C :   -0.301222
  50 C :   -0.191086
  51 N :    0.173992
  52 C :   -0.186938
  53 N :    0.166427
  54 C :    0.038799
  55 C :   -0.083582
  56 S :    0.177913
  57 H :    0.033434
  58 H :    0.010976
  59 H :    0.013291
  60 H :   -0.016637
  61 H :   -0.017235
  62 H :    0.004214
  63 H :    0.002968
  64 H :    0.045389
  65 H :    0.024609
  66 H :    0.020669
  67 H :   -0.020690
  68 H :   -0.019070
  69 H :   -0.011079
  70 H :    0.006015
  71 H :    0.009096
  72 H :    0.007530
  73 H :    0.011267
  74 H :    0.034751
Sum of atomic charges:    0.0000000

LOEWDIN ATOMIC CHARGES
----------------------
   0 C :   -0.180934
   1 C :   -0.034219
   2 C :   -0.081068
   3 C :   -0.180490
   4 S :    0.471673
   5 C :   -0.187351
   6 C :   -0.072432
   7 C :    0.085131
   8 C :   -0.107321
   9 C :   -0.016510
  10 N :   -0.036298
  11 C :   -0.017039
  12 N :   -0.037003
  13 C :   -0.032805
  14 C :   -0.149413
  15 S :    0.474108
  16 C :   -0.043099
  17 C :   -0.022739
  18 C :   -0.028756
  19 C :   -0.024644
  20 C :   -0.006162
  21 C :   -0.207909
  22 Si:    0.415541
  23 C :   -0.224219
  24 C :   -0.001853
  25 C :   -0.203123
  26 C :    0.019242
  27 O :   -0.098534
  28 C :    0.077036
  29 C :   -0.090051
  30 C :   -0.154792
  31 S :    0.466021
  32 C :   -0.032320
  33 C :   -0.014201
  34 C :   -0.005453
  35 C :   -0.042094
  36 C :   -0.007758
  37 C :   -0.236275
  38 Si:    0.415744
  39 C :   -0.224263
  40 C :   -0.009093
  41 C :   -0.153795
  42 C :   -0.031168
  43 C :   -0.072459
  44 C :   -0.187056
  45 S :    0.491766
  46 C :   -0.181755
  47 C :   -0.079414
  48 C :    0.085193
  49 C :   -0.107517
  50 C :   -0.017130
  51 N :   -0.035761
  52 C :   -0.015431
  53 N :   -0.039431
  54 C :   -0.034253
  55 C :   -0.179153
  56 S :    0.474562
  57 H :    0.026348
  58 H :    0.042100
  59 H :    0.039732
  60 H :    0.022179
  61 H :    0.023454
  62 H :    0.018810
  63 H :    0.019912
  64 H :    0.032016
  65 H :    0.015966
  66 H :    0.013750
  67 H :    0.028881
  68 H :    0.031485
  69 H :    0.034161
  70 H :    0.004646
  71 H :    0.007155
  72 H :    0.038692
  73 H :    0.042266
  74 H :    0.026978

  Mayer bond orders larger than 0.100000
B(  0-C ,  1-C ) :   1.5526 B(  0-C ,  4-S ) :   1.1438 B(  0-C , 57-H ) :   0.9648
B(  1-C ,  2-C ) :   1.2720 B(  1-C , 58-H ) :   0.9965 B(  2-C ,  3-C ) :   1.4579
B(  2-C ,  7-C ) :   1.0197 B(  3-C ,  4-S ) :   1.1390 B(  3-C ,  5-C ) :   1.1801
B(  5-C ,  6-C ) :   1.4662 B(  5-C , 15-S ) :   1.1167 B(  6-C ,  7-C ) :   0.9923
B(  6-C , 13-C ) :   1.2737 B(  7-C ,  8-C ) :   1.7057 B(  8-C ,  9-C ) :   1.1345
B(  8-C , 11-C ) :   1.1312 B(  9-C , 10-N ) :   2.9864 B( 11-C , 12-N ) :   3.0025
B( 13-C , 14-C ) :   1.4848 B( 13-C , 59-H ) :   0.9931 B( 14-C , 15-S ) :   1.1163
B( 14-C , 16-C ) :   1.0571 B( 16-C , 17-C ) :   1.5337 B( 16-C , 24-C ) :   1.1128
B( 17-C , 18-C ) :   1.1822 B( 17-C , 60-H ) :   0.9832 B( 18-C , 19-C ) :   1.5469
B( 18-C , 61-H ) :   0.9833 B( 19-C , 20-C ) :   1.1202 B( 19-C , 25-C ) :   1.0266
B( 20-C , 21-C ) :   1.6524 B( 20-C , 22-Si) :   0.1357 B( 20-C , 24-C ) :   1.0181
B( 21-C , 22-Si) :   0.9984 B( 21-C , 23-C ) :   0.1144 B( 21-C , 62-H ) :   0.9353
B( 22-Si, 23-C ) :   1.0012 B( 22-Si, 24-C ) :   0.1298 B( 23-C , 24-C ) :   1.6406
B( 23-C , 63-H ) :   0.9430 B( 25-C , 26-C ) :   1.5104 B( 25-C , 30-C ) :   0.1163
B( 25-C , 31-S ) :   1.1172 B( 26-C , 27-O ) :   1.1622 B( 26-C , 29-C ) :   1.1926
B( 27-O , 28-C ) :   0.9609 B( 28-C , 64-H ) :   0.9790 B( 28-C , 65-H ) :   0.9697
B( 28-C , 66-H ) :   0.9694 B( 29-C , 30-C ) :   1.4943 B( 29-C , 67-H ) :   0.9998
B( 30-C , 31-S ) :   1.1357 B( 30-C , 32-C ) :   1.0302 B( 32-C , 33-C ) :   1.5545
B( 32-C , 40-C ) :   1.0955 B( 33-C , 34-C ) :   1.1635 B( 33-C , 68-H ) :   0.9892
B( 34-C , 35-C ) :   1.5540 B( 34-C , 69-H ) :   0.9891 B( 35-C , 36-C ) :   1.0938
B( 35-C , 41-C ) :   1.0344 B( 36-C , 37-C ) :   1.6454 B( 36-C , 38-Si) :   0.1329
B( 36-C , 40-C ) :   1.0139 B( 37-C , 38-Si) :   0.9985 B( 37-C , 39-C ) :   0.1132
B( 37-C , 70-H ) :   0.9353 B( 38-Si, 39-C ) :   0.9989 B( 38-Si, 40-C ) :   0.1323
B( 39-C , 40-C ) :   1.6527 B( 39-C , 71-H ) :   0.9312 B( 41-C , 42-C ) :   1.4994
B( 41-C , 45-S ) :   1.1090 B( 42-C , 43-C ) :   1.2722 B( 42-C , 72-H ) :   0.9919
B( 43-C , 44-C ) :   1.4586 B( 43-C , 48-C ) :   0.9930 B( 44-C , 45-S ) :   1.1216
B( 44-C , 46-C ) :   1.1827 B( 46-C , 47-C ) :   1.4601 B( 46-C , 56-S ) :   1.1387
B( 47-C , 48-C ) :   1.0183 B( 47-C , 54-C ) :   1.2739 B( 48-C , 49-C ) :   1.7072
B( 49-C , 50-C ) :   1.1311 B( 49-C , 52-C ) :   1.1340 B( 50-C , 51-N ) :   3.0028
B( 52-C , 53-N ) :   2.9911 B( 54-C , 55-C ) :   1.5527 B( 54-C , 73-H ) :   0.9957
B( 55-C , 56-S ) :   1.1461 B( 55-C , 74-H ) :   0.9645

-----------------------------------------------------------------------------
         ABSORPTION SPECTRUM VIA TRANSITION ELECTRIC DIPOLE MOMENTS
-----------------------------------------------------------------------------
State   Energy  Wavelength   fosc         T2         TX        TY        TZ
        (cm-1)    (nm)                  (au**2)     (au)      (au)      (au)
-----------------------------------------------------------------------------
   0    8643.4   1157.0   0.186197865   7.09198   0.18066   2.49756   0.90637
   1    9463.0   1056.8   0.035388988   1.23117   0.28685  -1.07160   0.02371
   2   12585.2    794.6   0.048593652   1.27115  -0.33980   1.06192   0.16738
   3   13312.5    751.2   0.052228079   1.29158  -0.09017  -0.92059  -0.66027
   4   14805.7    675.4   0.032841666   0.73025  -0.42367  -0.72816  -0.14334
   5   16667.3    600.0   0.133346563   2.63385  -1.61565   0.13486  -0.07319
   6   16848.7    593.5   0.090591798   1.77010   1.24662   0.46432   0.02135
   7   17628.2    567.3   0.108149289   2.01972  -0.38097   1.34668   0.24702
   8   19715.5    507.2   0.001459051   0.02436  -0.04529   0.14076   0.04999
   9   19975.0    500.6   0.005453721   0.08988   0.00594   0.18848   0.23308
  10   20831.8    480.0   0.071437128   1.12894   0.00711   0.92474   0.52321
  11   21872.6    457.2   0.014293219   0.21513  -0.15869   0.43488  -0.02886
  12   22481.9    444.8   0.013366638   0.19573  -0.03395   0.42043   0.13350
  13   22838.9    437.8   0.051191947   0.73791   0.02237   0.74691   0.42371
  14   23700.0    421.9   0.039650428   0.55078   0.00275   0.70154   0.24209
  15   24365.0    410.4   0.558907321   7.55176   0.06189  -2.60442  -0.87461
  16   24877.5    402.0   0.002024693   0.02679   0.02949  -0.14001  -0.07951
  17   25304.3    395.2   0.400010827   5.20419  -0.16595   2.22151   0.49147
  18   25772.2    388.0   0.000398251   0.00509  -0.05774   0.01686  -0.03833
  19   26865.0    372.2   0.062046713   0.76034   0.05105   0.84707   0.20053
  20   27315.2    366.1   0.003713118   0.04475  -0.17559   0.10842  -0.04651
  21   27605.3    362.2   0.051148108   0.60998  -0.09404  -0.62088  -0.46436
  22   27883.5    358.6   0.021746432   0.25675   0.21469   0.20175   0.41226
  23   29614.2    337.7   0.068477213   0.76124   0.01367   0.84552   0.21481
  24   30227.1    330.8   0.011986678   0.13055   0.01930  -0.34674  -0.09975
  25   30305.0    330.0   0.025025466   0.27186  -0.34938   0.31721  -0.22174
  26   30666.4    326.1   0.034631923   0.37178  -0.27433  -0.42600  -0.33919
  27   30890.6    323.7   0.013796172   0.14703   0.15178  -0.35084   0.03005
  28   31151.4    321.0   0.204948471   2.16592  -0.97565  -0.42394  -1.01701
  29   31418.3    318.3   0.002585206   0.02709  -0.02827  -0.10118  -0.12670
  30   31514.5    317.3   0.001043416   0.01090   0.02117  -0.10194  -0.00772
  31   31705.3    315.4   0.050782858   0.52730  -0.31281   0.65186   0.06730
  32   31770.9    314.8   0.644702396   6.68044   1.71499  -1.48657   1.23668
  33   32625.7    306.5   0.474380878   4.78678   1.63815   0.12939   1.44448
  34   33018.4    302.9   0.030290821   0.30202   0.23211   0.26717   0.42044
  35   33189.0    301.3   0.171192032   1.69811  -0.42145  -0.79800  -0.94004
  36   33409.6    299.3   0.091125880   0.89794  -0.36720   0.87134  -0.06217
  37   34150.4    292.8   0.049799427   0.48007   0.09775  -0.40023  -0.55708
  38   34337.4    291.2   0.003579843   0.03432   0.12760   0.04831   0.12532
  39   34536.3    289.6   0.003015327   0.02874   0.08909  -0.08420  -0.11712
  40   34933.5    286.3   0.068832889   0.64868  -0.44843   0.27175  -0.61135
  41   35258.1    283.6   0.015041388   0.14044  -0.09044  -0.30686  -0.19519
  42   35402.4    282.5   0.111149026   1.03359   0.22391   0.83073   0.54161
  43   35684.1    280.2   0.224072847   2.06723   0.21359  -1.40898  -0.19077
  44   35845.1    279.0   0.123103447   1.13062   0.50268  -0.93393  -0.07557
  45   35911.9    278.5   0.043741583   0.40099  -0.15240   0.00839  -0.61457
  46   36233.1    276.0   0.063440346   0.57642  -0.42944   0.62515  -0.03434
  47   36558.4    273.5   0.001875695   0.01689  -0.09020   0.05351  -0.07676
  48   36685.8    272.6   0.034569958   0.31023  -0.18323  -0.09061  -0.51811
  49   36956.0    270.6   0.004152153   0.03699   0.16492  -0.08616  -0.04866
  50   37152.2    269.2   0.001506197   0.01335   0.07750  -0.05913  -0.06200
  51   37200.3    268.8   0.150123611   1.32855  -0.05019  -0.87706  -0.74619
  52   37671.9    265.4   0.182206685   1.59229   0.41044  -1.18586  -0.13255
  53   37791.6    264.6   0.101929546   0.88793   0.28353   0.64724   0.62339
  54   38030.6    262.9   0.055961822   0.48443  -0.14685  -0.23778  -0.63744
  55   38124.4    262.3   0.099275675   0.85727  -0.54277  -0.01350  -0.74999
  56   38532.6    259.5   0.101429713   0.86659   0.27973  -0.83795  -0.29355
  57   38659.9    258.7   0.080561988   0.68603   0.52762  -0.63814  -0.02048
  58   39107.0    255.7   0.002602418   0.02191   0.07070  -0.10122   0.08163
  59   39572.2    252.7   0.042735709   0.35553  -0.27586   0.26152   0.45939
  60   40134.5    249.2   0.027585207   0.22627  -0.01880   0.47391  -0.03645

FINAL SINGLE POINT ENERGY     -4586.066958490233

DIPOLE MOMENT
-------------
                                X             Y             Z
Electronic contribution:     10.90736      -4.18317      13.05239
Nuclear contribution   :     -8.54219       4.40167     -11.27341
                        -----------------------------------------
Total Dipole Moment    :      2.36518       0.21850       1.77898
                        -----------------------------------------
Magnitude (a.u.)       :      2.96758
Magnitude (Debye)      :      7.54300

Rotational constants in cm-1:     0.003734     0.000303     0.000286
Rotational constants in MHz :   111.928043     9.070724     8.568633

                             ****ORCA TERMINATED NORMALLY****
TOTAL RUN TIME: 0 days 0 hours 7 minutes 11 seconds 787 msec
