                         Program Version 4.2.0 -  RELEASE  -
|  1> # ORCA input file
|  2> # SCF done       -192.224355278193          0.000790617536
|  3> ! CAM-B3LYP def2-SVP def2/J RIJCOSX Grid4 TightSCF
|  4> %maxcore 5000
|  5> %tddft
|  6>     Mode sTDDFT
|  7>     Ethresh 5.0
|  8>     maxcore 5000
|  9> end
| 10>
| 11> %pal
| 12>   nprocs 6
| 13>   end
| 14> * xyz 0 1
| 15>    C       -2.12702         3.41158        -1.19265
| 16>    C       -2.25504         4.29758        -2.22517
| 17>    F       -1.90637         5.58093        -2.05857
| 18>    C       -2.75339         3.87672        -3.47426
| 19>    F       -2.86862         4.76839        -4.46860
| 20>    C       -3.11715         2.57454        -3.67379
| 21>    C       -2.99753         1.63768        -2.62912
| 22>    C       -2.49284         2.06144        -1.36571
| 23>    C       -2.36013         1.13839        -0.30289
| 24>    C       -2.72048        -0.16903        -0.49835
| 25>    C       -3.22947        -0.57941        -1.75991
| 26>    C       -3.36944         0.28642        -2.80531
| 27>    C       -3.55769        -2.01813        -1.71690
| 28>    O       -4.03528        -2.65898        -2.62951
| 29>    C       -3.23868        -2.46122        -0.34125
| 30>    C       -2.68759        -1.33199         0.38498
| 31>    C       -2.15068        -1.33966         1.64803
| 32>    C       -2.02349        -2.46341         2.49097
| 33>    N       -1.86248        -3.32550         3.23323
| 34>    C       -1.60701        -0.20158         2.27989
| 35>    N       -1.15473         0.68398         2.85389
| 36>    C       -3.50454        -3.68020         0.23148
| 37>    C       -3.91256        -4.89660        -0.33820
| 38>    C       -4.02431        -5.33216        -1.65543
| 39>    C       -4.39526        -6.66411        -1.73925
| 40>    C       -4.58466        -7.27299        -0.47298
| 41>    S       -4.28730        -6.20007         0.80901
| 42>    C       -4.95873        -8.61813        -0.67409
| 43>    C       -5.00236        -8.87381        -2.05736
| 44>    C       -4.64727        -7.65463        -2.77086
| 45>    C       -4.55459        -7.49722        -4.12195
| 46>    C       -4.83350        -8.55346        -5.01587
| 47>    N       -5.06373        -9.40820        -5.74499
| 48>    C       -4.15794        -6.28927        -4.73655
| 49>    N       -3.82110        -5.33331        -5.27130
| 50>    C       -5.34211       -10.18950        -2.35645
| 51>    C       -5.56208       -10.94212        -1.21363
| 52>    S       -5.34757       -10.00484         0.25451
| 53>    C       -5.90462       -12.31422        -1.15116
| 54>    C       -6.15911       -13.07849        -0.03020
| 55>    C       -6.44739       -14.40167        -0.35824
| 56>    C       -6.41165       -14.66192        -1.73546
| 57>    S       -6.02501       -13.24687        -2.63788
| 58>    C       -6.69344       -15.99648        -2.03044
| 59>    C       -6.94851       -16.75511        -0.88189
| 60>    S       -6.83930       -15.81613         0.58090
| 61>    C       -7.23031       -18.09650        -1.14472
| 62>    C       -7.18925       -18.37581        -2.49421
| 63>    S       -6.80007       -16.95960        -3.45811
| 64>    C       -7.41789       -19.61821        -3.13853
| 65>    C       -7.33741       -19.89328        -4.49045
| 66>    C       -7.62554       -21.21885        -4.81356
| 67>    C       -7.93456       -21.96330        -3.67023
| 68>    S       -7.86350       -21.03939        -2.22260
| 69>    C       -8.25679       -23.32739        -3.88802
| 70>    C       -8.21975       -23.74461        -5.22365
| 71>   Si       -7.72824       -22.31689        -6.33109
| 72>    C       -9.07751       -21.79088        -7.51834
| 73>    C       -6.07554       -22.56816        -7.17311
| 74>    C       -8.54770       -25.09647        -5.34191
| 75>    C       -8.83022       -25.70062        -4.13488
| 76>    S       -8.68923       -24.58306        -2.80018
| 77>    C       -9.22895       -27.01990        -3.77055
| 78>    N       -9.46959       -27.33326        -2.52327
| 79>    C       -9.88322       -28.62438        -2.50199
| 80>    C       -9.93531       -29.12140        -3.76375
| 81>    N       -9.51207       -28.10190        -4.60849
| 82>    C       -9.31708       -28.24546        -5.97697
| 83>    O       -8.41605       -27.74415        -6.59224
| 84>    N      -10.27414       -29.04950        -6.59805
| 85>    C      -11.58400       -29.29891        -6.24228
| 86>    N      -12.20093       -29.99232        -7.13648
| 87>    C      -11.29419       -30.23010        -8.13410
| 88>    C      -10.10843       -29.64395        -7.83600
| 89>    H       -1.74222         3.75026        -0.24336
| 90>    H       -3.49682         2.26714        -4.63559
| 91>    H       -1.97920         1.49388         0.64051
| 92>    H       -3.75661        -0.05732        -3.75240
| 93>    H       -3.38269        -3.73557         1.30701
| 94>    H       -3.84474        -4.68330        -2.49345
| 95>    H       -5.43009       -10.60197        -3.34538
| 96>    H       -6.13406       -12.68634         0.97018
| 97>    H       -7.45180       -18.83573        -0.39722
| 98>    H       -7.07400       -19.13906        -5.21132
| 99>    H      -10.02943       -21.62873        -7.01645
|100>    H       -9.24584       -22.53999        -8.28911
|101>    H       -8.82369       -20.86403        -8.02876
|102>    H       -5.29410       -22.85014        -6.47004
|103>    H       -5.73959       -21.66646        -7.68121
|104>    H       -6.12734       -23.35448        -7.92339
|105>    H       -8.55664       -25.61405        -6.28221
|106>    H      -10.12014       -29.11022        -1.57733
|107>    H      -10.17326       -30.09757        -4.13190
|108>    H      -12.02833       -28.92094        -5.34351
|109>    H      -11.56812       -30.80376        -8.99566
|110>    H       -9.17166       -29.59384        -8.34975
|111> *
|112>
|113>                          ****END OF INPUT****

CARTESIAN COORDINATES (ANGSTROEM)
---------------------------------
  C     -2.127020    3.411580   -1.192650
  C     -2.255040    4.297580   -2.225170
  F     -1.906370    5.580930   -2.058570
  C     -2.753390    3.876720   -3.474260
  F     -2.868620    4.768390   -4.468600
  C     -3.117150    2.574540   -3.673790
  C     -2.997530    1.637680   -2.629120
  C     -2.492840    2.061440   -1.365710
  C     -2.360130    1.138390   -0.302890
  C     -2.720480   -0.169030   -0.498350
  C     -3.229470   -0.579410   -1.759910
  C     -3.369440    0.286420   -2.805310
  C     -3.557690   -2.018130   -1.716900
  O     -4.035280   -2.658980   -2.629510
  C     -3.238680   -2.461220   -0.341250
  C     -2.687590   -1.331990    0.384980
  C     -2.150680   -1.339660    1.648030
  C     -2.023490   -2.463410    2.490970
  N     -1.862480   -3.325500    3.233230
  C     -1.607010   -0.201580    2.279890
  N     -1.154730    0.683980    2.853890
  C     -3.504540   -3.680200    0.231480
  C     -3.912560   -4.896600   -0.338200
  C     -4.024310   -5.332160   -1.655430
  C     -4.395260   -6.664110   -1.739250
  C     -4.584660   -7.272990   -0.472980
  S     -4.287300   -6.200070    0.809010
  C     -4.958730   -8.618130   -0.674090
  C     -5.002360   -8.873810   -2.057360
  C     -4.647270   -7.654630   -2.770860
  C     -4.554590   -7.497220   -4.121950
  C     -4.833500   -8.553460   -5.015870
  N     -5.063730   -9.408200   -5.744990
  C     -4.157940   -6.289270   -4.736550
  N     -3.821100   -5.333310   -5.271300
  C     -5.342110  -10.189500   -2.356450
  C     -5.562080  -10.942120   -1.213630
  S     -5.347570  -10.004840    0.254510
  C     -5.904620  -12.314220   -1.151160
  C     -6.159110  -13.078490   -0.030200
  C     -6.447390  -14.401670   -0.358240
  C     -6.411650  -14.661920   -1.735460
  S     -6.025010  -13.246870   -2.637880
  C     -6.693440  -15.996480   -2.030440
  C     -6.948510  -16.755110   -0.881890
  S     -6.839300  -15.816130    0.580900
  C     -7.230310  -18.096500   -1.144720
  C     -7.189250  -18.375810   -2.494210
  S     -6.800070  -16.959600   -3.458110
  C     -7.417890  -19.618210   -3.138530
  C     -7.337410  -19.893280   -4.490450
  C     -7.625540  -21.218850   -4.813560
  C     -7.934560  -21.963300   -3.670230
  S     -7.863500  -21.039390   -2.222600
  C     -8.256790  -23.327390   -3.888020
  C     -8.219750  -23.744610   -5.223650
  Si    -7.728240  -22.316890   -6.331090
  C     -9.077510  -21.790880   -7.518340
  C     -6.075540  -22.568160   -7.173110
  C     -8.547700  -25.096470   -5.341910
  C     -8.830220  -25.700620   -4.134880
  S     -8.689230  -24.583060   -2.800180
  C     -9.228950  -27.019900   -3.770550
  N     -9.469590  -27.333260   -2.523270
  C     -9.883220  -28.624380   -2.501990
  C     -9.935310  -29.121400   -3.763750
  N     -9.512070  -28.101900   -4.608490
  C     -9.317080  -28.245460   -5.976970
  O     -8.416050  -27.744150   -6.592240
  N    -10.274140  -29.049500   -6.598050
  C    -11.584000  -29.298910   -6.242280
  N    -12.200930  -29.992320   -7.136480
  C    -11.294190  -30.230100   -8.134100
  C    -10.108430  -29.643950   -7.836000
  H     -1.742220    3.750260   -0.243360
  H     -3.496820    2.267140   -4.635590
  H     -1.979200    1.493880    0.640510
  H     -3.756610   -0.057320   -3.752400
  H     -3.382690   -3.735570    1.307010
  H     -3.844740   -4.683300   -2.493450
  H     -5.430090  -10.601970   -3.345380
  H     -6.134060  -12.686340    0.970180
  H     -7.451800  -18.835730   -0.397220
  H     -7.074000  -19.139060   -5.211320
  H    -10.029430  -21.628730   -7.016450
  H     -9.245840  -22.539990   -8.289110
  H     -8.823690  -20.864030   -8.028760
  H     -5.294100  -22.850140   -6.470040
  H     -5.739590  -21.666460   -7.681210
  H     -6.127340  -23.354480   -7.923390
  H     -8.556640  -25.614050   -6.282210
  H    -10.120140  -29.110220   -1.577330
  H    -10.173260  -30.097570   -4.131900
  H    -12.028330  -28.920940   -5.343510
  H    -11.568120  -30.803760   -8.995660
  H     -9.171660  -29.593840   -8.349750

 Total Charge           Charge          ....    0
 Multiplicity           Mult            ....    1
 Number of Electrons    NEL             ....  562
 Basis Dimension        Dim             .... 1178

ORBITAL ENERGIES
----------------

  NO   OCC          E(Eh)            E(eV)
   0   2.0000     -88.996672     -2421.7226
   1   2.0000     -88.995759     -2421.6977
   2   2.0000     -88.974794     -2421.1272
   3   2.0000     -88.968044     -2420.9436
   4   2.0000     -88.966743     -2420.9082
   5   2.0000     -88.965646     -2420.8783
   6   2.0000     -88.959185     -2420.7025
   7   2.0000     -66.194891     -1801.2546
   8   2.0000     -24.795256      -674.7132
   9   2.0000     -24.794423      -674.6905
  10   2.0000     -19.244979      -523.6825
  11   2.0000     -19.216805      -522.9158
  12   2.0000     -14.502015      -394.6199
  13   2.0000     -14.500872      -394.5888
  14   2.0000     -14.434228      -392.7753
  15   2.0000     -14.430457      -392.6727
  16   2.0000     -14.416037      -392.2803
  17   2.0000     -14.412557      -392.1856
  18   2.0000     -14.406061      -392.0089
  19   2.0000     -14.402143      -391.9022
  20   2.0000     -10.460526      -284.6454
  21   2.0000     -10.378392      -282.4104
  22   2.0000     -10.377695      -282.3914
  23   2.0000     -10.369855      -282.1781
  24   2.0000     -10.368323      -282.1364
  25   2.0000     -10.356631      -281.8183
  26   2.0000     -10.356096      -281.8037
  27   2.0000     -10.349004      -281.6107
  28   2.0000     -10.343906      -281.4720
  29   2.0000     -10.340595      -281.3819
  30   2.0000     -10.340129      -281.3692
  31   2.0000     -10.339513      -281.3525
  32   2.0000     -10.335193      -281.2349
  33   2.0000     -10.334204      -281.2080
  34   2.0000     -10.329418      -281.0777
  35   2.0000     -10.327777      -281.0331
  36   2.0000     -10.327427      -281.0236
  37   2.0000     -10.325711      -280.9769
  38   2.0000     -10.320350      -280.8310
  39   2.0000     -10.319370      -280.8043
  40   2.0000     -10.319285      -280.8020
  41   2.0000     -10.315974      -280.7119
  42   2.0000     -10.315828      -280.7080
  43   2.0000     -10.315712      -280.7048
  44   2.0000     -10.314495      -280.6717
  45   2.0000     -10.312854      -280.6270
  46   2.0000     -10.312552      -280.6188
  47   2.0000     -10.312035      -280.6047
  48   2.0000     -10.309694      -280.5410
  49   2.0000     -10.309200      -280.5276
  50   2.0000     -10.308398      -280.5058
  51   2.0000     -10.307759      -280.4884
  52   2.0000     -10.307315      -280.4763
  53   2.0000     -10.307056      -280.4693
  54   2.0000     -10.306077      -280.4426
  55   2.0000     -10.306046      -280.4418
  56   2.0000     -10.304165      -280.3906
  57   2.0000     -10.303504      -280.3726
  58   2.0000     -10.302318      -280.3403
  59   2.0000     -10.299319      -280.2587
  60   2.0000     -10.299287      -280.2578
  61   2.0000     -10.299170      -280.2547
  62   2.0000     -10.298651      -280.2406
  63   2.0000     -10.298018      -280.2233
  64   2.0000     -10.297718      -280.2152
  65   2.0000     -10.297515      -280.2096
  66   2.0000     -10.289543      -279.9927
  67   2.0000     -10.289211      -279.9837
  68   2.0000     -10.281186      -279.7653
  69   2.0000     -10.276509      -279.6380
  70   2.0000     -10.257531      -279.1216
  71   2.0000     -10.252583      -278.9870
  72   2.0000     -10.251045      -278.9451
  73   2.0000     -10.250541      -278.9314
  74   2.0000      -8.091212      -220.1731
  75   2.0000      -8.090577      -220.1558
  76   2.0000      -8.069730      -219.5885
  77   2.0000      -8.063074      -219.4074
  78   2.0000      -8.061866      -219.3745
  79   2.0000      -8.060932      -219.3491
  80   2.0000      -8.054038      -219.1615
  81   2.0000      -6.060571      -164.9165
  82   2.0000      -6.059691      -164.8926
  83   2.0000      -6.056381      -164.8025
  84   2.0000      -6.055574      -164.7805
  85   2.0000      -6.053352      -164.7201
  86   2.0000      -6.053067      -164.7123
  87   2.0000      -6.039365      -164.3395
  88   2.0000      -6.035279      -164.2283
  89   2.0000      -6.032727      -164.1588
  90   2.0000      -6.031635      -164.1291
  91   2.0000      -6.031148      -164.1159
  92   2.0000      -6.030179      -164.0895
  93   2.0000      -6.028635      -164.0475
  94   2.0000      -6.027748      -164.0234
  95   2.0000      -6.026157      -163.9801
  96   2.0000      -6.024469      -163.9341
  97   2.0000      -6.023321      -163.9029
  98   2.0000      -6.023065      -163.8959
  99   2.0000      -6.022821      -163.8893
 100   2.0000      -6.019122      -163.7886
 101   2.0000      -6.016240      -163.7102
 102   2.0000      -5.361356      -145.8899
 103   2.0000      -3.724838      -101.3580
 104   2.0000      -3.723398      -101.3188
 105   2.0000      -3.722385      -101.2912
 106   2.0000      -1.317539       -35.8521
 107   2.0000      -1.302683       -35.4478
 108   2.0000      -1.203387       -32.7458
 109   2.0000      -1.132457       -30.8157
 110   2.0000      -1.129271       -30.7290
 111   2.0000      -1.128413       -30.7057
 112   2.0000      -1.051576       -28.6148
 113   2.0000      -1.029012       -28.0009
 114   2.0000      -1.024734       -27.8844
 115   2.0000      -1.018509       -27.7150
 116   2.0000      -1.015910       -27.6443
 117   2.0000      -1.009491       -27.4696
 118   2.0000      -1.006830       -27.3972
 119   2.0000      -1.002311       -27.2743
 120   2.0000      -0.999234       -27.1905
 121   2.0000      -0.992894       -27.0180
 122   2.0000      -0.987162       -26.8620
 123   2.0000      -0.982233       -26.7279
 124   2.0000      -0.979091       -26.6424
 125   2.0000      -0.970851       -26.4182
 126   2.0000      -0.962694       -26.1962
 127   2.0000      -0.935590       -25.4587
 128   2.0000      -0.930857       -25.3299
 129   2.0000      -0.918370       -24.9901
 130   2.0000      -0.898980       -24.4625
 131   2.0000      -0.891970       -24.2717
 132   2.0000      -0.889480       -24.2040
 133   2.0000      -0.880198       -23.9514
 134   2.0000      -0.877270       -23.8717
 135   2.0000      -0.869155       -23.6509
 136   2.0000      -0.862527       -23.4705
 137   2.0000      -0.857611       -23.3368
 138   2.0000      -0.852643       -23.2016
 139   2.0000      -0.847324       -23.0568
 140   2.0000      -0.839205       -22.8359
 141   2.0000      -0.837581       -22.7917
 142   2.0000      -0.829769       -22.5792
 143   2.0000      -0.822812       -22.3898
 144   2.0000      -0.813457       -22.1353
 145   2.0000      -0.802643       -21.8410
 146   2.0000      -0.797425       -21.6990
 147   2.0000      -0.793818       -21.6009
 148   2.0000      -0.785282       -21.3686
 149   2.0000      -0.779313       -21.2062
 150   2.0000      -0.769527       -20.9399
 151   2.0000      -0.765493       -20.8301
 152   2.0000      -0.762244       -20.7417
 153   2.0000      -0.746352       -20.3093
 154   2.0000      -0.737245       -20.0614
 155   2.0000      -0.728596       -19.8261
 156   2.0000      -0.717524       -19.5248
 157   2.0000      -0.710594       -19.3362
 158   2.0000      -0.709725       -19.3126
 159   2.0000      -0.704045       -19.1580
 160   2.0000      -0.694583       -18.9006
 161   2.0000      -0.691589       -18.8191
 162   2.0000      -0.689032       -18.7495
 163   2.0000      -0.682116       -18.5613
 164   2.0000      -0.672413       -18.2973
 165   2.0000      -0.668206       -18.1828
 166   2.0000      -0.665811       -18.1177
 167   2.0000      -0.661271       -17.9941
 168   2.0000      -0.657232       -17.8842
 169   2.0000      -0.652725       -17.7615
 170   2.0000      -0.640534       -17.4298
 171   2.0000      -0.638270       -17.3682
 172   2.0000      -0.636683       -17.3250
 173   2.0000      -0.629102       -17.1187
 174   2.0000      -0.621286       -16.9061
 175   2.0000      -0.620595       -16.8873
 176   2.0000      -0.616773       -16.7832
 177   2.0000      -0.609008       -16.5720
 178   2.0000      -0.607384       -16.5278
 179   2.0000      -0.602065       -16.3830
 180   2.0000      -0.592598       -16.1254
 181   2.0000      -0.588427       -16.0119
 182   2.0000      -0.586648       -15.9635
 183   2.0000      -0.584014       -15.8918
 184   2.0000      -0.582202       -15.8425
 185   2.0000      -0.576549       -15.6887
 186   2.0000      -0.574768       -15.6402
 187   2.0000      -0.566498       -15.4152
 188   2.0000      -0.560458       -15.2508
 189   2.0000      -0.556924       -15.1547
 190   2.0000      -0.553904       -15.0725
 191   2.0000      -0.551027       -14.9942
 192   2.0000      -0.549837       -14.9618
 193   2.0000      -0.546423       -14.8689
 194   2.0000      -0.545400       -14.8411
 195   2.0000      -0.543800       -14.7975
 196   2.0000      -0.539930       -14.6922
 197   2.0000      -0.537332       -14.6216
 198   2.0000      -0.535679       -14.5766
 199   2.0000      -0.530840       -14.4449
 200   2.0000      -0.528697       -14.3866
 201   2.0000      -0.527764       -14.3612
 202   2.0000      -0.525947       -14.3117
 203   2.0000      -0.525466       -14.2987
 204   2.0000      -0.518320       -14.1042
 205   2.0000      -0.514904       -14.0113
 206   2.0000      -0.513053       -13.9609
 207   2.0000      -0.509596       -13.8668
 208   2.0000      -0.509351       -13.8601
 209   2.0000      -0.505958       -13.7678
 210   2.0000      -0.505241       -13.7483
 211   2.0000      -0.504340       -13.7238
 212   2.0000      -0.502559       -13.6753
 213   2.0000      -0.498841       -13.5742
 214   2.0000      -0.496355       -13.5065
 215   2.0000      -0.494164       -13.4469
 216   2.0000      -0.492627       -13.4051
 217   2.0000      -0.491768       -13.3817
 218   2.0000      -0.488998       -13.3063
 219   2.0000      -0.487916       -13.2769
 220   2.0000      -0.485276       -13.2050
 221   2.0000      -0.483016       -13.1435
 222   2.0000      -0.480826       -13.0839
 223   2.0000      -0.476920       -12.9776
 224   2.0000      -0.473329       -12.8799
 225   2.0000      -0.472587       -12.8597
 226   2.0000      -0.467771       -12.7287
 227   2.0000      -0.467126       -12.7111
 228   2.0000      -0.466194       -12.6858
 229   2.0000      -0.464054       -12.6276
 230   2.0000      -0.463672       -12.6172
 231   2.0000      -0.460253       -12.5241
 232   2.0000      -0.456969       -12.4348
 233   2.0000      -0.454708       -12.3732
 234   2.0000      -0.450962       -12.2713
 235   2.0000      -0.448845       -12.2137
 236   2.0000      -0.448452       -12.2030
 237   2.0000      -0.444936       -12.1073
 238   2.0000      -0.444132       -12.0855
 239   2.0000      -0.441829       -12.0228
 240   2.0000      -0.441722       -12.0199
 241   2.0000      -0.441279       -12.0078
 242   2.0000      -0.437056       -11.8929
 243   2.0000      -0.432671       -11.7736
 244   2.0000      -0.431026       -11.7288
 245   2.0000      -0.428769       -11.6674
 246   2.0000      -0.427657       -11.6371
 247   2.0000      -0.424382       -11.5480
 248   2.0000      -0.423933       -11.5358
 249   2.0000      -0.421584       -11.4719
 250   2.0000      -0.415998       -11.3199
 251   2.0000      -0.410953       -11.1826
 252   2.0000      -0.409855       -11.1527
 253   2.0000      -0.407198       -11.0804
 254   2.0000      -0.403403       -10.9771
 255   2.0000      -0.397680       -10.8214
 256   2.0000      -0.388404       -10.5690
 257   2.0000      -0.387459       -10.5433
 258   2.0000      -0.386000       -10.5036
 259   2.0000      -0.382691       -10.4135
 260   2.0000      -0.380038       -10.3413
 261   2.0000      -0.379531       -10.3276
 262   2.0000      -0.374459       -10.1895
 263   2.0000      -0.361303        -9.8316
 264   2.0000      -0.358078        -9.7438
 265   2.0000      -0.356626        -9.7043
 266   2.0000      -0.355622        -9.6770
 267   2.0000      -0.344623        -9.3777
 268   2.0000      -0.341023        -9.2797
 269   2.0000      -0.337137        -9.1740
 270   2.0000      -0.328896        -8.9497
 271   2.0000      -0.327331        -8.9071
 272   2.0000      -0.324592        -8.8326
 273   2.0000      -0.321653        -8.7526
 274   2.0000      -0.316468        -8.6115
 275   2.0000      -0.313490        -8.5305
 276   2.0000      -0.299158        -8.1405
 277   2.0000      -0.293299        -7.9811
 278   2.0000      -0.285445        -7.7673
 279   2.0000      -0.258613        -7.0372
 280   2.0000      -0.229808        -6.2534
 281   0.0000      -0.115693        -3.1482
 282   0.0000      -0.091338        -2.4854
 283   0.0000      -0.063825        -1.7368
 284   0.0000      -0.057564        -1.5664
 285   0.0000      -0.041096        -1.1183

MULLIKEN ATOMIC CHARGES
-----------------------
   0 C :   -0.107794
   1 C :    0.240252
   2 F :   -0.172662
   3 C :    0.239133
   4 F :   -0.173064
   5 C :   -0.104061
   6 C :    0.117899
   7 C :    0.114838
   8 C :   -0.085709
   9 C :    0.046905
  10 C :   -0.000961
  11 C :   -0.084294
  12 C :    0.154400
  13 O :   -0.151564
  14 C :   -0.097589
  15 C :    0.321695
  16 C :   -0.361972
  17 C :   -0.197946
  18 N :    0.151272
  19 C :   -0.180787
  20 N :    0.144857
  21 C :    0.035409
  22 C :   -0.113804
  23 C :    0.002149
  24 C :   -0.014321
  25 C :   -0.075861
  26 S :    0.204476
  27 C :   -0.111646
  28 C :    0.033210
  29 C :    0.309101
  30 C :   -0.294799
  31 C :   -0.191659
  32 N :    0.173176
  33 C :   -0.189393
  34 N :    0.194441
  35 C :   -0.078075
  36 C :   -0.025231
  37 S :    0.193255
  38 C :   -0.060379
  39 C :   -0.060870
  40 C :   -0.026203
  41 C :   -0.066944
  42 S :    0.157363
  43 C :   -0.078654
  44 C :   -0.018004
  45 S :    0.159522
  46 C :   -0.073515
  47 C :   -0.027239
  48 S :    0.145179
  49 C :   -0.049863
  50 C :   -0.060123
  51 C :   -0.111502
  52 C :   -0.088929
  53 S :    0.149714
  54 C :   -0.071516
  55 C :   -0.142208
  56 Si:    0.524958
  57 C :   -0.199732
  58 C :   -0.199524
  59 C :   -0.042836
  60 C :   -0.092938
  61 S :    0.196387
  62 C :    0.098583
  63 N :   -0.116439
  64 C :    0.037541
  65 C :    0.055039
  66 N :   -0.196880
  67 C :    0.246546
  68 O :   -0.160125
  69 N :   -0.188050
  70 C :    0.085885
  71 N :   -0.113417
  72 C :    0.018029
  73 C :    0.078573
  74 H :    0.006683
  75 H :   -0.000397
  76 H :   -0.005769
  77 H :   -0.007398
  78 H :    0.011456
  79 H :    0.038118
  80 H :    0.016818
  81 H :   -0.006368
  82 H :   -0.007383
  83 H :   -0.013584
  84 H :    0.053364
  85 H :    0.043552
  86 H :    0.041740
  87 H :    0.055463
  88 H :    0.041962
  89 H :    0.046793
  90 H :   -0.007515
  91 H :    0.002713
  92 H :    0.032493
  93 H :    0.047420
  94 H :    0.011000
  95 H :    0.028135
Sum of atomic charges:   -0.0000000

LOEWDIN ATOMIC CHARGES
----------------------
   0 C :   -0.029490
   1 C :    0.066130
   2 F :   -0.050203
   3 C :    0.067498
   4 F :   -0.050360
   5 C :   -0.032851
   6 C :   -0.008670
   7 C :   -0.007049
   8 C :    0.016822
   9 C :   -0.023457
  10 C :   -0.051175
  11 C :    0.030087
  12 C :    0.085052
  13 O :   -0.140174
  14 C :   -0.103761
  15 C :    0.076970
  16 C :   -0.146486
  17 C :   -0.024499
  18 N :   -0.056592
  19 C :   -0.017321
  20 N :   -0.057397
  21 C :    0.044400
  22 C :   -0.179595
  23 C :    0.023324
  24 C :   -0.079776
  25 C :   -0.150854
  26 S :    0.492679
  27 C :   -0.200043
  28 C :   -0.044884
  29 C :    0.075803
  30 C :   -0.092400
  31 C :   -0.015262
  32 N :   -0.030119
  33 C :   -0.022441
  34 N :   -0.014628
  35 C :   -0.045655
  36 C :   -0.156332
  37 S :    0.477359
  38 C :   -0.187926
  39 C :   -0.060272
  40 C :   -0.195786
  41 C :   -0.206547
  42 S :    0.438516
  43 C :   -0.223903
  44 C :   -0.182867
  45 S :    0.408921
  46 C :   -0.080553
  47 C :   -0.160968
  48 S :    0.427671
  49 C :   -0.191841
  50 C :   -0.057110
  51 C :   -0.199041
  52 C :   -0.188930
  53 S :    0.442276
  54 C :   -0.188394
  55 C :   -0.209321
  56 Si:    0.665488
  57 C :   -0.243417
  58 C :   -0.242733
  59 C :   -0.043989
  60 C :   -0.199498
  61 S :    0.479094
  62 C :    0.021958
  63 N :   -0.118060
  64 C :   -0.020046
  65 C :   -0.027682
  66 N :    0.021548
  67 C :    0.123288
  68 O :   -0.132952
  69 N :    0.023924
  70 C :    0.027893
  71 N :   -0.092922
  72 C :   -0.024509
  73 C :   -0.005532
  74 H :    0.047405
  75 H :    0.045001
  76 H :    0.039711
  77 H :    0.041254
  78 H :    0.042779
  79 H :    0.043952
  80 H :    0.036887
  81 H :    0.031381
  82 H :    0.030912
  83 H :    0.023832
  84 H :    0.041498
  85 H :    0.036885
  86 H :    0.036230
  87 H :    0.042373
  88 H :    0.036093
  89 H :    0.038125
  90 H :    0.026179
  91 H :    0.026295
  92 H :    0.029003
  93 H :    0.025587
  94 H :    0.025143
  95 H :    0.033048

  Mayer bond orders larger than 0.100000
B(  0-C ,  1-C ) :   1.4412 B(  0-C ,  5-C ) :   0.1086 B(  0-C ,  7-C ) :   1.1883
B(  0-C , 74-H ) :   1.0063 B(  1-C ,  2-F ) :   1.1332 B(  1-C ,  3-C ) :   1.1925
B(  3-C ,  4-F ) :   1.1318 B(  3-C ,  5-C ) :   1.4412 B(  5-C ,  6-C ) :   1.1942
B(  5-C , 75-H ) :   1.0071 B(  6-C ,  7-C ) :   1.2575 B(  6-C , 11-C ) :   1.1832
B(  7-C ,  8-C ) :   1.2170 B(  8-C ,  9-C ) :   1.4504 B(  8-C , 76-H ) :   0.9887
B(  9-C , 10-C ) :   1.2234 B(  9-C , 15-C ) :   0.9795 B( 10-C , 11-C ) :   1.4750
B( 10-C , 12-C ) :   0.9460 B( 11-C , 77-H ) :   1.0168 B( 12-C , 13-O ) :   2.1736
B( 12-C , 14-C ) :   0.9485 B( 14-C , 15-C ) :   1.0945 B( 14-C , 21-C ) :   1.5561
B( 15-C , 16-C ) :   1.6125 B( 16-C , 17-C ) :   1.1429 B( 16-C , 19-C ) :   1.1505
B( 17-C , 18-N ) :   2.9753 B( 19-C , 20-N ) :   2.9605 B( 21-C , 22-C ) :   1.2427
B( 21-C , 78-H ) :   0.9132 B( 22-C , 23-C ) :   1.3804 B( 22-C , 26-S ) :   1.0631
B( 23-C , 24-C ) :   1.3335 B( 23-C , 79-H ) :   0.9693 B( 24-C , 25-C ) :   1.3594
B( 24-C , 29-C ) :   0.9994 B( 25-C , 26-S ) :   1.1717 B( 25-C , 27-C ) :   1.2222
B( 27-C , 28-C ) :   1.4301 B( 27-C , 37-S ) :   1.0933 B( 28-C , 29-C ) :   0.9910
B( 28-C , 35-C ) :   1.3115 B( 29-C , 30-C ) :   1.7158 B( 30-C , 31-C ) :   1.1369
B( 30-C , 33-C ) :   1.1348 B( 31-C , 32-N ) :   2.9869 B( 33-C , 34-N ) :   2.9968
B( 35-C , 36-C ) :   1.4317 B( 35-C , 80-H ) :   0.9887 B( 36-C , 37-S ) :   1.1227
B( 36-C , 38-C ) :   1.1878 B( 38-C , 39-C ) :   1.4935 B( 38-C , 42-S ) :   1.0890
B( 39-C , 40-C ) :   1.2867 B( 39-C , 81-H ) :   0.9954 B( 40-C , 41-C ) :   1.4523
B( 40-C , 45-S ) :   1.0474 B( 41-C , 42-S ) :   1.0750 B( 41-C , 43-C ) :   1.3124
B( 43-C , 44-C ) :   1.4650 B( 43-C , 48-S ) :   1.0603 B( 44-C , 45-S ) :   1.0542
B( 44-C , 46-C ) :   1.2650 B( 46-C , 47-C ) :   1.5138 B( 46-C , 82-H ) :   0.9960
B( 47-C , 48-S ) :   1.0976 B( 47-C , 49-C ) :   1.1714 B( 49-C , 50-C ) :   1.4817
B( 49-C , 53-S ) :   1.1073 B( 50-C , 51-C ) :   1.2669 B( 50-C , 83-H ) :   0.9911
B( 51-C , 52-C ) :   1.5242 B( 51-C , 56-Si) :   0.8759 B( 52-C , 53-S ) :   1.1138
B( 52-C , 54-C ) :   1.1484 B( 54-C , 55-C ) :   1.5152 B( 54-C , 60-C ) :   0.1145
B( 54-C , 61-S ) :   1.1153 B( 55-C , 56-Si) :   0.8879 B( 55-C , 59-C ) :   1.2498
B( 56-Si, 57-C ) :   1.0526 B( 56-Si, 58-C ) :   1.0572 B( 57-C , 84-H ) :   0.9508
B( 57-C , 85-H ) :   0.9546 B( 57-C , 86-H ) :   0.9541 B( 58-C , 87-H ) :   0.9506
B( 58-C , 88-H ) :   0.9534 B( 58-C , 89-H ) :   0.9532 B( 59-C , 60-C ) :   1.5020
B( 59-C , 90-H ) :   0.9924 B( 60-C , 61-S ) :   1.1134 B( 60-C , 62-C ) :   1.0685
B( 62-C , 63-N ) :   1.7791 B( 62-C , 66-N ) :   1.1034 B( 63-N , 64-C ) :   1.3386
B( 64-C , 65-C ) :   1.5772 B( 64-C , 91-H ) :   0.9990 B( 65-C , 66-N ) :   1.0604
B( 65-C , 92-H ) :   0.9809 B( 66-N , 67-C ) :   0.9998 B( 67-C , 68-O ) :   2.1451
B( 67-C , 69-N ) :   1.0013 B( 69-N , 70-C ) :   1.0938 B( 69-N , 73-C ) :   1.1003
B( 70-C , 71-N ) :   1.7638 B( 70-C , 93-H ) :   0.9743 B( 71-N , 72-C ) :   1.3208
B( 72-C , 73-C ) :   1.5871 B( 72-C , 94-H ) :   1.0002 B( 73-C , 95-H ) :   0.9945

-----------------------------------------------------------------------------
         ABSORPTION SPECTRUM VIA TRANSITION ELECTRIC DIPOLE MOMENTS
-----------------------------------------------------------------------------
State   Energy  Wavelength   fosc         T2         TX        TY        TZ
        (cm-1)    (nm)                  (au**2)     (au)      (au)      (au)
-----------------------------------------------------------------------------
   0   11359.1    880.4   0.617019116  17.88256  -1.04795  -4.06497  -0.51030
   1   17563.4    569.4   1.068219347  20.02295  -1.06627  -4.28053  -0.75039
   2   19286.0    518.5   1.004633831  17.14907   1.13136   3.91661   0.72748
   3   22164.5    451.2   0.737722402  10.95748   0.62666   3.22682   0.39036
   4   24320.7    411.2   0.100586633   1.36157  -0.26380  -1.13188  -0.10405
   5   24967.7    400.5   0.132228597   1.74351  -0.45661  -1.09977  -0.57055
   6   25614.8    390.4   0.009889255   0.12710  -0.06389  -0.19356  -0.29249
   7   26344.5    379.6   0.028996390   0.36235   0.24734   0.21242   0.50602
   8   27063.3    369.5   0.116988448   1.42311   0.09127   1.16883  -0.22050
   9   27494.5    363.7   0.016570709   0.19841  -0.14723   0.13422  -0.39840
  10   28160.7    355.1   0.050445650   0.58973   0.02480   0.61264  -0.46238
  11   28842.0    346.7   0.007708210   0.08798   0.14096  -0.10736   0.23788
  12   29542.5    338.5   0.034249201   0.38166  -0.09618   0.45095  -0.41116
  13   30115.3    332.1   0.085296403   0.93244  -0.17471  -0.06103   0.94773
  14   30246.0    330.6   0.162000455   1.76329   0.00121  -0.52668  -1.21897
  15   31049.2    322.1   0.342228832   3.62862   0.07016   0.87109  -1.69260
  16   31437.6    318.1   0.031384335   0.32865   0.28741   0.46932  -0.16059
  17   31760.0    314.9   0.185402044   1.92181   0.11109   1.34359   0.32283
  18   32622.6    306.5   0.407459302   4.11188   0.04870   1.56523  -1.28824
  19   32881.0    304.1   0.038468482   0.38516  -0.13858  -0.49493   0.34784
  20   33057.5    302.5   0.079377133   0.79050   0.02465   0.17407  -0.87155
  21   33259.6    300.7   0.003863302   0.03824  -0.02555  -0.14418   0.12961
  22   33495.6    298.5   0.023659031   0.23253   0.10339   0.22851   0.41186
  23   34144.3    292.9   0.055793578   0.53795   0.10107   0.52838  -0.49855
  24   34510.8    289.8   0.396460617   3.78199  -0.08858  -1.49874   1.23609
  25   34875.9    286.7   0.013215663   0.12475   0.34467  -0.07470  -0.01931
  26   35240.8    283.8   0.169268653   1.58127  -0.47866   0.23826  -1.13815
  27   35721.3    279.9   0.171726031   1.58265   0.10575   0.00232   1.25358
  28   35830.2    279.1   0.035382424   0.32510  -0.07253  -0.08122  -0.55968
  29   36168.4    276.5   0.099275138   0.90362   0.09747   0.06350  -0.94345
  30   36730.0    272.3   0.088777880   0.79572  -0.02191   0.57404  -0.68244
  31   37328.8    267.9   0.059365223   0.52356   0.20394   0.68769  -0.09514
  32   37920.1    263.7   0.005770457   0.05010   0.07757   0.14187  -0.15477
  33   38069.7    262.7   0.001308864   0.01132  -0.06092  -0.02484   0.08361
  34   38393.3    260.5   0.096826416   0.83026  -0.29701  -0.27030  -0.81791
  35   38557.7    259.4   0.028941160   0.24710   0.02611   0.15322   0.47217
  36   38820.4    257.6   0.095013360   0.80575  -0.28495  -0.72530  -0.44553
  37   39448.2    253.5   0.010520882   0.08780  -0.02805   0.26864   0.12185
  38   39807.3    251.2   0.110277346   0.91201  -0.37778  -0.80199  -0.35511
  39   40277.1    248.3   0.018112139   0.14804  -0.02729   0.08030  -0.37530

FINAL SINGLE POINT ENERGY     -5931.427127157422

DIPOLE MOMENT
-------------
                                X             Y             Z
Electronic contribution:     24.48669     109.12024      35.38338
Nuclear contribution   :    -25.88408    -112.79347     -36.22426
                        -----------------------------------------
Total Dipole Moment    :     -1.39739      -3.67322      -0.84088
                        -----------------------------------------
Magnitude (a.u.)       :      4.01900
Magnitude (Debye)      :     10.21548

Rotational constants in cm-1:     0.003134     0.000123     0.000119
Rotational constants in MHz :    93.958286     3.700435     3.579612

                             ****ORCA TERMINATED NORMALLY****
TOTAL RUN TIME: 0 days 0 hours 10 minutes 12 seconds 652 msec
