                         Program Version 4.2.0 -  RELEASE  -
|  1> # ORCA input file
|  2> # SCF done       -169.541858420151          0.000593315164
|  3> ! CAM-B3LYP def2-SVP def2/J RIJCOSX Grid4 TightSCF
|  4> %maxcore 5000
|  5> %tddft
|  6>     Mode sTDDFT
|  7>     Ethresh 5.0
|  8>     maxcore 5000
|  9> end
| 10>
| 11> %pal
| 12>   nprocs 6
| 13>   end
| 14> * xyz 0 1
| 15>    C        9.44887        -1.26323        10.29633
| 16>    C        8.85178        -1.32731         9.07616
| 17>    C        8.84128        -0.06989         8.43974
| 18>    C        9.44662         0.92872         9.22081
| 19>    S       10.01736         0.32428        10.71317
| 20>    C        9.39778         2.15443         8.51220
| 21>    C        8.75957         1.92877         7.27969
| 22>    C        8.38793         0.51667         7.19971
| 23>    C        7.74692        -0.10981         6.16852
| 24>    C        7.33704         0.54698         4.99097
| 25>    N        6.98312         1.04240         4.01825
| 26>    C        7.44142        -1.48644         6.20835
| 27>    N        7.19026        -2.60556         6.23118
| 28>    C        8.65973         3.06569         6.49199
| 29>    C        9.22098         4.18520         7.10621
| 30>    S        9.87430         3.78533         8.69731
| 31>    C        9.34173         5.50918         6.65593
| 32>    C        8.93161         6.02654         5.45088
| 33>    C        9.10241         7.37344         5.03425
| 34>    C        8.63446         7.64020         3.78408
| 35>    C        8.06102         6.52137         3.13830
| 36>    S        8.13355         5.11941         4.18244
| 37>    C        7.50936         6.39881         1.88186
| 38>    C        7.38704         7.37649         0.86521
| 39>    C        6.82050         6.89403        -0.27119
| 40>    C        6.46623         5.51576        -0.20554
| 41>    S        6.86038         4.84519         1.35792
| 42>    C        5.91040         4.74052        -1.17940
| 43>    C        5.63840         3.36385        -0.90638
| 44>    N        5.92727         2.95811         0.33810
| 45>    C        5.68796         1.70432         0.66533
| 46>    C        5.15086         0.81779        -0.25236
| 47>    C        4.89994         1.30805        -1.54612
| 48>    N        5.14205         2.58016        -1.86006
| 49>    C        4.39398         0.43638        -2.58357
| 50>    C        4.30800         0.83314        -3.86789
| 51>    C        3.87224         0.02627        -4.95580
| 52>    C        3.33393        -1.24711        -4.94967
| 53>    C        3.07083        -1.71495        -6.23788
| 54>    C        3.41797        -0.78883        -7.23722
| 55>    S        4.04536         0.65658        -6.58900
| 56>    C        3.14682        -1.36872        -8.50347
| 57>    C        2.62189        -2.65530        -8.30475
| 58>    C        2.54892        -2.91289        -6.87463
| 59>    C        2.08922        -4.04285        -6.26248
| 60>    C        1.60196        -5.14611        -6.99329
| 61>    N        1.20876        -6.04512        -7.58692
| 62>    C        2.07026        -4.18009        -4.85906
| 63>    N        2.05270        -4.29563        -3.71817
| 64>    C        2.34501        -3.31995        -9.50069
| 65>    C        2.66190        -2.55109       -10.60395
| 66>    S        3.30170        -0.97520       -10.15849
| 67>    C        2.54425        -2.90541       -11.97308
| 68>    C        2.92270        -2.15832       -13.07203
| 69>    C        2.67971        -2.83356       -14.26946
| 70>    C        2.10971        -4.09859       -14.07735
| 71>    S        1.87254        -4.46486       -12.42648
| 72>    C        1.90813        -4.70041       -15.35248
| 73>    C        2.35359        -3.81419       -16.34052
| 74>    C        2.85524        -2.61335       -15.70019
| 75>    C        3.38891        -1.50990       -16.30040
| 76>    C        3.51898        -1.40396       -17.70073
| 77>    N        3.62831        -1.31205       -18.83862
| 78>    C        3.84951        -0.40209       -15.55909
| 79>    N        4.22666         0.49953       -14.95870
| 80>    C        2.19288        -4.33334       -17.63978
| 81>    C        1.63982        -5.57702       -17.61118
| 82>    S        1.29968        -6.15213       -16.01163
| 83>    H        9.59904        -2.05834        10.99871
| 84>    H        8.44301        -2.22937         8.65888
| 85>    H        8.20469         3.08981         5.52040
| 86>    H        9.82467         6.19961         7.33578
| 87>    H        9.57215         8.09877         5.67541
| 88>    H        8.68516         8.60382         3.30929
| 89>    H        7.72143         8.39162         0.99317
| 90>    H        6.64373         7.47143        -1.16193
| 91>    H        5.67490         5.13335        -2.15452
| 92>    H        5.93880         1.41899         1.67841
| 93>    H        4.94728        -0.20864         0.00457
| 94>    H        4.12077        -0.56401        -2.28152
| 95>    H        4.62225         1.84128        -4.10246
| 96>    H        3.14175        -1.79949        -4.04866
| 97>    H        1.94152        -4.31354        -9.57958
| 98>    H        3.35543        -1.17750       -12.98864
| 99>    H        2.46810        -3.82250       -18.54428
|100>    H        1.40347        -6.21031       -18.44261
|101> *
|102>
|103>                          ****END OF INPUT****

CARTESIAN COORDINATES (ANGSTROEM)
---------------------------------
  C      9.448870   -1.263230   10.296330
  C      8.851780   -1.327310    9.076160
  C      8.841280   -0.069890    8.439740
  C      9.446620    0.928720    9.220810
  S     10.017360    0.324280   10.713170
  C      9.397780    2.154430    8.512200
  C      8.759570    1.928770    7.279690
  C      8.387930    0.516670    7.199710
  C      7.746920   -0.109810    6.168520
  C      7.337040    0.546980    4.990970
  N      6.983120    1.042400    4.018250
  C      7.441420   -1.486440    6.208350
  N      7.190260   -2.605560    6.231180
  C      8.659730    3.065690    6.491990
  C      9.220980    4.185200    7.106210
  S      9.874300    3.785330    8.697310
  C      9.341730    5.509180    6.655930
  C      8.931610    6.026540    5.450880
  C      9.102410    7.373440    5.034250
  C      8.634460    7.640200    3.784080
  C      8.061020    6.521370    3.138300
  S      8.133550    5.119410    4.182440
  C      7.509360    6.398810    1.881860
  C      7.387040    7.376490    0.865210
  C      6.820500    6.894030   -0.271190
  C      6.466230    5.515760   -0.205540
  S      6.860380    4.845190    1.357920
  C      5.910400    4.740520   -1.179400
  C      5.638400    3.363850   -0.906380
  N      5.927270    2.958110    0.338100
  C      5.687960    1.704320    0.665330
  C      5.150860    0.817790   -0.252360
  C      4.899940    1.308050   -1.546120
  N      5.142050    2.580160   -1.860060
  C      4.393980    0.436380   -2.583570
  C      4.308000    0.833140   -3.867890
  C      3.872240    0.026270   -4.955800
  C      3.333930   -1.247110   -4.949670
  C      3.070830   -1.714950   -6.237880
  C      3.417970   -0.788830   -7.237220
  S      4.045360    0.656580   -6.589000
  C      3.146820   -1.368720   -8.503470
  C      2.621890   -2.655300   -8.304750
  C      2.548920   -2.912890   -6.874630
  C      2.089220   -4.042850   -6.262480
  C      1.601960   -5.146110   -6.993290
  N      1.208760   -6.045120   -7.586920
  C      2.070260   -4.180090   -4.859060
  N      2.052700   -4.295630   -3.718170
  C      2.345010   -3.319950   -9.500690
  C      2.661900   -2.551090  -10.603950
  S      3.301700   -0.975200  -10.158490
  C      2.544250   -2.905410  -11.973080
  C      2.922700   -2.158320  -13.072030
  C      2.679710   -2.833560  -14.269460
  C      2.109710   -4.098590  -14.077350
  S      1.872540   -4.464860  -12.426480
  C      1.908130   -4.700410  -15.352480
  C      2.353590   -3.814190  -16.340520
  C      2.855240   -2.613350  -15.700190
  C      3.388910   -1.509900  -16.300400
  C      3.518980   -1.403960  -17.700730
  N      3.628310   -1.312050  -18.838620
  C      3.849510   -0.402090  -15.559090
  N      4.226660    0.499530  -14.958700
  C      2.192880   -4.333340  -17.639780
  C      1.639820   -5.577020  -17.611180
  S      1.299680   -6.152130  -16.011630
  H      9.599040   -2.058340   10.998710
  H      8.443010   -2.229370    8.658880
  H      8.204690    3.089810    5.520400
  H      9.824670    6.199610    7.335780
  H      9.572150    8.098770    5.675410
  H      8.685160    8.603820    3.309290
  H      7.721430    8.391620    0.993170
  H      6.643730    7.471430   -1.161930
  H      5.674900    5.133350   -2.154520
  H      5.938800    1.418990    1.678410
  H      4.947280   -0.208640    0.004570
  H      4.120770   -0.564010   -2.281520
  H      4.622250    1.841280   -4.102460
  H      3.141750   -1.799490   -4.048660
  H      1.941520   -4.313540   -9.579580
  H      3.355430   -1.177500  -12.988640
  H      2.468100   -3.822500  -18.544280
  H      1.403470   -6.210310  -18.442610

 Total Charge           Charge          ....    0
 Multiplicity           Mult            ....    1
 Number of Electrons    NEL             ....  514
 Basis Dimension        Dim             .... 1074

ORBITAL ENERGIES
----------------

  NO   OCC          E(Eh)            E(eV)
   0   2.0000     -88.990443     -2421.5531
   1   2.0000     -88.990421     -2421.5525
   2   2.0000     -88.986648     -2421.4498
   3   2.0000     -88.985673     -2421.4233
   4   2.0000     -88.980140     -2421.2727
   5   2.0000     -88.977089     -2421.1897
   6   2.0000     -88.941761     -2420.2283
   7   2.0000     -88.930442     -2419.9203
   8   2.0000     -14.429948      -392.6588
   9   2.0000     -14.429318      -392.6417
  10   2.0000     -14.429029      -392.6338
  11   2.0000     -14.428130      -392.6094
  12   2.0000     -14.427467      -392.5913
  13   2.0000     -14.422670      -392.4608
  14   2.0000     -14.399154      -391.8209
  15   2.0000     -14.396546      -391.7499
  16   2.0000     -10.363281      -281.9992
  17   2.0000     -10.362366      -281.9743
  18   2.0000     -10.355677      -281.7923
  19   2.0000     -10.351017      -281.6655
  20   2.0000     -10.350165      -281.6423
  21   2.0000     -10.344242      -281.4811
  22   2.0000     -10.331165      -281.1253
  23   2.0000     -10.330998      -281.1207
  24   2.0000     -10.330465      -281.1063
  25   2.0000     -10.330091      -281.0961
  26   2.0000     -10.329918      -281.0914
  27   2.0000     -10.329447      -281.0785
  28   2.0000     -10.329255      -281.0733
  29   2.0000     -10.329187      -281.0715
  30   2.0000     -10.328726      -281.0589
  31   2.0000     -10.328600      -281.0555
  32   2.0000     -10.328524      -281.0534
  33   2.0000     -10.328430      -281.0509
  34   2.0000     -10.323449      -280.9153
  35   2.0000     -10.323181      -280.9080
  36   2.0000     -10.318964      -280.7933
  37   2.0000     -10.317515      -280.7538
  38   2.0000     -10.317095      -280.7424
  39   2.0000     -10.314334      -280.6673
  40   2.0000     -10.310365      -280.5593
  41   2.0000     -10.308655      -280.5128
  42   2.0000     -10.308270      -280.5023
  43   2.0000     -10.304981      -280.4128
  44   2.0000     -10.303325      -280.3677
  45   2.0000     -10.302576      -280.3473
  46   2.0000     -10.301700      -280.3235
  47   2.0000     -10.301569      -280.3199
  48   2.0000     -10.301130      -280.3080
  49   2.0000     -10.300369      -280.2873
  50   2.0000     -10.300041      -280.2784
  51   2.0000     -10.297884      -280.2197
  52   2.0000     -10.296857      -280.1917
  53   2.0000     -10.296394      -280.1791
  54   2.0000     -10.292921      -280.0846
  55   2.0000     -10.290286      -280.0129
  56   2.0000     -10.289721      -279.9975
  57   2.0000     -10.289269      -279.9852
  58   2.0000     -10.288360      -279.9605
  59   2.0000     -10.287256      -279.9305
  60   2.0000     -10.286559      -279.9115
  61   2.0000     -10.285723      -279.8887
  62   2.0000     -10.284223      -279.8479
  63   2.0000     -10.282029      -279.7882
  64   2.0000     -10.278581      -279.6944
  65   2.0000     -10.276541      -279.6389
  66   2.0000     -10.270759      -279.4816
  67   2.0000     -10.261250      -279.2228
  68   2.0000      -8.084837      -219.9996
  69   2.0000      -8.084781      -219.9981
  70   2.0000      -8.081567      -219.9106
  71   2.0000      -8.080413      -219.8792
  72   2.0000      -8.075027      -219.7327
  73   2.0000      -8.071743      -219.6433
  74   2.0000      -8.037521      -218.7121
  75   2.0000      -8.023328      -218.3258
  76   2.0000      -6.054145      -164.7417
  77   2.0000      -6.054070      -164.7396
  78   2.0000      -6.050804      -164.6507
  79   2.0000      -6.049970      -164.6281
  80   2.0000      -6.049923      -164.6268
  81   2.0000      -6.049529      -164.6160
  82   2.0000      -6.047105      -164.5501
  83   2.0000      -6.047083      -164.5495
  84   2.0000      -6.046389      -164.5306
  85   2.0000      -6.045411      -164.5040
  86   2.0000      -6.044277      -164.4731
  87   2.0000      -6.044225      -164.4717
  88   2.0000      -6.042992      -164.4382
  89   2.0000      -6.040957      -164.3828
  90   2.0000      -6.039894      -164.3539
  91   2.0000      -6.037658      -164.2930
  92   2.0000      -6.036934      -164.2733
  93   2.0000      -6.034068      -164.1953
  94   2.0000      -6.007303      -163.4670
  95   2.0000      -6.003080      -163.3521
  96   2.0000      -5.998559      -163.2291
  97   2.0000      -5.993688      -163.0965
  98   2.0000      -5.988616      -162.9585
  99   2.0000      -5.984306      -162.8412
 100   2.0000      -1.072929       -29.1959
 101   2.0000      -1.044256       -28.4156
 102   2.0000      -1.040956       -28.3259
 103   2.0000      -1.033514       -28.1233
 104   2.0000      -1.021431       -27.7946
 105   2.0000      -1.019977       -27.7550
 106   2.0000      -1.015505       -27.6333
 107   2.0000      -1.007167       -27.4064
 108   2.0000      -1.006311       -27.3831
 109   2.0000      -1.001916       -27.2635
 110   2.0000      -1.001900       -27.2631
 111   2.0000      -0.990629       -26.9564
 112   2.0000      -0.987896       -26.8820
 113   2.0000      -0.982766       -26.7424
 114   2.0000      -0.975688       -26.5498
 115   2.0000      -0.962042       -26.1785
 116   2.0000      -0.959525       -26.1100
 117   2.0000      -0.952296       -25.9133
 118   2.0000      -0.947944       -25.7949
 119   2.0000      -0.919281       -25.0149
 120   2.0000      -0.907992       -24.7077
 121   2.0000      -0.905425       -24.6379
 122   2.0000      -0.899254       -24.4699
 123   2.0000      -0.881714       -23.9927
 124   2.0000      -0.873376       -23.7658
 125   2.0000      -0.866810       -23.5871
 126   2.0000      -0.864313       -23.5191
 127   2.0000      -0.855833       -23.2884
 128   2.0000      -0.852876       -23.2079
 129   2.0000      -0.848324       -23.0841
 130   2.0000      -0.843719       -22.9587
 131   2.0000      -0.843236       -22.9456
 132   2.0000      -0.837440       -22.7879
 133   2.0000      -0.820852       -22.3365
 134   2.0000      -0.814055       -22.1516
 135   2.0000      -0.800420       -21.7805
 136   2.0000      -0.786526       -21.4025
 137   2.0000      -0.774672       -21.0799
 138   2.0000      -0.772936       -21.0327
 139   2.0000      -0.771478       -20.9930
 140   2.0000      -0.768478       -20.9113
 141   2.0000      -0.751641       -20.4532
 142   2.0000      -0.742138       -20.1946
 143   2.0000      -0.721827       -19.6419
 144   2.0000      -0.710584       -19.3360
 145   2.0000      -0.701744       -19.0954
 146   2.0000      -0.701015       -19.0756
 147   2.0000      -0.694654       -18.9025
 148   2.0000      -0.688263       -18.7286
 149   2.0000      -0.683391       -18.5960
 150   2.0000      -0.676878       -18.4188
 151   2.0000      -0.674599       -18.3568
 152   2.0000      -0.672094       -18.2886
 153   2.0000      -0.662815       -18.0361
 154   2.0000      -0.658917       -17.9300
 155   2.0000      -0.643849       -17.5200
 156   2.0000      -0.636988       -17.3333
 157   2.0000      -0.628646       -17.1063
 158   2.0000      -0.626350       -17.0438
 159   2.0000      -0.622931       -16.9508
 160   2.0000      -0.621491       -16.9116
 161   2.0000      -0.618911       -16.8414
 162   2.0000      -0.617360       -16.7992
 163   2.0000      -0.614722       -16.7274
 164   2.0000      -0.610176       -16.6037
 165   2.0000      -0.604642       -16.4532
 166   2.0000      -0.595571       -16.2063
 167   2.0000      -0.592918       -16.1341
 168   2.0000      -0.585232       -15.9250
 169   2.0000      -0.576449       -15.6860
 170   2.0000      -0.567055       -15.4303
 171   2.0000      -0.562683       -15.3114
 172   2.0000      -0.557995       -15.1838
 173   2.0000      -0.547549       -14.8996
 174   2.0000      -0.547290       -14.8925
 175   2.0000      -0.542948       -14.7744
 176   2.0000      -0.536453       -14.5976
 177   2.0000      -0.535867       -14.5817
 178   2.0000      -0.534165       -14.5354
 179   2.0000      -0.527595       -14.3566
 180   2.0000      -0.521598       -14.1934
 181   2.0000      -0.517732       -14.0882
 182   2.0000      -0.516262       -14.0482
 183   2.0000      -0.511673       -13.9233
 184   2.0000      -0.507606       -13.8127
 185   2.0000      -0.504493       -13.7280
 186   2.0000      -0.503156       -13.6916
 187   2.0000      -0.501408       -13.6440
 188   2.0000      -0.498312       -13.5597
 189   2.0000      -0.497704       -13.5432
 190   2.0000      -0.496037       -13.4979
 191   2.0000      -0.492009       -13.3883
 192   2.0000      -0.491647       -13.3784
 193   2.0000      -0.489946       -13.3321
 194   2.0000      -0.489429       -13.3180
 195   2.0000      -0.487490       -13.2653
 196   2.0000      -0.485683       -13.2161
 197   2.0000      -0.480774       -13.0825
 198   2.0000      -0.479227       -13.0404
 199   2.0000      -0.476973       -12.9791
 200   2.0000      -0.473639       -12.8884
 201   2.0000      -0.472218       -12.8497
 202   2.0000      -0.469933       -12.7875
 203   2.0000      -0.466294       -12.6885
 204   2.0000      -0.460928       -12.5425
 205   2.0000      -0.460278       -12.5248
 206   2.0000      -0.459999       -12.5172
 207   2.0000      -0.457856       -12.4589
 208   2.0000      -0.456872       -12.4321
 209   2.0000      -0.456149       -12.4124
 210   2.0000      -0.454855       -12.3772
 211   2.0000      -0.453794       -12.3484
 212   2.0000      -0.451243       -12.2789
 213   2.0000      -0.450744       -12.2654
 214   2.0000      -0.446886       -12.1604
 215   2.0000      -0.442410       -12.0386
 216   2.0000      -0.439971       -11.9722
 217   2.0000      -0.439766       -11.9666
 218   2.0000      -0.439539       -11.9605
 219   2.0000      -0.439101       -11.9486
 220   2.0000      -0.439010       -11.9461
 221   2.0000      -0.436792       -11.8857
 222   2.0000      -0.435234       -11.8433
 223   2.0000      -0.435106       -11.8398
 224   2.0000      -0.434522       -11.8239
 225   2.0000      -0.431706       -11.7473
 226   2.0000      -0.430826       -11.7234
 227   2.0000      -0.430322       -11.7097
 228   2.0000      -0.425391       -11.5755
 229   2.0000      -0.423462       -11.5230
 230   2.0000      -0.419748       -11.4219
 231   2.0000      -0.418797       -11.3960
 232   2.0000      -0.414033       -11.2664
 233   2.0000      -0.408793       -11.1238
 234   2.0000      -0.404594       -11.0096
 235   2.0000      -0.402339       -10.9482
 236   2.0000      -0.391014       -10.6400
 237   2.0000      -0.387270       -10.5382
 238   2.0000      -0.374925       -10.2022
 239   2.0000      -0.367853       -10.0098
 240   2.0000      -0.350542        -9.5387
 241   2.0000      -0.350008        -9.5242
 242   2.0000      -0.348868        -9.4932
 243   2.0000      -0.344722        -9.3804
 244   2.0000      -0.338582        -9.2133
 245   2.0000      -0.333024        -9.0621
 246   2.0000      -0.329873        -8.9763
 247   2.0000      -0.320793        -8.7292
 248   2.0000      -0.319696        -8.6994
 249   2.0000      -0.315049        -8.5729
 250   2.0000      -0.313033        -8.5181
 251   2.0000      -0.304928        -8.2975
 252   2.0000      -0.297249        -8.0886
 253   2.0000      -0.283174        -7.7056
 254   2.0000      -0.267368        -7.2755
 255   2.0000      -0.243440        -6.6243
 256   2.0000      -0.212250        -5.7756
 257   0.0000      -0.104527        -2.8443
 258   0.0000      -0.099896        -2.7183
 259   0.0000      -0.097469        -2.6523
 260   0.0000      -0.072846        -1.9822
 261   0.0000      -0.051001        -1.3878

MULLIKEN ATOMIC CHARGES
-----------------------
   0 C :   -0.086774
   1 C :    0.042146
   2 C :   -0.045375
   3 C :   -0.115659
   4 S :    0.174464
   5 C :   -0.104716
   6 C :   -0.006231
   7 C :    0.320123
   8 C :   -0.311409
   9 C :   -0.183184
  10 N :    0.191091
  11 C :   -0.199275
  12 N :    0.170491
  13 C :   -0.041608
  14 C :   -0.095867
  15 S :    0.171049
  16 C :    0.024377
  17 C :   -0.024511
  18 C :    0.032445
  19 C :    0.034201
  20 C :   -0.040582
  21 S :    0.054839
  22 C :   -0.033283
  23 C :    0.031629
  24 C :    0.038561
  25 C :    0.023668
  26 S :    0.129609
  27 C :   -0.035222
  28 C :    0.033794
  29 N :   -0.184589
  30 C :    0.121977
  31 C :   -0.063984
  32 C :    0.053947
  33 N :   -0.065704
  34 C :   -0.016716
  35 C :    0.079878
  36 C :   -0.069961
  37 C :   -0.025002
  38 C :   -0.000192
  39 C :   -0.101399
  40 S :    0.198824
  41 C :   -0.100535
  42 C :    0.013218
  43 C :    0.301003
  44 C :   -0.297155
  45 C :   -0.189129
  46 N :    0.171530
  47 C :   -0.185965
  48 N :    0.170413
  49 C :   -0.062839
  50 C :   -0.052179
  51 S :    0.194029
  52 C :   -0.054582
  53 C :   -0.062308
  54 C :    0.013735
  55 C :   -0.102436
  56 S :    0.193224
  57 C :   -0.115957
  58 C :   -0.034365
  59 C :    0.297158
  60 C :   -0.296445
  61 C :   -0.190934
  62 N :    0.173475
  63 C :   -0.187924
  64 N :    0.169492
  65 C :    0.040141
  66 C :   -0.082404
  67 S :    0.184469
  68 H :    0.033447
  69 H :    0.009380
  70 H :    0.025082
  71 H :   -0.020916
  72 H :   -0.013871
  73 H :   -0.013855
  74 H :   -0.019218
  75 H :   -0.014067
  76 H :   -0.026228
  77 H :    0.001660
  78 H :   -0.005873
  79 H :   -0.014790
  80 H :    0.001725
  81 H :    0.007287
  82 H :    0.009801
  83 H :    0.010281
  84 H :    0.011336
  85 H :    0.036216
Sum of atomic charges:   -0.0000000

LOEWDIN ATOMIC CHARGES
----------------------
   0 C :   -0.183250
   1 C :   -0.033336
   2 C :   -0.085190
   3 C :   -0.175449
   4 S :    0.470301
   5 C :   -0.195215
   6 C :   -0.065638
   7 C :    0.088568
   8 C :   -0.110554
   9 C :   -0.005771
  10 N :   -0.038146
  11 C :   -0.016483
  12 N :   -0.038233
  13 C :   -0.045773
  14 C :   -0.158468
  15 S :    0.463314
  16 C :   -0.089212
  17 C :   -0.142231
  18 C :   -0.033077
  19 C :   -0.032318
  20 C :   -0.172649
  21 S :    0.396737
  22 C :   -0.190717
  23 C :   -0.025169
  24 C :   -0.032450
  25 C :   -0.117751
  26 S :    0.427245
  27 C :   -0.083620
  28 C :    0.028953
  29 N :   -0.113262
  30 C :    0.069130
  31 C :   -0.075032
  32 C :    0.035686
  33 N :   -0.098629
  34 C :   -0.033733
  35 C :   -0.008286
  36 C :   -0.165444
  37 C :   -0.021380
  38 C :   -0.070609
  39 C :   -0.184032
  40 S :    0.485492
  41 C :   -0.178791
  42 C :   -0.069209
  43 C :    0.083747
  44 C :   -0.103391
  45 C :   -0.015919
  46 N :   -0.035243
  47 C :   -0.016231
  48 N :   -0.033183
  49 C :   -0.040222
  50 C :   -0.179329
  51 S :    0.483951
  52 C :   -0.181193
  53 C :   -0.039938
  54 C :   -0.069292
  55 C :   -0.180638
  56 S :    0.483832
  57 C :   -0.183309
  58 C :   -0.078288
  59 C :    0.084087
  60 C :   -0.104295
  61 C :   -0.017035
  62 N :   -0.033135
  63 C :   -0.015890
  64 N :   -0.036318
  65 C :   -0.033635
  66 C :   -0.178251
  67 S :    0.479500
  68 H :    0.026110
  69 H :    0.041667
  70 H :    0.023756
  71 H :    0.031490
  72 H :    0.032369
  73 H :    0.032376
  74 H :    0.027850
  75 H :    0.032224
  76 H :    0.032441
  77 H :    0.027695
  78 H :    0.032659
  79 H :    0.028871
  80 H :    0.033572
  81 H :    0.040024
  82 H :    0.035156
  83 H :    0.034853
  84 H :    0.042458
  85 H :    0.027730

  Mayer bond orders larger than 0.100000
B(  0-C ,  1-C ) :   1.5568 B(  0-C ,  4-S ) :   1.1370 B(  0-C , 68-H ) :   0.9640
B(  1-C ,  2-C ) :   1.2720 B(  1-C , 69-H ) :   0.9949 B(  2-C ,  3-C ) :   1.4427
B(  2-C ,  7-C ) :   1.0263 B(  3-C ,  4-S ) :   1.1399 B(  3-C ,  5-C ) :   1.1987
B(  5-C ,  6-C ) :   1.4451 B(  5-C , 15-S ) :   1.1115 B(  6-C ,  7-C ) :   0.9907
B(  6-C , 13-C ) :   1.3377 B(  7-C ,  8-C ) :   1.6898 B(  8-C ,  9-C ) :   1.1313
B(  8-C , 11-C ) :   1.1373 B(  9-C , 10-N ) :   2.9846 B( 11-C , 12-N ) :   3.0027
B( 13-C , 14-C ) :   1.4119 B( 13-C , 70-H ) :   0.9686 B( 14-C , 15-S ) :   1.0995
B( 14-C , 16-C ) :   1.1740 B( 16-C , 17-C ) :   1.5911 B( 16-C , 71-H ) :   0.9509
B( 17-C , 18-C ) :   1.1441 B( 17-C , 21-S ) :   1.0478 B( 18-C , 19-C ) :   1.5934
B( 18-C , 72-H ) :   0.9988 B( 19-C , 20-C ) :   1.1785 B( 19-C , 73-H ) :   0.9932
B( 20-C , 21-S ) :   1.0381 B( 20-C , 22-C ) :   1.5421 B( 22-C , 23-C ) :   1.1655
B( 22-C , 26-S ) :   0.9728 B( 23-C , 24-C ) :   1.6138 B( 23-C , 74-H ) :   0.9951
B( 24-C , 25-C ) :   1.1182 B( 24-C , 75-H ) :   1.0004 B( 25-C , 26-S ) :   1.0663
B( 25-C , 27-C ) :   1.5638 B( 26-S , 29-N ) :   0.1323 B( 27-C , 28-C ) :   1.0987
B( 27-C , 76-H ) :   0.9848 B( 28-C , 29-N ) :   1.3866 B( 28-C , 33-N ) :   1.5045
B( 29-N , 30-C ) :   1.4974 B( 30-C , 31-C ) :   1.3818 B( 30-C , 77-H ) :   0.9669
B( 31-C , 32-C ) :   1.3110 B( 31-C , 78-H ) :   0.9789 B( 32-C , 33-N ) :   1.5273
B( 32-C , 34-C ) :   1.0771 B( 34-C , 35-C ) :   1.7360 B( 34-C , 79-H ) :   0.9744
B( 35-C , 36-C ) :   1.0777 B( 35-C , 80-H ) :   0.9545 B( 36-C , 37-C ) :   1.4678
B( 36-C , 40-S ) :   1.1056 B( 37-C , 38-C ) :   1.2956 B( 37-C , 81-H ) :   0.9929
B( 38-C , 39-C ) :   1.4361 B( 38-C , 43-C ) :   0.9995 B( 39-C , 40-S ) :   1.1337
B( 39-C , 41-C ) :   1.1824 B( 41-C , 42-C ) :   1.4533 B( 41-C , 51-S ) :   1.1199
B( 42-C , 43-C ) :   0.9949 B( 42-C , 49-C ) :   1.2952 B( 43-C , 44-C ) :   1.7101
B( 44-C , 45-C ) :   1.1347 B( 44-C , 47-C ) :   1.1322 B( 45-C , 46-N ) :   2.9915
B( 47-C , 48-N ) :   2.9909 B( 49-C , 50-C ) :   1.4689 B( 49-C , 82-H ) :   0.9856
B( 50-C , 51-S ) :   1.1087 B( 50-C , 52-C ) :   1.1610 B( 52-C , 53-C ) :   1.4685
B( 52-C , 56-S ) :   1.1109 B( 53-C , 54-C ) :   1.2957 B( 53-C , 83-H ) :   0.9854
B( 54-C , 55-C ) :   1.4659 B( 54-C , 59-C ) :   0.9913 B( 55-C , 56-S ) :   1.1215
B( 55-C , 57-C ) :   1.1795 B( 57-C , 58-C ) :   1.4579 B( 57-C , 67-S ) :   1.1389
B( 58-C , 59-C ) :   1.0160 B( 58-C , 65-C ) :   1.2775 B( 59-C , 60-C ) :   1.7100
B( 60-C , 61-C ) :   1.1291 B( 60-C , 63-C ) :   1.1341 B( 61-C , 62-N ) :   3.0033
B( 63-C , 64-N ) :   2.9903 B( 65-C , 66-C ) :   1.5494 B( 65-C , 84-H ) :   0.9959
B( 66-C , 67-S ) :   1.1492 B( 66-C , 85-H ) :   0.9643

-----------------------------------------------------------------------------
         ABSORPTION SPECTRUM VIA TRANSITION ELECTRIC DIPOLE MOMENTS
-----------------------------------------------------------------------------
State   Energy  Wavelength   fosc         T2         TX        TY        TZ
        (cm-1)    (nm)                  (au**2)     (au)      (au)      (au)
-----------------------------------------------------------------------------
   0    8729.1   1145.6   0.112471543   4.24180   0.49360  -0.97264   1.74703
   1   11827.9    845.5   0.189091383   5.26309  -0.46307  -0.75420  -2.11656
   2   13381.3    747.3   0.079553198   1.95721  -0.20122  -0.41360  -1.32123
   3   15261.3    655.3   0.107522607   2.31944  -0.59065  -0.02004  -1.40363
   4   16065.4    622.5   1.001469520  20.52214  -1.62156   0.35467  -4.21508
   5   18890.2    529.4   0.000558374   0.00973  -0.02668   0.04412  -0.08410
   6   19474.9    513.5   0.014622409   0.24718   0.17992   0.41213   0.21204
   7   23117.0    432.6   0.017226664   0.24533   0.01105  -0.46845  -0.16050
   8   23204.8    430.9   0.032812483   0.46552  -0.07025   0.20882  -0.64574
   9   24224.1    412.8   0.514706992   6.99501   0.48526   1.08337   2.36344
  10   24440.8    409.2   0.050464414   0.67974  -0.11366  -0.47262  -0.66592
  11   25776.0    388.0   0.102280645   1.30633  -0.31797  -0.91926  -0.60015
  12   26317.7    380.0   1.493487951  18.68228   0.80231   1.92236   3.78723
  13   26592.0    376.1   0.017844087   0.22091   0.12491   0.16179   0.42324
  14   27737.6    360.5   0.010642607   0.12631   0.05466   0.33089  -0.11764
  15   28090.1    356.0   0.039032006   0.45745   0.03186   0.07631   0.67128
  16   28773.5    347.5   0.612230201   7.00483  -0.46145  -2.49778   0.74362
  17   29034.5    344.4   0.134637256   1.52660  -0.34535  -1.17275   0.17885
  18   29738.4    336.3   0.001885276   0.02087  -0.12748   0.03116  -0.06041
  19   30783.9    324.8   0.485808247   5.19537   0.97458   1.98025  -0.56934
  20   31014.0    322.4   0.265698358   2.82037  -0.42750  -0.87875  -1.36580
  21   31158.1    320.9   0.005704284   0.06027  -0.08120  -0.12991  -0.19183
  22   31303.5    319.5   0.388853536   4.08948  -0.78077  -1.68416   0.80218
  23   31449.5    318.0   0.001599199   0.01674  -0.06334  -0.01162  -0.11222
  24   31608.8    316.4   0.366466614   3.81682   0.96868   0.39821   1.64921
  25   31817.4    314.3   0.473405412   4.89829   0.97972   1.92154  -0.49610
  26   32668.6    306.1   0.136900707   1.37959  -0.01367   0.88652  -0.77038
  27   32694.0    305.9   0.111386573   1.12160  -0.31232   0.74709  -0.68259
  28   32828.5    304.6   0.267641703   2.68397  -0.15207  -1.06015   1.23973
  29   32916.4    303.8   0.132500844   1.32520  -0.25468  -0.76744   0.81937
  30   33206.2    301.1   0.183171126   1.81599   0.22683   0.73859   1.10409
  31   33636.8    297.3   0.003160988   0.03094   0.17091  -0.03912   0.01405
  32   33829.6    295.6   0.056374044   0.54860   0.17220   0.47745   0.53943
  33   34153.7    292.8   0.150065927   1.44650  -0.52063  -0.86237  -0.65710
  34   34477.0    290.0   0.101501770   0.96921   0.14470   0.23755  -0.94438
  35   34708.3    288.1   0.053127290   0.50392   0.06970  -0.59282   0.38422
  36   35090.2    285.0   0.147021521   1.37934  -0.28960  -0.53536  -1.00442
  37   35645.9    280.5   0.025144050   0.23222  -0.18075  -0.39159   0.21496
  38   35762.3    279.6   0.010486814   0.09654   0.03872  -0.08710  -0.29572
  39   35921.2    278.4   0.058374269   0.53499   0.00199  -0.61019   0.40330
  40   36150.5    276.6   0.038226546   0.34812   0.26597   0.37477   0.37004
  41   36384.2    274.8   0.000272473   0.00247   0.04090   0.02175  -0.01788
  42   36537.3    273.7   0.046353523   0.41766   0.28108   0.43261   0.38923
  43   37007.0    270.2   0.000957149   0.00851   0.01179  -0.01315  -0.09057
  44   37174.6    269.0   0.005720129   0.05066   0.02244  -0.22325   0.01767
  45   37420.1    267.2   0.000502007   0.00442   0.06452   0.00975   0.01261
  46   37450.6    267.0   0.051889063   0.45613  -0.29480  -0.33279  -0.50841
  47   38268.0    261.3   0.000114488   0.00098  -0.02483   0.01910  -0.00194
  48   38562.2    259.3   0.033260413   0.28395   0.03896   0.52265  -0.09627
  49   38942.6    256.8   0.011866219   0.10031  -0.14022   0.00981  -0.28382
  50   38992.6    256.5   0.000800532   0.00676   0.01830   0.05072   0.06206
  51   39245.1    254.8   0.008682548   0.07283  -0.08564  -0.14065  -0.21382
  52   39339.2    254.2   0.000727570   0.00609   0.01443   0.05809   0.05006
  53   39355.3    254.1   0.000288271   0.00241   0.02114  -0.03563  -0.02636
  54   39551.8    252.8   0.011220084   0.09339  -0.10510  -0.28287   0.04825
  55   40023.4    249.9   0.000463897   0.00382   0.00035   0.05742   0.02276
  56   40086.2    249.5   0.003071447   0.02522  -0.06338  -0.10910  -0.09646

FINAL SINGLE POINT ENERGY     -5611.615529275260

DIPOLE MOMENT
-------------
                                X             Y             Z
Electronic contribution:     -8.73167     -21.52172     -23.88563
Nuclear contribution   :      9.55426      22.51640      25.04378
                        -----------------------------------------
Total Dipole Moment    :      0.82259       0.99469       1.15815
                        -----------------------------------------
Magnitude (a.u.)       :      1.73418
Magnitude (Debye)      :      4.40794

Rotational constants in cm-1:     0.001911     0.000181     0.000168
Rotational constants in MHz :    57.275667     5.413684     5.028754

                             ****ORCA TERMINATED NORMALLY****
TOTAL RUN TIME: 0 days 0 hours 7 minutes 55 seconds 929 msec
