                         Program Version 4.2.0 -  RELEASE  -
|  1> # ORCA input file
|  2> # SCF done       -220.952503856132          0.000612207867
|  3> ! CAM-B3LYP def2-SVP def2/J RIJCOSX Grid4 TightSCF
|  4> %maxcore 5000
|  5> %tddft
|  6>     Mode sTDDFT
|  7>     Ethresh 5.0
|  8>     maxcore 5000
|  9> end
| 10>
| 11> %pal
| 12>   nprocs 6
| 13>   end
| 14> * xyz 0 1
| 15>    C       -1.16865        -4.47928        11.07504
| 16>    C       -0.95774        -5.32456        12.12852
| 17>    F       -0.43864        -4.85710        13.27152
| 18>    C       -1.27921        -6.69338        12.02807
| 19>    F       -1.05582        -7.49636        13.07727
| 20>    C       -1.81258        -7.19885        10.87564
| 21>    C       -2.04546        -6.35146         9.77544
| 22>    C       -1.71579        -4.96874         9.87223
| 23>    C       -1.92982        -4.10601         8.77211
| 24>    C       -2.45926        -4.61177         7.61453
| 25>    C       -2.79381        -5.99347         7.53202
| 26>    C       -2.59760        -6.85139         8.57555
| 27>    C       -3.33702        -6.27943         6.19559
| 28>    O       -3.78376        -7.34880         5.81160
| 29>    C       -3.21740        -5.03146         5.43172
| 30>    C       -2.76852        -3.98445         6.33277
| 31>    C       -2.69827        -2.64297         6.06633
| 32>    C       -3.07535        -2.03311         4.85064
| 33>    N       -3.38075        -1.46686         3.89968
| 34>    C       -2.27240        -1.67597         7.00170
| 35>    N       -1.93003        -0.84552         7.71602
| 36>    C       -3.34996        -4.90911         4.07245
| 37>    C       -3.74253        -5.86001         3.11786
| 38>    C       -3.62938        -5.62858         1.74039
| 39>    C       -4.04869        -6.71042         0.99012
| 40>    C       -4.52949        -7.76302         1.80398
| 41>    S       -4.41207        -7.45035         3.46683
| 42>    C       -4.90317        -8.82996         0.94950
| 43>    C       -4.65096        -8.47465        -0.38369
| 44>    C       -4.11631        -7.12247        -0.40617
| 45>    C       -3.73466        -6.40294        -1.49951
| 46>    C       -3.82551        -6.91966        -2.80965
| 47>    N       -3.89189        -7.33893        -3.87454
| 48>    C       -3.20987        -5.09705        -1.39352
| 49>    N       -2.77512        -4.03936        -1.31502
| 50>    C       -4.93743        -9.50881        -1.28394
| 51>    C       -5.38509       -10.64241        -0.64235
| 52>    S       -5.50849       -10.41286         1.09644
| 53>    C       -5.77132       -11.89805        -1.24154
| 54>    C       -6.27813       -12.01692        -2.50513
| 55>    F       -6.47315       -11.02677        -3.37026
| 56>    S       -6.73826       -13.62244        -2.95898
| 57>    C       -6.24645       -14.15846        -1.38913
| 58>    F       -6.33677       -15.45221        -1.09029
| 59>    C       -5.73986       -13.18290        -0.57976
| 60>    C       -5.20898       -13.35361         0.74797
| 61>    C       -5.58429       -14.26567         1.66386
| 62>    C       -5.13552       -14.19076         3.01816
| 63>    C       -4.53120       -13.10871         3.63654
| 64>    C       -4.34092       -13.31926         4.99869
| 65>    C       -4.79060       -14.58042         5.42518
| 66>    S       -5.45697       -15.49367         4.14380
| 67>    C       -4.57201       -14.68003         6.82128
| 68>    C       -4.01333       -13.46905         7.28165
| 69>    C       -3.84809       -12.57523         6.14846
| 70>    C       -3.35769       -11.30108         6.14082
| 71>    C       -2.96454       -10.63518         7.31832
| 72>    N       -2.65705       -10.08984         8.27936
| 73>    C       -3.21982       -10.57475         4.93911
| 74>    N       -3.09752       -10.01829         3.94374
| 75>    C       -3.78301       -13.47243         8.65358
| 76>    C       -4.11207       -14.68398         9.24105
| 77>    S       -4.78243       -15.81726         8.06582
| 78>    C       -4.03400       -14.99295        10.61879
| 79>    C       -4.01937       -16.21123        11.22525
| 80>    C       -4.42917       -16.32718        12.65359
| 81>    O       -4.56873       -15.42226        13.44147
| 82>    C       -4.68777       -17.76695        12.86219
| 83>    C       -5.20593       -18.39606        13.95736
| 84>    C       -5.38998       -19.79671        13.92193
| 85>    C       -5.03567       -20.52046        12.74605
| 86>    C       -5.22599       -21.91663        12.71645
| 87>    C       -5.74157       -22.56443        13.80363
| 88>    C       -6.09169       -21.84795        14.96621
| 89>    C       -5.91979       -20.49335        15.02564
| 90>    F       -6.59740       -22.50900        16.01514
| 91>    F       -5.92072       -23.89077        13.77454
| 92>    C       -4.49575       -19.84307        11.62908
| 93>    C       -4.31945       -18.48693        11.68949
| 94>    C       -3.75846       -17.54444        10.72615
| 95>    C       -2.90046       -17.87212         9.70870
| 96>    C       -2.15922       -16.91613         8.98459
| 97>    N       -1.51727       -16.16303         8.40263
| 98>    C       -2.59890       -19.19707         9.33424
| 99>    N       -2.33905       -20.25752         8.98107
|100>    H       -0.91458        -3.43503        11.16938
|101>    H       -2.05152        -8.24827        10.80481
|102>    H       -1.65930        -3.06732         8.87171
|103>    H       -2.84502        -7.89889         8.48823
|104>    H       -3.07044        -3.95721         3.63588
|105>    H       -3.23869        -4.70808         1.34405
|106>    H       -4.80206        -9.44923        -2.34834
|107>    H       -4.45454       -12.63186         1.02103
|108>    H       -6.28705       -15.04884         1.41962
|109>    H       -4.27748       -12.19956         3.12611
|110>    H       -3.36428       -12.65566         9.21332
|111>    H       -4.07082       -14.14066        11.29119
|112>    H       -5.47169       -17.83364        14.83939
|113>    H       -4.95952       -22.48025        11.83603
|114>    H       -6.19245       -19.95997        15.92275
|115>    H       -4.24382       -20.41174        10.74804
|116> *
|117>
|118>                          ****END OF INPUT****

CARTESIAN COORDINATES (ANGSTROEM)
---------------------------------
  C     -1.168650   -4.479280   11.075040
  C     -0.957740   -5.324560   12.128520
  F     -0.438640   -4.857100   13.271520
  C     -1.279210   -6.693380   12.028070
  F     -1.055820   -7.496360   13.077270
  C     -1.812580   -7.198850   10.875640
  C     -2.045460   -6.351460    9.775440
  C     -1.715790   -4.968740    9.872230
  C     -1.929820   -4.106010    8.772110
  C     -2.459260   -4.611770    7.614530
  C     -2.793810   -5.993470    7.532020
  C     -2.597600   -6.851390    8.575550
  C     -3.337020   -6.279430    6.195590
  O     -3.783760   -7.348800    5.811600
  C     -3.217400   -5.031460    5.431720
  C     -2.768520   -3.984450    6.332770
  C     -2.698270   -2.642970    6.066330
  C     -3.075350   -2.033110    4.850640
  N     -3.380750   -1.466860    3.899680
  C     -2.272400   -1.675970    7.001700
  N     -1.930030   -0.845520    7.716020
  C     -3.349960   -4.909110    4.072450
  C     -3.742530   -5.860010    3.117860
  C     -3.629380   -5.628580    1.740390
  C     -4.048690   -6.710420    0.990120
  C     -4.529490   -7.763020    1.803980
  S     -4.412070   -7.450350    3.466830
  C     -4.903170   -8.829960    0.949500
  C     -4.650960   -8.474650   -0.383690
  C     -4.116310   -7.122470   -0.406170
  C     -3.734660   -6.402940   -1.499510
  C     -3.825510   -6.919660   -2.809650
  N     -3.891890   -7.338930   -3.874540
  C     -3.209870   -5.097050   -1.393520
  N     -2.775120   -4.039360   -1.315020
  C     -4.937430   -9.508810   -1.283940
  C     -5.385090  -10.642410   -0.642350
  S     -5.508490  -10.412860    1.096440
  C     -5.771320  -11.898050   -1.241540
  C     -6.278130  -12.016920   -2.505130
  F     -6.473150  -11.026770   -3.370260
  S     -6.738260  -13.622440   -2.958980
  C     -6.246450  -14.158460   -1.389130
  F     -6.336770  -15.452210   -1.090290
  C     -5.739860  -13.182900   -0.579760
  C     -5.208980  -13.353610    0.747970
  C     -5.584290  -14.265670    1.663860
  C     -5.135520  -14.190760    3.018160
  C     -4.531200  -13.108710    3.636540
  C     -4.340920  -13.319260    4.998690
  C     -4.790600  -14.580420    5.425180
  S     -5.456970  -15.493670    4.143800
  C     -4.572010  -14.680030    6.821280
  C     -4.013330  -13.469050    7.281650
  C     -3.848090  -12.575230    6.148460
  C     -3.357690  -11.301080    6.140820
  C     -2.964540  -10.635180    7.318320
  N     -2.657050  -10.089840    8.279360
  C     -3.219820  -10.574750    4.939110
  N     -3.097520  -10.018290    3.943740
  C     -3.783010  -13.472430    8.653580
  C     -4.112070  -14.683980    9.241050
  S     -4.782430  -15.817260    8.065820
  C     -4.034000  -14.992950   10.618790
  C     -4.019370  -16.211230   11.225250
  C     -4.429170  -16.327180   12.653590
  O     -4.568730  -15.422260   13.441470
  C     -4.687770  -17.766950   12.862190
  C     -5.205930  -18.396060   13.957360
  C     -5.389980  -19.796710   13.921930
  C     -5.035670  -20.520460   12.746050
  C     -5.225990  -21.916630   12.716450
  C     -5.741570  -22.564430   13.803630
  C     -6.091690  -21.847950   14.966210
  C     -5.919790  -20.493350   15.025640
  F     -6.597400  -22.509000   16.015140
  F     -5.920720  -23.890770   13.774540
  C     -4.495750  -19.843070   11.629080
  C     -4.319450  -18.486930   11.689490
  C     -3.758460  -17.544440   10.726150
  C     -2.900460  -17.872120    9.708700
  C     -2.159220  -16.916130    8.984590
  N     -1.517270  -16.163030    8.402630
  C     -2.598900  -19.197070    9.334240
  N     -2.339050  -20.257520    8.981070
  H     -0.914580   -3.435030   11.169380
  H     -2.051520   -8.248270   10.804810
  H     -1.659300   -3.067320    8.871710
  H     -2.845020   -7.898890    8.488230
  H     -3.070440   -3.957210    3.635880
  H     -3.238690   -4.708080    1.344050
  H     -4.802060   -9.449230   -2.348340
  H     -4.454540  -12.631860    1.021030
  H     -6.287050  -15.048840    1.419620
  H     -4.277480  -12.199560    3.126110
  H     -3.364280  -12.655660    9.213320
  H     -4.070820  -14.140660   11.291190
  H     -5.471690  -17.833640   14.839390
  H     -4.959520  -22.480250   11.836030
  H     -6.192450  -19.959970   15.922750
  H     -4.243820  -20.411740   10.748040

 Total Charge           Charge          ....    0
 Multiplicity           Mult            ....    1
 Number of Electrons    NEL             ....  606
 Basis Dimension        Dim             .... 1290

ORBITAL ENERGIES
----------------

  NO   OCC          E(Eh)            E(eV)
   0   2.0000     -89.007951     -2422.0295
   1   2.0000     -89.006640     -2421.9938
   2   2.0000     -88.999531     -2421.8004
   3   2.0000     -88.999194     -2421.7912
   4   2.0000     -88.989369     -2421.5238
   5   2.0000     -24.827939      -675.6026
   6   2.0000     -24.825760      -675.5433
   7   2.0000     -24.804778      -674.9723
   8   2.0000     -24.804489      -674.9645
   9   2.0000     -24.794221      -674.6851
  10   2.0000     -24.794085      -674.6813
  11   2.0000     -19.226583      -523.1819
  12   2.0000     -19.225537      -523.1535
  13   2.0000     -14.451195      -393.2370
  14   2.0000     -14.447329      -393.1318
  15   2.0000     -14.431124      -392.6909
  16   2.0000     -14.429963      -392.6592
  17   2.0000     -14.427078      -392.5807
  18   2.0000     -14.426573      -392.5670
  19   2.0000     -14.415334      -392.2612
  20   2.0000     -14.413567      -392.2131
  21   2.0000     -10.405251      -283.1413
  22   2.0000     -10.404878      -283.1311
  23   2.0000     -10.388589      -282.6879
  24   2.0000     -10.388251      -282.6787
  25   2.0000     -10.381430      -282.4931
  26   2.0000     -10.377587      -282.3885
  27   2.0000     -10.377283      -282.3802
  28   2.0000     -10.376766      -282.3662
  29   2.0000     -10.373933      -282.2891
  30   2.0000     -10.370505      -282.1958
  31   2.0000     -10.365715      -282.0654
  32   2.0000     -10.358217      -281.8614
  33   2.0000     -10.355602      -281.7903
  34   2.0000     -10.354785      -281.7680
  35   2.0000     -10.354536      -281.7612
  36   2.0000     -10.353342      -281.7288
  37   2.0000     -10.348656      -281.6013
  38   2.0000     -10.346005      -281.5291
  39   2.0000     -10.342064      -281.4219
  40   2.0000     -10.341480      -281.4060
  41   2.0000     -10.340872      -281.3894
  42   2.0000     -10.339641      -281.3559
  43   2.0000     -10.339112      -281.3415
  44   2.0000     -10.336800      -281.2786
  45   2.0000     -10.335277      -281.2372
  46   2.0000     -10.332710      -281.1673
  47   2.0000     -10.331395      -281.1315
  48   2.0000     -10.329866      -281.0900
  49   2.0000     -10.329365      -281.0763
  50   2.0000     -10.328453      -281.0515
  51   2.0000     -10.328178      -281.0440
  52   2.0000     -10.326546      -280.9996
  53   2.0000     -10.325023      -280.9582
  54   2.0000     -10.322862      -280.8994
  55   2.0000     -10.322231      -280.8822
  56   2.0000     -10.320132      -280.8251
  57   2.0000     -10.318861      -280.7905
  58   2.0000     -10.318417      -280.7784
  59   2.0000     -10.318103      -280.7699
  60   2.0000     -10.317856      -280.7631
  61   2.0000     -10.317434      -280.7516
  62   2.0000     -10.316620      -280.7295
  63   2.0000     -10.314498      -280.6718
  64   2.0000     -10.314116      -280.6614
  65   2.0000     -10.312267      -280.6110
  66   2.0000     -10.311821      -280.5989
  67   2.0000     -10.311652      -280.5943
  68   2.0000     -10.311637      -280.5939
  69   2.0000     -10.311369      -280.5866
  70   2.0000     -10.310557      -280.5645
  71   2.0000     -10.308368      -280.5050
  72   2.0000     -10.307795      -280.4894
  73   2.0000     -10.307535      -280.4823
  74   2.0000     -10.306550      -280.4555
  75   2.0000     -10.304982      -280.4128
  76   2.0000     -10.304883      -280.4101
  77   2.0000     -10.304447      -280.3982
  78   2.0000     -10.303039      -280.3599
  79   2.0000     -10.300011      -280.2775
  80   2.0000     -10.299027      -280.2508
  81   2.0000     -10.296550      -280.1834
  82   2.0000     -10.295564      -280.1565
  83   2.0000     -10.294731      -280.1339
  84   2.0000     -10.289903      -280.0025
  85   2.0000      -8.102164      -220.4711
  86   2.0000      -8.101294      -220.4474
  87   2.0000      -8.096484      -220.3165
  88   2.0000      -8.093246      -220.2284
  89   2.0000      -8.081492      -219.9086
  90   2.0000      -6.071415      -165.2116
  91   2.0000      -6.070473      -165.1860
  92   2.0000      -6.067179      -165.0963
  93   2.0000      -6.066287      -165.0721
  94   2.0000      -6.065665      -165.0551
  95   2.0000      -6.064590      -165.0259
  96   2.0000      -6.063800      -165.0044
  97   2.0000      -6.062472      -164.9682
  98   2.0000      -6.062028      -164.9562
  99   2.0000      -6.058238      -164.8530
 100   2.0000      -6.057932      -164.8447
 101   2.0000      -6.055774      -164.7860
 102   2.0000      -6.050738      -164.6489
 103   2.0000      -6.046109      -164.5230
 104   2.0000      -6.044240      -164.4721
 105   2.0000      -1.343552       -36.5599
 106   2.0000      -1.341884       -36.5145
 107   2.0000      -1.327859       -36.1329
 108   2.0000      -1.317083       -35.8397
 109   2.0000      -1.312960       -35.7275
 110   2.0000      -1.302207       -35.4349
 111   2.0000      -1.141516       -31.0622
 112   2.0000      -1.140845       -31.0440
 113   2.0000      -1.062954       -28.9245
 114   2.0000      -1.048929       -28.5428
 115   2.0000      -1.041009       -28.3273
 116   2.0000      -1.031844       -28.0779
 117   2.0000      -1.027186       -27.9511
 118   2.0000      -1.025531       -27.9061
 119   2.0000      -1.021325       -27.7917
 120   2.0000      -1.018688       -27.7199
 121   2.0000      -1.015688       -27.6383
 122   2.0000      -1.013403       -27.5761
 123   2.0000      -1.008182       -27.4340
 124   2.0000      -1.004884       -27.3443
 125   2.0000      -1.001954       -27.2646
 126   2.0000      -0.999975       -27.2107
 127   2.0000      -0.993153       -27.0251
 128   2.0000      -0.991217       -26.9724
 129   2.0000      -0.979562       -26.6552
 130   2.0000      -0.977767       -26.6064
 131   2.0000      -0.962461       -26.1899
 132   2.0000      -0.945475       -25.7277
 133   2.0000      -0.938798       -25.5460
 134   2.0000      -0.931344       -25.3432
 135   2.0000      -0.925271       -25.1779
 136   2.0000      -0.919596       -25.0235
 137   2.0000      -0.910682       -24.7809
 138   2.0000      -0.901991       -24.5444
 139   2.0000      -0.901094       -24.5200
 140   2.0000      -0.891034       -24.2463
 141   2.0000      -0.889591       -24.2070
 142   2.0000      -0.886826       -24.1318
 143   2.0000      -0.879188       -23.9239
 144   2.0000      -0.877988       -23.8913
 145   2.0000      -0.871762       -23.7219
 146   2.0000      -0.860875       -23.4256
 147   2.0000      -0.860087       -23.4042
 148   2.0000      -0.849139       -23.1062
 149   2.0000      -0.846246       -23.0275
 150   2.0000      -0.836895       -22.7731
 151   2.0000      -0.824290       -22.4301
 152   2.0000      -0.816650       -22.2222
 153   2.0000      -0.797346       -21.6969
 154   2.0000      -0.788800       -21.4644
 155   2.0000      -0.783640       -21.3239
 156   2.0000      -0.777318       -21.1519
 157   2.0000      -0.775487       -21.1021
 158   2.0000      -0.766765       -20.8647
 159   2.0000      -0.759405       -20.6645
 160   2.0000      -0.745241       -20.2790
 161   2.0000      -0.742165       -20.1953
 162   2.0000      -0.727024       -19.7833
 163   2.0000      -0.726019       -19.7560
 164   2.0000      -0.724086       -19.7034
 165   2.0000      -0.718212       -19.5435
 166   2.0000      -0.713255       -19.4087
 167   2.0000      -0.707233       -19.2448
 168   2.0000      -0.705354       -19.1937
 169   2.0000      -0.701365       -19.0851
 170   2.0000      -0.695172       -18.9166
 171   2.0000      -0.693791       -18.8790
 172   2.0000      -0.687515       -18.7082
 173   2.0000      -0.683907       -18.6100
 174   2.0000      -0.683456       -18.5978
 175   2.0000      -0.671845       -18.2818
 176   2.0000      -0.663903       -18.0657
 177   2.0000      -0.660555       -17.9746
 178   2.0000      -0.657275       -17.8854
 179   2.0000      -0.652615       -17.7586
 180   2.0000      -0.650743       -17.7076
 181   2.0000      -0.645361       -17.5612
 182   2.0000      -0.640274       -17.4227
 183   2.0000      -0.639465       -17.4007
 184   2.0000      -0.636253       -17.3133
 185   2.0000      -0.632696       -17.2165
 186   2.0000      -0.629916       -17.1409
 187   2.0000      -0.624559       -16.9951
 188   2.0000      -0.621499       -16.9118
 189   2.0000      -0.620389       -16.8816
 190   2.0000      -0.613654       -16.6984
 191   2.0000      -0.611591       -16.6422
 192   2.0000      -0.608146       -16.5485
 193   2.0000      -0.601812       -16.3761
 194   2.0000      -0.596299       -16.2261
 195   2.0000      -0.594565       -16.1789
 196   2.0000      -0.592286       -16.1169
 197   2.0000      -0.589993       -16.0545
 198   2.0000      -0.587019       -15.9736
 199   2.0000      -0.585382       -15.9291
 200   2.0000      -0.581566       -15.8252
 201   2.0000      -0.578060       -15.7298
 202   2.0000      -0.574949       -15.6452
 203   2.0000      -0.568534       -15.4706
 204   2.0000      -0.565291       -15.3824
 205   2.0000      -0.564147       -15.3512
 206   2.0000      -0.562157       -15.2971
 207   2.0000      -0.557721       -15.1764
 208   2.0000      -0.553765       -15.0687
 209   2.0000      -0.553741       -15.0681
 210   2.0000      -0.551759       -15.0141
 211   2.0000      -0.550269       -14.9736
 212   2.0000      -0.547221       -14.8906
 213   2.0000      -0.543279       -14.7834
 214   2.0000      -0.542317       -14.7572
 215   2.0000      -0.540864       -14.7176
 216   2.0000      -0.539501       -14.6806
 217   2.0000      -0.537527       -14.6269
 218   2.0000      -0.535437       -14.5700
 219   2.0000      -0.529927       -14.4200
 220   2.0000      -0.528903       -14.3922
 221   2.0000      -0.525968       -14.3123
 222   2.0000      -0.524677       -14.2772
 223   2.0000      -0.523289       -14.2394
 224   2.0000      -0.521680       -14.1956
 225   2.0000      -0.519309       -14.1311
 226   2.0000      -0.514712       -14.0060
 227   2.0000      -0.514221       -13.9927
 228   2.0000      -0.512991       -13.9592
 229   2.0000      -0.511293       -13.9130
 230   2.0000      -0.507820       -13.8185
 231   2.0000      -0.507200       -13.8016
 232   2.0000      -0.503577       -13.7030
 233   2.0000      -0.501295       -13.6409
 234   2.0000      -0.498449       -13.5635
 235   2.0000      -0.497698       -13.5430
 236   2.0000      -0.497341       -13.5333
 237   2.0000      -0.494367       -13.4524
 238   2.0000      -0.490863       -13.3571
 239   2.0000      -0.488827       -13.3017
 240   2.0000      -0.486678       -13.2432
 241   2.0000      -0.485895       -13.2219
 242   2.0000      -0.484328       -13.1792
 243   2.0000      -0.482764       -13.1367
 244   2.0000      -0.480835       -13.0842
 245   2.0000      -0.476922       -12.9777
 246   2.0000      -0.473828       -12.8935
 247   2.0000      -0.471216       -12.8224
 248   2.0000      -0.466978       -12.7071
 249   2.0000      -0.466432       -12.6923
 250   2.0000      -0.463294       -12.6069
 251   2.0000      -0.462606       -12.5881
 252   2.0000      -0.461835       -12.5672
 253   2.0000      -0.461342       -12.5538
 254   2.0000      -0.460598       -12.5335
 255   2.0000      -0.459670       -12.5083
 256   2.0000      -0.458027       -12.4635
 257   2.0000      -0.457194       -12.4409
 258   2.0000      -0.455913       -12.4060
 259   2.0000      -0.454856       -12.3773
 260   2.0000      -0.453597       -12.3430
 261   2.0000      -0.452770       -12.3205
 262   2.0000      -0.448374       -12.2009
 263   2.0000      -0.446594       -12.1524
 264   2.0000      -0.445855       -12.1323
 265   2.0000      -0.442513       -12.0414
 266   2.0000      -0.440639       -11.9904
 267   2.0000      -0.439796       -11.9675
 268   2.0000      -0.439558       -11.9610
 269   2.0000      -0.438422       -11.9301
 270   2.0000      -0.436616       -11.8809
 271   2.0000      -0.434085       -11.8121
 272   2.0000      -0.430952       -11.7268
 273   2.0000      -0.430606       -11.7174
 274   2.0000      -0.427990       -11.6462
 275   2.0000      -0.427031       -11.6201
 276   2.0000      -0.423480       -11.5235
 277   2.0000      -0.420531       -11.4432
 278   2.0000      -0.416449       -11.3322
 279   2.0000      -0.412620       -11.2280
 280   2.0000      -0.408127       -11.1057
 281   2.0000      -0.406875       -11.0716
 282   2.0000      -0.398899       -10.8546
 283   2.0000      -0.395298       -10.7566
 284   2.0000      -0.388414       -10.5693
 285   2.0000      -0.383310       -10.4304
 286   2.0000      -0.378738       -10.3060
 287   2.0000      -0.364641        -9.9224
 288   2.0000      -0.362242        -9.8571
 289   2.0000      -0.353601        -9.6220
 290   2.0000      -0.351319        -9.5599
 291   2.0000      -0.344747        -9.3810
 292   2.0000      -0.341694        -9.2980
 293   2.0000      -0.338107        -9.2004
 294   2.0000      -0.326767        -8.8918
 295   2.0000      -0.325165        -8.8482
 296   2.0000      -0.317764        -8.6468
 297   2.0000      -0.314932        -8.5697
 298   2.0000      -0.313113        -8.5202
 299   2.0000      -0.307697        -8.3729
 300   2.0000      -0.296625        -8.0716
 301   2.0000      -0.271254        -7.3812
 302   2.0000      -0.266328        -7.2472
 303   0.0000      -0.126631        -3.4458
 304   0.0000      -0.109397        -2.9768
 305   0.0000      -0.102829        -2.7981
 306   0.0000      -0.088708        -2.4139
 307   0.0000      -0.068800        -1.8721

MULLIKEN ATOMIC CHARGES
-----------------------
   0 C :   -0.111177
   1 C :    0.242839
   2 F :   -0.172377
   3 C :    0.241094
   4 F :   -0.173034
   5 C :   -0.105407
   6 C :    0.106809
   7 C :    0.113042
   8 C :   -0.086371
   9 C :    0.047825
  10 C :    0.008977
  11 C :   -0.057116
  12 C :    0.169017
  13 O :   -0.197342
  14 C :   -0.099793
  15 C :    0.314405
  16 C :   -0.346714
  17 C :   -0.201618
  18 N :    0.159339
  19 C :   -0.181466
  20 N :    0.146594
  21 C :   -0.021216
  22 C :   -0.061086
  23 C :   -0.054857
  24 C :    0.037949
  25 C :   -0.056332
  26 S :    0.273859
  27 C :   -0.088885
  28 C :    0.013578
  29 C :    0.300966
  30 C :   -0.296288
  31 C :   -0.190556
  32 N :    0.174646
  33 C :   -0.193008
  34 N :    0.182840
  35 C :   -0.018730
  36 C :   -0.123754
  37 S :    0.164972
  38 C :    0.112723
  39 C :    0.051344
  40 F :   -0.147296
  41 S :    0.123826
  42 C :    0.047399
  43 F :   -0.156307
  44 C :    0.085168
  45 C :   -0.053536
  46 C :    0.053400
  47 C :   -0.076300
  48 C :   -0.029858
  49 C :    0.009166
  50 C :   -0.106957
  51 S :    0.213267
  52 C :   -0.081387
  53 C :    0.018221
  54 C :    0.310225
  55 C :   -0.306267
  56 C :   -0.114945
  57 N :    0.137351
  58 C :   -0.143850
  59 N :    0.137690
  60 C :    0.016448
  61 C :   -0.104275
  62 S :    0.211100
  63 C :    0.054284
  64 C :   -0.142806
  65 C :    0.142714
  66 O :   -0.135796
  67 C :    0.011056
  68 C :   -0.081918
  69 C :    0.113328
  70 C :    0.112750
  71 C :   -0.106912
  72 C :    0.242835
  73 C :    0.240739
  74 C :   -0.103582
  75 F :   -0.170236
  76 F :   -0.169043
  77 C :   -0.083687
  78 C :    0.042397
  79 C :    0.244562
  80 C :   -0.325652
  81 C :   -0.207097
  82 N :    0.172729
  83 C :   -0.172631
  84 N :    0.156825
  85 H :    0.006294
  86 H :    0.005726
  87 H :   -0.008186
  88 H :   -0.044867
  89 H :    0.025053
  90 H :    0.023790
  91 H :    0.012932
  92 H :    0.029736
  93 H :    0.002147
  94 H :   -0.004152
  95 H :    0.015290
  96 H :    0.035217
  97 H :   -0.006592
  98 H :    0.005772
  99 H :    0.001694
 100 H :   -0.002685
Sum of atomic charges:   -0.0000000

LOEWDIN ATOMIC CHARGES
----------------------
   0 C :   -0.031370
   1 C :    0.066899
   2 F :   -0.049819
   3 C :    0.065329
   4 F :   -0.050663
   5 C :   -0.028412
   6 C :   -0.009015
   7 C :   -0.006537
   8 C :    0.015663
   9 C :   -0.022745
  10 C :   -0.057168
  11 C :    0.035143
  12 C :    0.087948
  13 O :   -0.182390
  14 C :   -0.111080
  15 C :    0.076649
  16 C :   -0.141273
  17 C :   -0.025256
  18 N :   -0.048713
  19 C :   -0.017227
  20 N :   -0.053940
  21 C :    0.058343
  22 C :   -0.187099
  23 C :    0.010896
  24 C :   -0.077133
  25 C :   -0.165037
  26 S :    0.584412
  27 C :   -0.182595
  28 C :   -0.057791
  29 C :    0.078780
  30 C :   -0.101707
  31 C :   -0.017654
  32 N :   -0.031513
  33 C :   -0.019367
  34 N :   -0.026051
  35 C :   -0.025632
  36 C :   -0.156563
  37 S :    0.504767
  38 C :   -0.105598
  39 C :   -0.075934
  40 F :   -0.037962
  41 S :    0.439291
  42 C :   -0.078392
  43 F :   -0.045281
  44 C :   -0.095390
  45 C :   -0.024791
  46 C :   -0.033688
  47 C :   -0.154042
  48 C :   -0.031391
  49 C :   -0.053083
  50 C :   -0.194420
  51 S :    0.491714
  52 C :   -0.145357
  53 C :   -0.077569
  54 C :    0.087596
  55 C :   -0.101147
  56 C :    0.010080
  57 N :   -0.040042
  58 C :   -0.001033
  59 N :   -0.051208
  60 C :    0.016173
  61 C :   -0.180138
  62 S :    0.512500
  63 C :    0.052564
  64 C :   -0.101600
  65 C :    0.082998
  66 O :   -0.138521
  67 C :   -0.054469
  68 C :    0.032160
  69 C :   -0.008800
  70 C :   -0.005491
  71 C :   -0.030251
  72 C :    0.068144
  73 C :    0.068246
  74 C :   -0.031954
  75 F :   -0.047676
  76 F :   -0.046994
  77 C :    0.014408
  78 C :   -0.021162
  79 C :    0.059848
  80 C :   -0.143819
  81 C :   -0.035446
  82 N :   -0.048107
  83 C :   -0.020344
  84 N :   -0.048350
  85 H :    0.047061
  86 H :    0.047798
  87 H :    0.039524
  88 H :    0.033076
  89 H :    0.054350
  90 H :    0.046761
  91 H :    0.041445
  92 H :    0.024147
  93 H :    0.031945
  94 H :    0.030366
  95 H :    0.046376
  96 H :    0.055187
  97 H :    0.041712
  98 H :    0.047376
  99 H :    0.045688
 100 H :    0.039838

  Mayer bond orders larger than 0.100000
B(  0-C ,  1-C ) :   1.4390 B(  0-C ,  5-C ) :   0.1091 B(  0-C ,  7-C ) :   1.1907
B(  0-C , 85-H ) :   1.0070 B(  1-C ,  2-F ) :   1.1324 B(  1-C ,  3-C ) :   1.1920
B(  3-C ,  4-F ) :   1.1328 B(  3-C ,  5-C ) :   1.4314 B(  5-C ,  6-C ) :   1.1993
B(  5-C , 86-H ) :   1.0090 B(  6-C ,  7-C ) :   1.2483 B(  6-C , 11-C ) :   1.2033
B(  7-C ,  8-C ) :   1.2098 B(  8-C ,  9-C ) :   1.4575 B(  8-C , 87-H ) :   0.9910
B(  9-C , 10-C ) :   1.2103 B(  9-C , 15-C ) :   0.9847 B( 10-C , 11-C ) :   1.4565
B( 10-C , 12-C ) :   0.9666 B( 11-C , 88-H ) :   1.0034 B( 12-C , 13-O ) :   2.0872
B( 12-C , 14-C ) :   0.9888 B( 14-C , 15-C ) :   1.0695 B( 14-C , 21-C ) :   1.4952
B( 15-C , 16-C ) :   1.6371 B( 16-C , 17-C ) :   1.1373 B( 16-C , 19-C ) :   1.1469
B( 17-C , 18-N ) :   2.9849 B( 19-C , 20-N ) :   2.9637 B( 21-C , 22-C ) :   1.2652
B( 21-C , 89-H ) :   0.9467 B( 22-C , 23-C ) :   1.3188 B( 22-C , 26-S ) :   1.0886
B( 23-C , 24-C ) :   1.3429 B( 23-C , 90-H ) :   1.0068 B( 24-C , 25-C ) :   1.3518
B( 24-C , 29-C ) :   0.9867 B( 25-C , 26-S ) :   1.1637 B( 25-C , 27-C ) :   1.1847
B( 27-C , 28-C ) :   1.4457 B( 27-C , 37-S ) :   1.1141 B( 28-C , 29-C ) :   0.9906
B( 28-C , 35-C ) :   1.2699 B( 29-C , 30-C ) :   1.7162 B( 30-C , 31-C ) :   1.1328
B( 30-C , 33-C ) :   1.1338 B( 31-C , 32-N ) :   2.9936 B( 33-C , 34-N ) :   2.9954
B( 35-C , 36-C ) :   1.5075 B( 35-C , 91-H ) :   0.9977 B( 36-C , 37-S ) :   1.1140
B( 36-C , 38-C ) :   1.0241 B( 38-C , 39-C ) :   1.4803 B( 38-C , 44-C ) :   1.1711
B( 39-C , 40-F ) :   1.1333 B( 39-C , 41-S ) :   1.1187 B( 41-S , 42-C ) :   1.1216
B( 42-C , 43-F ) :   1.1252 B( 42-C , 44-C ) :   1.4647 B( 44-C , 45-C ) :   1.0598
B( 45-C , 46-C ) :   1.7640 B( 45-C , 92-H ) :   0.9380 B( 46-C , 47-C ) :   1.0967
B( 46-C , 93-H ) :   0.9704 B( 47-C , 48-C ) :   1.4528 B( 47-C , 51-S ) :   1.1223
B( 48-C , 49-C ) :   1.3128 B( 48-C , 94-H ) :   0.9862 B( 49-C , 50-C ) :   1.4263
B( 49-C , 54-C ) :   1.0042 B( 50-C , 51-S ) :   1.1151 B( 50-C , 52-C ) :   1.2113
B( 52-C , 53-C ) :   1.3982 B( 52-C , 62-S ) :   1.1662 B( 53-C , 54-C ) :   0.9954
B( 53-C , 60-C ) :   1.3055 B( 54-C , 55-C ) :   1.7003 B( 55-C , 56-C ) :   1.1501
B( 55-C , 58-C ) :   1.1446 B( 56-C , 57-N ) :   2.8771 B( 58-C , 59-N ) :   2.9213
B( 60-C , 61-C ) :   1.4046 B( 60-C , 95-H ) :   1.0001 B( 61-C , 62-S ) :   1.0823
B( 61-C , 63-C ) :   1.1408 B( 63-C , 64-C ) :   1.6364 B( 63-C , 96-H ) :   0.9471
B( 64-C , 65-C ) :   0.9367 B( 64-C , 79-C ) :   1.0404 B( 65-C , 66-O ) :   2.2798
B( 65-C , 67-C ) :   0.9177 B( 67-C , 68-C ) :   1.4762 B( 67-C , 78-C ) :   1.2207
B( 68-C , 69-C ) :   1.1938 B( 68-C , 97-H ) :   1.0161 B( 69-C , 70-C ) :   1.2558
B( 69-C , 74-C ) :   1.1940 B( 70-C , 71-C ) :   1.1886 B( 70-C , 77-C ) :   1.2171
B( 71-C , 72-C ) :   1.4425 B( 71-C , 74-C ) :   0.1084 B( 71-C , 98-H ) :   1.0068
B( 72-C , 73-C ) :   1.1908 B( 72-C , 76-F ) :   1.1371 B( 73-C , 74-C ) :   1.4433
B( 73-C , 75-F ) :   1.1340 B( 74-C , 99-H ) :   1.0066 B( 77-C , 78-C ) :   1.4536
B( 77-C ,100-H ) :   0.9940 B( 78-C , 79-C ) :   1.0021 B( 79-C , 80-C ) :   1.6528
B( 80-C , 81-C ) :   1.1553 B( 80-C , 83-C ) :   1.1350 B( 81-C , 82-N ) :   3.0191
B( 83-C , 84-N ) :   2.9879

-----------------------------------------------------------------------------
         ABSORPTION SPECTRUM VIA TRANSITION ELECTRIC DIPOLE MOMENTS
-----------------------------------------------------------------------------
State   Energy  Wavelength   fosc         T2         TX        TY        TZ
        (cm-1)    (nm)                  (au**2)     (au)      (au)      (au)
-----------------------------------------------------------------------------
   0   12712.7    786.6   0.148702769   3.85085   0.26393  -0.83187   1.75761
   1   15448.0    647.3   0.177168127   3.77563  -0.49347  -1.23904  -1.41311
   2   17595.8    568.3   0.007841136   0.14670  -0.07943  -0.37245  -0.04094
   3   19784.6    505.4   0.722595982  12.02385  -0.38473   2.40794  -2.46529
   4   21908.3    456.4   1.093119087  16.42610   1.05302   1.98558   3.37264
   5   22432.7    445.8   0.025610860   0.37585  -0.18992  -0.36860  -0.45157
   6   24268.6    412.1   0.076369949   1.03599   0.22411   0.01333  -0.99276
   7   25219.8    396.5   0.019477386   0.25425   0.09587   0.26403  -0.41875
   8   25473.4    392.6   0.003042957   0.03933  -0.00799   0.08801   0.17753
   9   26161.6    382.2   0.062741845   0.78953  -0.47451  -0.74596  -0.08902
  10   26579.4    376.2   0.035982527   0.44568  -0.24381  -0.02427  -0.62100
  11   27511.2    363.5   0.035512976   0.42496   0.10374   0.63482  -0.10585
  12   27643.1    361.8   0.022111141   0.26333  -0.38491  -0.30444  -0.14997
  13   27859.5    358.9   0.076390917   0.90270   0.01742  -0.62262   0.71746
  14   28302.6    353.3   0.088217511   1.02613  -0.13434   0.32394  -0.95034
  15   28384.9    352.3   0.002790043   0.03236  -0.05560   0.01747  -0.17018
  16   28761.4    347.7   0.590445753   6.75842  -0.09381  -0.19064   2.59100
  17   29040.1    344.4   0.035311275   0.40031   0.04879  -0.12649   0.61800
  18   29146.7    343.1   0.015916934   0.17978   0.08948  -0.24250  -0.33611
  19   29161.2    342.9   0.060683783   0.68508   0.34761   0.54008  -0.52208
  20   29411.6    340.0   0.362764945   4.06053  -0.36766  -1.30507   1.49068
  21   29642.7    337.4   0.019166066   0.21286  -0.45123  -0.05393  -0.07963
  22   30134.2    331.8   0.255582405   2.79220   0.20126   0.38824   1.61275
  23   30568.8    327.1   0.138294740   1.48937  -0.74627  -0.94819  -0.18271
  24   30956.0    323.0   0.304016049   3.23316  -0.36598  -0.83480   1.54994
  25   31028.0    322.3   0.352372330   3.73872   0.41839   1.44644  -1.21305
  26   31436.0    318.1   0.076901866   0.80535  -0.46591  -0.74726  -0.17286
  27   31492.8    317.5   0.036186343   0.37828  -0.23055   0.54902  -0.15396
  28   31570.7    316.7   0.188860084   1.96939   0.33341   1.04986   0.86950
  29   31859.5    313.9   0.279205029   2.88510  -0.15573   0.63232  -1.56876
  30   32194.2    310.6   0.017924071   0.18329  -0.00256   0.18088  -0.38802
  31   32381.7    308.8   0.241226538   2.45245   0.67111   1.41092  -0.10657
  32   32515.6    307.5   0.322257070   3.26277  -0.27299  -1.17399   1.34536
  33   32736.9    305.5   0.354906082   3.56904  -0.72143   0.23859  -1.72964
  34   32887.4    304.1   0.433180176   4.33625   0.25581  -0.26134   2.05000
  35   33037.2    302.7   0.177741554   1.77117  -0.03649  -1.31437   0.20557
  36   34018.3    294.0   0.029672890   0.28716  -0.26678   0.22702   0.40552
  37   34077.0    293.5   0.233828044   2.25897   0.75253   1.06967  -0.74060
  38   34200.9    292.4   0.067832384   0.65294   0.00409  -0.26781   0.76237
  39   34520.1    289.7   0.113165693   1.07924   0.68753   0.68770   0.36552
  40   34878.8    286.7   0.022149890   0.20907   0.22423   0.39512   0.05168
  41   35032.8    285.4   0.059906573   0.56296   0.27827   0.25664  -0.64781
  42   35096.9    284.9   0.399012337   3.74277  -0.62119  -0.83637   1.63015
  43   35189.0    284.2   0.039523091   0.36976  -0.25136   0.12588   0.53920
  44   35383.8    282.6   0.281401111   2.61816   0.73471   0.29164   1.41185
  45   35862.4    278.8   0.475147540   4.36179  -0.62336  -1.92411   0.52057
  46   36013.3    277.7   0.025271907   0.23102   0.13641   0.46084  -0.00626
  47   36098.6    277.0   0.012769799   0.11646  -0.10395  -0.32321   0.03449
  48   36193.7    276.3   0.086734264   0.78892  -0.11234  -0.87834   0.06948
  49   36312.8    275.4   0.040524002   0.36739  -0.39153   0.05151   0.45983
  50   36547.2    273.6   0.152939029   1.37765  -0.24608  -1.13445  -0.17356
  51   36764.1    272.0   0.028959492   0.25932  -0.00474  -0.33347  -0.38483
  52   37011.7    270.2   0.124911701   1.11107   0.05649   1.04817   0.09596
  53   37048.9    269.9   0.088926205   0.79019  -0.15835  -0.77952  -0.39681
  54   37407.9    267.3   0.056667775   0.49871   0.17394  -0.60741  -0.31545
  55   37957.7    263.5   0.020366226   0.17664   0.07540  -0.23256   0.34186
  56   38150.4    262.1   0.042134977   0.36360  -0.28093  -0.53269  -0.03023
  57   38232.0    261.6   0.001092956   0.00941   0.07731  -0.02253   0.05409
  58   38553.6    259.4   0.183592708   1.56771  -0.33694  -0.73099  -0.95908
  59   38658.6    258.7   0.021334208   0.18168  -0.40451  -0.11874  -0.06285
  60   39006.9    256.4   0.024471970   0.20654  -0.12320  -0.22928  -0.37255
  61   39342.3    254.2   0.030186639   0.25260  -0.06657   0.44352  -0.22684
  62   39600.7    252.5   0.155621727   1.29373  -0.17564  -0.64295  -0.92168
  63   39635.2    252.3   0.031331427   0.26024   0.15062  -0.33079  -0.35795
  64   40045.0    249.7   0.006728456   0.05531   0.01367   0.02557  -0.23340
  65   40164.8    249.0   0.001417700   0.01162   0.05273   0.03933   0.08540

FINAL SINGLE POINT ENERGY     -5621.609537056199

DIPOLE MOMENT
-------------
                                X             Y             Z
Electronic contribution:     -7.95191     -16.69103      -8.32895
Nuclear contribution   :      5.27722      12.07350       8.79563
                        -----------------------------------------
Total Dipole Moment    :     -2.67469      -4.61753       0.46668
                        -----------------------------------------
Magnitude (a.u.)       :      5.35661
Magnitude (Debye)      :     13.61543

Rotational constants in cm-1:     0.000659     0.000315     0.000218
Rotational constants in MHz :    19.752556     9.454127     6.537975

                             ****ORCA TERMINATED NORMALLY****
TOTAL RUN TIME: 0 days 0 hours 14 minutes 17 seconds 985 msec
