                         Program Version 4.2.0 -  RELEASE  -
|  1> # ORCA input file
|  2> # SCF done       -168.889029624022          0.000821831418
|  3> ! CAM-B3LYP def2-SVP def2/J RIJCOSX Grid4 TightSCF
|  4> %maxcore 5000
|  5> %tddft
|  6>     Mode sTDDFT
|  7>     Ethresh 5.0
|  8>     maxcore 5000
|  9> end
| 10>
| 11> %pal
| 12>   nprocs 6
| 13>   end
| 14> * xyz 0 1
| 15>    C       -5.56443        -6.60677        -0.77369
| 16>    C       -4.23898        -6.30311        -0.79662
| 17>    C       -4.02003        -4.92602        -0.59474
| 18>    C       -5.22375        -4.21367        -0.42059
| 19>    S       -6.59480        -5.23362        -0.50660
| 20>    C       -4.92214        -2.85113        -0.22094
| 21>    C       -3.51865        -2.69557        -0.26931
| 22>    C       -2.91528        -4.00634        -0.50810
| 23>    C       -1.57873        -4.28143        -0.61940
| 24>    C       -0.59034        -3.28357        -0.51649
| 25>    N        0.22465        -2.47912        -0.43751
| 26>    C       -1.10098        -5.58729        -0.84536
| 27>    N       -0.70591        -6.64881        -1.02964
| 28>    C       -3.09997        -1.39417        -0.07573
| 29>    C       -4.17108        -0.51547         0.12988
| 30>    S       -5.72194        -1.36679         0.06577
| 31>    C       -4.18180         0.85498         0.38322
| 32>    C       -3.10546         1.71644         0.49708
| 33>    C       -3.19840         3.08831         0.80575
| 34>    C       -1.99082         3.73008         0.89260
| 35>    C       -0.89190         2.89527         0.64581
| 36>    S       -1.42243         1.27245         0.30050
| 37>    C        0.46629         3.22461         0.66586
| 38>    C        1.05399         4.44835         1.00219
| 39>    C        2.42909         4.42923         0.94833
| 40>    C        2.96536         3.19855         0.55722
| 41>    S        1.68847         2.04694         0.26282
| 42>    C        4.32048         2.88085         0.41247
| 43>    C        4.79146         1.67565        -0.03648
| 44>    C        6.14525         1.34736        -0.16434
| 45>    C        6.67459         0.15862        -0.67420
| 46>    C        8.05043         0.11336        -0.67367
| 47>    C        8.64650         1.26478        -0.14913
| 48>    S        7.43253         2.42055         0.32781
| 49>    C       10.00852         1.52670         0.03003
| 50>    C       11.09706         0.72201        -0.33206
| 51>    C       12.31163         1.25817         0.00957
| 52>    C       12.22669         2.50356         0.66153
| 53>    S       10.55591         2.98765         0.81331
| 54>    C       13.29566         3.24317         1.13807
| 55>    C       13.24498         4.45576         1.81866
| 56>    C       14.35357         5.14933         2.31813
| 57>    C       14.03950         6.30445         3.00719
| 58>    S       15.21234         7.42602         3.65533
| 59>    C       16.75398         6.88145         2.86660
| 60>    C       12.64716         6.56169         3.05959
| 61>    S       11.77805         5.31414         2.18608
| 62>    C       11.90430         7.62133         3.55662
| 63>    C       12.24824         8.60020         4.48340
| 64>    C       11.67006         9.92728         4.49543
| 65>    C       10.69008        10.42124         3.66669
| 66>    C       10.04299         9.71829         2.63158
| 67>    N        9.47617         9.23484         1.75580
| 68>    C       10.17778        11.73186         3.74055
| 69>    N        9.69928        12.77652         3.74430
| 70>    C       12.37626        10.69384         5.51669
| 71>    C       13.31508         9.84697         6.14461
| 72>    C       14.14901        10.33213         7.13576
| 73>    C       14.03824        11.66649         7.50232
| 74>    C       13.10764        12.49584         6.89711
| 75>    C       12.26829        12.02013         5.89908
| 76>    C       13.17544         8.51059         5.57967
| 77>    C       13.66432         7.35654         6.15355
| 78>    C       14.55061         7.32996         7.24611
| 79>    N       15.29102         7.22776         8.11893
| 80>    C       13.27718         6.05552         5.78672
| 81>    N       12.97613         4.97031         5.55737
| 82>    H       -6.02138        -7.56808        -0.89808
| 83>    H       -3.46254        -7.03035        -0.94963
| 84>    H       -2.07373        -1.07889        -0.07597
| 85>    H       -5.15653         1.30521         0.52408
| 86>    H       -4.14936         3.56594         0.96230
| 87>    H       -1.87853         4.77402         1.12249
| 88>    H        0.47449         5.30893         1.28321
| 89>    H        3.05428         5.27354         1.17866
| 90>    H        5.02977         3.65691         0.67168
| 91>    H        4.08053         0.91039        -0.32292
| 92>    H        6.04404        -0.63638        -1.03098
| 93>    H        8.62510        -0.72296        -1.02786
| 94>    H       10.97460        -0.22220        -0.83105
| 95>    H       13.25851         0.78658        -0.18480
| 96>    H       14.28015         2.82049         0.98315
| 97>    H       15.35041         4.77422         2.17744
| 98>    H       17.49087         7.63725         3.12078
| 99>    H       16.62296         6.83372         1.78998
|100>    H       17.05853         5.92207         3.27400
|101>    H       10.92173         7.71281         3.11003
|102>    H       14.87956         9.69863         7.61156
|103>    H       14.68707        12.05986         8.27026
|104>    H       13.03293        13.52895         7.20125
|105>    H       11.55177        12.68081         5.43965
|106> *
|107>
|108>                          ****END OF INPUT****

CARTESIAN COORDINATES (ANGSTROEM)
---------------------------------
  C     -5.564430   -6.606770   -0.773690
  C     -4.238980   -6.303110   -0.796620
  C     -4.020030   -4.926020   -0.594740
  C     -5.223750   -4.213670   -0.420590
  S     -6.594800   -5.233620   -0.506600
  C     -4.922140   -2.851130   -0.220940
  C     -3.518650   -2.695570   -0.269310
  C     -2.915280   -4.006340   -0.508100
  C     -1.578730   -4.281430   -0.619400
  C     -0.590340   -3.283570   -0.516490
  N      0.224650   -2.479120   -0.437510
  C     -1.100980   -5.587290   -0.845360
  N     -0.705910   -6.648810   -1.029640
  C     -3.099970   -1.394170   -0.075730
  C     -4.171080   -0.515470    0.129880
  S     -5.721940   -1.366790    0.065770
  C     -4.181800    0.854980    0.383220
  C     -3.105460    1.716440    0.497080
  C     -3.198400    3.088310    0.805750
  C     -1.990820    3.730080    0.892600
  C     -0.891900    2.895270    0.645810
  S     -1.422430    1.272450    0.300500
  C      0.466290    3.224610    0.665860
  C      1.053990    4.448350    1.002190
  C      2.429090    4.429230    0.948330
  C      2.965360    3.198550    0.557220
  S      1.688470    2.046940    0.262820
  C      4.320480    2.880850    0.412470
  C      4.791460    1.675650   -0.036480
  C      6.145250    1.347360   -0.164340
  C      6.674590    0.158620   -0.674200
  C      8.050430    0.113360   -0.673670
  C      8.646500    1.264780   -0.149130
  S      7.432530    2.420550    0.327810
  C     10.008520    1.526700    0.030030
  C     11.097060    0.722010   -0.332060
  C     12.311630    1.258170    0.009570
  C     12.226690    2.503560    0.661530
  S     10.555910    2.987650    0.813310
  C     13.295660    3.243170    1.138070
  C     13.244980    4.455760    1.818660
  C     14.353570    5.149330    2.318130
  C     14.039500    6.304450    3.007190
  S     15.212340    7.426020    3.655330
  C     16.753980    6.881450    2.866600
  C     12.647160    6.561690    3.059590
  S     11.778050    5.314140    2.186080
  C     11.904300    7.621330    3.556620
  C     12.248240    8.600200    4.483400
  C     11.670060    9.927280    4.495430
  C     10.690080   10.421240    3.666690
  C     10.042990    9.718290    2.631580
  N      9.476170    9.234840    1.755800
  C     10.177780   11.731860    3.740550
  N      9.699280   12.776520    3.744300
  C     12.376260   10.693840    5.516690
  C     13.315080    9.846970    6.144610
  C     14.149010   10.332130    7.135760
  C     14.038240   11.666490    7.502320
  C     13.107640   12.495840    6.897110
  C     12.268290   12.020130    5.899080
  C     13.175440    8.510590    5.579670
  C     13.664320    7.356540    6.153550
  C     14.550610    7.329960    7.246110
  N     15.291020    7.227760    8.118930
  C     13.277180    6.055520    5.786720
  N     12.976130    4.970310    5.557370
  H     -6.021380   -7.568080   -0.898080
  H     -3.462540   -7.030350   -0.949630
  H     -2.073730   -1.078890   -0.075970
  H     -5.156530    1.305210    0.524080
  H     -4.149360    3.565940    0.962300
  H     -1.878530    4.774020    1.122490
  H      0.474490    5.308930    1.283210
  H      3.054280    5.273540    1.178660
  H      5.029770    3.656910    0.671680
  H      4.080530    0.910390   -0.322920
  H      6.044040   -0.636380   -1.030980
  H      8.625100   -0.722960   -1.027860
  H     10.974600   -0.222200   -0.831050
  H     13.258510    0.786580   -0.184800
  H     14.280150    2.820490    0.983150
  H     15.350410    4.774220    2.177440
  H     17.490870    7.637250    3.120780
  H     16.622960    6.833720    1.789980
  H     17.058530    5.922070    3.274000
  H     10.921730    7.712810    3.110030
  H     14.879560    9.698630    7.611560
  H     14.687070   12.059860    8.270260
  H     13.032930   13.528950    7.201250
  H     11.551770   12.680810    5.439650

 Total Charge           Charge          ....    0
 Multiplicity           Mult            ....    1
 Number of Electrons    NEL             ....  512
 Basis Dimension        Dim             .... 1090

ORBITAL ENERGIES
----------------

  NO   OCC          E(Eh)            E(eV)
   0   2.0000     -88.990334     -2421.5501
   1   2.0000     -88.990001     -2421.5410
   2   2.0000     -88.965229     -2420.8670
   3   2.0000     -88.960063     -2420.7264
   4   2.0000     -88.956352     -2420.6254
   5   2.0000     -88.954368     -2420.5714
   6   2.0000     -88.951353     -2420.4894
   7   2.0000     -88.941020     -2420.2082
   8   2.0000     -14.432391      -392.7253
   9   2.0000     -14.431337      -392.6966
  10   2.0000     -14.397059      -391.7639
  11   2.0000     -14.394584      -391.6966
  12   2.0000     -14.392506      -391.6400
  13   2.0000     -14.391689      -391.6178
  14   2.0000     -10.365406      -282.0570
  15   2.0000     -10.353124      -281.7228
  16   2.0000     -10.333571      -281.1908
  17   2.0000     -10.332881      -281.1720
  18   2.0000     -10.331981      -281.1475
  19   2.0000     -10.331605      -281.1373
  20   2.0000     -10.328835      -281.0619
  21   2.0000     -10.328148      -281.0432
  22   2.0000     -10.324314      -280.9389
  23   2.0000     -10.323656      -280.9210
  24   2.0000     -10.323625      -280.9201
  25   2.0000     -10.321485      -280.8619
  26   2.0000     -10.319893      -280.8186
  27   2.0000     -10.318912      -280.7919
  28   2.0000     -10.317010      -280.7401
  29   2.0000     -10.315944      -280.7111
  30   2.0000     -10.315668      -280.7036
  31   2.0000     -10.314647      -280.6758
  32   2.0000     -10.314161      -280.6626
  33   2.0000     -10.312859      -280.6272
  34   2.0000     -10.312417      -280.6151
  35   2.0000     -10.310938      -280.5749
  36   2.0000     -10.307988      -280.4946
  37   2.0000     -10.306416      -280.4518
  38   2.0000     -10.303841      -280.3818
  39   2.0000     -10.303783      -280.3802
  40   2.0000     -10.301419      -280.3159
  41   2.0000     -10.301163      -280.3089
  42   2.0000     -10.300615      -280.2940
  43   2.0000     -10.300062      -280.2789
  44   2.0000     -10.299242      -280.2566
  45   2.0000     -10.299121      -280.2533
  46   2.0000     -10.298998      -280.2500
  47   2.0000     -10.298758      -280.2435
  48   2.0000     -10.297974      -280.2221
  49   2.0000     -10.296899      -280.1929
  50   2.0000     -10.296720      -280.1880
  51   2.0000     -10.294466      -280.1266
  52   2.0000     -10.293126      -280.0902
  53   2.0000     -10.293003      -280.0868
  54   2.0000     -10.290827      -280.0276
  55   2.0000     -10.290208      -280.0108
  56   2.0000     -10.289752      -279.9984
  57   2.0000     -10.284064      -279.8436
  58   2.0000     -10.283723      -279.8343
  59   2.0000     -10.283082      -279.8169
  60   2.0000     -10.282566      -279.8028
  61   2.0000     -10.281913      -279.7851
  62   2.0000     -10.275648      -279.6146
  63   2.0000     -10.275183      -279.6019
  64   2.0000     -10.274931      -279.5951
  65   2.0000     -10.274026      -279.5705
  66   2.0000     -10.273491      -279.5559
  67   2.0000      -8.084928      -220.0021
  68   2.0000      -8.084859      -220.0002
  69   2.0000      -8.060881      -219.3477
  70   2.0000      -8.056497      -219.2284
  71   2.0000      -8.052777      -219.1272
  72   2.0000      -8.050268      -219.0589
  73   2.0000      -8.046926      -218.9680
  74   2.0000      -8.035365      -218.6534
  75   2.0000      -6.054181      -164.7426
  76   2.0000      -6.054148      -164.7418
  77   2.0000      -6.050126      -164.6323
  78   2.0000      -6.049730      -164.6215
  79   2.0000      -6.047441      -164.5592
  80   2.0000      -6.047161      -164.5516
  81   2.0000      -6.030548      -164.0996
  82   2.0000      -6.026400      -163.9867
  83   2.0000      -6.026041      -163.9769
  84   2.0000      -6.022299      -163.8751
  85   2.0000      -6.022121      -163.8702
  86   2.0000      -6.021985      -163.8665
  87   2.0000      -6.019870      -163.8090
  88   2.0000      -6.018262      -163.7652
  89   2.0000      -6.017755      -163.7514
  90   2.0000      -6.016409      -163.7148
  91   2.0000      -6.015711      -163.6958
  92   2.0000      -6.014072      -163.6512
  93   2.0000      -6.012346      -163.6043
  94   2.0000      -6.011579      -163.5834
  95   2.0000      -6.008427      -163.4976
  96   2.0000      -6.005608      -163.4209
  97   2.0000      -6.001138      -163.2993
  98   2.0000      -5.995834      -163.1549
  99   2.0000      -1.044462       -28.4213
 100   2.0000      -1.022926       -27.8352
 101   2.0000      -1.011988       -27.5376
 102   2.0000      -1.008887       -27.4532
 103   2.0000      -1.008843       -27.4520
 104   2.0000      -1.003843       -27.3160
 105   2.0000      -0.996418       -27.1139
 106   2.0000      -0.994356       -27.0578
 107   2.0000      -0.989986       -26.9389
 108   2.0000      -0.987516       -26.8717
 109   2.0000      -0.980653       -26.6849
 110   2.0000      -0.978884       -26.6368
 111   2.0000      -0.974472       -26.5167
 112   2.0000      -0.970168       -26.3996
 113   2.0000      -0.958082       -26.0707
 114   2.0000      -0.932418       -25.3724
 115   2.0000      -0.921672       -25.0800
 116   2.0000      -0.915637       -24.9157
 117   2.0000      -0.912178       -24.8216
 118   2.0000      -0.907465       -24.6934
 119   2.0000      -0.893681       -24.3183
 120   2.0000      -0.888665       -24.1818
 121   2.0000      -0.873479       -23.7686
 122   2.0000      -0.867629       -23.6094
 123   2.0000      -0.865665       -23.5559
 124   2.0000      -0.858570       -23.3629
 125   2.0000      -0.855504       -23.2794
 126   2.0000      -0.851683       -23.1755
 127   2.0000      -0.848818       -23.0975
 128   2.0000      -0.839795       -22.8520
 129   2.0000      -0.836089       -22.7511
 130   2.0000      -0.830458       -22.5979
 131   2.0000      -0.826082       -22.4788
 132   2.0000      -0.821120       -22.3438
 133   2.0000      -0.810197       -22.0466
 134   2.0000      -0.793390       -21.5892
 135   2.0000      -0.779996       -21.2248
 136   2.0000      -0.775246       -21.0955
 137   2.0000      -0.764346       -20.7989
 138   2.0000      -0.762350       -20.7446
 139   2.0000      -0.751382       -20.4461
 140   2.0000      -0.731676       -19.9099
 141   2.0000      -0.717841       -19.5335
 142   2.0000      -0.704976       -19.1834
 143   2.0000      -0.701983       -19.1019
 144   2.0000      -0.689646       -18.7662
 145   2.0000      -0.688537       -18.7360
 146   2.0000      -0.686954       -18.6930
 147   2.0000      -0.683143       -18.5893
 148   2.0000      -0.678429       -18.4610
 149   2.0000      -0.676945       -18.4206
 150   2.0000      -0.659459       -17.9448
 151   2.0000      -0.654975       -17.8228
 152   2.0000      -0.641624       -17.4595
 153   2.0000      -0.640480       -17.4283
 154   2.0000      -0.639393       -17.3988
 155   2.0000      -0.638014       -17.3612
 156   2.0000      -0.635630       -17.2964
 157   2.0000      -0.630908       -17.1679
 158   2.0000      -0.628843       -17.1117
 159   2.0000      -0.625460       -17.0196
 160   2.0000      -0.617833       -16.8121
 161   2.0000      -0.615005       -16.7351
 162   2.0000      -0.604839       -16.4585
 163   2.0000      -0.600832       -16.3495
 164   2.0000      -0.598303       -16.2806
 165   2.0000      -0.584827       -15.9139
 166   2.0000      -0.578639       -15.7456
 167   2.0000      -0.576447       -15.6859
 168   2.0000      -0.566077       -15.4038
 169   2.0000      -0.558084       -15.1862
 170   2.0000      -0.556156       -15.1338
 171   2.0000      -0.549787       -14.9605
 172   2.0000      -0.547205       -14.8902
 173   2.0000      -0.539969       -14.6933
 174   2.0000      -0.532670       -14.4947
 175   2.0000      -0.529649       -14.4125
 176   2.0000      -0.523611       -14.2482
 177   2.0000      -0.522151       -14.2085
 178   2.0000      -0.519602       -14.1391
 179   2.0000      -0.516014       -14.0414
 180   2.0000      -0.513512       -13.9734
 181   2.0000      -0.513342       -13.9687
 182   2.0000      -0.512875       -13.9560
 183   2.0000      -0.509383       -13.8610
 184   2.0000      -0.508120       -13.8267
 185   2.0000      -0.505709       -13.7610
 186   2.0000      -0.504451       -13.7268
 187   2.0000      -0.503900       -13.7118
 188   2.0000      -0.503234       -13.6937
 189   2.0000      -0.497341       -13.5333
 190   2.0000      -0.496468       -13.5096
 191   2.0000      -0.494840       -13.4653
 192   2.0000      -0.491780       -13.3820
 193   2.0000      -0.489715       -13.3258
 194   2.0000      -0.488690       -13.2979
 195   2.0000      -0.487041       -13.2531
 196   2.0000      -0.478896       -13.0314
 197   2.0000      -0.477119       -12.9831
 198   2.0000      -0.476166       -12.9571
 199   2.0000      -0.473860       -12.8944
 200   2.0000      -0.472644       -12.8613
 201   2.0000      -0.468801       -12.7567
 202   2.0000      -0.467514       -12.7217
 203   2.0000      -0.466651       -12.6982
 204   2.0000      -0.463466       -12.6115
 205   2.0000      -0.459055       -12.4915
 206   2.0000      -0.456993       -12.4354
 207   2.0000      -0.452392       -12.3102
 208   2.0000      -0.449464       -12.2305
 209   2.0000      -0.449096       -12.2205
 210   2.0000      -0.447841       -12.1864
 211   2.0000      -0.442427       -12.0391
 212   2.0000      -0.441730       -12.0201
 213   2.0000      -0.440369       -11.9831
 214   2.0000      -0.439319       -11.9545
 215   2.0000      -0.438386       -11.9291
 216   2.0000      -0.435146       -11.8409
 217   2.0000      -0.431398       -11.7389
 218   2.0000      -0.429780       -11.6949
 219   2.0000      -0.429030       -11.6745
 220   2.0000      -0.427338       -11.6285
 221   2.0000      -0.427238       -11.6257
 222   2.0000      -0.424822       -11.5600
 223   2.0000      -0.422127       -11.4867
 224   2.0000      -0.420584       -11.4447
 225   2.0000      -0.418993       -11.4014
 226   2.0000      -0.413684       -11.2569
 227   2.0000      -0.410327       -11.1656
 228   2.0000      -0.408045       -11.1035
 229   2.0000      -0.406666       -11.0659
 230   2.0000      -0.405728       -11.0404
 231   2.0000      -0.402554       -10.9540
 232   2.0000      -0.399101       -10.8601
 233   2.0000      -0.393429       -10.7057
 234   2.0000      -0.389312       -10.5937
 235   2.0000      -0.387270       -10.5382
 236   2.0000      -0.386268       -10.5109
 237   2.0000      -0.379444       -10.3252
 238   2.0000      -0.365075        -9.9342
 239   2.0000      -0.355578        -9.6758
 240   2.0000      -0.354580        -9.6486
 241   2.0000      -0.351370        -9.5613
 242   2.0000      -0.347868        -9.4660
 243   2.0000      -0.345058        -9.3895
 244   2.0000      -0.339411        -9.2358
 245   2.0000      -0.334819        -9.1109
 246   2.0000      -0.329001        -8.9526
 247   2.0000      -0.323706        -8.8085
 248   2.0000      -0.317637        -8.6433
 249   2.0000      -0.307655        -8.3717
 250   2.0000      -0.302609        -8.2344
 251   2.0000      -0.285058        -7.7568
 252   2.0000      -0.277497        -7.5511
 253   2.0000      -0.263031        -7.1575
 254   2.0000      -0.237153        -6.4533
 255   2.0000      -0.193619        -5.2686
 256   0.0000      -0.125350        -3.4109
 257   0.0000      -0.103210        -2.8085
 258   0.0000      -0.074528        -2.0280
 259   0.0000      -0.062425        -1.6987
 260   0.0000      -0.048126        -1.3096

MULLIKEN ATOMIC CHARGES
-----------------------
   0 C :   -0.081737
   1 C :    0.039175
   2 C :   -0.037479
   3 C :   -0.116641
   4 S :    0.180450
   5 C :   -0.102139
   6 C :   -0.001242
   7 C :    0.304628
   8 C :   -0.297356
   9 C :   -0.181341
  10 N :    0.167339
  11 C :   -0.193082
  12 N :    0.172659
  13 C :   -0.038966
  14 C :   -0.094127
  15 S :    0.179923
  16 C :    0.035338
  17 C :   -0.036505
  18 C :    0.033494
  19 C :    0.024010
  20 C :   -0.024380
  21 S :    0.078021
  22 C :   -0.043117
  23 C :    0.023617
  24 C :    0.027570
  25 C :   -0.025096
  26 S :    0.110108
  27 C :   -0.008005
  28 C :    0.013095
  29 C :   -0.042635
  30 C :    0.039136
  31 C :    0.008390
  32 C :   -0.028343
  33 S :    0.107876
  34 C :   -0.047063
  35 C :    0.037168
  36 C :    0.016411
  37 C :   -0.016312
  38 S :    0.096125
  39 C :   -0.021682
  40 C :    0.020571
  41 C :   -0.061614
  42 C :    0.054551
  43 S :    0.020965
  44 C :   -0.073941
  45 C :   -0.147720
  46 S :    0.122007
  47 C :    0.041550
  48 C :   -0.099214
  49 C :    0.315875
  50 C :   -0.365551
  51 C :   -0.196870
  52 N :    0.142678
  53 C :   -0.194177
  54 N :    0.141091
  55 C :    0.006469
  56 C :   -0.001531
  57 C :   -0.044331
  58 C :    0.045021
  59 C :    0.041820
  60 C :   -0.041263
  61 C :    0.273582
  62 C :   -0.353282
  63 C :   -0.187890
  64 N :    0.143248
  65 C :   -0.215090
  66 N :    0.167624
  67 H :    0.036688
  68 H :    0.014095
  69 H :    0.025288
  70 H :   -0.011627
  71 H :   -0.007576
  72 H :   -0.007181
  73 H :   -0.007801
  74 H :   -0.000975
  75 H :    0.003325
  76 H :    0.006966
  77 H :   -0.003567
  78 H :   -0.011615
  79 H :   -0.011877
  80 H :   -0.012945
  81 H :   -0.015503
  82 H :   -0.025346
  83 H :    0.068908
  84 H :    0.069782
  85 H :    0.075146
  86 H :    0.021645
  87 H :   -0.002362
  88 H :   -0.006294
  89 H :   -0.007048
  90 H :   -0.001990
Sum of atomic charges:   -0.0000000

LOEWDIN ATOMIC CHARGES
----------------------
   0 C :   -0.176500
   1 C :   -0.032939
   2 C :   -0.079432
   3 C :   -0.178065
   4 S :    0.472866
   5 C :   -0.187720
   6 C :   -0.061544
   7 C :    0.082798
   8 C :   -0.104105
   9 C :   -0.016215
  10 N :   -0.036633
  11 C :   -0.016847
  12 N :   -0.033683
  13 C :   -0.034248
  14 C :   -0.164266
  15 S :    0.466624
  16 C :   -0.065814
  17 C :   -0.152372
  18 C :   -0.025034
  19 C :   -0.039172
  20 C :   -0.166271
  21 S :    0.412511
  22 C :   -0.180998
  23 C :   -0.025677
  24 C :   -0.036470
  25 C :   -0.134660
  26 S :    0.407480
  27 C :   -0.062955
  28 C :   -0.031117
  29 C :   -0.160645
  30 C :   -0.020966
  31 C :   -0.047139
  32 C :   -0.154170
  33 S :    0.406752
  34 C :   -0.196838
  35 C :   -0.024247
  36 C :   -0.049444
  37 C :   -0.131709
  38 S :    0.403212
  39 C :   -0.095214
  40 C :   -0.124498
  41 C :   -0.089562
  42 C :   -0.152338
  43 S :    0.374379
  44 C :   -0.153724
  45 C :   -0.193964
  46 S :    0.440248
  47 C :    0.015841
  48 C :   -0.091891
  49 C :    0.079325
  50 C :   -0.151752
  51 C :   -0.023319
  52 N :   -0.065250
  53 C :   -0.018705
  54 N :   -0.067397
  55 C :   -0.016049
  56 C :   -0.007104
  57 C :   -0.006294
  58 C :   -0.004539
  59 C :   -0.010401
  60 C :   -0.000406
  61 C :    0.046325
  62 C :   -0.160726
  63 C :   -0.019029
  64 N :   -0.070649
  65 C :   -0.023418
  66 N :   -0.060718
  67 H :    0.027773
  68 H :    0.043215
  69 H :    0.025584
  70 H :    0.036085
  71 H :    0.035361
  72 H :    0.034609
  73 H :    0.034344
  74 H :    0.038290
  75 H :    0.032340
  76 H :    0.033758
  77 H :    0.037439
  78 H :    0.032607
  79 H :    0.033059
  80 H :    0.033041
  81 H :    0.038665
  82 H :    0.027988
  83 H :    0.037063
  84 H :    0.030490
  85 H :    0.029502
  86 H :    0.042341
  87 H :    0.038251
  88 H :    0.033032
  89 H :    0.032870
  90 H :    0.038775

  Mayer bond orders larger than 0.100000
B(  0-C ,  1-C ) :   1.5532 B(  0-C ,  4-S ) :   1.1393 B(  0-C , 67-H ) :   0.9643
B(  1-C ,  2-C ) :   1.2719 B(  1-C , 68-H ) :   0.9950 B(  2-C ,  3-C ) :   1.4272
B(  2-C ,  7-C ) :   1.0355 B(  3-C ,  4-S ) :   1.1342 B(  3-C ,  5-C ) :   1.2233
B(  5-C ,  6-C ) :   1.4175 B(  5-C , 15-S ) :   1.1167 B(  6-C ,  7-C ) :   0.9861
B(  6-C , 13-C ) :   1.3722 B(  7-C ,  8-C ) :   1.6971 B(  8-C ,  9-C ) :   1.1384
B(  8-C , 11-C ) :   1.1347 B(  9-C , 10-N ) :   2.9795 B( 11-C , 12-N ) :   3.0008
B( 13-C , 14-C ) :   1.3692 B( 13-C , 69-H ) :   0.9692 B( 14-C , 15-S ) :   1.0898
B( 14-C , 16-C ) :   1.2157 B( 16-C , 17-C ) :   1.5356 B( 16-C , 70-H ) :   0.9519
B( 17-C , 18-C ) :   1.1864 B( 17-C , 21-S ) :   1.0478 B( 18-C , 19-C ) :   1.5302
B( 18-C , 71-H ) :   1.0009 B( 19-C , 20-C ) :   1.2444 B( 19-C , 72-H ) :   0.9941
B( 20-C , 21-S ) :   1.0721 B( 20-C , 22-C ) :   1.3941 B( 22-C , 23-C ) :   1.2682
B( 22-C , 26-S ) :   1.0661 B( 23-C , 24-C ) :   1.4845 B( 23-C , 73-H ) :   0.9953
B( 24-C , 25-C ) :   1.2409 B( 24-C , 74-H ) :   1.0016 B( 25-C , 26-S ) :   1.0757
B( 25-C , 27-C ) :   1.4094 B( 27-C , 28-C ) :   1.3180 B( 27-C , 75-H ) :   0.9735
B( 28-C , 29-C ) :   1.4164 B( 28-C , 76-H ) :   0.9721 B( 29-C , 30-C ) :   1.2499
B( 29-C , 33-S ) :   1.0558 B( 30-C , 31-C ) :   1.4719 B( 30-C , 77-H ) :   1.0006
B( 31-C , 32-C ) :   1.2801 B( 31-C , 78-H ) :   0.9953 B( 32-C , 33-S ) :   1.0908
B( 32-C , 34-C ) :   1.3726 B( 34-C , 35-C ) :   1.2705 B( 34-C , 38-S ) :   1.0564
B( 35-C , 36-C ) :   1.5001 B( 35-C , 79-H ) :   0.9929 B( 36-C , 37-C ) :   1.2131
B( 36-C , 80-H ) :   1.0016 B( 37-C , 38-S ) :   1.0801 B( 37-C , 39-C ) :   1.4322
B( 39-C , 40-C ) :   1.2827 B( 39-C , 81-H ) :   0.9705 B( 40-C , 41-C ) :   1.3187
B( 40-C , 46-S ) :   1.1120 B( 41-C , 42-C ) :   1.3711 B( 41-C , 82-H ) :   1.0019
B( 42-C , 43-S ) :   1.0717 B( 42-C , 45-C ) :   1.2803 B( 43-S , 44-C ) :   1.0134
B( 44-C , 83-H ) :   0.9697 B( 44-C , 84-H ) :   0.9652 B( 44-C , 85-H ) :   0.9641
B( 45-C , 46-S ) :   1.0736 B( 45-C , 47-C ) :   1.3979 B( 47-C , 48-C ) :   1.3897
B( 47-C , 86-H ) :   0.9078 B( 48-C , 49-C ) :   1.1312 B( 48-C , 61-C ) :   1.1159
B( 49-C , 50-C ) :   1.5768 B( 49-C , 55-C ) :   0.9796 B( 50-C , 51-C ) :   1.1443
B( 50-C , 53-C ) :   1.1560 B( 51-C , 52-N ) :   2.9710 B( 53-C , 54-N ) :   2.9677
B( 55-C , 56-C ) :   1.3217 B( 55-C , 60-C ) :   1.3891 B( 56-C , 57-C ) :   1.3959
B( 56-C , 61-C ) :   0.9954 B( 57-C , 58-C ) :   1.3494 B( 57-C , 87-H ) :   0.9861
B( 58-C , 59-C ) :   1.3906 B( 58-C , 88-H ) :   0.9867 B( 59-C , 60-C ) :   1.3573
B( 59-C , 89-H ) :   0.9854 B( 60-C , 90-H ) :   0.9833 B( 61-C , 62-C ) :   1.5497
B( 62-C , 63-C ) :   1.1553 B( 62-C , 65-C ) :   1.1710 B( 63-C , 64-N ) :   2.9811
B( 65-C , 66-N ) :   3.0133

-----------------------------------------------------------------------------
         ABSORPTION SPECTRUM VIA TRANSITION ELECTRIC DIPOLE MOMENTS
-----------------------------------------------------------------------------
State   Energy  Wavelength   fosc         T2         TX        TY        TZ
        (cm-1)    (nm)                  (au**2)     (au)      (au)      (au)
-----------------------------------------------------------------------------
   0    3930.4   2544.3   0.629417945  52.72073   6.46877   3.06546   1.21601
   1    7676.3   1302.7   0.106253616   4.55690  -2.05738  -0.22505  -0.52291
   2   11925.0    838.6   0.011421621   0.31531   0.12423   0.54133  -0.08275
   3   14356.4    696.6   0.284960475   6.53452  -1.34646   1.40829   1.65478
   4   16331.2    612.3   0.146905170   2.96139  -1.11986   1.04063   0.79018
   5   16599.4    602.4   0.071647653   1.42097   0.60906  -0.57736   0.84656
   6   18211.9    549.1   0.018584839   0.33595   0.16174  -0.52079  -0.19639
   7   20600.0    485.4   0.674034657  10.77184  -0.67062   3.01000   1.12338
   8   21843.1    457.8   0.160349149   2.41673  -0.63138   1.31129   0.54645
   9   22299.6    448.4   0.042650103   0.62965   0.65186  -0.35770  -0.27710
  10   23072.9    433.4   0.257726459   3.67732  -0.88951   1.61532   0.52615
  11   23855.0    419.2   0.072648159   1.00258  -0.85524   0.51975  -0.03172
  12   25123.7    398.0   0.082727610   1.08403  -0.29436   0.04604  -0.99763
  13   26237.4    381.1   0.176266932   2.21170   0.31199   1.44168   0.18952
  14   26635.9    375.4   0.206792078   2.55589   0.73400   1.21642   0.73312
  15   27432.6    364.5   0.227055124   2.72483  -0.22267   1.63558   0.01071
  16   27794.4    359.8   0.176748835   2.09351   0.06557   1.39924   0.36242
  17   28357.4    352.6   0.093444621   1.08483   0.18114  -1.00540  -0.20295
  18   28946.3    345.5   0.034649650   0.39408  -0.59885  -0.16864  -0.08375
  19   29345.7    340.8   0.104108184   1.16793   0.81721  -0.70445   0.06203
  20   29480.2    339.2   0.057911543   0.64671  -0.54270   0.47893   0.35045
  21   29765.5    336.0   0.014993004   0.16583   0.34279   0.00176  -0.21980
  22   30009.2    333.2   0.260251153   2.85505  -1.61547   0.44668  -0.21397
  23   30192.6    331.2   0.027343239   0.29814  -0.11447  -0.51988   0.12151
  24   30390.5    329.1   0.095509028   1.03462   0.96799   0.28973  -0.11694
  25   30681.0    325.9   0.053654701   0.57572   0.33860   0.67005   0.11001
  26   31468.8    317.8   0.069387124   0.72590  -0.46288  -0.48853  -0.52248
  27   31755.7    314.9   0.040116676   0.41589   0.21442  -0.57982  -0.18365
  28   31819.7    314.3   0.301717534   3.12162   0.93487  -1.11235   1.00514
  29   31986.2    312.6   0.064412015   0.66295  -0.77279  -0.25554   0.02099
  30   32403.6    308.6   0.005178732   0.05261   0.16564   0.04353   0.15259
  31   32608.2    306.7   0.006856059   0.06922   0.22958   0.09900  -0.08191
  32   32725.2    305.6   0.244095858   2.45558   1.52989   0.28740  -0.18009
  33   32800.5    304.9   0.001521499   0.01527  -0.11305  -0.01293   0.04819
  34   33358.7    299.8   0.161143246   1.59030   0.59995  -1.05841  -0.33186
  35   33760.5    296.2   0.151585675   1.47817  -1.12092   0.29199  -0.36939
  36   34038.7    293.8   0.064527343   0.62409   0.04994  -0.61960   0.48754
  37   34096.6    293.3   0.151117717   1.45908   0.78118   0.24739   0.88749
  38   34823.2    287.2   0.014410483   0.13623   0.18230  -0.31602  -0.05599
  39   35053.0    285.3   0.075878101   0.71263   0.10747   0.82013   0.16875
  40   35805.6    279.3   0.082842890   0.76169   0.60210   0.61025   0.16359
  41   35987.8    277.9   0.125187552   1.14520   0.47052  -0.87864  -0.38962
  42   36198.2    276.3   0.001453089   0.01322  -0.09631   0.05746  -0.02525
  43   36604.8    273.2   0.079976147   0.71928  -0.12589  -0.83799  -0.03471
  44   36744.2    272.2   0.046820387   0.41949   0.29744  -0.32758   0.47299
  45   37037.2    270.0   0.043306260   0.38494   0.12337   0.57459   0.19889
  46   37103.1    269.5   0.041202973   0.36559   0.02446   0.49130   0.35159
  47   37419.8    267.2   0.000948880   0.00835   0.04939  -0.07671   0.00488
  48   37579.3    266.1   0.016281778   0.14264   0.37164  -0.06601   0.01277
  49   37977.0    263.3   0.071781466   0.62225  -0.09516  -0.68954  -0.37111
  50   38142.6    262.2   0.033182711   0.28640  -0.31708  -0.43035  -0.02571
  51   38812.1    257.7   0.045070632   0.38230   0.16070  -0.59492  -0.05045
  52   38876.9    257.2   0.049245285   0.41701   0.09816  -0.62462  -0.13123
  53   39104.5    255.7   0.001026693   0.00864  -0.05821   0.05929  -0.04170
  54   39266.3    254.7   0.007271775   0.06097  -0.15916   0.11072   0.15289
  55   39454.5    253.5   0.033922786   0.28306   0.13080   0.47111   0.20976
  56   39505.4    253.1   0.003053795   0.02545   0.14090   0.07445   0.00730
  57   39754.0    251.5   0.006298239   0.05216  -0.13039   0.17541  -0.06623
  58   39864.3    250.9   0.053644171   0.44301   0.35771  -0.20329   0.52319
  59   40084.7    249.5   0.081792518   0.67175  -0.63888   0.36897  -0.35699

FINAL SINGLE POINT ENERGY     -5543.875274120172

DIPOLE MOMENT
-------------
                                X             Y             Z
Electronic contribution:    -39.21734     -19.86514      -4.49757
Nuclear contribution   :     34.89949      16.95594       2.09138
                        -----------------------------------------
Total Dipole Moment    :     -4.31784      -2.90920      -2.40619
                        -----------------------------------------
Magnitude (a.u.)       :      5.73559
Magnitude (Debye)      :     14.57871

Rotational constants in cm-1:     0.001748     0.000214     0.000198
Rotational constants in MHz :    52.399038     6.423999     5.933009

                             ****ORCA TERMINATED NORMALLY****
TOTAL RUN TIME: 0 days 0 hours 10 minutes 20 seconds 874 msec
