                         Program Version 4.2.0 -  RELEASE  -
|  1> # ORCA input file
|  2> # SCF done       -199.584979069917          0.000573474408
|  3> ! CAM-B3LYP def2-SVP def2/J RIJCOSX Grid4 TightSCF
|  4> %maxcore 5000
|  5> %tddft
|  6>     Mode sTDDFT
|  7>     Ethresh 5.0
|  8>     maxcore 5000
|  9> end
| 10>
| 11> %pal
| 12>   nprocs 6
| 13>   end
| 14> * xyz 0 1
| 15>    C       -6.20039         1.97187        -5.36417
| 16>    C       -5.77493         2.40534        -6.58878
| 17>    F       -5.89775         3.69674        -6.92624
| 18>    C       -5.20434         1.50504        -7.50945
| 19>    F       -4.79548         1.95731        -8.70380
| 20>    C       -5.06731         0.18233        -7.19320
| 21>    C       -5.49704        -0.29451        -5.94005
| 22>    C       -6.07327         0.61486        -5.00738
| 23>    C       -6.51189         0.15922        -3.74174
| 24>    C       -6.38088        -1.16525        -3.42063
| 25>    C       -5.81002        -2.06508        -4.36097
| 26>    C       -5.37319        -1.65697        -5.58774
| 27>    C       -5.79816        -3.42230        -3.79040
| 28>    O       -5.35213        -4.41101        -4.36041
| 29>    C       -6.41314        -3.31595        -2.46273
| 30>    C       -6.73526        -1.92290        -2.22128
| 31>    C       -7.25391        -1.36468        -1.07830
| 32>    C       -7.57920        -2.04024         0.11540
| 33>    N       -7.86782        -2.49734         1.12996
| 34>    C       -7.52506         0.01108        -0.92743
| 35>    N       -7.77075         1.11609        -0.73322
| 36>    C       -6.69680        -4.33184        -1.56916
| 37>    C       -6.46324        -5.70680        -1.63160
| 38>    N       -5.83032        -6.38143        -2.65288
| 39>    C       -5.80113        -7.69031        -2.34267
| 40>    C       -5.38113        -8.93888        -2.78766
| 41>    C       -5.76703        -9.85727        -1.80180
| 42>    N       -6.40587        -9.19524        -0.77480
| 43>    C       -6.43916        -7.86675        -1.07363
| 44>    C       -6.85101        -6.63167        -0.62536
| 45>    C       -5.54688       -11.25621        -1.83514
| 46>    C       -5.98093       -12.15284        -0.90976
| 47>    C       -5.74999       -13.54522        -0.94768
| 48>    S       -6.49375       -14.57738         0.26127
| 49>    C       -5.82316       -16.05592        -0.37604
| 50>    C       -5.03467       -15.75193        -1.49203
| 51>    C       -5.00697       -14.35217        -1.79749
| 52>    N       -4.21385       -14.17709        -2.88709
| 53>    C       -3.74555       -15.41016        -3.27249
| 54>    N       -2.89326       -15.50684        -4.38348
| 55>    O       -2.61657       -14.45740        -4.94707
| 56>    O       -2.49204       -16.60730        -4.70695
| 57>    C       -4.22617       -16.40308        -2.44650
| 58>    C       -6.10946       -17.30181         0.21420
| 59>    N       -6.94595       -17.41703         1.30566
| 60>    C       -7.04249       -18.73065         1.63873
| 61>    C       -7.63858       -19.62183         2.51723
| 62>    C       -7.18485       -20.90060         2.14378
| 63>    N       -6.34763       -20.77796         1.04751
| 64>    C       -6.23592       -19.46700         0.72641
| 65>    C       -5.65312       -18.57561        -0.16404
| 66>    C       -7.48815       -22.18209         2.65138
| 67>    C       -8.16393       -22.49318         3.79639
| 68>    C       -8.47614       -21.60656         4.84399
| 69>    C       -9.34046       -21.83538         5.88095
| 70>    C       -9.24528       -21.04039         7.12691
| 71>    O       -8.61093       -20.02107         7.29295
| 72>    C      -10.04892       -21.78092         8.12359
| 73>    C      -10.21125       -21.53081         9.45499
| 74>    C      -11.01032       -22.40492        10.22683
| 75>    C      -11.62506       -23.52685         9.59965
| 76>    C      -12.41356       -24.39926        10.37598
| 77>    C      -12.58610       -24.16743        11.71182
| 78>    C      -11.97971       -23.05653        12.33056
| 79>    C      -11.20816       -22.19262        11.60482
| 80>    F      -12.16553       -22.85319        13.64261
| 81>    F      -13.33650       -24.99842        12.44825
| 82>    C      -11.44688       -23.75509         8.21536
| 83>    C      -10.67390       -22.89182         7.48714
| 84>    C      -10.34523       -22.85303         6.06305
| 85>    C      -11.02204       -23.51923         5.07107
| 86>    C      -10.89547       -23.21632         3.70010
| 87>    N      -10.87247       -22.96324         2.58032
| 88>    C      -12.00703       -24.49669         5.31469
| 89>    N      -12.79753       -25.31658         5.46130
| 90>    H       -6.63457         2.67493        -4.67065
| 91>    H       -4.62867        -0.49473        -7.90930
| 92>    H       -6.94403         0.87499        -3.06212
| 93>    H       -4.94192        -2.36374        -6.28026
| 94>    H       -7.19692        -4.03532        -0.65737
| 95>    H       -5.48745        -5.89565        -3.48496
| 96>    H       -4.86949        -9.18063        -3.69697
| 97>    H       -6.76518        -9.62709         0.05752
| 98>    H       -7.35932        -6.37477         0.28224
| 99>    H       -4.99528       -11.60127        -2.69598
|100>    H       -6.56749       -11.81407        -0.06647
|101>    H       -3.95422       -13.32676        -3.36083
|102>    H       -4.00450       -17.44486        -2.54349
|103>    H       -7.39991       -16.64250         1.75897
|104>    H       -8.34834       -19.40363         3.28726
|105>    H       -5.89624       -21.55072         0.58876
|106>    H       -4.99257       -18.78820        -0.97740
|107>    H       -7.18119       -23.00723         2.02041
|108>    H       -8.43111       -23.53218         3.93987
|109>    H       -7.89328       -20.69614         4.92262
|110>    H       -9.73607       -20.67805         9.91559
|111>    H      -12.88749       -25.25277         9.91690
|112>    H      -10.75064       -21.34691        12.09389
|113>    H      -11.92098       -24.61369         7.76711
|114> *
|115>
|116>                          ****END OF INPUT****

CARTESIAN COORDINATES (ANGSTROEM)
---------------------------------
  C     -6.200390    1.971870   -5.364170
  C     -5.774930    2.405340   -6.588780
  F     -5.897750    3.696740   -6.926240
  C     -5.204340    1.505040   -7.509450
  F     -4.795480    1.957310   -8.703800
  C     -5.067310    0.182330   -7.193200
  C     -5.497040   -0.294510   -5.940050
  C     -6.073270    0.614860   -5.007380
  C     -6.511890    0.159220   -3.741740
  C     -6.380880   -1.165250   -3.420630
  C     -5.810020   -2.065080   -4.360970
  C     -5.373190   -1.656970   -5.587740
  C     -5.798160   -3.422300   -3.790400
  O     -5.352130   -4.411010   -4.360410
  C     -6.413140   -3.315950   -2.462730
  C     -6.735260   -1.922900   -2.221280
  C     -7.253910   -1.364680   -1.078300
  C     -7.579200   -2.040240    0.115400
  N     -7.867820   -2.497340    1.129960
  C     -7.525060    0.011080   -0.927430
  N     -7.770750    1.116090   -0.733220
  C     -6.696800   -4.331840   -1.569160
  C     -6.463240   -5.706800   -1.631600
  N     -5.830320   -6.381430   -2.652880
  C     -5.801130   -7.690310   -2.342670
  C     -5.381130   -8.938880   -2.787660
  C     -5.767030   -9.857270   -1.801800
  N     -6.405870   -9.195240   -0.774800
  C     -6.439160   -7.866750   -1.073630
  C     -6.851010   -6.631670   -0.625360
  C     -5.546880  -11.256210   -1.835140
  C     -5.980930  -12.152840   -0.909760
  C     -5.749990  -13.545220   -0.947680
  S     -6.493750  -14.577380    0.261270
  C     -5.823160  -16.055920   -0.376040
  C     -5.034670  -15.751930   -1.492030
  C     -5.006970  -14.352170   -1.797490
  N     -4.213850  -14.177090   -2.887090
  C     -3.745550  -15.410160   -3.272490
  N     -2.893260  -15.506840   -4.383480
  O     -2.616570  -14.457400   -4.947070
  O     -2.492040  -16.607300   -4.706950
  C     -4.226170  -16.403080   -2.446500
  C     -6.109460  -17.301810    0.214200
  N     -6.945950  -17.417030    1.305660
  C     -7.042490  -18.730650    1.638730
  C     -7.638580  -19.621830    2.517230
  C     -7.184850  -20.900600    2.143780
  N     -6.347630  -20.777960    1.047510
  C     -6.235920  -19.467000    0.726410
  C     -5.653120  -18.575610   -0.164040
  C     -7.488150  -22.182090    2.651380
  C     -8.163930  -22.493180    3.796390
  C     -8.476140  -21.606560    4.843990
  C     -9.340460  -21.835380    5.880950
  C     -9.245280  -21.040390    7.126910
  O     -8.610930  -20.021070    7.292950
  C    -10.048920  -21.780920    8.123590
  C    -10.211250  -21.530810    9.454990
  C    -11.010320  -22.404920   10.226830
  C    -11.625060  -23.526850    9.599650
  C    -12.413560  -24.399260   10.375980
  C    -12.586100  -24.167430   11.711820
  C    -11.979710  -23.056530   12.330560
  C    -11.208160  -22.192620   11.604820
  F    -12.165530  -22.853190   13.642610
  F    -13.336500  -24.998420   12.448250
  C    -11.446880  -23.755090    8.215360
  C    -10.673900  -22.891820    7.487140
  C    -10.345230  -22.853030    6.063050
  C    -11.022040  -23.519230    5.071070
  C    -10.895470  -23.216320    3.700100
  N    -10.872470  -22.963240    2.580320
  C    -12.007030  -24.496690    5.314690
  N    -12.797530  -25.316580    5.461300
  H     -6.634570    2.674930   -4.670650
  H     -4.628670   -0.494730   -7.909300
  H     -6.944030    0.874990   -3.062120
  H     -4.941920   -2.363740   -6.280260
  H     -7.196920   -4.035320   -0.657370
  H     -5.487450   -5.895650   -3.484960
  H     -4.869490   -9.180630   -3.696970
  H     -6.765180   -9.627090    0.057520
  H     -7.359320   -6.374770    0.282240
  H     -4.995280  -11.601270   -2.695980
  H     -6.567490  -11.814070   -0.066470
  H     -3.954220  -13.326760   -3.360830
  H     -4.004500  -17.444860   -2.543490
  H     -7.399910  -16.642500    1.758970
  H     -8.348340  -19.403630    3.287260
  H     -5.896240  -21.550720    0.588760
  H     -4.992570  -18.788200   -0.977400
  H     -7.181190  -23.007230    2.020410
  H     -8.431110  -23.532180    3.939870
  H     -7.893280  -20.696140    4.922620
  H     -9.736070  -20.678050    9.915590
  H    -12.887490  -25.252770    9.916900
  H    -10.750640  -21.346910   12.093890
  H    -11.920980  -24.613690    7.767110

 Total Charge           Charge          ....    0
 Multiplicity           Mult            ....    1
 Number of Electrons    NEL             ....  514
 Basis Dimension        Dim             .... 1174

ORBITAL ENERGIES
----------------

  NO   OCC          E(Eh)            E(eV)
   0   2.0000     -88.989688     -2421.5325
   1   2.0000     -24.796905      -674.7581
   2   2.0000     -24.796141      -674.7373
   3   2.0000     -24.793295      -674.6598
   4   2.0000     -24.792179      -674.6295
   5   2.0000     -19.257463      -524.0222
   6   2.0000     -19.257279      -524.0172
   7   2.0000     -19.218908      -522.9731
   8   2.0000     -19.213031      -522.8132
   9   2.0000     -14.667366      -399.1193
  10   2.0000     -14.494432      -394.4135
  11   2.0000     -14.482951      -394.1011
  12   2.0000     -14.479934      -394.0190
  13   2.0000     -14.473916      -393.8553
  14   2.0000     -14.453433      -393.2979
  15   2.0000     -14.414848      -392.2480
  16   2.0000     -14.411591      -392.1593
  17   2.0000     -14.407923      -392.0595
  18   2.0000     -14.404134      -391.9564
  19   2.0000     -10.379776      -282.4481
  20   2.0000     -10.379284      -282.4347
  21   2.0000     -10.375756      -282.3387
  22   2.0000     -10.375041      -282.3192
  23   2.0000     -10.374925      -282.3161
  24   2.0000     -10.367988      -282.1273
  25   2.0000     -10.363951      -282.0174
  26   2.0000     -10.344830      -281.4971
  27   2.0000     -10.341882      -281.4169
  28   2.0000     -10.341517      -281.4070
  29   2.0000     -10.341281      -281.4006
  30   2.0000     -10.338817      -281.3335
  31   2.0000     -10.334605      -281.2189
  32   2.0000     -10.332211      -281.1537
  33   2.0000     -10.328943      -281.0648
  34   2.0000     -10.328509      -281.0530
  35   2.0000     -10.328157      -281.0434
  36   2.0000     -10.321034      -280.8496
  37   2.0000     -10.318662      -280.7851
  38   2.0000     -10.317678      -280.7583
  39   2.0000     -10.317040      -280.7409
  40   2.0000     -10.316120      -280.7159
  41   2.0000     -10.314875      -280.6820
  42   2.0000     -10.314317      -280.6668
  43   2.0000     -10.313752      -280.6515
  44   2.0000     -10.312135      -280.6074
  45   2.0000     -10.312074      -280.6058
  46   2.0000     -10.311963      -280.6028
  47   2.0000     -10.311883      -280.6006
  48   2.0000     -10.311084      -280.5789
  49   2.0000     -10.309480      -280.5352
  50   2.0000     -10.308790      -280.5164
  51   2.0000     -10.308512      -280.5089
  52   2.0000     -10.308482      -280.5081
  53   2.0000     -10.305705      -280.4325
  54   2.0000     -10.304090      -280.3885
  55   2.0000     -10.303690      -280.3777
  56   2.0000     -10.302882      -280.3557
  57   2.0000     -10.300847      -280.3003
  58   2.0000     -10.299981      -280.2767
  59   2.0000     -10.299837      -280.2728
  60   2.0000     -10.299431      -280.2618
  61   2.0000     -10.298917      -280.2478
  62   2.0000     -10.296307      -280.1767
  63   2.0000     -10.295908      -280.1659
  64   2.0000     -10.294642      -280.1315
  65   2.0000     -10.294338      -280.1232
  66   2.0000     -10.292320      -280.0683
  67   2.0000     -10.291671      -280.0506
  68   2.0000     -10.291611      -280.0490
  69   2.0000     -10.290702      -280.0242
  70   2.0000     -10.290262      -280.0123
  71   2.0000     -10.288523      -279.9649
  72   2.0000     -10.287668      -279.9417
  73   2.0000     -10.286854      -279.9195
  74   2.0000     -10.279130      -279.7094
  75   2.0000      -8.084519      -219.9909
  76   2.0000      -6.053906      -164.7351
  77   2.0000      -6.049830      -164.6243
  78   2.0000      -6.046575      -164.5357
  79   2.0000      -1.336934       -36.3798
  80   2.0000      -1.319229       -35.8980
  81   2.0000      -1.315321       -35.7917
  82   2.0000      -1.304394       -35.4944
  83   2.0000      -1.300506       -35.3886
  84   2.0000      -1.157017       -31.4840
  85   2.0000      -1.132057       -30.8048
  86   2.0000      -1.127154       -30.6714
  87   2.0000      -1.118892       -30.4466
  88   2.0000      -1.115197       -30.3460
  89   2.0000      -1.104534       -30.0559
  90   2.0000      -1.079071       -29.3630
  91   2.0000      -1.065355       -28.9898
  92   2.0000      -1.017514       -27.6880
  93   2.0000      -1.011303       -27.5190
  94   2.0000      -1.003017       -27.2935
  95   2.0000      -1.002031       -27.2666
  96   2.0000      -0.997430       -27.1415
  97   2.0000      -0.992041       -26.9948
  98   2.0000      -0.985005       -26.8034
  99   2.0000      -0.979327       -26.6488
 100   2.0000      -0.974194       -26.5092
 101   2.0000      -0.938820       -25.5466
 102   2.0000      -0.936023       -25.4705
 103   2.0000      -0.925405       -25.1816
 104   2.0000      -0.922197       -25.0943
 105   2.0000      -0.918909       -25.0048
 106   2.0000      -0.903800       -24.5936
 107   2.0000      -0.900853       -24.5135
 108   2.0000      -0.899265       -24.4703
 109   2.0000      -0.894970       -24.3534
 110   2.0000      -0.891200       -24.2508
 111   2.0000      -0.888768       -24.1846
 112   2.0000      -0.887028       -24.1373
 113   2.0000      -0.883088       -24.0301
 114   2.0000      -0.875280       -23.8176
 115   2.0000      -0.871031       -23.7020
 116   2.0000      -0.862941       -23.4818
 117   2.0000      -0.848666       -23.0934
 118   2.0000      -0.838748       -22.8235
 119   2.0000      -0.834252       -22.7012
 120   2.0000      -0.822346       -22.3772
 121   2.0000      -0.811196       -22.0738
 122   2.0000      -0.800663       -21.7872
 123   2.0000      -0.794159       -21.6102
 124   2.0000      -0.772634       -21.0244
 125   2.0000      -0.763882       -20.7863
 126   2.0000      -0.761503       -20.7216
 127   2.0000      -0.752851       -20.4861
 128   2.0000      -0.743411       -20.2292
 129   2.0000      -0.732326       -19.9276
 130   2.0000      -0.726137       -19.7592
 131   2.0000      -0.719147       -19.5690
 132   2.0000      -0.715744       -19.4764
 133   2.0000      -0.713488       -19.4150
 134   2.0000      -0.711559       -19.3625
 135   2.0000      -0.706662       -19.2292
 136   2.0000      -0.705436       -19.1959
 137   2.0000      -0.701261       -19.0823
 138   2.0000      -0.697521       -18.9805
 139   2.0000      -0.696490       -18.9525
 140   2.0000      -0.682692       -18.5770
 141   2.0000      -0.681757       -18.5515
 142   2.0000      -0.676318       -18.4035
 143   2.0000      -0.666760       -18.1435
 144   2.0000      -0.660638       -17.9769
 145   2.0000      -0.660063       -17.9612
 146   2.0000      -0.655165       -17.8280
 147   2.0000      -0.653106       -17.7719
 148   2.0000      -0.650758       -17.7080
 149   2.0000      -0.649945       -17.6859
 150   2.0000      -0.644950       -17.5500
 151   2.0000      -0.640641       -17.4327
 152   2.0000      -0.636025       -17.3071
 153   2.0000      -0.635275       -17.2867
 154   2.0000      -0.624547       -16.9948
 155   2.0000      -0.613798       -16.7023
 156   2.0000      -0.612695       -16.6723
 157   2.0000      -0.608099       -16.5472
 158   2.0000      -0.604525       -16.4499
 159   2.0000      -0.599742       -16.3198
 160   2.0000      -0.599134       -16.3033
 161   2.0000      -0.586137       -15.9496
 162   2.0000      -0.585262       -15.9258
 163   2.0000      -0.583947       -15.8900
 164   2.0000      -0.583544       -15.8790
 165   2.0000      -0.580081       -15.7848
 166   2.0000      -0.578256       -15.7352
 167   2.0000      -0.576204       -15.6793
 168   2.0000      -0.572084       -15.5672
 169   2.0000      -0.567109       -15.4318
 170   2.0000      -0.562907       -15.3175
 171   2.0000      -0.558531       -15.1984
 172   2.0000      -0.556650       -15.1472
 173   2.0000      -0.553371       -15.0580
 174   2.0000      -0.552271       -15.0281
 175   2.0000      -0.551790       -15.0150
 176   2.0000      -0.549849       -14.9622
 177   2.0000      -0.548071       -14.9138
 178   2.0000      -0.547407       -14.8957
 179   2.0000      -0.545619       -14.8471
 180   2.0000      -0.544403       -14.8140
 181   2.0000      -0.541852       -14.7445
 182   2.0000      -0.537500       -14.6261
 183   2.0000      -0.536500       -14.5989
 184   2.0000      -0.533567       -14.5191
 185   2.0000      -0.532492       -14.4898
 186   2.0000      -0.529436       -14.4067
 187   2.0000      -0.528687       -14.3863
 188   2.0000      -0.526295       -14.3212
 189   2.0000      -0.525205       -14.2916
 190   2.0000      -0.518358       -14.1052
 191   2.0000      -0.515524       -14.0281
 192   2.0000      -0.514266       -13.9939
 193   2.0000      -0.512048       -13.9335
 194   2.0000      -0.507484       -13.8093
 195   2.0000      -0.503120       -13.6906
 196   2.0000      -0.501447       -13.6451
 197   2.0000      -0.500887       -13.6298
 198   2.0000      -0.495829       -13.4922
 199   2.0000      -0.493998       -13.4424
 200   2.0000      -0.490977       -13.3602
 201   2.0000      -0.489561       -13.3216
 202   2.0000      -0.486914       -13.2496
 203   2.0000      -0.483549       -13.1580
 204   2.0000      -0.483154       -13.1473
 205   2.0000      -0.479652       -13.0520
 206   2.0000      -0.478012       -13.0074
 207   2.0000      -0.472956       -12.8698
 208   2.0000      -0.470705       -12.8085
 209   2.0000      -0.468627       -12.7520
 210   2.0000      -0.465042       -12.6544
 211   2.0000      -0.463753       -12.6194
 212   2.0000      -0.462719       -12.5912
 213   2.0000      -0.458593       -12.4790
 214   2.0000      -0.453718       -12.3463
 215   2.0000      -0.450931       -12.2704
 216   2.0000      -0.449688       -12.2366
 217   2.0000      -0.448194       -12.1960
 218   2.0000      -0.444852       -12.1050
 219   2.0000      -0.441470       -12.0130
 220   2.0000      -0.441381       -12.0106
 221   2.0000      -0.440092       -11.9755
 222   2.0000      -0.436270       -11.8715
 223   2.0000      -0.435074       -11.8390
 224   2.0000      -0.428314       -11.6550
 225   2.0000      -0.425663       -11.5829
 226   2.0000      -0.425573       -11.5804
 227   2.0000      -0.423957       -11.5365
 228   2.0000      -0.418735       -11.3944
 229   2.0000      -0.416152       -11.3241
 230   2.0000      -0.415159       -11.2971
 231   2.0000      -0.404403       -11.0044
 232   2.0000      -0.402387       -10.9495
 233   2.0000      -0.400658       -10.9025
 234   2.0000      -0.397878       -10.8268
 235   2.0000      -0.395896       -10.7729
 236   2.0000      -0.391139       -10.6434
 237   2.0000      -0.387307       -10.5391
 238   2.0000      -0.387298       -10.5389
 239   2.0000      -0.382012       -10.3951
 240   2.0000      -0.380132       -10.3439
 241   2.0000      -0.365137        -9.9359
 242   2.0000      -0.363793        -9.8993
 243   2.0000      -0.344974        -9.3872
 244   2.0000      -0.342140        -9.3101
 245   2.0000      -0.336676        -9.1614
 246   2.0000      -0.331247        -9.0137
 247   2.0000      -0.326402        -8.8819
 248   2.0000      -0.315545        -8.5864
 249   2.0000      -0.312513        -8.5039
 250   2.0000      -0.312069        -8.4918
 251   2.0000      -0.303183        -8.2500
 252   2.0000      -0.300748        -8.1838
 253   2.0000      -0.296464        -8.0672
 254   2.0000      -0.289690        -7.8829
 255   2.0000      -0.257730        -7.0132
 256   2.0000      -0.225771        -6.1435
 257   0.0000      -0.107908        -2.9363
 258   0.0000      -0.087875        -2.3912
 259   0.0000      -0.076867        -2.0917
 260   0.0000      -0.058146        -1.5822
 261   0.0000      -0.057122        -1.5544

MULLIKEN ATOMIC CHARGES
-----------------------
   0 C :   -0.109750
   1 C :    0.242340
   2 F :   -0.173493
   3 C :    0.236062
   4 F :   -0.174622
   5 C :   -0.106097
   6 C :    0.117679
   7 C :    0.112924
   8 C :   -0.087084
   9 C :    0.050007
  10 C :    0.002797
  11 C :   -0.088525
  12 C :    0.171061
  13 O :   -0.221822
  14 C :   -0.094117
  15 C :    0.327080
  16 C :   -0.377515
  17 C :   -0.182929
  18 N :    0.139542
  19 C :   -0.183030
  20 N :    0.136850
  21 C :    0.007290
  22 C :    0.031411
  23 N :   -0.011195
  24 C :    0.139294
  25 C :   -0.174447
  26 C :    0.096208
  27 N :   -0.041790
  28 C :    0.144039
  29 C :   -0.162297
  30 C :    0.019939
  31 C :    0.074827
  32 C :   -0.200404
  33 S :    0.126230
  34 C :   -0.102156
  35 C :    0.098168
  36 C :    0.131163
  37 N :   -0.039761
  38 C :    0.135921
  39 N :    0.289405
  40 O :   -0.264835
  41 O :   -0.235982
  42 C :   -0.099693
  43 C :    0.091151
  44 N :   -0.050052
  45 C :    0.119920
  46 C :   -0.153019
  47 C :    0.090018
  48 N :   -0.032178
  49 C :    0.128154
  50 C :   -0.169746
  51 C :    0.047480
  52 C :   -0.016119
  53 C :    0.029807
  54 C :   -0.125844
  55 C :    0.143158
  56 O :   -0.150909
  57 C :    0.002813
  58 C :   -0.085693
  59 C :    0.114791
  60 C :    0.113590
  61 C :   -0.108426
  62 C :    0.241059
  63 C :    0.237005
  64 C :   -0.104940
  65 F :   -0.173718
  66 F :   -0.172307
  67 C :   -0.087020
  68 C :    0.045545
  69 C :    0.280048
  70 C :   -0.334191
  71 C :   -0.220365
  72 N :    0.165500
  73 C :   -0.176108
  74 N :    0.143325
  75 H :    0.006143
  76 H :   -0.003431
  77 H :   -0.007762
  78 H :   -0.014909
  79 H :   -0.012267
  80 H :    0.144900
  81 H :   -0.025624
  82 H :    0.128135
  83 H :   -0.009194
  84 H :   -0.056203
  85 H :   -0.045437
  86 H :    0.146166
  87 H :   -0.003725
  88 H :    0.132209
  89 H :   -0.009167
  90 H :    0.127045
  91 H :   -0.039976
  92 H :   -0.008329
  93 H :    0.015143
  94 H :    0.017576
  95 H :   -0.011629
  96 H :    0.005607
  97 H :   -0.001917
  98 H :   -0.004775
Sum of atomic charges:   -0.0000000

LOEWDIN ATOMIC CHARGES
----------------------
   0 C :   -0.029634
   1 C :    0.064965
   2 F :   -0.051225
   3 C :    0.065381
   4 F :   -0.052150
   5 C :   -0.034617
   6 C :   -0.010793
   7 C :   -0.007306
   8 C :    0.014733
   9 C :   -0.019813
  10 C :   -0.048915
  11 C :    0.025647
  12 C :    0.095370
  13 O :   -0.173293
  14 C :   -0.129491
  15 C :    0.077603
  16 C :   -0.156471
  17 C :   -0.022379
  18 N :   -0.065517
  19 C :   -0.017474
  20 N :   -0.066611
  21 C :    0.055520
  22 C :   -0.014585
  23 N :    0.083513
  24 C :    0.016950
  25 C :   -0.097899
  26 C :    0.032465
  27 N :    0.060202
  28 C :   -0.018211
  29 C :   -0.045608
  30 C :   -0.053072
  31 C :   -0.039412
  32 C :   -0.212230
  33 S :    0.440976
  34 C :   -0.165019
  35 C :   -0.066911
  36 C :    0.005637
  37 N :    0.070863
  38 C :   -0.003310
  39 N :    0.280479
  40 O :   -0.225812
  41 O :   -0.198266
  42 C :   -0.024171
  43 C :   -0.003960
  44 N :    0.067117
  45 C :   -0.011527
  46 C :   -0.066704
  47 C :   -0.001096
  48 N :    0.075674
  49 C :   -0.004539
  50 C :   -0.086599
  51 C :    0.016638
  52 C :   -0.043730
  53 C :    0.060106
  54 C :   -0.099372
  55 C :    0.079713
  56 O :   -0.152555
  57 C :   -0.053148
  58 C :    0.027571
  59 C :   -0.010320
  60 C :   -0.006572
  61 C :   -0.030547
  62 C :    0.066099
  63 C :    0.066124
  64 C :   -0.033608
  65 F :   -0.051154
  66 F :   -0.050141
  67 C :    0.011945
  68 C :   -0.019475
  69 C :    0.067650
  70 C :   -0.143218
  71 C :   -0.023833
  72 N :   -0.054475
  73 C :   -0.018998
  74 N :   -0.056491
  75 H :    0.047298
  76 H :    0.043541
  77 H :    0.039630
  78 H :    0.038116
  79 H :    0.050499
  80 H :    0.068223
  81 H :    0.028696
  82 H :    0.088266
  83 H :    0.034728
  84 H :    0.027207
  85 H :    0.022768
  86 H :    0.089985
  87 H :    0.038951
  88 H :    0.085522
  89 H :    0.033046
  90 H :    0.093421
  91 H :    0.026261
  92 H :    0.037827
  93 H :    0.038473
  94 H :    0.040795
  95 H :    0.039502
  96 H :    0.047015
  97 H :    0.044201
  98 H :    0.039342

  Mayer bond orders larger than 0.100000
B(  0-C ,  1-C ) :   1.4353 B(  0-C ,  5-C ) :   0.1090 B(  0-C ,  7-C ) :   1.1949
B(  0-C , 75-H ) :   1.0061 B(  1-C ,  2-F ) :   1.1324 B(  1-C ,  3-C ) :   1.1961
B(  3-C ,  4-F ) :   1.1306 B(  3-C ,  5-C ) :   1.4406 B(  5-C ,  6-C ) :   1.1927
B(  5-C , 76-H ) :   1.0062 B(  6-C ,  7-C ) :   1.2613 B(  6-C , 11-C ) :   1.1818
B(  7-C ,  8-C ) :   1.2054 B(  8-C ,  9-C ) :   1.4637 B(  8-C , 77-H ) :   0.9881
B(  9-C , 10-C ) :   1.2242 B(  9-C , 15-C ) :   0.9668 B( 10-C , 11-C ) :   1.4695
B( 10-C , 12-C ) :   0.9728 B( 11-C , 78-H ) :   1.0162 B( 12-C , 13-O ) :   2.0448
B( 12-C , 14-C ) :   0.9982 B( 13-O , 80-H ) :   0.1441 B( 14-C , 15-C ) :   1.1238
B( 14-C , 21-C ) :   1.3696 B( 15-C , 16-C ) :   1.5901 B( 16-C , 17-C ) :   1.1476
B( 16-C , 19-C ) :   1.1548 B( 17-C , 18-N ) :   2.9576 B( 19-C , 20-N ) :   2.9548
B( 21-C , 22-C ) :   1.3361 B( 21-C , 79-H ) :   0.9225 B( 22-C , 23-N ) :   1.2053
B( 22-C , 29-C ) :   1.2146 B( 23-N , 24-C ) :   1.2454 B( 23-N , 80-H ) :   0.8559
B( 24-C , 25-C ) :   1.2396 B( 24-C , 28-C ) :   1.2327 B( 25-C , 26-C ) :   1.3498
B( 25-C , 81-H ) :   1.0418 B( 26-C , 27-N ) :   1.2068 B( 26-C , 30-C ) :   1.1899
B( 27-N , 28-C ) :   1.1330 B( 27-N , 82-H ) :   0.9320 B( 28-C , 29-C ) :   1.3349
B( 29-C , 83-H ) :   1.0455 B( 30-C , 31-C ) :   1.5873 B( 30-C , 84-H ) :   0.9488
B( 31-C , 32-C ) :   1.1916 B( 31-C , 85-H ) :   0.9392 B( 32-C , 33-S ) :   1.0797
B( 32-C , 34-C ) :   0.1136 B( 32-C , 36-C ) :   1.3736 B( 33-S , 34-C ) :   1.1358
B( 34-C , 35-C ) :   1.3618 B( 34-C , 43-C ) :   1.1520 B( 35-C , 36-C ) :   1.2373
B( 35-C , 42-C ) :   1.1385 B( 36-C , 37-N ) :   1.1948 B( 37-N , 38-C ) :   1.1681
B( 37-N , 86-H ) :   0.9005 B( 38-C , 39-N ) :   0.9310 B( 38-C , 42-C ) :   1.5220
B( 39-N , 40-O ) :   1.4763 B( 39-N , 41-O ) :   1.5346 B( 40-O , 41-O ) :   0.2684
B( 42-C , 87-H ) :   1.0204 B( 43-C , 44-N ) :   1.2034 B( 43-C , 50-C ) :   1.3870
B( 44-N , 45-C ) :   1.1546 B( 44-N , 88-H ) :   0.9291 B( 45-C , 46-C ) :   1.2976
B( 45-C , 49-C ) :   1.2842 B( 46-C , 47-C ) :   1.3378 B( 46-C , 89-H ) :   1.0307
B( 47-C , 48-N ) :   1.1575 B( 47-C , 51-C ) :   1.1678 B( 48-N , 49-C ) :   1.1869
B( 48-N , 90-H ) :   0.9356 B( 49-C , 50-C ) :   1.2682 B( 50-C , 91-H ) :   1.0322
B( 51-C , 52-C ) :   1.6354 B( 51-C , 92-H ) :   0.9569 B( 52-C , 53-C ) :   1.1689
B( 52-C , 93-H ) :   0.9481 B( 53-C , 54-C ) :   1.5868 B( 53-C , 94-H ) :   0.9350
B( 54-C , 55-C ) :   0.9521 B( 54-C , 69-C ) :   1.0674 B( 55-C , 56-O ) :   2.2608
B( 55-C , 57-C ) :   0.9169 B( 57-C , 58-C ) :   1.4801 B( 57-C , 68-C ) :   1.2183
B( 58-C , 59-C ) :   1.1897 B( 58-C , 95-H ) :   1.0161 B( 59-C , 60-C ) :   1.2590
B( 59-C , 64-C ) :   1.1933 B( 60-C , 61-C ) :   1.1905 B( 60-C , 67-C ) :   1.2089
B( 61-C , 62-C ) :   1.4394 B( 61-C , 64-C ) :   0.1088 B( 61-C , 96-H ) :   1.0072
B( 62-C , 63-C ) :   1.1952 B( 62-C , 66-F ) :   1.1328 B( 63-C , 64-C ) :   1.4419
B( 63-C , 65-F ) :   1.1308 B( 64-C , 97-H ) :   1.0071 B( 67-C , 68-C ) :   1.4631
B( 67-C , 98-H ) :   0.9921 B( 68-C , 69-C ) :   0.9957 B( 69-C , 70-C ) :   1.6212
B( 70-C , 71-C ) :   1.1630 B( 70-C , 73-C ) :   1.1344 B( 71-C , 72-N ) :   3.0143
B( 73-C , 74-N ) :   2.9747

-----------------------------------------------------------------------------
         ABSORPTION SPECTRUM VIA TRANSITION ELECTRIC DIPOLE MOMENTS
-----------------------------------------------------------------------------
State   Energy  Wavelength   fosc         T2         TX        TY        TZ
        (cm-1)    (nm)                  (au**2)     (au)      (au)      (au)
-----------------------------------------------------------------------------
   0   12208.8    819.1   2.443114967  65.87871  -1.75979  -7.01954   3.67530
   1   17564.1    569.3   0.895928611  16.79282  -1.66995   3.59400   1.04270
   2   18466.3    541.5   0.140206740   2.49956  -0.41830  -1.39168   0.62276
   3   20759.0    481.7   0.103151718   1.63585   0.83915  -0.11908  -0.95786
   4   23139.0    432.2   0.077208678   1.09849  -0.19449  -0.52566   0.88563
   5   24302.8    411.5   0.018013969   0.24402  -0.16002   0.08783  -0.45902
   6   25518.2    391.9   0.068233226   0.88028   0.59363   0.11027  -0.71814
   7   26683.8    374.8   0.109776041   1.35436   0.07163   1.09815   0.37855
   8   27195.5    367.7   0.096428138   1.16730   0.16508  -0.62792   0.86358
   9   27485.1    363.8   0.017478097   0.20935   0.09412  -0.14104  -0.42497
  10   27797.5    359.7   0.050527573   0.59841  -0.31201  -0.22867   0.66990
  11   28172.6    355.0   0.076665860   0.89588  -0.46723  -0.51174   0.64475
  12   28613.1    349.5   0.047763813   0.54955   0.35595  -0.62479  -0.18025
  13   28718.3    348.2   0.098720174   1.13168   0.20677  -1.04282  -0.03822
  14   29330.0    340.9   0.140473372   1.57673  -0.44798  -0.42834   1.09205
  15   29718.8    336.5   0.036447595   0.40375   0.05153   0.02374  -0.63288
  16   30086.4    332.4   0.011905977   0.13028   0.06808   0.20956  -0.28588
  17   31809.6    314.4   0.118275413   1.22409   0.55562   0.00365  -0.95674
  18   32387.5    308.8   0.051957913   0.52814   0.32530   0.51624  -0.39474
  19   32783.9    305.0   0.212222082   2.13111   0.04030   0.06226  -1.45795
  20   33000.0    303.0   0.075780688   0.75600  -0.06214   0.05105  -0.86575
  21   33211.8    301.1   0.017362561   0.17211  -0.37446   0.11941  -0.13277
  22   33574.1    297.8   0.273845024   2.68520   0.17746   0.32405  -1.59647
  23   33651.2    297.2   0.100191692   0.98018   0.42769   0.63258  -0.63016
  24   33988.7    294.2   0.097204619   0.94152  -0.70725   0.19635   0.63464
  25   34112.6    293.1   0.017400348   0.16793   0.21641   0.34574  -0.03947
  26   34224.1    292.2   0.011429955   0.10995   0.09398  -0.27035  -0.16741
  27   34508.6    289.8   0.017167333   0.16378  -0.11692  -0.27310   0.27481
  28   34577.6    289.2   0.222001061   2.11366  -0.84770  -0.29553   1.14356
  29   34584.1    289.2   0.007653961   0.07286   0.07880   0.24429  -0.08350
  30   34847.1    287.0   0.787429090   7.43910   0.74826  -0.08045  -2.62159
  31   35120.9    284.7   0.157866876   1.47979   0.29326   0.39705  -1.11182
  32   35560.5    281.2   0.231584313   2.14396  -0.49914   0.19239   1.36301
  33   35835.4    279.1   0.036426829   0.33465  -0.37250   0.31346   0.31247
  34   36648.2    272.9   0.009567106   0.08594  -0.13289   0.24634   0.08717
  35   37188.0    268.9   0.007389948   0.06542  -0.23896  -0.08519   0.03261
  36   37707.5    265.2   0.058276764   0.50880  -0.11641   0.48098   0.51372
  37   38338.3    260.8   0.164819296   1.41531  -0.60591   0.44378   0.92263
  38   38463.3    260.0   0.056889880   0.48693  -0.04101   0.31542   0.62109
  39   38485.3    259.8   0.164067317   1.40347   0.36805   0.53885   0.98876
  40   38823.9    257.6   0.022066778   0.18712   0.11884  -0.35012   0.22453
  41   39080.7    255.9   0.011159333   0.09401  -0.10098  -0.11538   0.26551
  42   39312.7    254.4   0.002589053   0.02168   0.01684  -0.12807  -0.07069
  43   39665.5    252.1   0.062896090   0.52202   0.19477   0.64580  -0.25890
  44   39715.3    251.8   0.052775080   0.43747  -0.50960   0.25380   0.33669
  45   40022.1    249.9   0.005096822   0.04193  -0.10697   0.06267  -0.16296
  46   40059.0    249.6   0.018131150   0.14901   0.05193  -0.35145   0.15097
  47   40251.5    248.4   0.140699954   1.15077  -0.48518  -0.94070  -0.17448

FINAL SINGLE POINT ENERGY     -3789.924815593410

DIPOLE MOMENT
-------------
                                X             Y             Z
Electronic contribution:    -11.87323      19.18658       9.38988
Nuclear contribution   :     13.64932     -21.84679      -9.57326
                        -----------------------------------------
Total Dipole Moment    :      1.77609      -2.66021      -0.18338
                        -----------------------------------------
Magnitude (a.u.)       :      3.20388
Magnitude (Debye)      :      8.14361

Rotational constants in cm-1:     0.001333     0.000149     0.000136
Rotational constants in MHz :    39.958979     4.459115     4.070471

                             ****ORCA TERMINATED NORMALLY****
TOTAL RUN TIME: 0 days 0 hours 10 minutes 31 seconds 612 msec
