                         Program Version 4.2.0 -  RELEASE  -
|  1> # ORCA input file
|  2> # SCF done       -148.037125675012          0.000912256696
|  3> ! CAM-B3LYP def2-SVP def2/J RIJCOSX Grid4 TightSCF
|  4> %maxcore 5000
|  5> %tddft
|  6>     Mode sTDDFT
|  7>     Ethresh 5.0
|  8>     maxcore 5000
|  9> end
| 10>
| 11> %pal
| 12>   nprocs 6
| 13>   end
| 14> * xyz 0 1
| 15>    C       -0.29256        -2.81764         1.65500
| 16>    C        0.07242        -2.44427         0.39706
| 17>    C       -0.06221        -1.05461         0.21615
| 18>    C       -0.53374        -0.41029         1.36503
| 19>    S       -0.80720        -1.49789         2.65193
| 20>    C       -0.65038         0.98262         1.08890
| 21>    C       -0.24975         1.20940        -0.23443
| 22>    C        0.13746        -0.06368        -0.82780
| 23>    C        0.58988        -0.27666        -2.09662
| 24>    C        0.74774         0.76905        -3.03121
| 25>    N        0.87934         1.60553        -3.80416
| 26>    C        0.93165        -1.56390        -2.56246
| 27>    N        1.21602        -2.60624        -2.94669
| 28>    C       -0.34412         2.55113        -0.61039
| 29>    C       -0.81355         3.34774         0.41376
| 30>    S       -1.13753         2.41349         1.87277
| 31>    C       -1.07125         4.75795         0.39772
| 32>    C       -1.54233         5.42593         1.51735
| 33>    C       -1.85614         6.78427         1.51779
| 34>    C       -1.72706         7.56821         0.38763
| 35>    C       -1.18713         6.94709        -0.76976
| 36>    C       -0.86645         5.54143        -0.77764
| 37>    N       -0.38253         5.11418        -1.93711
| 38>   Se       -0.28894         6.44650        -3.06676
| 39>    N       -0.91998         7.57621        -1.90599
| 40>    C       -2.09187         8.96772         0.37065
| 41>    C       -2.58927         9.72385        -0.66765
| 42>    C       -2.95305         9.20382        -2.01365
| 43>    O       -2.71532         9.77974        -3.03579
| 44>    O       -3.67506         8.06194        -2.01547
| 45>    C       -2.75291        11.09868        -0.31427
| 46>    C       -2.40232        11.33556         0.98671
| 47>    S       -1.84438         9.93777         1.79109
| 48>    C       -3.28625        12.12420        -1.18815
| 49>    C       -2.89820        13.44154        -1.24986
| 50>    C       -1.77628        13.98589        -0.44266
| 51>    O       -0.69628        13.48085        -0.34411
| 52>    O       -2.07415        15.11950         0.23400
| 53>    C       -3.70222        14.21193        -2.14807
| 54>    C       -4.68895        13.44884        -2.71598
| 55>    S       -4.65882        11.82260        -2.19814
| 56>    C       -3.50246        15.60464        -2.48599
| 57>    C       -4.47768        16.50708        -2.84053
| 58>    C       -3.93948        17.76290        -3.15141
| 59>    C       -2.54610        17.79501        -3.04217
| 60>    S       -1.89010        16.29702        -2.56185
| 61>    C       -2.09926        19.11418        -3.36138
| 62>    C       -3.21375        19.89915        -3.66932
| 63>    C       -4.40913        19.08205        -3.55083
| 64>    C       -5.70145        19.46391        -3.76515
| 65>    C       -6.04599        20.77651        -4.14981
| 66>    N       -6.33296        21.84257        -4.45983
| 67>    C       -6.78104        18.56956        -3.61318
| 68>    N       -7.65852        17.84279        -3.48102
| 69>    C       -2.86508        21.22473        -3.99314
| 70>    C       -1.51821        21.41196        -3.92460
| 71>    S       -0.64000        19.99012        -3.46754
| 72>    H       -0.29408        -3.80447         2.07267
| 73>    H        0.41617        -3.13227        -0.35339
| 74>    H       -0.09311         2.95127        -1.57500
| 75>    H       -1.68888         4.86796         2.43072
| 76>    H       -2.23451         7.23396         2.42397
| 77>    H       -3.80207         7.70328        -1.12769
| 78>    H       -2.44823        12.26354         1.52035
| 79>    H       -2.97368        15.42894         0.05956
| 80>    H       -5.41329        13.76405        -3.44002
| 81>    H       -5.52505        16.26734        -2.84761
| 82>    H       -3.56320        21.99701        -4.25974
| 83>    H       -0.96968        22.31232        -4.11586
| 84> *
| 85>
| 86>                          ****END OF INPUT****

CARTESIAN COORDINATES (ANGSTROEM)
---------------------------------
  C     -0.292560   -2.817640    1.655000
  C      0.072420   -2.444270    0.397060
  C     -0.062210   -1.054610    0.216150
  C     -0.533740   -0.410290    1.365030
  S     -0.807200   -1.497890    2.651930
  C     -0.650380    0.982620    1.088900
  C     -0.249750    1.209400   -0.234430
  C      0.137460   -0.063680   -0.827800
  C      0.589880   -0.276660   -2.096620
  C      0.747740    0.769050   -3.031210
  N      0.879340    1.605530   -3.804160
  C      0.931650   -1.563900   -2.562460
  N      1.216020   -2.606240   -2.946690
  C     -0.344120    2.551130   -0.610390
  C     -0.813550    3.347740    0.413760
  S     -1.137530    2.413490    1.872770
  C     -1.071250    4.757950    0.397720
  C     -1.542330    5.425930    1.517350
  C     -1.856140    6.784270    1.517790
  C     -1.727060    7.568210    0.387630
  C     -1.187130    6.947090   -0.769760
  C     -0.866450    5.541430   -0.777640
  N     -0.382530    5.114180   -1.937110
  Se    -0.288940    6.446500   -3.066760
  N     -0.919980    7.576210   -1.905990
  C     -2.091870    8.967720    0.370650
  C     -2.589270    9.723850   -0.667650
  C     -2.953050    9.203820   -2.013650
  O     -2.715320    9.779740   -3.035790
  O     -3.675060    8.061940   -2.015470
  C     -2.752910   11.098680   -0.314270
  C     -2.402320   11.335560    0.986710
  S     -1.844380    9.937770    1.791090
  C     -3.286250   12.124200   -1.188150
  C     -2.898200   13.441540   -1.249860
  C     -1.776280   13.985890   -0.442660
  O     -0.696280   13.480850   -0.344110
  O     -2.074150   15.119500    0.234000
  C     -3.702220   14.211930   -2.148070
  C     -4.688950   13.448840   -2.715980
  S     -4.658820   11.822600   -2.198140
  C     -3.502460   15.604640   -2.485990
  C     -4.477680   16.507080   -2.840530
  C     -3.939480   17.762900   -3.151410
  C     -2.546100   17.795010   -3.042170
  S     -1.890100   16.297020   -2.561850
  C     -2.099260   19.114180   -3.361380
  C     -3.213750   19.899150   -3.669320
  C     -4.409130   19.082050   -3.550830
  C     -5.701450   19.463910   -3.765150
  C     -6.045990   20.776510   -4.149810
  N     -6.332960   21.842570   -4.459830
  C     -6.781040   18.569560   -3.613180
  N     -7.658520   17.842790   -3.481020
  C     -2.865080   21.224730   -3.993140
  C     -1.518210   21.411960   -3.924600
  S     -0.640000   19.990120   -3.467540
  H     -0.294080   -3.804470    2.072670
  H      0.416170   -3.132270   -0.353390
  H     -0.093110    2.951270   -1.575000
  H     -1.688880    4.867960    2.430720
  H     -2.234510    7.233960    2.423970
  H     -3.802070    7.703280   -1.127690
  H     -2.448230   12.263540    1.520350
  H     -2.973680   15.428940    0.059560
  H     -5.413290   13.764050   -3.440020
  H     -5.525050   16.267340   -2.847610
  H     -3.563200   21.997010   -4.259740
  H     -0.969680   22.312320   -4.115860

 Total Charge           Charge          ....    0
 Multiplicity           Mult            ....    1
 Number of Electrons    NEL             ....  456
 Basis Dimension        Dim             ....  900

ORBITAL ENERGIES
----------------

  NO   OCC          E(Eh)            E(eV)
   0   2.0000    -453.985459    -12353.5724
   1   2.0000     -88.987054     -2421.4608
   2   2.0000     -88.986527     -2421.4465
   3   2.0000     -88.985824     -2421.4274
   4   2.0000     -88.983679     -2421.3690
   5   2.0000     -88.973018     -2421.0789
   6   2.0000     -88.968301     -2420.9505
   7   2.0000     -58.199170     -1583.6799
   8   2.0000     -52.269866     -1422.3354
   9   2.0000     -52.267498     -1422.2709
  10   2.0000     -52.267059     -1422.2590
  11   2.0000     -19.260662      -524.1093
  12   2.0000     -19.254057      -523.9295
  13   2.0000     -19.200686      -522.4772
  14   2.0000     -19.193359      -522.2778
  15   2.0000     -14.440589      -392.9484
  16   2.0000     -14.438952      -392.9039
  17   2.0000     -14.426619      -392.5682
  18   2.0000     -14.426609      -392.5680
  19   2.0000     -14.425555      -392.5393
  20   2.0000     -14.425237      -392.5307
  21   2.0000     -10.405602      -283.1508
  22   2.0000     -10.401795      -283.0472
  23   2.0000     -10.360361      -281.9198
  24   2.0000     -10.358685      -281.8741
  25   2.0000     -10.347791      -281.5777
  26   2.0000     -10.347292      -281.5641
  27   2.0000     -10.332787      -281.1694
  28   2.0000     -10.331055      -281.1223
  29   2.0000     -10.330292      -281.1015
  30   2.0000     -10.328073      -281.0411
  31   2.0000     -10.327451      -281.0242
  32   2.0000     -10.327066      -281.0137
  33   2.0000     -10.326414      -280.9960
  34   2.0000     -10.325877      -280.9814
  35   2.0000     -10.325843      -280.9805
  36   2.0000     -10.325061      -280.9592
  37   2.0000     -10.323117      -280.9063
  38   2.0000     -10.321220      -280.8547
  39   2.0000     -10.320025      -280.8221
  40   2.0000     -10.319502      -280.8079
  41   2.0000     -10.315247      -280.6921
  42   2.0000     -10.311563      -280.5919
  43   2.0000     -10.311106      -280.5795
  44   2.0000     -10.307768      -280.4886
  45   2.0000     -10.307644      -280.4853
  46   2.0000     -10.304365      -280.3960
  47   2.0000     -10.303059      -280.3605
  48   2.0000     -10.302534      -280.3462
  49   2.0000     -10.301850      -280.3276
  50   2.0000     -10.299287      -280.2579
  51   2.0000     -10.298839      -280.2457
  52   2.0000     -10.296948      -280.1942
  53   2.0000     -10.296728      -280.1882
  54   2.0000     -10.296666      -280.1865
  55   2.0000     -10.296639      -280.1858
  56   2.0000     -10.296239      -280.1749
  57   2.0000     -10.294984      -280.1408
  58   2.0000     -10.293752      -280.1072
  59   2.0000     -10.293594      -280.1029
  60   2.0000     -10.291332      -280.0414
  61   2.0000      -8.082102      -219.9252
  62   2.0000      -8.081095      -219.8978
  63   2.0000      -8.080180      -219.8729
  64   2.0000      -8.078692      -219.8324
  65   2.0000      -8.068890      -219.5657
  66   2.0000      -8.063964      -219.4316
  67   2.0000      -7.974904      -217.0082
  68   2.0000      -6.051366      -164.6660
  69   2.0000      -6.050328      -164.6378
  70   2.0000      -6.049351      -164.6112
  71   2.0000      -6.047946      -164.5730
  72   2.0000      -6.046899      -164.5445
  73   2.0000      -6.046153      -164.5242
  74   2.0000      -6.045139      -164.4966
  75   2.0000      -6.044708      -164.4849
  76   2.0000      -6.043542      -164.4531
  77   2.0000      -6.043473      -164.4513
  78   2.0000      -6.042734      -164.4312
  79   2.0000      -6.041326      -164.3928
  80   2.0000      -6.038124      -164.3057
  81   2.0000      -6.033753      -164.1868
  82   2.0000      -6.033151      -164.1704
  83   2.0000      -6.031296      -164.1199
  84   2.0000      -6.028734      -164.0502
  85   2.0000      -6.026458      -163.9883
  86   2.0000      -5.924986      -161.2271
  87   2.0000      -5.918319      -161.0456
  88   2.0000      -5.914864      -160.9516
  89   2.0000      -2.279060       -62.0164
  90   2.0000      -2.278434       -61.9993
  91   2.0000      -2.274098       -61.8814
  92   2.0000      -2.269059       -61.7442
  93   2.0000      -2.268816       -61.7376
  94   2.0000      -1.183085       -32.1934
  95   2.0000      -1.177251       -32.0346
  96   2.0000      -1.098996       -29.9052
  97   2.0000      -1.097941       -29.8765
  98   2.0000      -1.092838       -29.7376
  99   2.0000      -1.040455       -28.3122
 100   2.0000      -1.038877       -28.2693
 101   2.0000      -1.017904       -27.6986
 102   2.0000      -1.017708       -27.6932
 103   2.0000      -1.010933       -27.5089
 104   2.0000      -1.003698       -27.3120
 105   2.0000      -1.003595       -27.3092
 106   2.0000      -0.998623       -27.1739
 107   2.0000      -0.995886       -27.0994
 108   2.0000      -0.985696       -26.8221
 109   2.0000      -0.973358       -26.4864
 110   2.0000      -0.966549       -26.3011
 111   2.0000      -0.951858       -25.9014
 112   2.0000      -0.950468       -25.8635
 113   2.0000      -0.909588       -24.7512
 114   2.0000      -0.906786       -24.6749
 115   2.0000      -0.887651       -24.1542
 116   2.0000      -0.873805       -23.7774
 117   2.0000      -0.865251       -23.5447
 118   2.0000      -0.863691       -23.5022
 119   2.0000      -0.858919       -23.3724
 120   2.0000      -0.855364       -23.2756
 121   2.0000      -0.848625       -23.0922
 122   2.0000      -0.846712       -23.0402
 123   2.0000      -0.844004       -22.9665
 124   2.0000      -0.819319       -22.2948
 125   2.0000      -0.790576       -21.5127
 126   2.0000      -0.776688       -21.1348
 127   2.0000      -0.772463       -21.0198
 128   2.0000      -0.771513       -20.9939
 129   2.0000      -0.752252       -20.4698
 130   2.0000      -0.728048       -19.8112
 131   2.0000      -0.722695       -19.6655
 132   2.0000      -0.711977       -19.3739
 133   2.0000      -0.710244       -19.3267
 134   2.0000      -0.708051       -19.2671
 135   2.0000      -0.699073       -19.0227
 136   2.0000      -0.698189       -18.9987
 137   2.0000      -0.688515       -18.7355
 138   2.0000      -0.686219       -18.6730
 139   2.0000      -0.676445       -18.4070
 140   2.0000      -0.672125       -18.2895
 141   2.0000      -0.667626       -18.1670
 142   2.0000      -0.667047       -18.1513
 143   2.0000      -0.655520       -17.8376
 144   2.0000      -0.642675       -17.4881
 145   2.0000      -0.631563       -17.1857
 146   2.0000      -0.624903       -17.0045
 147   2.0000      -0.619283       -16.8515
 148   2.0000      -0.611389       -16.6367
 149   2.0000      -0.610224       -16.6050
 150   2.0000      -0.605604       -16.4793
 151   2.0000      -0.592681       -16.1277
 152   2.0000      -0.587239       -15.9796
 153   2.0000      -0.579380       -15.7657
 154   2.0000      -0.567223       -15.4349
 155   2.0000      -0.556223       -15.1356
 156   2.0000      -0.553423       -15.0594
 157   2.0000      -0.551154       -14.9977
 158   2.0000      -0.548073       -14.9138
 159   2.0000      -0.542418       -14.7599
 160   2.0000      -0.542315       -14.7572
 161   2.0000      -0.537900       -14.6370
 162   2.0000      -0.534774       -14.5519
 163   2.0000      -0.531591       -14.4653
 164   2.0000      -0.530169       -14.4266
 165   2.0000      -0.519373       -14.1329
 166   2.0000      -0.517096       -14.0709
 167   2.0000      -0.513570       -13.9749
 168   2.0000      -0.511697       -13.9240
 169   2.0000      -0.507004       -13.7963
 170   2.0000      -0.500674       -13.6240
 171   2.0000      -0.499427       -13.5901
 172   2.0000      -0.496468       -13.5096
 173   2.0000      -0.493707       -13.4344
 174   2.0000      -0.492172       -13.3927
 175   2.0000      -0.490854       -13.3568
 176   2.0000      -0.488699       -13.2982
 177   2.0000      -0.485197       -13.2029
 178   2.0000      -0.481288       -13.0965
 179   2.0000      -0.478470       -13.0198
 180   2.0000      -0.475976       -12.9520
 181   2.0000      -0.472121       -12.8471
 182   2.0000      -0.469429       -12.7738
 183   2.0000      -0.468681       -12.7534
 184   2.0000      -0.465648       -12.6709
 185   2.0000      -0.463762       -12.6196
 186   2.0000      -0.459791       -12.5116
 187   2.0000      -0.457748       -12.4560
 188   2.0000      -0.457669       -12.4538
 189   2.0000      -0.455328       -12.3901
 190   2.0000      -0.453819       -12.3490
 191   2.0000      -0.452693       -12.3184
 192   2.0000      -0.447157       -12.1678
 193   2.0000      -0.445989       -12.1360
 194   2.0000      -0.443464       -12.0673
 195   2.0000      -0.440092       -11.9755
 196   2.0000      -0.436957       -11.8902
 197   2.0000      -0.436583       -11.8800
 198   2.0000      -0.436193       -11.8694
 199   2.0000      -0.435014       -11.8373
 200   2.0000      -0.434732       -11.8297
 201   2.0000      -0.434610       -11.8263
 202   2.0000      -0.430773       -11.7219
 203   2.0000      -0.423252       -11.5173
 204   2.0000      -0.422134       -11.4868
 205   2.0000      -0.421808       -11.4780
 206   2.0000      -0.409398       -11.1403
 207   2.0000      -0.404007       -10.9936
 208   2.0000      -0.394211       -10.7270
 209   2.0000      -0.393150       -10.6982
 210   2.0000      -0.385883       -10.5004
 211   2.0000      -0.377900       -10.2832
 212   2.0000      -0.368915       -10.0387
 213   2.0000      -0.363816        -9.8999
 214   2.0000      -0.359602        -9.7853
 215   2.0000      -0.355156        -9.6643
 216   2.0000      -0.344747        -9.3810
 217   2.0000      -0.342950        -9.3321
 218   2.0000      -0.340795        -9.2735
 219   2.0000      -0.334839        -9.1114
 220   2.0000      -0.333524        -9.0757
 221   2.0000      -0.327273        -8.9056
 222   2.0000      -0.318547        -8.6681
 223   2.0000      -0.315844        -8.5946
 224   2.0000      -0.312059        -8.4916
 225   2.0000      -0.294313        -8.0087
 226   2.0000      -0.264442        -7.1958
 227   2.0000      -0.256692        -6.9849
 228   0.0000      -0.101661        -2.7663
 229   0.0000      -0.096881        -2.6363
 230   0.0000      -0.082012        -2.2317
 231   0.0000      -0.023029        -0.6266
 232   0.0000      -0.020875        -0.5680

MULLIKEN ATOMIC CHARGES
-----------------------
   0 C :   -0.080740
   1 C :    0.035046
   2 C :   -0.028632
   3 C :   -0.118508
   4 S :    0.180337
   5 C :   -0.087421
   6 C :    0.021391
   7 C :    0.303233
   8 C :   -0.303923
   9 C :   -0.186097
  10 N :    0.175006
  11 C :   -0.192754
  12 N :    0.173987
  13 C :   -0.045784
  14 C :   -0.121111
  15 S :    0.152139
  16 C :    0.158569
  17 C :   -0.075467
  18 C :   -0.035500
  19 C :    0.023611
  20 C :   -0.017723
  21 C :    0.016175
  22 N :   -0.284598
  23 Se:    0.589585
  24 N :   -0.257366
  25 C :   -0.186094
  26 C :    0.042742
  27 C :    0.137317
  28 O :   -0.169805
  29 O :   -0.163972
  30 C :    0.072392
  31 C :   -0.098309
  32 S :    0.157676
  33 C :   -0.146474
  34 C :    0.010191
  35 C :    0.093341
  36 O :   -0.152808
  37 O :   -0.169298
  38 C :    0.096090
  39 C :   -0.115381
  40 S :    0.191315
  41 C :   -0.182458
  42 C :   -0.023637
  43 C :    0.011607
  44 C :   -0.104902
  45 S :    0.213404
  46 C :   -0.115103
  47 C :   -0.031578
  48 C :    0.295341
  49 C :   -0.300833
  50 C :   -0.190612
  51 N :    0.173914
  52 C :   -0.188941
  53 N :    0.166495
  54 C :    0.037225
  55 C :   -0.083207
  56 S :    0.185730
  57 H :    0.036120
  58 H :    0.012680
  59 H :    0.018824
  60 H :   -0.008090
  61 H :   -0.012378
  62 H :    0.183706
  63 H :    0.042425
  64 H :    0.188863
  65 H :    0.032688
  66 H :    0.003235
  67 H :    0.012065
  68 H :    0.035039
Sum of atomic charges:   -0.0000000

LOEWDIN ATOMIC CHARGES
----------------------
   0 C :   -0.176663
   1 C :   -0.034472
   2 C :   -0.073225
   3 C :   -0.186515
   4 S :    0.476162
   5 C :   -0.173721
   6 C :   -0.075440
   7 C :    0.082619
   8 C :   -0.102662
   9 C :   -0.017031
  10 N :   -0.032235
  11 C :   -0.016589
  12 N :   -0.034966
  13 C :   -0.013943
  14 C :   -0.164221
  15 S :    0.469109
  16 C :   -0.030383
  17 C :   -0.032989
  18 C :   -0.012597
  19 C :   -0.071891
  20 C :   -0.043659
  21 C :   -0.033595
  22 N :   -0.242775
  23 Se:    0.622317
  24 N :   -0.228009
  25 C :   -0.161275
  26 C :   -0.096432
  27 C :    0.063981
  28 O :   -0.151504
  29 O :   -0.037144
  30 C :   -0.064484
  31 C :   -0.160032
  32 S :    0.474034
  33 C :   -0.137252
  34 C :   -0.118054
  35 C :    0.059679
  36 O :   -0.139237
  37 O :   -0.040518
  38 C :   -0.088720
  39 C :   -0.174701
  40 S :    0.506418
  41 C :   -0.183365
  42 C :   -0.031755
  43 C :   -0.076634
  44 C :   -0.181637
  45 S :    0.502352
  46 C :   -0.184178
  47 C :   -0.078089
  48 C :    0.084745
  49 C :   -0.107961
  50 C :   -0.017385
  51 N :   -0.035371
  52 C :   -0.015609
  53 N :   -0.039457
  54 C :   -0.034681
  55 C :   -0.178934
  56 S :    0.481476
  57 H :    0.027652
  58 H :    0.042781
  59 H :    0.038665
  60 H :    0.023742
  61 H :    0.029734
  62 H :    0.089461
  63 H :    0.028900
  64 H :    0.090322
  65 H :    0.028814
  66 H :    0.039435
  67 H :    0.042334
  68 H :    0.027259

  Mayer bond orders larger than 0.100000
B(  0-C ,  1-C ) :   1.5457 B(  0-C ,  4-S ) :   1.1519 B(  0-C , 57-H ) :   0.9646
B(  1-C ,  2-C ) :   1.2790 B(  1-C , 58-H ) :   0.9960 B(  2-C ,  3-C ) :   1.4602
B(  2-C ,  7-C ) :   1.0111 B(  3-C ,  4-S ) :   1.1335 B(  3-C ,  5-C ) :   1.1769
B(  5-C ,  6-C ) :   1.4556 B(  5-C , 15-S ) :   1.1329 B(  6-C ,  7-C ) :   0.9963
B(  6-C , 13-C ) :   1.2331 B(  7-C ,  8-C ) :   1.7094 B(  8-C ,  9-C ) :   1.1386
B(  8-C , 11-C ) :   1.1308 B(  9-C , 10-N ) :   2.9894 B( 11-C , 12-N ) :   3.0027
B( 13-C , 14-C ) :   1.4950 B( 13-C , 59-H ) :   0.9804 B( 14-C , 15-S ) :   1.0842
B( 14-C , 16-C ) :   1.1197 B( 16-C , 17-C ) :   1.4551 B( 16-C , 19-C ) :   0.1148
B( 16-C , 21-C ) :   1.1612 B( 17-C , 18-C ) :   1.2244 B( 17-C , 60-H ) :   0.9872
B( 18-C , 19-C ) :   1.4710 B( 18-C , 61-H ) :   0.9929 B( 19-C , 20-C ) :   1.1773
B( 19-C , 25-C ) :   1.0247 B( 20-C , 21-C ) :   1.1219 B( 20-C , 24-N ) :   1.5865
B( 21-C , 22-N ) :   1.5869 B( 22-N , 23-Se) :   1.2409 B( 22-N , 24-N ) :   0.1223
B( 23-Se, 24-N ) :   1.2504 B( 25-C , 26-C ) :   1.5292 B( 25-C , 32-S ) :   1.1718
B( 26-C , 27-C ) :   0.8902 B( 26-C , 30-C ) :   1.2748 B( 27-C , 28-O ) :   2.1760
B( 27-C , 29-O ) :   1.2168 B( 29-O , 62-H ) :   0.9514 B( 30-C , 31-C ) :   1.5619
B( 30-C , 33-C ) :   0.9977 B( 31-C , 32-S ) :   1.1599 B( 31-C , 63-H ) :   0.9589
B( 33-C , 34-C ) :   1.5772 B( 33-C , 40-S ) :   1.2020 B( 34-C , 35-C ) :   0.8811
B( 34-C , 38-C ) :   1.2241 B( 35-C , 36-O ) :   2.2078 B( 35-C , 37-O ) :   1.2002
B( 37-O , 64-H ) :   0.9497 B( 38-C , 39-C ) :   1.5598 B( 38-C , 41-C ) :   0.9920
B( 39-C , 40-S ) :   1.1809 B( 39-C , 65-H ) :   0.9685 B( 41-C , 42-C ) :   1.5059
B( 41-C , 45-S ) :   1.1279 B( 42-C , 43-C ) :   1.2569 B( 42-C , 66-H ) :   1.0020
B( 43-C , 44-C ) :   1.4628 B( 43-C , 48-C ) :   0.9933 B( 44-C , 45-S ) :   1.1422
B( 44-C , 46-C ) :   1.1691 B( 46-C , 47-C ) :   1.4643 B( 46-C , 56-S ) :   1.1407
B( 47-C , 48-C ) :   1.0165 B( 47-C , 54-C ) :   1.2754 B( 48-C , 49-C ) :   1.7073
B( 49-C , 50-C ) :   1.1300 B( 49-C , 52-C ) :   1.1345 B( 50-C , 51-N ) :   3.0039
B( 52-C , 53-N ) :   2.9913 B( 54-C , 55-C ) :   1.5497 B( 54-C , 67-H ) :   0.9956
B( 55-C , 56-S ) :   1.1521 B( 55-C , 68-H ) :   0.9646

-----------------------------------------------------------------------------
         ABSORPTION SPECTRUM VIA TRANSITION ELECTRIC DIPOLE MOMENTS
-----------------------------------------------------------------------------
State   Energy  Wavelength   fosc         T2         TX        TY        TZ
        (cm-1)    (nm)                  (au**2)     (au)      (au)      (au)
-----------------------------------------------------------------------------
   0   14994.8    666.9   0.110186946   2.41917  -0.20305   1.52434  -0.23310
   1   15762.9    634.4   0.040088349   0.83726  -0.23897  -0.85952   0.20340
   2   20690.2    483.3   0.643760685  10.24320  -0.63365   3.13424  -0.13512
   3   26211.4    381.5   0.003062242   0.03846   0.06695  -0.12831  -0.13235
   4   26399.6    378.8   0.004377699   0.05459  -0.03523  -0.22380   0.05714
   5   27813.6    359.5   0.042278731   0.50043  -0.17555   0.67360  -0.12598
   6   29466.3    339.4   0.004737090   0.05293   0.03765   0.18466  -0.13194
   7   29585.3    338.0   0.029786958   0.33146  -0.09820   0.55191  -0.13116
   8   30960.4    323.0   0.077728385   0.82651   0.19732  -0.64674  -0.60770
   9   31539.7    317.1   0.382719751   3.99484   0.65902  -0.13336  -1.88222
  10   31908.1    313.4   0.166343047   1.71624  -0.84762   0.71389   0.69868
  11   31972.2    312.8   0.757476718   7.79960  -2.57567   0.90179  -0.59354
  12   32917.6    303.8   0.207098423   2.07121  -0.25685   1.40788   0.15207
  13   33077.0    302.3   0.090396374   0.89971  -0.25589  -0.82435   0.39329
  14   33585.5    297.7   0.804512081   7.88599  -0.38620   2.73591  -0.50164
  15   33762.8    296.2   0.044734168   0.43619   0.46415  -0.46785   0.04324
  16   33856.3    295.4   0.092096128   0.89552  -0.25631   0.81567   0.40561
  17   35043.1    285.4   0.083974767   0.78890   0.33755  -0.07806  -0.81784
  18   35176.7    284.3   0.023880512   0.22349   0.12756   0.16745  -0.42330
  19   35531.2    281.4   0.208255474   1.92958   0.19639   0.28519  -1.34524
  20   35750.5    279.7   0.055234560   0.50863  -0.57810   0.13544  -0.39507
  21   36345.3    275.1   0.111495065   1.00991  -0.02929  -1.00133   0.07992
  22   36648.5    272.9   0.943416910   8.47467  -0.60360  -2.72800   0.81752
  23   37144.9    269.2   0.013525549   0.11988   0.03910  -0.29710   0.17344
  24   37348.8    267.7   0.061296598   0.54030  -0.34753  -0.62865   0.15595
  25   37554.2    266.3   0.023833050   0.20893   0.19167   0.41328   0.03725
  26   37835.3    264.3   0.093014250   0.80933   0.25472   0.47832  -0.71810
  27   38541.6    259.5   0.038419160   0.32817  -0.19487   0.13596   0.52125
  28   39380.8    253.9   0.066587511   0.55665   0.38851   0.61805  -0.15403
  29   39489.4    253.2   0.037961934   0.31648  -0.03214   0.46728  -0.31160
  30   39548.7    252.9   0.053677623   0.44682   0.31825  -0.57856   0.10401

FINAL SINGLE POINT ENERGY     -6947.872527679726

DIPOLE MOMENT
-------------
                                X             Y             Z
Electronic contribution:     22.16787     -36.17560     -21.07195
Nuclear contribution   :    -22.02816      35.15583      24.04140
                        -----------------------------------------
Total Dipole Moment    :      0.13972      -1.01977       2.96945
                        -----------------------------------------
Magnitude (a.u.)       :      3.14278
Magnitude (Debye)      :      7.98831

Rotational constants in cm-1:     0.004084     0.000321     0.000315
Rotational constants in MHz :   122.425245     9.618205     9.441189

                             ****ORCA TERMINATED NORMALLY****
TOTAL RUN TIME: 0 days 0 hours 5 minutes 38 seconds 824 msec
