                         Program Version 4.2.0 -  RELEASE  -
|  1> # ORCA input file
|  2> # SCF done       -193.465864026554          0.000516130341
|  3> ! CAM-B3LYP def2-SVP def2/J RIJCOSX Grid4 TightSCF
|  4> %maxcore 5000
|  5> %tddft
|  6>     Mode sTDDFT
|  7>     Ethresh 5.0
|  8>     maxcore 5000
|  9> end
| 10>
| 11> %pal
| 12>   nprocs 6
| 13>   end
| 14> * xyz 0 1
| 15>    C       -0.20274        -2.91102        -0.46249
| 16>    C       -0.01786        -2.41574        -1.71712
| 17>    C       -0.13801        -1.01273        -1.73626
| 18>    C       -0.41656        -0.48236        -0.47270
| 19>    S       -0.52901        -1.69182         0.72549
| 20>    C       -0.52162         0.93694        -0.58620
| 21>    C       -0.30310         1.28734        -1.92294
| 22>    C       -0.06710         0.07648        -2.69503
| 23>    C        0.14624        -0.01184        -4.04015
| 24>    C        0.15017         1.12378        -4.87648
| 25>    N        0.14191         2.03994        -5.56651
| 26>    C        0.36038        -1.24527        -4.68938
| 27>    N        0.53593        -2.24478        -5.22358
| 28>    C       -0.37039         2.66594        -2.14163
| 29>    C       -0.64023         3.36682        -0.98607
| 30>    S       -0.80327         2.29503         0.39820
| 31>    C       -0.80370         4.79873        -0.84426
| 32>    C       -0.52053         5.44641         0.36267
| 33>    F       -0.08805         4.66206         1.38303
| 34>    C       -0.63143         6.81717         0.56256
| 35>    O       -0.39234         7.48137         1.71430
| 36>    C       -0.00670         6.81673         2.90223
| 37>    C       -1.04915         7.60722        -0.53620
| 38>    C       -1.35791         6.95398        -1.73501
| 39>    C       -1.25972         5.58219        -1.93073
| 40>    O       -1.57063         4.90771        -3.05968
| 41>    C       -2.13098         5.54868        -4.18952
| 42>    F       -1.75269         7.73632        -2.77187
| 43>    C       -1.14310         9.04761        -0.42420
| 44>    C       -0.45662         9.87203         0.44287
| 45>    C       -0.78399        11.21874         0.26935
| 46>    C       -1.73340        11.42307        -0.74101
| 47>    S       -2.21945         9.96654        -1.47038
| 48>    C       -1.95415        12.82224        -0.88060
| 49>    C       -1.14608        13.49141         0.04940
| 50>    C       -0.40278        12.50863         0.82169
| 51>    C        0.45132        12.73840         1.86107
| 52>    C        0.74204        14.03622         2.33014
| 53>    N        0.98387        15.08560         2.72468
| 54>    C        1.08530        11.68698         2.55507
| 55>    N        1.59623        10.83693         3.13151
| 56>    C       -1.25620        14.88066        -0.03982
| 57>    C       -2.13601        15.27597        -1.02922
| 58>    S       -2.87826        13.89534        -1.82609
| 59>    C       -2.43620        16.61215        -1.48338
| 60>    C       -1.60314        17.69989        -1.19664
| 61>    F       -0.47697        17.46141        -0.48483
| 62>    C       -1.84133        18.99248        -1.64133
| 63>    O       -1.05946        20.07069        -1.39808
| 64>    C        0.00794        20.04983        -0.47143
| 65>    C       -2.98000        19.24608        -2.44482
| 66>    C       -3.80519        18.15072        -2.74194
| 67>    C       -3.56968        16.85946        -2.29362
| 68>    O       -4.32877        15.76803        -2.54994
| 69>    C       -5.43878        15.79258        -3.42482
| 70>    F       -4.88758        18.36295        -3.52533
| 71>    C       -3.24108        20.57317        -2.94714
| 72>    C       -4.33815        21.03166        -3.65532
| 73>    C       -4.22085        22.37529        -4.01344
| 74>    C       -3.02388        22.95272        -3.57425
| 75>    S       -2.05553        21.85232        -2.70916
| 76>    C       -3.00465        24.31362        -4.00208
| 77>    C       -4.18186        24.58165        -4.70744
| 78>    C       -4.99189        23.37599        -4.73833
| 79>    C       -6.21373        23.21625        -5.32424
| 80>    C       -6.86162        24.26690        -6.00678
| 81>    N       -7.39441        25.11667        -6.56310
| 82>    C       -6.91940        21.99536        -5.29135
| 83>    N       -7.50896        21.01178        -5.27286
| 84>    C       -4.23932        25.90874        -5.17559
| 85>    C       -3.12523        26.60678        -4.82206
| 86>    S       -1.97975        25.67522        -3.91393
| 87>    H       -0.16784        -3.93479        -0.14812
| 88>    H        0.19377        -3.02662        -2.57555
| 89>    H       -0.20742         3.13752        -3.09068
| 90>    H        0.95313         6.30864         2.79002
| 91>    H       -0.76433         6.10320         3.23339
| 92>    H        0.09271         7.61181         3.63994
| 93>    H       -2.31571         4.74196        -4.89752
| 94>    H       -1.43872         6.26574        -4.63509
| 95>    H       -3.07274         6.04677        -3.94894
| 96>    H        0.26891         9.51267         1.14555
| 97>    H       -0.71998        15.55829         0.59627
| 98>    H       -0.31788        19.70353         0.51129
| 99>    H        0.33403        21.08671        -0.40194
|100>    H        0.83657        19.43208        -0.82279
|101>    H       -5.15748        16.11938        -4.42770
|102>    H       -6.24027        16.42770        -3.04272
|103>    H       -5.78178        14.75961        -3.46308
|104>    H       -5.19342        20.43512        -3.90456
|105>    H       -5.05179        26.32744        -5.74073
|106>    H       -2.89417        27.63031        -5.03944
|107> *
|108>
|109>                          ****END OF INPUT****

CARTESIAN COORDINATES (ANGSTROEM)
---------------------------------
  C     -0.202740   -2.911020   -0.462490
  C     -0.017860   -2.415740   -1.717120
  C     -0.138010   -1.012730   -1.736260
  C     -0.416560   -0.482360   -0.472700
  S     -0.529010   -1.691820    0.725490
  C     -0.521620    0.936940   -0.586200
  C     -0.303100    1.287340   -1.922940
  C     -0.067100    0.076480   -2.695030
  C      0.146240   -0.011840   -4.040150
  C      0.150170    1.123780   -4.876480
  N      0.141910    2.039940   -5.566510
  C      0.360380   -1.245270   -4.689380
  N      0.535930   -2.244780   -5.223580
  C     -0.370390    2.665940   -2.141630
  C     -0.640230    3.366820   -0.986070
  S     -0.803270    2.295030    0.398200
  C     -0.803700    4.798730   -0.844260
  C     -0.520530    5.446410    0.362670
  F     -0.088050    4.662060    1.383030
  C     -0.631430    6.817170    0.562560
  O     -0.392340    7.481370    1.714300
  C     -0.006700    6.816730    2.902230
  C     -1.049150    7.607220   -0.536200
  C     -1.357910    6.953980   -1.735010
  C     -1.259720    5.582190   -1.930730
  O     -1.570630    4.907710   -3.059680
  C     -2.130980    5.548680   -4.189520
  F     -1.752690    7.736320   -2.771870
  C     -1.143100    9.047610   -0.424200
  C     -0.456620    9.872030    0.442870
  C     -0.783990   11.218740    0.269350
  C     -1.733400   11.423070   -0.741010
  S     -2.219450    9.966540   -1.470380
  C     -1.954150   12.822240   -0.880600
  C     -1.146080   13.491410    0.049400
  C     -0.402780   12.508630    0.821690
  C      0.451320   12.738400    1.861070
  C      0.742040   14.036220    2.330140
  N      0.983870   15.085600    2.724680
  C      1.085300   11.686980    2.555070
  N      1.596230   10.836930    3.131510
  C     -1.256200   14.880660   -0.039820
  C     -2.136010   15.275970   -1.029220
  S     -2.878260   13.895340   -1.826090
  C     -2.436200   16.612150   -1.483380
  C     -1.603140   17.699890   -1.196640
  F     -0.476970   17.461410   -0.484830
  C     -1.841330   18.992480   -1.641330
  O     -1.059460   20.070690   -1.398080
  C      0.007940   20.049830   -0.471430
  C     -2.980000   19.246080   -2.444820
  C     -3.805190   18.150720   -2.741940
  C     -3.569680   16.859460   -2.293620
  O     -4.328770   15.768030   -2.549940
  C     -5.438780   15.792580   -3.424820
  F     -4.887580   18.362950   -3.525330
  C     -3.241080   20.573170   -2.947140
  C     -4.338150   21.031660   -3.655320
  C     -4.220850   22.375290   -4.013440
  C     -3.023880   22.952720   -3.574250
  S     -2.055530   21.852320   -2.709160
  C     -3.004650   24.313620   -4.002080
  C     -4.181860   24.581650   -4.707440
  C     -4.991890   23.375990   -4.738330
  C     -6.213730   23.216250   -5.324240
  C     -6.861620   24.266900   -6.006780
  N     -7.394410   25.116670   -6.563100
  C     -6.919400   21.995360   -5.291350
  N     -7.508960   21.011780   -5.272860
  C     -4.239320   25.908740   -5.175590
  C     -3.125230   26.606780   -4.822060
  S     -1.979750   25.675220   -3.913930
  H     -0.167840   -3.934790   -0.148120
  H      0.193770   -3.026620   -2.575550
  H     -0.207420    3.137520   -3.090680
  H      0.953130    6.308640    2.790020
  H     -0.764330    6.103200    3.233390
  H      0.092710    7.611810    3.639940
  H     -2.315710    4.741960   -4.897520
  H     -1.438720    6.265740   -4.635090
  H     -3.072740    6.046770   -3.948940
  H      0.268910    9.512670    1.145550
  H     -0.719980   15.558290    0.596270
  H     -0.317880   19.703530    0.511290
  H      0.334030   21.086710   -0.401940
  H      0.836570   19.432080   -0.822790
  H     -5.157480   16.119380   -4.427700
  H     -6.240270   16.427700   -3.042720
  H     -5.781780   14.759610   -3.463080
  H     -5.193420   20.435120   -3.904560
  H     -5.051790   26.327440   -5.740730
  H     -2.894170   27.630310   -5.039440

 Total Charge           Charge          ....    0
 Multiplicity           Mult            ....    1
 Number of Electrons    NEL             ....  538
 Basis Dimension        Dim             .... 1132

ORBITAL ENERGIES
----------------

  NO   OCC          E(Eh)            E(eV)
   0   2.0000     -88.981866     -2421.3197
   1   2.0000     -88.980167     -2421.2734
   2   2.0000     -88.979194     -2421.2470
   3   2.0000     -88.977938     -2421.2128
   4   2.0000     -88.977795     -2421.2089
   5   2.0000     -88.977187     -2421.1923
   6   2.0000     -24.803197      -674.9293
   7   2.0000     -24.802532      -674.9112
   8   2.0000     -24.802524      -674.9110
   9   2.0000     -24.802470      -674.9095
  10   2.0000     -19.273627      -524.4621
  11   2.0000     -19.272154      -524.4220
  12   2.0000     -19.260098      -524.0939
  13   2.0000     -19.260052      -524.0927
  14   2.0000     -14.423319      -392.4785
  15   2.0000     -14.422258      -392.4496
  16   2.0000     -14.422048      -392.4439
  17   2.0000     -14.421276      -392.4229
  18   2.0000     -14.421188      -392.4205
  19   2.0000     -14.420741      -392.4083
  20   2.0000     -10.374762      -282.3116
  21   2.0000     -10.374525      -282.3052
  22   2.0000     -10.371137      -282.2130
  23   2.0000     -10.371037      -282.2103
  24   2.0000     -10.360893      -281.9342
  25   2.0000     -10.360555      -281.9250
  26   2.0000     -10.357546      -281.8431
  27   2.0000     -10.357237      -281.8347
  28   2.0000     -10.354581      -281.7625
  29   2.0000     -10.352853      -281.7154
  30   2.0000     -10.352318      -281.7009
  31   2.0000     -10.343549      -281.4623
  32   2.0000     -10.342075      -281.4222
  33   2.0000     -10.341846      -281.4159
  34   2.0000     -10.335095      -281.2322
  35   2.0000     -10.333716      -281.1947
  36   2.0000     -10.325116      -280.9607
  37   2.0000     -10.324680      -280.9488
  38   2.0000     -10.324412      -280.9415
  39   2.0000     -10.323377      -280.9134
  40   2.0000     -10.323125      -280.9065
  41   2.0000     -10.323055      -280.9046
  42   2.0000     -10.322325      -280.8847
  43   2.0000     -10.322248      -280.8826
  44   2.0000     -10.321654      -280.8665
  45   2.0000     -10.320983      -280.8482
  46   2.0000     -10.319872      -280.8180
  47   2.0000     -10.318611      -280.7837
  48   2.0000     -10.318506      -280.7808
  49   2.0000     -10.317843      -280.7628
  50   2.0000     -10.316327      -280.7215
  51   2.0000     -10.316229      -280.7189
  52   2.0000     -10.315320      -280.6941
  53   2.0000     -10.315067      -280.6873
  54   2.0000     -10.313331      -280.6400
  55   2.0000     -10.312787      -280.6252
  56   2.0000     -10.310920      -280.5744
  57   2.0000     -10.310227      -280.5555
  58   2.0000     -10.305853      -280.4365
  59   2.0000     -10.304631      -280.4033
  60   2.0000     -10.292460      -280.0721
  61   2.0000     -10.291676      -280.0507
  62   2.0000     -10.290874      -280.0289
  63   2.0000     -10.290216      -280.0110
  64   2.0000     -10.289125      -279.9813
  65   2.0000     -10.289077      -279.9800
  66   2.0000     -10.288278      -279.9583
  67   2.0000     -10.288193      -279.9560
  68   2.0000     -10.287701      -279.9426
  69   2.0000     -10.286999      -279.9235
  70   2.0000     -10.286934      -279.9217
  71   2.0000     -10.286094      -279.8989
  72   2.0000      -8.076822      -219.7815
  73   2.0000      -8.075142      -219.7358
  74   2.0000      -8.073518      -219.6916
  75   2.0000      -8.072180      -219.6552
  76   2.0000      -8.070880      -219.6198
  77   2.0000      -8.070041      -219.5970
  78   2.0000      -6.046070      -164.5219
  79   2.0000      -6.044362      -164.4755
  80   2.0000      -6.042766      -164.4320
  81   2.0000      -6.041642      -164.4014
  82   2.0000      -6.041439      -164.3959
  83   2.0000      -6.040289      -164.3646
  84   2.0000      -6.039949      -164.3554
  85   2.0000      -6.039512      -164.3435
  86   2.0000      -6.039473      -164.3424
  87   2.0000      -6.038450      -164.3146
  88   2.0000      -6.037826      -164.2976
  89   2.0000      -6.037050      -164.2765
  90   2.0000      -6.036006      -164.2481
  91   2.0000      -6.035696      -164.2396
  92   2.0000      -6.034838      -164.2163
  93   2.0000      -6.034728      -164.2133
  94   2.0000      -6.033477      -164.1793
  95   2.0000      -6.032589      -164.1551
  96   2.0000      -1.317122       -35.8407
  97   2.0000      -1.316871       -35.8339
  98   2.0000      -1.316514       -35.8242
  99   2.0000      -1.315856       -35.8063
 100   2.0000      -1.177302       -32.0360
 101   2.0000      -1.175500       -31.9870
 102   2.0000      -1.164427       -31.6857
 103   2.0000      -1.163632       -31.6640
 104   2.0000      -1.034579       -28.1523
 105   2.0000      -1.032595       -28.0983
 106   2.0000      -1.032290       -28.0900
 107   2.0000      -1.014149       -27.5964
 108   2.0000      -1.012923       -27.5630
 109   2.0000      -1.012329       -27.5469
 110   2.0000      -1.000539       -27.2261
 111   2.0000      -0.999490       -27.1975
 112   2.0000      -0.998785       -27.1783
 113   2.0000      -0.993450       -27.0331
 114   2.0000      -0.989851       -26.9352
 115   2.0000      -0.986239       -26.8369
 116   2.0000      -0.976272       -26.5657
 117   2.0000      -0.969545       -26.3827
 118   2.0000      -0.949826       -25.8461
 119   2.0000      -0.946859       -25.7653
 120   2.0000      -0.944363       -25.6974
 121   2.0000      -0.914946       -24.8970
 122   2.0000      -0.908209       -24.7136
 123   2.0000      -0.897753       -24.4291
 124   2.0000      -0.886260       -24.1164
 125   2.0000      -0.877808       -23.8864
 126   2.0000      -0.864653       -23.5284
 127   2.0000      -0.859006       -23.3747
 128   2.0000      -0.856466       -23.3056
 129   2.0000      -0.853868       -23.2349
 130   2.0000      -0.847892       -23.0723
 131   2.0000      -0.843368       -22.9492
 132   2.0000      -0.842919       -22.9370
 133   2.0000      -0.841685       -22.9034
 134   2.0000      -0.823922       -22.4200
 135   2.0000      -0.816831       -22.2271
 136   2.0000      -0.814730       -22.1699
 137   2.0000      -0.800751       -21.7895
 138   2.0000      -0.787089       -21.4178
 139   2.0000      -0.778748       -21.1908
 140   2.0000      -0.769933       -20.9510
 141   2.0000      -0.767492       -20.8845
 142   2.0000      -0.766196       -20.8493
 143   2.0000      -0.761848       -20.7309
 144   2.0000      -0.751486       -20.4490
 145   2.0000      -0.731741       -19.9117
 146   2.0000      -0.714101       -19.4317
 147   2.0000      -0.712824       -19.3969
 148   2.0000      -0.695729       -18.9318
 149   2.0000      -0.694791       -18.9062
 150   2.0000      -0.693437       -18.8694
 151   2.0000      -0.691618       -18.8199
 152   2.0000      -0.685092       -18.6423
 153   2.0000      -0.679679       -18.4950
 154   2.0000      -0.675818       -18.3899
 155   2.0000      -0.671909       -18.2836
 156   2.0000      -0.667288       -18.1578
 157   2.0000      -0.655896       -17.8478
 158   2.0000      -0.654696       -17.8152
 159   2.0000      -0.647114       -17.6089
 160   2.0000      -0.641780       -17.4637
 161   2.0000      -0.639625       -17.4051
 162   2.0000      -0.634444       -17.2641
 163   2.0000      -0.628425       -17.1003
 164   2.0000      -0.622567       -16.9409
 165   2.0000      -0.618171       -16.8213
 166   2.0000      -0.614323       -16.7166
 167   2.0000      -0.613878       -16.7045
 168   2.0000      -0.609995       -16.5988
 169   2.0000      -0.606774       -16.5112
 170   2.0000      -0.605762       -16.4836
 171   2.0000      -0.604975       -16.4622
 172   2.0000      -0.602045       -16.3825
 173   2.0000      -0.600009       -16.3271
 174   2.0000      -0.596240       -16.2245
 175   2.0000      -0.591670       -16.1002
 176   2.0000      -0.580544       -15.7974
 177   2.0000      -0.578671       -15.7464
 178   2.0000      -0.575890       -15.6708
 179   2.0000      -0.574125       -15.6227
 180   2.0000      -0.562509       -15.3066
 181   2.0000      -0.560304       -15.2467
 182   2.0000      -0.556485       -15.1427
 183   2.0000      -0.553556       -15.0630
 184   2.0000      -0.550268       -14.9735
 185   2.0000      -0.548411       -14.9230
 186   2.0000      -0.546528       -14.8718
 187   2.0000      -0.543873       -14.7995
 188   2.0000      -0.538821       -14.6621
 189   2.0000      -0.537200       -14.6180
 190   2.0000      -0.535487       -14.5713
 191   2.0000      -0.534603       -14.5473
 192   2.0000      -0.534563       -14.5462
 193   2.0000      -0.532852       -14.4996
 194   2.0000      -0.526091       -14.3157
 195   2.0000      -0.523533       -14.2461
 196   2.0000      -0.516332       -14.0501
 197   2.0000      -0.509184       -13.8556
 198   2.0000      -0.507884       -13.8202
 199   2.0000      -0.502011       -13.6604
 200   2.0000      -0.500699       -13.6247
 201   2.0000      -0.499175       -13.5832
 202   2.0000      -0.496628       -13.5139
 203   2.0000      -0.495740       -13.4898
 204   2.0000      -0.495587       -13.4856
 205   2.0000      -0.494820       -13.4647
 206   2.0000      -0.490669       -13.3518
 207   2.0000      -0.488430       -13.2908
 208   2.0000      -0.486447       -13.2369
 209   2.0000      -0.483317       -13.1517
 210   2.0000      -0.482138       -13.1196
 211   2.0000      -0.481930       -13.1140
 212   2.0000      -0.479899       -13.0587
 213   2.0000      -0.476852       -12.9758
 214   2.0000      -0.476093       -12.9552
 215   2.0000      -0.474022       -12.8988
 216   2.0000      -0.466986       -12.7073
 217   2.0000      -0.463010       -12.5991
 218   2.0000      -0.461077       -12.5465
 219   2.0000      -0.456972       -12.4348
 220   2.0000      -0.456892       -12.4327
 221   2.0000      -0.455317       -12.3898
 222   2.0000      -0.454576       -12.3696
 223   2.0000      -0.453476       -12.3397
 224   2.0000      -0.453171       -12.3314
 225   2.0000      -0.450840       -12.2680
 226   2.0000      -0.450262       -12.2523
 227   2.0000      -0.448507       -12.2045
 228   2.0000      -0.447093       -12.1660
 229   2.0000      -0.442235       -12.0338
 230   2.0000      -0.440987       -11.9999
 231   2.0000      -0.438104       -11.9214
 232   2.0000      -0.436187       -11.8693
 233   2.0000      -0.433650       -11.8002
 234   2.0000      -0.432909       -11.7800
 235   2.0000      -0.432602       -11.7717
 236   2.0000      -0.431796       -11.7498
 237   2.0000      -0.431131       -11.7317
 238   2.0000      -0.430471       -11.7137
 239   2.0000      -0.429184       -11.6787
 240   2.0000      -0.428734       -11.6664
 241   2.0000      -0.420191       -11.4340
 242   2.0000      -0.418804       -11.3962
 243   2.0000      -0.417769       -11.3681
 244   2.0000      -0.409294       -11.1375
 245   2.0000      -0.408215       -11.1081
 246   2.0000      -0.407424       -11.0866
 247   2.0000      -0.404473       -11.0063
 248   2.0000      -0.403531       -10.9806
 249   2.0000      -0.402495       -10.9524
 250   2.0000      -0.394952       -10.7472
 251   2.0000      -0.389950       -10.6111
 252   2.0000      -0.382268       -10.4020
 253   2.0000      -0.380184       -10.3453
 254   2.0000      -0.372347       -10.1321
 255   2.0000      -0.354399        -9.6437
 256   2.0000      -0.340378        -9.2621
 257   2.0000      -0.336475        -9.1560
 258   2.0000      -0.334842        -9.1115
 259   2.0000      -0.333017        -9.0618
 260   2.0000      -0.319739        -8.7006
 261   2.0000      -0.312155        -8.4942
 262   2.0000      -0.310767        -8.4564
 263   2.0000      -0.308917        -8.4061
 264   2.0000      -0.295185        -8.0324
 265   2.0000      -0.289037        -7.8651
 266   2.0000      -0.276433        -7.5221
 267   2.0000      -0.257745        -7.0136
 268   2.0000      -0.239044        -6.5047
 269   0.0000      -0.094658        -2.5758
 270   0.0000      -0.092426        -2.5150
 271   0.0000      -0.090423        -2.4605
 272   0.0000      -0.046642        -1.2692
 273   0.0000      -0.030773        -0.8374

MULLIKEN ATOMIC CHARGES
-----------------------
   0 C :   -0.083750
   1 C :    0.034502
   2 C :   -0.030729
   3 C :   -0.119708
   4 S :    0.177988
   5 C :   -0.101592
   6 C :   -0.003955
   7 C :    0.301655
   8 C :   -0.303092
   9 C :   -0.186791
  10 N :    0.163488
  11 C :   -0.192162
  12 N :    0.168356
  13 C :   -0.000279
  14 C :   -0.107761
  15 S :    0.199012
  16 C :    0.011409
  17 C :    0.111307
  18 F :   -0.197924
  19 C :    0.127355
  20 O :   -0.313125
  21 C :    0.184227
  22 C :    0.023082
  23 C :    0.106761
  24 C :    0.129824
  25 O :   -0.313038
  26 C :    0.184720
  27 F :   -0.197910
  28 C :   -0.104846
  29 C :   -0.012491
  30 C :    0.001387
  31 C :   -0.102000
  32 S :    0.196369
  33 C :   -0.090050
  34 C :    0.001367
  35 C :    0.306034
  36 C :   -0.310992
  37 C :   -0.188679
  38 N :    0.165252
  39 C :   -0.189930
  40 N :    0.164306
  41 C :   -0.039101
  42 C :   -0.097279
  43 S :    0.198507
  44 C :    0.042446
  45 C :    0.106475
  46 F :   -0.188968
  47 C :    0.135021
  48 O :   -0.353213
  49 C :    0.187038
  50 C :    0.072462
  51 C :    0.097902
  52 C :    0.141504
  53 O :   -0.345062
  54 C :    0.186017
  55 F :   -0.188696
  56 C :   -0.102728
  57 C :   -0.056472
  58 C :    0.009694
  59 C :   -0.083580
  60 S :    0.192379
  61 C :   -0.121485
  62 C :   -0.033844
  63 C :    0.303149
  64 C :   -0.309265
  65 C :   -0.192202
  66 N :    0.169466
  67 C :   -0.186519
  68 N :    0.164580
  69 C :    0.035890
  70 C :   -0.082959
  71 S :    0.174604
  72 H :    0.034196
  73 H :    0.010880
  74 H :    0.007074
  75 H :    0.032358
  76 H :    0.026335
  77 H :    0.047449
  78 H :    0.045410
  79 H :    0.034421
  80 H :    0.024921
  81 H :    0.007062
  82 H :    0.007446
  83 H :    0.038571
  84 H :    0.034922
  85 H :    0.040604
  86 H :    0.036415
  87 H :    0.041846
  88 H :    0.034591
  89 H :    0.008815
  90 H :    0.010346
  91 H :    0.032981
Sum of atomic charges:   -0.0000000

LOEWDIN ATOMIC CHARGES
----------------------
   0 C :   -0.180648
   1 C :   -0.034918
   2 C :   -0.078052
   3 C :   -0.182653
   4 S :    0.474968
   5 C :   -0.186140
   6 C :   -0.079945
   7 C :    0.086683
   8 C :   -0.110679
   9 C :   -0.014026
  10 N :   -0.043046
  11 C :   -0.017310
  12 N :   -0.038885
  13 C :   -0.016499
  14 C :   -0.167881
  15 S :    0.488269
  16 C :   -0.075182
  17 C :    0.044726
  18 F :   -0.066739
  19 C :    0.030745
  20 O :   -0.085725
  21 C :    0.080508
  22 C :   -0.073877
  23 C :    0.044162
  24 C :    0.030729
  25 O :   -0.086212
  26 C :    0.080463
  27 F :   -0.066105
  28 C :   -0.167386
  29 C :   -0.017876
  30 C :   -0.079359
  31 C :   -0.184703
  32 S :    0.487045
  33 C :   -0.188172
  34 C :   -0.079178
  35 C :    0.087973
  36 C :   -0.114507
  37 C :   -0.016532
  38 N :   -0.042576
  39 C :   -0.013720
  40 N :   -0.046025
  41 C :   -0.026817
  42 C :   -0.166422
  43 S :    0.503381
  44 C :   -0.072590
  45 C :    0.054942
  46 F :   -0.049801
  47 C :    0.022333
  48 O :   -0.107887
  49 C :    0.082744
  50 C :   -0.069837
  51 C :    0.054439
  52 C :    0.023840
  53 O :   -0.107059
  54 C :    0.081764
  55 F :   -0.048375
  56 C :   -0.166626
  57 C :   -0.029587
  58 C :   -0.079602
  59 C :   -0.192947
  60 S :    0.504635
  61 C :   -0.182164
  62 C :   -0.077799
  63 C :    0.086103
  64 C :   -0.111417
  65 C :   -0.016783
  66 N :   -0.040080
  67 C :   -0.016104
  68 N :   -0.040894
  69 C :   -0.035541
  70 C :   -0.180835
  71 S :    0.472390
  72 H :    0.026592
  73 H :    0.042027
  74 H :    0.037004
  75 H :    0.018688
  76 H :    0.016188
  77 H :    0.031320
  78 H :    0.030750
  79 H :    0.018952
  80 H :    0.015969
  81 H :    0.036762
  82 H :    0.034498
  83 H :    0.022633
  84 H :    0.026454
  85 H :    0.021685
  86 H :    0.020876
  87 H :    0.022853
  88 H :    0.026293
  89 H :    0.033377
  90 H :    0.041764
  91 H :    0.026193

  Mayer bond orders larger than 0.100000
B(  0-C ,  1-C ) :   1.5501 B(  0-C ,  4-S ) :   1.1480 B(  0-C , 72-H ) :   0.9645
B(  1-C ,  2-C ) :   1.2763 B(  1-C , 73-H ) :   0.9961 B(  2-C ,  3-C ) :   1.4646
B(  2-C ,  7-C ) :   1.0144 B(  3-C ,  4-S ) :   1.1390 B(  3-C ,  5-C ) :   1.1738
B(  5-C ,  6-C ) :   1.4488 B(  5-C , 15-S ) :   1.1329 B(  6-C ,  7-C ) :   1.0002
B(  6-C , 13-C ) :   1.2706 B(  7-C ,  8-C ) :   1.7023 B(  8-C ,  9-C ) :   1.1361
B(  8-C , 11-C ) :   1.1299 B(  9-C , 10-N ) :   2.9897 B( 11-C , 12-N ) :   3.0028
B( 13-C , 14-C ) :   1.4914 B( 13-C , 74-H ) :   0.9957 B( 14-C , 15-S ) :   1.1075
B( 14-C , 16-C ) :   1.0504 B( 16-C , 17-C ) :   1.3110 B( 16-C , 22-C ) :   0.1212
B( 16-C , 24-C ) :   1.3404 B( 17-C , 18-F ) :   1.0957 B( 17-C , 19-C ) :   1.2747
B( 19-C , 20-O ) :   1.1952 B( 19-C , 22-C ) :   1.3359 B( 20-O , 21-C ) :   0.9203
B( 21-C , 75-H ) :   0.9764 B( 21-C , 76-H ) :   0.9759 B( 21-C , 77-H ) :   0.9770
B( 22-C , 23-C ) :   1.3075 B( 22-C , 28-C ) :   1.0584 B( 23-C , 24-C ) :   1.2789
B( 23-C , 27-F ) :   1.0913 B( 24-C , 25-O ) :   1.1944 B( 25-O , 26-C ) :   0.9220
B( 26-C , 78-H ) :   0.9775 B( 26-C , 79-H ) :   0.9764 B( 26-C , 80-H ) :   0.9757
B( 28-C , 29-C ) :   1.4842 B( 28-C , 32-S ) :   1.1033 B( 29-C , 30-C ) :   1.2693
B( 29-C , 81-H ) :   0.9962 B( 30-C , 31-C ) :   1.4393 B( 30-C , 35-C ) :   0.9999
B( 31-C , 32-S ) :   1.1307 B( 31-C , 33-C ) :   1.1700 B( 33-C , 34-C ) :   1.4394
B( 33-C , 43-S ) :   1.1101 B( 34-C , 35-C ) :   0.9977 B( 34-C , 41-C ) :   1.2829
B( 35-C , 36-C ) :   1.6994 B( 36-C , 37-C ) :   1.1363 B( 36-C , 39-C ) :   1.1367
B( 37-C , 38-N ) :   2.9918 B( 39-C , 40-N ) :   2.9916 B( 41-C , 42-C ) :   1.4745
B( 41-C , 82-H ) :   0.9936 B( 42-C , 43-S ) :   1.1018 B( 42-C , 44-C ) :   1.0890
B( 44-C , 45-C ) :   1.3092 B( 44-C , 50-C ) :   0.1177 B( 44-C , 52-C ) :   1.3164
B( 45-C , 46-F ) :   1.0979 B( 45-C , 47-C ) :   1.2953 B( 47-C , 48-O ) :   1.1238
B( 47-C , 50-C ) :   1.3102 B( 48-O , 49-C ) :   0.9129 B( 49-C , 83-H ) :   0.9777
B( 49-C , 84-H ) :   0.9757 B( 49-C , 85-H ) :   0.9783 B( 50-C , 51-C ) :   1.2882
B( 50-C , 56-C ) :   1.1127 B( 51-C , 52-C ) :   1.2998 B( 51-C , 55-F ) :   1.0915
B( 52-C , 53-O ) :   1.1392 B( 53-O , 54-C ) :   0.9138 B( 54-C , 86-H ) :   0.9772
B( 54-C , 87-H ) :   0.9787 B( 54-C , 88-H ) :   0.9761 B( 56-C , 57-C ) :   1.4677
B( 56-C , 60-S ) :   1.1020 B( 57-C , 58-C ) :   1.2773 B( 57-C , 89-H ) :   0.9931
B( 58-C , 59-C ) :   1.4468 B( 58-C , 63-C ) :   0.9962 B( 59-C , 60-S ) :   1.0999
B( 59-C , 61-C ) :   1.1711 B( 61-C , 62-C ) :   1.4655 B( 61-C , 71-S ) :   1.1363
B( 62-C , 63-C ) :   1.0137 B( 62-C , 69-C ) :   1.2752 B( 63-C , 64-C ) :   1.7021
B( 64-C , 65-C ) :   1.1299 B( 64-C , 67-C ) :   1.1369 B( 65-C , 66-N ) :   3.0030
B( 67-C , 68-N ) :   2.9878 B( 69-C , 70-C ) :   1.5508 B( 69-C , 90-H ) :   0.9953
B( 70-C , 71-S ) :   1.1483 B( 70-C , 91-H ) :   0.9641

-----------------------------------------------------------------------------
         ABSORPTION SPECTRUM VIA TRANSITION ELECTRIC DIPOLE MOMENTS
-----------------------------------------------------------------------------
State   Energy  Wavelength   fosc         T2         TX        TY        TZ
        (cm-1)    (nm)                  (au**2)     (au)      (au)      (au)
-----------------------------------------------------------------------------
   0   13759.8    726.8   0.177929956   4.25709   0.33763  -2.01818   0.26468
   1   15216.5    657.2   0.101314733   2.19196   0.15824  -1.41623   0.40150
   2   15304.4    653.4   0.029149090   0.62703  -0.03497   0.78572   0.09189
   3   23141.7    432.1   0.004702291   0.06689   0.07422  -0.09985   0.22675
   4   23567.2    424.3   0.427373703   5.97001   0.41027  -2.39441   0.26172
   5   24488.0    408.4   0.471987397   6.34532   0.61844  -2.35412   0.64883
   6   25744.7    388.4   1.132259320  14.47882   0.77837  -3.66878   0.64267
   7   26727.9    374.1   0.107379916   1.32261   0.15061  -1.13944  -0.04010
   8   27360.6    365.5   0.914503056  11.00360   0.59174  -3.24014   0.39362
   9   28397.6    352.1   0.047743198   0.55348   0.59691  -0.20675   0.39298
  10   28536.7    350.4   0.055164320   0.63640   0.36328  -0.45898   0.54201
  11   29360.0    340.6   0.002093079   0.02347  -0.03501   0.08659  -0.12144
  12   29845.4    335.1   0.478202081   5.27484  -0.77012  -0.89053  -1.97199
  13   30869.7    323.9   0.027698068   0.29539  -0.17622   0.36562   0.36146
  14   31515.3    317.3   0.048615255   0.50784   0.45926  -0.34885   0.41860
  15   32081.5    311.7   0.276142935   2.83371  -1.65036  -0.06631   0.32500
  16   32147.1    311.1   0.887473357   9.08842   0.79328   0.39621   2.88134
  17   32325.7    309.4   0.444700875   4.52892   1.98419   0.14658   0.75528
  18   33223.7    301.0   0.349972674   3.46786   0.18714  -1.80074   0.43609
  19   33649.4    297.2   0.313630050   3.06843  -0.12940  -1.53132   0.84069
  20   33733.7    296.4   0.130130670   1.26996  -0.20280  -1.05884   0.32816
  21   34056.2    293.6   0.141988929   1.37257   0.81305   0.60699   0.58573
  22   34421.9    290.5   0.011782611   0.11269  -0.16481   0.29193  -0.01749
  23   34837.1    287.0   0.144903702   1.36934   0.68687   0.52230   0.79042
  24   35136.1    284.6   0.118324925   1.10866   0.13472   0.79541  -0.67663
  25   35464.8    282.0   0.115426481   1.07148   0.28813   0.97393  -0.19981
  26   35641.0    280.6   0.205327021   1.89658   0.07454   1.01820   0.92428
  27   35948.8    278.2   0.050795826   0.46518  -0.61994   0.27255  -0.08103
  28   37133.5    269.3   0.015604175   0.13834   0.22207   0.19989   0.22152
  29   37641.6    265.7   0.010977872   0.09601   0.20192   0.06541   0.22575
  30   37856.9    264.2   0.008331476   0.07245  -0.06570   0.04011  -0.25793
  31   38130.3    262.3   0.002618107   0.02260  -0.14981  -0.01237   0.00279
  32   38232.0    261.6   0.002208981   0.01902  -0.13111  -0.02467  -0.03499
  33   38378.7    260.6   0.004931187   0.04230   0.00753   0.01481   0.20500
  34   39565.0    252.7   0.147263563   1.22535   0.08575  -1.08627   0.19495

FINAL SINGLE POINT ENERGY     -5406.833733958249

DIPOLE MOMENT
-------------
                                X             Y             Z
Electronic contribution:      0.63981       0.14634       1.66104
Nuclear contribution   :     -0.39606      -0.14646      -0.24151
                        -----------------------------------------
Total Dipole Moment    :      0.24375      -0.00013       1.41953
                        -----------------------------------------
Magnitude (a.u.)       :      1.44031
Magnitude (Debye)      :      3.66097

Rotational constants in cm-1:     0.002334     0.000199     0.000189
Rotational constants in MHz :    69.980466     5.973105     5.656436

                             ****ORCA TERMINATED NORMALLY****
TOTAL RUN TIME: 0 days 0 hours 8 minutes 15 seconds 292 msec
