                         Program Version 4.2.0 -  RELEASE  -
|  1> # ORCA input file
|  2> # SCF done       -187.791892362291          0.000757986937
|  3> ! CAM-B3LYP def2-SVP def2/J RIJCOSX Grid4 TightSCF
|  4> %maxcore 5000
|  5> %tddft
|  6>     Mode sTDDFT
|  7>     Ethresh 5.0
|  8>     maxcore 5000
|  9> end
| 10>
| 11> %pal
| 12>   nprocs 6
| 13>   end
| 14> * xyz 0 1
| 15>    C        4.34479         0.61528        -5.30604
| 16>    C        4.90927         0.47410        -4.07449
| 17>    C        4.39885         1.42069        -3.16672
| 18>    C        3.45145         2.26702        -3.75548
| 19>    S        3.18564         1.89698        -5.39784
| 20>    C        3.00118         3.19544        -2.77562
| 21>    C        3.66086         2.92448        -1.56656
| 22>    C        4.56257         1.79761        -1.77478
| 23>    C        5.38503         1.22147        -0.85116
| 24>    C        5.45911         1.67931         0.48092
| 25>    N        5.52570         2.04448         1.56600
| 26>    C        6.21649         0.12511        -1.16116
| 27>    N        6.89272        -0.76987        -1.39967
| 28>    C        3.29719         3.79672        -0.54004
| 29>    C        2.37555         4.73715        -0.96805
| 30>    S        1.93831         4.51767        -2.65446
| 31>    C        1.82371         5.82267        -0.23819
| 32>    C        1.86483         6.06252         1.12477
| 33>    C        1.24687         7.26899         1.46234
| 34>    C        0.74498         7.95571         0.33741
| 35>    S        1.00603         7.10714        -1.11990
| 36>    C        0.18697         9.17510         0.75471
| 37>    C        0.30973         9.27457         2.16180
| 38>    C        0.97181         8.06560         2.64493
| 39>    C        1.26454         7.75542         3.94172
| 40>    C        0.93859         8.61889         5.00738
| 41>    N        0.67363         9.32229         5.87389
| 42>    C        1.90246         6.55063         4.30331
| 43>    N        2.41581         5.57096         4.60587
| 44>    C       -0.18620        10.46674         2.65732
| 45>    C       -0.66551        11.30976         1.64196
| 46>    S       -0.51751        10.55321         0.05389
| 47>    C       -1.15101        12.61185         1.79856
| 48>    C       -1.43555        13.49361         0.77347
| 49>    C       -1.84590        14.84365         0.86044
| 50>    C       -1.92466        15.49399        -0.34401
| 51>    C       -1.57707        14.68654        -1.43972
| 52>    S       -1.21062        13.06594        -0.90437
| 53>    C       -1.39940        14.93791        -2.79775
| 54>    C       -1.60030        16.06020        -3.61491
| 55>    C       -1.21075        15.86923        -4.91715
| 56>    C       -0.66574        14.59466        -5.18987
| 57>    S       -0.71988        13.63101        -3.73491
| 58>    C       -0.12619        14.14748        -6.38408
| 59>    C        0.51843        12.92604        -6.59763
| 60>    C        0.78704        11.88938        -5.69444
| 61>    C        1.50912        10.86161        -6.25979
| 62>    C        1.81581        11.05974        -7.62619
| 63>    S        1.18778        12.55376        -8.19571
| 64>    C        2.56820         9.95745        -8.06882
| 65>    C        2.74631         9.06242        -6.98536
| 66>    C        2.09528         9.60223        -5.81904
| 67>    C        2.05885         9.07234        -4.55750
| 68>    C        2.71546         7.87014        -4.23080
| 69>    N        3.25863         6.89971        -3.94712
| 70>    C        1.38700         9.68960        -3.48565
| 71>    N        0.84660        10.17014        -2.59407
| 72>    C        3.48921         7.93326        -7.32176
| 73>    C        3.88862         7.94512        -8.64498
| 74>    S        3.32941         9.38748        -9.49366
| 75>    C        4.65863         6.95405        -9.30216
| 76>    C        5.13245         5.77460        -8.74815
| 77>    C        5.86201         5.02474        -9.66720
| 78>    C        5.94748         5.62932       -10.92915
| 79>    S        5.12649         7.12833       -10.98519
| 80>    C        6.70382         4.78079       -11.78234
| 81>    C        7.08744         3.64274       -11.05835
| 82>    C        6.57726         3.75305        -9.70930
| 83>    C        6.72523         2.86226        -8.68379
| 84>    C        7.40901         1.63925        -8.84052
| 85>    N        7.94860         0.63386        -8.95911
| 86>    C        6.20074         3.09092        -7.39712
| 87>    N        5.78426         3.25850        -6.34098
| 88>    C        7.85123         2.74636       -11.83236
| 89>    C        8.02836         3.20987       -13.09884
| 90>    S        7.27484         4.74609       -13.39080
| 91>    H        4.54386         0.03851        -6.18725
| 92>    H        5.65063        -0.26770        -3.84009
| 93>    H        3.69167         3.77337         0.45910
| 94>    H        2.31872         5.38576         1.82516
| 95>    H       -0.19165        10.75486         3.69328
| 96>    H       -1.26358        12.97127         2.81295
| 97>    H       -2.05139        15.30763         1.80926
| 98>    H       -2.19414        16.52928        -0.45596
| 99>    H       -2.01854        16.97677        -3.23822
|100>    H       -1.28370        16.62266        -5.68188
|101>    H       -0.18046        14.82566        -7.22547
|102>    H        0.47928        11.89205        -4.66818
|103>    H        3.73344         7.14039        -6.63973
|104>    H        4.94976         5.48775        -7.72945
|105>    H        8.24851         1.81323       -11.47689
|106>    H        8.56348         2.74417       -13.90182
|107> *
|108>
|109>                          ****END OF INPUT****

CARTESIAN COORDINATES (ANGSTROEM)
---------------------------------
  C      4.344790    0.615280   -5.306040
  C      4.909270    0.474100   -4.074490
  C      4.398850    1.420690   -3.166720
  C      3.451450    2.267020   -3.755480
  S      3.185640    1.896980   -5.397840
  C      3.001180    3.195440   -2.775620
  C      3.660860    2.924480   -1.566560
  C      4.562570    1.797610   -1.774780
  C      5.385030    1.221470   -0.851160
  C      5.459110    1.679310    0.480920
  N      5.525700    2.044480    1.566000
  C      6.216490    0.125110   -1.161160
  N      6.892720   -0.769870   -1.399670
  C      3.297190    3.796720   -0.540040
  C      2.375550    4.737150   -0.968050
  S      1.938310    4.517670   -2.654460
  C      1.823710    5.822670   -0.238190
  C      1.864830    6.062520    1.124770
  C      1.246870    7.268990    1.462340
  C      0.744980    7.955710    0.337410
  S      1.006030    7.107140   -1.119900
  C      0.186970    9.175100    0.754710
  C      0.309730    9.274570    2.161800
  C      0.971810    8.065600    2.644930
  C      1.264540    7.755420    3.941720
  C      0.938590    8.618890    5.007380
  N      0.673630    9.322290    5.873890
  C      1.902460    6.550630    4.303310
  N      2.415810    5.570960    4.605870
  C     -0.186200   10.466740    2.657320
  C     -0.665510   11.309760    1.641960
  S     -0.517510   10.553210    0.053890
  C     -1.151010   12.611850    1.798560
  C     -1.435550   13.493610    0.773470
  C     -1.845900   14.843650    0.860440
  C     -1.924660   15.493990   -0.344010
  C     -1.577070   14.686540   -1.439720
  S     -1.210620   13.065940   -0.904370
  C     -1.399400   14.937910   -2.797750
  C     -1.600300   16.060200   -3.614910
  C     -1.210750   15.869230   -4.917150
  C     -0.665740   14.594660   -5.189870
  S     -0.719880   13.631010   -3.734910
  C     -0.126190   14.147480   -6.384080
  C      0.518430   12.926040   -6.597630
  C      0.787040   11.889380   -5.694440
  C      1.509120   10.861610   -6.259790
  C      1.815810   11.059740   -7.626190
  S      1.187780   12.553760   -8.195710
  C      2.568200    9.957450   -8.068820
  C      2.746310    9.062420   -6.985360
  C      2.095280    9.602230   -5.819040
  C      2.058850    9.072340   -4.557500
  C      2.715460    7.870140   -4.230800
  N      3.258630    6.899710   -3.947120
  C      1.387000    9.689600   -3.485650
  N      0.846600   10.170140   -2.594070
  C      3.489210    7.933260   -7.321760
  C      3.888620    7.945120   -8.644980
  S      3.329410    9.387480   -9.493660
  C      4.658630    6.954050   -9.302160
  C      5.132450    5.774600   -8.748150
  C      5.862010    5.024740   -9.667200
  C      5.947480    5.629320  -10.929150
  S      5.126490    7.128330  -10.985190
  C      6.703820    4.780790  -11.782340
  C      7.087440    3.642740  -11.058350
  C      6.577260    3.753050   -9.709300
  C      6.725230    2.862260   -8.683790
  C      7.409010    1.639250   -8.840520
  N      7.948600    0.633860   -8.959110
  C      6.200740    3.090920   -7.397120
  N      5.784260    3.258500   -6.340980
  C      7.851230    2.746360  -11.832360
  C      8.028360    3.209870  -13.098840
  S      7.274840    4.746090  -13.390800
  H      4.543860    0.038510   -6.187250
  H      5.650630   -0.267700   -3.840090
  H      3.691670    3.773370    0.459100
  H      2.318720    5.385760    1.825160
  H     -0.191650   10.754860    3.693280
  H     -1.263580   12.971270    2.812950
  H     -2.051390   15.307630    1.809260
  H     -2.194140   16.529280   -0.455960
  H     -2.018540   16.976770   -3.238220
  H     -1.283700   16.622660   -5.681880
  H     -0.180460   14.825660   -7.225470
  H      0.479280   11.892050   -4.668180
  H      3.733440    7.140390   -6.639730
  H      4.949760    5.487750   -7.729450
  H      8.248510    1.813230  -11.476890
  H      8.563480    2.744170  -13.901820

 Total Charge           Charge          ....    0
 Multiplicity           Mult            ....    1
 Number of Electrons    NEL             ....  580
 Basis Dimension        Dim             .... 1184

ORBITAL ENERGIES
----------------

  NO   OCC          E(Eh)            E(eV)
   0   2.0000     -88.993304     -2421.6309
   1   2.0000     -88.993230     -2421.6289
   2   2.0000     -88.988306     -2421.4949
   3   2.0000     -88.984749     -2421.3981
   4   2.0000     -88.980508     -2421.2827
   5   2.0000     -88.975773     -2421.1539
   6   2.0000     -88.975724     -2421.1525
   7   2.0000     -88.970719     -2421.0164
   8   2.0000     -88.953098     -2420.5369
   9   2.0000     -88.952811     -2420.5291
  10   2.0000     -14.439286      -392.9129
  11   2.0000     -14.435549      -392.8113
  12   2.0000     -14.432872      -392.7384
  13   2.0000     -14.431141      -392.6913
  14   2.0000     -14.421349      -392.4248
  15   2.0000     -14.419123      -392.3643
  16   2.0000     -14.413626      -392.2147
  17   2.0000     -14.413456      -392.2101
  18   2.0000     -10.367183      -282.1054
  19   2.0000     -10.364809      -282.0408
  20   2.0000     -10.355082      -281.7761
  21   2.0000     -10.353583      -281.7353
  22   2.0000     -10.352464      -281.7049
  23   2.0000     -10.346120      -281.5322
  24   2.0000     -10.342888      -281.4443
  25   2.0000     -10.341711      -281.4123
  26   2.0000     -10.337583      -281.2999
  27   2.0000     -10.336414      -281.2681
  28   2.0000     -10.334951      -281.2283
  29   2.0000     -10.332559      -281.1632
  30   2.0000     -10.331869      -281.1445
  31   2.0000     -10.331446      -281.1329
  32   2.0000     -10.331407      -281.1319
  33   2.0000     -10.330222      -281.0996
  34   2.0000     -10.329167      -281.0709
  35   2.0000     -10.325379      -280.9678
  36   2.0000     -10.325289      -280.9654
  37   2.0000     -10.322058      -280.8775
  38   2.0000     -10.321271      -280.8561
  39   2.0000     -10.320192      -280.8267
  40   2.0000     -10.319494      -280.8077
  41   2.0000     -10.319322      -280.8030
  42   2.0000     -10.318545      -280.7819
  43   2.0000     -10.317749      -280.7602
  44   2.0000     -10.315342      -280.6947
  45   2.0000     -10.315154      -280.6896
  46   2.0000     -10.314450      -280.6704
  47   2.0000     -10.314152      -280.6623
  48   2.0000     -10.313585      -280.6469
  49   2.0000     -10.313287      -280.6388
  50   2.0000     -10.312666      -280.6219
  51   2.0000     -10.312399      -280.6146
  52   2.0000     -10.311790      -280.5981
  53   2.0000     -10.304079      -280.3882
  54   2.0000     -10.303287      -280.3667
  55   2.0000     -10.303239      -280.3654
  56   2.0000     -10.301867      -280.3280
  57   2.0000     -10.301724      -280.3241
  58   2.0000     -10.301091      -280.3069
  59   2.0000     -10.299011      -280.2503
  60   2.0000     -10.298319      -280.2315
  61   2.0000     -10.296642      -280.1859
  62   2.0000     -10.296129      -280.1719
  63   2.0000     -10.295465      -280.1538
  64   2.0000     -10.295031      -280.1420
  65   2.0000     -10.294578      -280.1297
  66   2.0000     -10.294494      -280.1274
  67   2.0000     -10.294419      -280.1254
  68   2.0000     -10.293504      -280.1005
  69   2.0000     -10.292863      -280.0830
  70   2.0000     -10.291654      -280.0501
  71   2.0000     -10.290712      -280.0245
  72   2.0000     -10.287320      -279.9322
  73   2.0000     -10.286032      -279.8972
  74   2.0000     -10.282133      -279.7911
  75   2.0000     -10.280707      -279.7523
  76   2.0000      -8.087958      -220.0845
  77   2.0000      -8.087826      -220.0809
  78   2.0000      -8.083355      -219.9593
  79   2.0000      -8.079046      -219.8420
  80   2.0000      -8.074864      -219.7282
  81   2.0000      -8.070215      -219.6017
  82   2.0000      -8.069569      -219.5841
  83   2.0000      -8.065332      -219.4688
  84   2.0000      -8.049463      -219.0370
  85   2.0000      -8.049134      -219.0281
  86   2.0000      -6.057259      -164.8264
  87   2.0000      -6.057182      -164.8243
  88   2.0000      -6.053109      -164.7135
  89   2.0000      -6.053013      -164.7109
  90   2.0000      -6.052604      -164.6997
  91   2.0000      -6.050197      -164.6342
  92   2.0000      -6.050022      -164.6295
  93   2.0000      -6.048402      -164.5854
  94   2.0000      -6.048188      -164.5796
  95   2.0000      -6.045934      -164.5182
  96   2.0000      -6.044325      -164.4744
  97   2.0000      -6.044181      -164.4705
  98   2.0000      -6.041208      -164.3896
  99   2.0000      -6.039994      -164.3566
 100   2.0000      -6.039464      -164.3422
 101   2.0000      -6.038809      -164.3244
 102   2.0000      -6.037136      -164.2788
 103   2.0000      -6.035232      -164.2270
 104   2.0000      -6.034623      -164.2104
 105   2.0000      -6.034398      -164.2043
 106   2.0000      -6.032652      -164.1568
 107   2.0000      -6.032039      -164.1401
 108   2.0000      -6.030176      -164.0894
 109   2.0000      -6.027975      -164.0295
 110   2.0000      -6.019169      -163.7899
 111   2.0000      -6.018842      -163.7810
 112   2.0000      -6.014858      -163.6726
 113   2.0000      -6.014605      -163.6657
 114   2.0000      -6.010483      -163.5536
 115   2.0000      -6.010259      -163.5475
 116   2.0000      -1.046225       -28.4692
 117   2.0000      -1.043181       -28.3864
 118   2.0000      -1.034207       -28.1422
 119   2.0000      -1.028181       -27.9782
 120   2.0000      -1.026627       -27.9359
 121   2.0000      -1.023338       -27.8464
 122   2.0000      -1.015293       -27.6275
 123   2.0000      -1.012134       -27.5416
 124   2.0000      -1.009368       -27.4663
 125   2.0000      -1.007686       -27.4205
 126   2.0000      -1.005368       -27.3574
 127   2.0000      -1.002518       -27.2799
 128   2.0000      -0.997777       -27.1509
 129   2.0000      -0.992410       -27.0049
 130   2.0000      -0.991136       -26.9702
 131   2.0000      -0.988239       -26.8913
 132   2.0000      -0.981500       -26.7080
 133   2.0000      -0.973494       -26.4901
 134   2.0000      -0.962053       -26.1788
 135   2.0000      -0.954788       -25.9811
 136   2.0000      -0.949247       -25.8303
 137   2.0000      -0.938294       -25.5323
 138   2.0000      -0.922383       -25.0993
 139   2.0000      -0.911670       -24.8078
 140   2.0000      -0.906221       -24.6595
 141   2.0000      -0.894855       -24.3502
 142   2.0000      -0.886652       -24.1270
 143   2.0000      -0.876178       -23.8420
 144   2.0000      -0.872450       -23.7406
 145   2.0000      -0.862890       -23.4804
 146   2.0000      -0.860921       -23.4269
 147   2.0000      -0.857503       -23.3338
 148   2.0000      -0.856558       -23.3081
 149   2.0000      -0.851235       -23.1633
 150   2.0000      -0.850534       -23.1442
 151   2.0000      -0.842764       -22.9328
 152   2.0000      -0.835008       -22.7217
 153   2.0000      -0.828763       -22.5518
 154   2.0000      -0.826434       -22.4884
 155   2.0000      -0.817118       -22.2349
 156   2.0000      -0.802354       -21.8332
 157   2.0000      -0.783879       -21.3304
 158   2.0000      -0.779836       -21.2204
 159   2.0000      -0.774801       -21.0834
 160   2.0000      -0.768474       -20.9112
 161   2.0000      -0.760631       -20.6978
 162   2.0000      -0.758007       -20.6264
 163   2.0000      -0.744816       -20.2675
 164   2.0000      -0.725779       -19.7495
 165   2.0000      -0.713411       -19.4129
 166   2.0000      -0.704494       -19.1703
 167   2.0000      -0.703330       -19.1386
 168   2.0000      -0.695634       -18.9292
 169   2.0000      -0.687930       -18.7195
 170   2.0000      -0.686367       -18.6770
 171   2.0000      -0.683428       -18.5970
 172   2.0000      -0.680635       -18.5210
 173   2.0000      -0.674628       -18.3576
 174   2.0000      -0.667248       -18.1567
 175   2.0000      -0.664482       -18.0815
 176   2.0000      -0.659717       -17.9518
 177   2.0000      -0.653513       -17.7830
 178   2.0000      -0.641950       -17.4684
 179   2.0000      -0.636768       -17.3273
 180   2.0000      -0.635479       -17.2923
 181   2.0000      -0.632332       -17.2066
 182   2.0000      -0.628275       -17.0962
 183   2.0000      -0.620487       -16.8843
 184   2.0000      -0.619703       -16.8630
 185   2.0000      -0.617699       -16.8085
 186   2.0000      -0.613416       -16.6919
 187   2.0000      -0.611558       -16.6413
 188   2.0000      -0.607227       -16.5235
 189   2.0000      -0.604094       -16.4382
 190   2.0000      -0.598036       -16.2734
 191   2.0000      -0.593034       -16.1373
 192   2.0000      -0.588885       -16.0244
 193   2.0000      -0.579921       -15.7805
 194   2.0000      -0.567446       -15.4410
 195   2.0000      -0.556649       -15.1472
 196   2.0000      -0.554445       -15.0872
 197   2.0000      -0.549890       -14.9633
 198   2.0000      -0.549365       -14.9490
 199   2.0000      -0.545602       -14.8466
 200   2.0000      -0.540542       -14.7089
 201   2.0000      -0.537551       -14.6275
 202   2.0000      -0.534587       -14.5468
 203   2.0000      -0.530080       -14.4242
 204   2.0000      -0.529437       -14.4067
 205   2.0000      -0.520532       -14.1644
 206   2.0000      -0.517135       -14.0719
 207   2.0000      -0.512661       -13.9502
 208   2.0000      -0.510017       -13.8783
 209   2.0000      -0.509284       -13.8583
 210   2.0000      -0.508447       -13.8356
 211   2.0000      -0.505556       -13.7569
 212   2.0000      -0.504448       -13.7267
 213   2.0000      -0.499843       -13.6014
 214   2.0000      -0.499246       -13.5852
 215   2.0000      -0.497319       -13.5327
 216   2.0000      -0.496688       -13.5156
 217   2.0000      -0.494919       -13.4674
 218   2.0000      -0.492589       -13.4040
 219   2.0000      -0.490497       -13.3471
 220   2.0000      -0.489736       -13.3264
 221   2.0000      -0.488721       -13.2988
 222   2.0000      -0.485325       -13.2064
 223   2.0000      -0.483790       -13.1646
 224   2.0000      -0.481285       -13.0964
 225   2.0000      -0.478797       -13.0287
 226   2.0000      -0.477856       -13.0031
 227   2.0000      -0.475240       -12.9319
 228   2.0000      -0.472869       -12.8674
 229   2.0000      -0.471400       -12.8274
 230   2.0000      -0.469189       -12.7673
 231   2.0000      -0.466869       -12.7041
 232   2.0000      -0.465713       -12.6727
 233   2.0000      -0.462475       -12.5846
 234   2.0000      -0.460754       -12.5378
 235   2.0000      -0.459106       -12.4929
 236   2.0000      -0.457682       -12.4542
 237   2.0000      -0.456214       -12.4142
 238   2.0000      -0.453069       -12.3286
 239   2.0000      -0.452000       -12.2996
 240   2.0000      -0.450573       -12.2607
 241   2.0000      -0.448849       -12.2138
 242   2.0000      -0.446132       -12.1399
 243   2.0000      -0.445879       -12.1330
 244   2.0000      -0.445391       -12.1197
 245   2.0000      -0.443831       -12.0772
 246   2.0000      -0.443160       -12.0590
 247   2.0000      -0.442166       -12.0320
 248   2.0000      -0.440895       -11.9974
 249   2.0000      -0.440255       -11.9800
 250   2.0000      -0.439170       -11.9504
 251   2.0000      -0.437103       -11.8942
 252   2.0000      -0.432816       -11.7775
 253   2.0000      -0.431173       -11.7328
 254   2.0000      -0.430632       -11.7181
 255   2.0000      -0.429246       -11.6804
 256   2.0000      -0.428525       -11.6608
 257   2.0000      -0.427693       -11.6381
 258   2.0000      -0.426406       -11.6031
 259   2.0000      -0.424142       -11.5415
 260   2.0000      -0.422499       -11.4968
 261   2.0000      -0.420619       -11.4456
 262   2.0000      -0.418077       -11.3764
 263   2.0000      -0.416051       -11.3213
 264   2.0000      -0.412789       -11.2326
 265   2.0000      -0.409539       -11.1441
 266   2.0000      -0.407315       -11.0836
 267   2.0000      -0.398654       -10.8479
 268   2.0000      -0.391250       -10.6464
 269   2.0000      -0.389310       -10.5937
 270   2.0000      -0.382602       -10.4111
 271   2.0000      -0.377255       -10.2656
 272   2.0000      -0.365269        -9.9395
 273   2.0000      -0.352554        -9.5935
 274   2.0000      -0.350597        -9.5402
 275   2.0000      -0.347648        -9.4600
 276   2.0000      -0.346427        -9.4268
 277   2.0000      -0.337807        -9.1922
 278   2.0000      -0.331450        -9.0192
 279   2.0000      -0.330249        -8.9865
 280   2.0000      -0.326241        -8.8775
 281   2.0000      -0.322917        -8.7870
 282   2.0000      -0.318655        -8.6710
 283   2.0000      -0.309753        -8.4288
 284   2.0000      -0.304688        -8.2910
 285   2.0000      -0.300858        -8.1868
 286   2.0000      -0.281362        -7.6562
 287   2.0000      -0.257811        -7.0154
 288   2.0000      -0.238723        -6.4960
 289   2.0000      -0.206157        -5.6098
 290   0.0000      -0.116585        -3.1724
 291   0.0000      -0.102656        -2.7934
 292   0.0000      -0.099394        -2.7047
 293   0.0000      -0.084356        -2.2954
 294   0.0000      -0.080447        -2.1891

MULLIKEN ATOMIC CHARGES
-----------------------
   0 C :   -0.073838
   1 C :    0.035102
   2 C :   -0.028990
   3 C :   -0.100157
   4 S :    0.175972
   5 C :   -0.097807
   6 C :    0.006771
   7 C :    0.299169
   8 C :   -0.299729
   9 C :   -0.191790
  10 N :    0.170948
  11 C :   -0.192794
  12 N :    0.168195
  13 C :   -0.039543
  14 C :   -0.061098
  15 S :    0.200019
  16 C :   -0.049536
  17 C :   -0.046477
  18 C :    0.008051
  19 C :   -0.086976
  20 S :    0.169836
  21 C :   -0.078005
  22 C :    0.036520
  23 C :    0.297142
  24 C :   -0.299030
  25 C :   -0.186950
  26 N :    0.163736
  27 C :   -0.191466
  28 N :    0.178956
  29 C :   -0.049025
  30 C :   -0.066002
  31 S :    0.184639
  32 C :    0.024563
  33 C :   -0.041225
  34 C :    0.040328
  35 C :    0.026802
  36 C :   -0.007048
  37 S :    0.037823
  38 C :   -0.024182
  39 C :    0.035144
  40 C :    0.024580
  41 C :   -0.023618
  42 S :    0.023469
  43 C :    0.032078
  44 C :   -0.087719
  45 C :   -0.051643
  46 C :   -0.008081
  47 C :   -0.105685
  48 S :    0.173751
  49 C :   -0.095648
  50 C :   -0.001410
  51 C :    0.331071
  52 C :   -0.314491
  53 C :   -0.197186
  54 N :    0.178510
  55 C :   -0.176949
  56 N :    0.160620
  57 C :   -0.056096
  58 C :   -0.057302
  59 S :    0.178571
  60 C :   -0.053222
  61 C :   -0.062937
  62 C :    0.016149
  63 C :   -0.105613
  64 S :    0.180130
  65 C :   -0.116723
  66 C :   -0.037286
  67 C :    0.309055
  68 C :   -0.311456
  69 C :   -0.196477
  70 N :    0.177688
  71 C :   -0.177557
  72 N :    0.173825
  73 C :    0.038644
  74 C :   -0.082892
  75 S :    0.178046
  76 H :    0.028863
  77 H :    0.009237
  78 H :    0.008887
  79 H :    0.011499
  80 H :    0.004386
  81 H :   -0.001522
  82 H :   -0.006968
  83 H :   -0.012187
  84 H :   -0.011330
  85 H :   -0.011553
  86 H :   -0.019747
  87 H :    0.032950
  88 H :    0.008050
  89 H :    0.007388
  90 H :    0.011487
  91 H :    0.036316
Sum of atomic charges:   -0.0000000

LOEWDIN ATOMIC CHARGES
----------------------
   0 C :   -0.177467
   1 C :   -0.032507
   2 C :   -0.074966
   3 C :   -0.178087
   4 S :    0.485258
   5 C :   -0.176453
   6 C :   -0.070653
   7 C :    0.085665
   8 C :   -0.108396
   9 C :   -0.018008
  10 N :   -0.036270
  11 C :   -0.016316
  12 N :   -0.038827
  13 C :   -0.023763
  14 C :   -0.188591
  15 S :    0.493697
  16 C :   -0.173873
  17 C :   -0.030870
  18 C :   -0.066192
  19 C :   -0.179657
  20 S :    0.470138
  21 C :   -0.183516
  22 C :   -0.071649
  23 C :    0.083340
  24 C :   -0.105694
  25 C :   -0.014863
  26 N :   -0.039240
  27 C :   -0.019527
  28 N :   -0.029843
  29 C :   -0.018440
  30 C :   -0.177706
  31 S :    0.509644
  32 C :   -0.047343
  33 C :   -0.170030
  34 C :   -0.019748
  35 C :   -0.046657
  36 C :   -0.164068
  37 S :    0.384768
  38 C :   -0.188256
  39 C :   -0.031505
  40 C :   -0.040682
  41 C :   -0.140310
  42 S :    0.406349
  43 C :   -0.092019
  44 C :   -0.152439
  45 C :   -0.050343
  46 C :   -0.060200
  47 C :   -0.203766
  48 S :    0.455745
  49 C :   -0.164452
  50 C :   -0.082236
  51 C :    0.089759
  52 C :   -0.111682
  53 C :   -0.018539
  54 N :   -0.046112
  55 C :   -0.006608
  56 N :   -0.057351
  57 C :   -0.024575
  58 C :   -0.189807
  59 S :    0.455785
  60 C :   -0.180534
  61 C :   -0.031760
  62 C :   -0.065538
  63 C :   -0.189013
  64 S :    0.462353
  65 C :   -0.179789
  66 C :   -0.082298
  67 C :    0.084398
  68 C :   -0.105985
  69 C :   -0.018303
  70 N :   -0.032803
  71 C :   -0.016901
  72 N :   -0.036842
  73 C :   -0.033074
  74 C :   -0.179409
  75 S :    0.474289
  76 H :    0.024293
  77 H :    0.041570
  78 H :    0.041413
  79 H :    0.042355
  80 H :    0.039861
  81 H :    0.044550
  82 H :    0.035325
  83 H :    0.033358
  84 H :    0.033973
  85 H :    0.032815
  86 H :    0.032903
  87 H :    0.018546
  88 H :    0.040422
  89 H :    0.039717
  90 H :    0.042550
  91 H :    0.027514

  Mayer bond orders larger than 0.100000
B(  0-C ,  1-C ) :   1.5496 B(  0-C ,  4-S ) :   1.1522 B(  0-C , 76-H ) :   0.9628
B(  1-C ,  2-C ) :   1.2773 B(  1-C , 77-H ) :   0.9966 B(  2-C ,  3-C ) :   1.4544
B(  2-C ,  7-C ) :   1.0176 B(  3-C ,  4-S ) :   1.1439 B(  3-C ,  5-C ) :   1.1825
B(  5-C ,  6-C ) :   1.4491 B(  5-C , 15-S ) :   1.1501 B(  6-C ,  7-C ) :   0.9887
B(  6-C , 13-C ) :   1.2963 B(  7-C ,  8-C ) :   1.7048 B(  8-C ,  9-C ) :   1.1333
B(  8-C , 11-C ) :   1.1305 B(  9-C , 10-N ) :   2.9924 B( 11-C , 12-N ) :   3.0029
B( 13-C , 14-C ) :   1.4833 B( 13-C , 78-H ) :   0.9920 B( 14-C , 15-S ) :   1.1124
B( 14-C , 16-C ) :   1.1109 B( 16-C , 17-C ) :   1.4877 B( 16-C , 20-S ) :   1.0978
B( 17-C , 18-C ) :   1.2801 B( 17-C , 79-H ) :   0.9961 B( 18-C , 19-C ) :   1.4143
B( 18-C , 23-C ) :   1.0035 B( 19-C , 20-S ) :   1.1230 B( 19-C , 21-C ) :   1.2165
B( 21-C , 22-C ) :   1.3646 B( 21-C , 31-S ) :   1.1639 B( 22-C , 23-C ) :   0.9810
B( 22-C , 29-C ) :   1.3503 B( 23-C , 24-C ) :   1.7086 B( 24-C , 25-C ) :   1.1347
B( 24-C , 27-C ) :   1.1330 B( 25-C , 26-N ) :   2.9914 B( 27-C , 28-N ) :   2.9962
B( 29-C , 30-C ) :   1.3392 B( 29-C , 80-H ) :   1.0056 B( 30-C , 31-S ) :   1.0762
B( 30-C , 32-C ) :   1.2308 B( 32-C , 33-C ) :   1.5083 B( 32-C , 81-H ) :   0.9753
B( 33-C , 34-C ) :   1.1742 B( 33-C , 37-S ) :   1.0347 B( 34-C , 35-C ) :   1.5567
B( 34-C , 82-H ) :   0.9986 B( 35-C , 36-C ) :   1.2195 B( 35-C , 83-H ) :   0.9952
B( 36-C , 37-S ) :   1.0617 B( 36-C , 38-C ) :   1.4387 B( 38-C , 39-C ) :   1.2311
B( 38-C , 42-S ) :   1.0428 B( 39-C , 40-C ) :   1.5448 B( 39-C , 84-H ) :   0.9958
B( 40-C , 41-C ) :   1.1840 B( 40-C , 85-H ) :   0.9981 B( 41-C , 42-S ) :   1.0605
B( 41-C , 43-C ) :   1.5240 B( 43-C , 44-C ) :   1.2252 B( 43-C , 86-H ) :   0.9549
B( 44-C , 45-C ) :   1.3568 B( 44-C , 48-S ) :   1.0962 B( 45-C , 46-C ) :   1.3799
B( 45-C , 87-H ) :   0.9584 B( 46-C , 47-C ) :   1.4096 B( 46-C , 51-C ) :   0.9898
B( 47-C , 48-S ) :   1.0889 B( 47-C , 49-C ) :   1.2370 B( 49-C , 50-C ) :   1.4045
B( 49-C , 59-S ) :   1.1218 B( 50-C , 51-C ) :   1.0184 B( 50-C , 57-C ) :   1.2792
B( 51-C , 52-C ) :   1.6744 B( 52-C , 53-C ) :   1.1541 B( 52-C , 55-C ) :   1.1475
B( 53-C , 54-N ) :   2.9525 B( 55-C , 56-N ) :   2.9618 B( 57-C , 58-C ) :   1.4954
B( 57-C , 88-H ) :   0.9906 B( 58-C , 59-S ) :   1.0760 B( 58-C , 60-C ) :   1.1327
B( 60-C , 61-C ) :   1.4829 B( 60-C , 64-S ) :   1.1036 B( 61-C , 62-C ) :   1.2880
B( 61-C , 89-H ) :   0.9930 B( 62-C , 63-C ) :   1.4605 B( 62-C , 67-C ) :   0.9876
B( 63-C , 64-S ) :   1.1129 B( 63-C , 65-C ) :   1.1903 B( 65-C , 66-C ) :   1.4493
B( 65-C , 75-S ) :   1.1392 B( 66-C , 67-C ) :   1.0239 B( 66-C , 73-C ) :   1.2708
B( 67-C , 68-C ) :   1.7006 B( 68-C , 69-C ) :   1.1340 B( 68-C , 71-C ) :   1.1452
B( 69-C , 70-N ) :   3.0033 B( 71-C , 72-N ) :   2.9410 B( 73-C , 74-C ) :   1.5559
B( 73-C , 90-H ) :   0.9962 B( 74-C , 75-S ) :   1.1424 B( 74-C , 91-H ) :   0.9642

-----------------------------------------------------------------------------
         ABSORPTION SPECTRUM VIA TRANSITION ELECTRIC DIPOLE MOMENTS
-----------------------------------------------------------------------------
State   Energy  Wavelength   fosc         T2         TX        TY        TZ
        (cm-1)    (nm)                  (au**2)     (au)      (au)      (au)
-----------------------------------------------------------------------------
   0    4352.8   2297.4   0.079371985   6.00309  -0.97068   0.42027   2.21003
   1    8306.6   1203.9   0.163549699   6.48187   0.45476  -2.03583   1.45961
   2   10834.7    923.0   0.147092614   4.46940   1.05637  -1.11391  -1.45351
   3   12013.2    832.4   0.157146751   4.30649   0.84420  -1.89277   0.10607
   4   12927.6    773.5   0.197066940   5.01849   0.40727   0.55653  -2.13141
   5   13381.3    747.3   0.249761929   6.14476  -0.67259   0.40842   2.35066
   6   15442.4    647.6   0.072557579   1.54684  -0.53220   0.77454   0.81468
   7   15672.1    638.1   0.044269858   0.92995   0.39414  -0.68158  -0.55682
   8   16640.5    600.9   0.011646445   0.23041   0.03279  -0.19130   0.43902
   9   18634.9    536.6   0.047387039   0.83716  -0.41652   0.61926   0.52932
  10   19566.4    511.1   0.045288777   0.76200  -0.38727   0.78231   0.00244
  11   20815.7    480.4   0.335045635   5.29892   1.05926  -1.97649  -0.51995
  12   21995.3    454.6   0.448843688   6.71800   1.22230  -1.99773  -1.11043
  13   22217.1    450.1   0.020558504   0.30464  -0.16034   0.22086   0.47974
  14   23201.6    431.0   1.632718869  23.16693   2.36694  -3.95757  -1.37921
  15   25140.0    397.8   0.023469685   0.30734  -0.03622  -0.12683  -0.53846
  16   25456.4    392.8   0.088128583   1.13971   0.44611  -0.91611   0.31850
  17   25856.8    386.7   0.004365520   0.05558   0.07648   0.17148  -0.14257
  18   26206.2    381.6   0.014878260   0.18691  -0.03881  -0.03576  -0.42909
  19   26551.4    376.6   0.118531339   1.46967  -0.43930   0.63554   0.93422
  20   27154.4    368.3   0.163952238   1.98771   0.55045  -1.24066  -0.38142
  21   27945.3    357.8   0.023055118   0.27160   0.21657  -0.21557  -0.42217
  22   28329.4    353.0   0.265810175   3.08894  -0.67476   1.33728  -0.91942
  23   28682.0    348.7   0.226096217   2.59514  -0.13953   0.07761   1.60301
  24   29156.9    343.0   0.063952365   0.72209  -0.02888   0.31901  -0.78707
  25   29546.7    338.4   0.017994649   0.20050  -0.12307   0.36694  -0.22518
  26   29613.8    337.7   0.018116811   0.20140  -0.09572   0.06153  -0.43411
  27   29790.9    335.7   0.303505377   3.35396  -0.19452  -0.11390   1.81746
  28   30056.3    332.7   0.024363374   0.26686  -0.23869   0.10631  -0.44562
  29   30382.7    329.1   0.342788964   3.71429  -0.51067   1.44069  -1.17385
  30   30710.5    325.6   0.405221377   4.34391  -0.08536  -0.41814   2.04004
  31   31018.8    322.4   0.029925232   0.31761  -0.19215   0.51608  -0.11976
  32   31101.1    321.5   0.020151308   0.21331   0.18322   0.35916   0.22525
  33   31205.1    320.5   0.243267598   2.56646  -0.95063   1.28940  -0.01422
  34   31323.7    319.2   0.217581733   2.28678   0.88116  -1.18590   0.32245
  35   31850.9    314.0   0.763841232   7.89509   0.46770  -0.41491   2.73938
  36   32110.8    311.4   0.165685257   1.69866   0.96515  -0.86147  -0.15817
  37   32220.4    310.4   0.071082481   0.72629  -0.24286  -0.79132  -0.20277
  38   32424.2    308.4   0.836650985   8.49474  -0.57606   0.26092   2.84514
  39   32575.0    307.0   0.085509820   0.86418   0.75473  -0.04838   0.54058
  40   32791.1    305.0   0.001702379   0.01709   0.02940  -0.12421  -0.02827
  41   32828.9    304.6   0.181772588   1.82284   0.46517  -1.08158   0.66079
  42   33258.8    300.7   0.070161850   0.69450  -0.30295   0.48388   0.60711
  43   33493.0    298.6   0.007405732   0.07279   0.26002   0.06501   0.03091
  44   33645.3    297.2   0.165438299   1.61878  -0.60941   1.11237   0.10021
  45   33840.6    295.5   0.008036171   0.07818  -0.04247  -0.17184   0.21644
  46   33899.2    295.0   0.016381155   0.15909   0.11819   0.28322  -0.25476
  47   34039.1    293.8   0.025921530   0.25070  -0.40821   0.28904  -0.02276
  48   34186.4    292.5   0.288068903   2.77408  -0.83492   1.18321   0.82281
  49   34497.5    289.9   0.032416920   0.30936   0.38655  -0.37649  -0.13489
  50   34603.8    289.0   0.041637954   0.39613  -0.30477   0.44520  -0.32411
  51   34748.3    287.8   0.088858390   0.84186  -0.22230   0.79545  -0.39963
  52   34821.8    287.2   0.068203060   0.64480   0.33164  -0.24180   0.69018
  53   35018.7    285.6   0.006685175   0.06285  -0.09489   0.12210  -0.19732
  54   35056.9    285.3   0.079931842   0.75062   0.26228  -0.73036   0.38524
  55   35299.9    283.3   0.116856585   1.08982  -0.34068   0.75452  -0.63598
  56   35457.8    282.0   0.008456465   0.07852  -0.11966   0.10300   0.23149
  57   35605.1    280.9   0.023176302   0.21429  -0.00020   0.09745  -0.45254
  58   36325.8    275.3   0.028827490   0.26126   0.35580  -0.36543   0.03351
  59   36388.6    274.8   0.001002703   0.00907   0.02946   0.08578  -0.02906
  60   36518.0    273.8   0.061368140   0.55324   0.16273  -0.52744   0.49857
  61   36815.4    271.6   0.054675367   0.48892  -0.09646  -0.00757  -0.69250
  62   36862.6    271.3   0.022931149   0.20479  -0.01148   0.08322  -0.44468
  63   37196.6    268.8   0.012649831   0.11196  -0.04705   0.16767  -0.28571
  64   37407.2    267.3   0.005779898   0.05087   0.02172   0.19062  -0.11858
  65   37726.9    265.1   0.000542246   0.00473  -0.06544  -0.02072   0.00451
  66   37961.3    263.4   0.001337055   0.01160  -0.08853  -0.06128   0.00134
  67   38222.2    261.6   0.008271013   0.07124  -0.09250   0.20784   0.13959
  68   38298.8    261.1   0.008962560   0.07704  -0.04091   0.19995  -0.18812
  69   38513.9    259.6   0.013469263   0.11513  -0.14891   0.28845  -0.09878
  70   38703.9    258.4   0.008027216   0.06828   0.09546  -0.22035  -0.10303
  71   38858.4    257.3   0.009779513   0.08285   0.02095  -0.27475   0.08321
  72   38925.7    256.9   0.043918160   0.37144  -0.20962   0.33549   0.46362
  73   39145.7    255.5   0.010523391   0.08850  -0.04292  -0.24070  -0.16948
  74   39294.1    254.5   0.001974024   0.01654  -0.02018   0.08342  -0.09577
  75   39475.2    253.3   0.006143588   0.05124  -0.08423   0.18982  -0.09005
  76   39529.2    253.0   0.034234734   0.28512  -0.21577   0.29803  -0.38696
  77   39762.7    251.5   0.010252612   0.08489  -0.23911  -0.00174  -0.16647
  78   39951.4    250.3   0.018602139   0.15329  -0.19661   0.30491   0.14717
  79   40147.8    249.1   0.063931071   0.52423  -0.17326  -0.06316   0.70016

FINAL SINGLE POINT ENERGY     -6634.822021036108

DIPOLE MOMENT
-------------
                                X             Y             Z
Electronic contribution:      5.94082     -15.35968     -10.12150
Nuclear contribution   :     -7.99972      19.91270       4.36139
                        -----------------------------------------
Total Dipole Moment    :     -2.05890       4.55303      -5.76012
                        -----------------------------------------
Magnitude (a.u.)       :      7.62549
Magnitude (Debye)      :     19.38245

Rotational constants in cm-1:     0.000806     0.000457     0.000298
Rotational constants in MHz :    24.160784    13.711659     8.936437

                             ****ORCA TERMINATED NORMALLY****
TOTAL RUN TIME: 0 days 0 hours 10 minutes 48 seconds 479 msec
