                         Program Version 4.2.0 -  RELEASE  -
|  1> # ORCA input file
|  2> # SCF done       -193.777909428219          0.000465369796
|  3> ! CAM-B3LYP def2-SVP def2/J RIJCOSX Grid4 TightSCF
|  4> %maxcore 5000
|  5> %tddft
|  6>     Mode sTDDFT
|  7>     Ethresh 5.0
|  8>     maxcore 5000
|  9> end
| 10>
| 11> %pal
| 12>   nprocs 6
| 13>   end
| 14> * xyz 0 1
| 15>    C        1.15464        -2.70269         8.83737
| 16>    C        1.69196        -2.58840         7.59337
| 17>    C        2.01558        -1.25043         7.29105
| 18>    C        1.70245        -0.37363         8.34747
| 19>    S        1.02246        -1.19239         9.68475
| 20>    C        2.04904         0.94288         7.96578
| 21>    C        2.58536         0.89665         6.66359
| 22>    C        2.57691        -0.49150         6.20170
| 23>    C        3.00529        -0.95512         4.98725
| 24>    C        3.54286        -0.11820         3.98794
| 25>    N        3.98853         0.54151         3.16140
| 26>    C        2.94606        -2.31979         4.64440
| 27>    N        2.91741        -3.43044         4.35501
| 28>    C        2.95287         2.13578         6.17290
| 29>    C        2.70198         3.16732         7.08348
| 30>    S        2.00272         2.53830         8.58081
| 31>    C        2.89099         4.54933         6.96100
| 32>    C        3.38810         5.22858         5.86822
| 33>    C        3.50231         6.63188         5.72833
| 34>    C        3.97873         7.04536         4.51384
| 35>    C        4.27755         5.98778         3.63765
| 36>    S        3.94641         4.45472         4.40277
| 37>    C        4.73414         5.96913         2.32558
| 38>    C        4.97520         7.00047         1.40136
| 39>    C        5.33760         6.54654         0.16156
| 40>    C        5.40572         5.13922         0.05233
| 41>    S        5.02398         4.41108         1.59223
| 42>    C        5.66880         4.39086        -1.07895
| 43>    C        5.69866         2.99789        -1.15430
| 44>    C        5.82397         2.23762        -2.32958
| 45>    C        5.77784         0.88108        -2.08436
| 46>    C        5.64498         0.57183        -0.70448
| 47>    S        5.54804         1.96638         0.27093
| 48>    C        5.60471        -0.81815        -0.54340
| 49>    C        5.68624        -1.41650        -1.82968
| 50>    C        5.80967        -0.37262        -2.82837
| 51>    C        5.93383        -0.52339        -4.17961
| 52>    C        5.95427        -1.78930        -4.80160
| 53>    N        5.97555        -2.80931        -5.32516
| 54>    C        6.05528         0.58286        -5.04496
| 55>    N        6.15509         1.48395        -5.74775
| 56>    C        5.62481        -2.79770        -1.77477
| 57>    C        5.52002        -3.26426        -0.46471
| 58>    S        5.50904        -1.96824         0.72449
| 59>    C        5.41459        -4.60604        -0.04413
| 60>    C        5.43714        -4.92766         1.33925
| 61>    C        5.39094        -6.26995         1.82399
| 62>    N        5.26600        -6.48591         3.14626
| 63>    C        5.35213        -5.47131         3.95689
| 64>    C        5.57285        -4.16155         3.48462
| 65>    N        5.55536        -3.90907         2.20563
| 66>    C        5.39685        -7.37177         0.93061
| 67>    C        5.28359        -7.05987        -0.44190
| 68>    C        5.30362        -5.70171        -0.93141
| 69>    N        5.22509        -5.65760        -2.26150
| 70>    S        5.13682        -7.15440        -2.83468
| 71>    N        5.20446        -7.94269        -1.43776
| 72>    C        5.44761        -8.71780         1.36722
| 73>    C        6.11315        -9.15516         2.47990
| 74>    C        5.99897       -10.46156         3.08734
| 75>    C        5.01674       -11.38744         2.83919
| 76>    C        4.93029       -12.63827         3.48214
| 77>    N        4.81482       -13.67170         3.96985
| 78>    C        3.94709       -11.20575         1.93784
| 79>    N        3.03425       -11.13487         1.24459
| 80>    C        7.05524       -10.58745         4.08554
| 81>    C        7.78956        -9.37764         4.12006
| 82>    C        7.24742        -8.44015         3.11317
| 83>    O        7.73400        -7.37137         2.80678
| 84>    C        8.85704        -9.18426         4.96185
| 85>    C        9.21431       -10.23331         5.81592
| 86>    C        8.47619       -11.43904         5.77238
| 87>    C        7.39825       -11.63638         4.91774
| 88>    S        9.09411       -12.60770         6.90122
| 89>    C       10.31710       -11.47399         7.41029
| 90>    C       10.26813       -10.28239         6.76985
| 91>   Br       11.54529       -11.97137         8.73825
| 92>    H        0.81654        -3.59296         9.32871
| 93>    H        1.84404        -3.42028         6.93001
| 94>    H        3.37758         2.28856         5.19988
| 95>    H        2.59267         5.15294         7.80844
| 96>    H        3.21710         7.29797         6.52356
| 97>    H        4.11823         8.07475         4.23588
| 98>    H        4.85924         8.03857         1.65707
| 99>    H        5.54634         7.18516        -0.67863
|100>    H        5.83791         4.93002        -2.00177
|101>    H        5.92471         2.69299        -3.29839
|102>    H        5.64857        -3.46969        -2.61351
|103>    H        5.22136        -5.67483         5.01043
|104>    H        5.72867        -3.32556         4.15044
|105>    H        4.94755        -9.43303         0.72600
|106>    H        9.40090        -8.25254         4.96165
|107>    H        6.87257       -12.57664         4.91526
|108>    H       10.94724        -9.47101         6.95857
|109> *
|110>
|111>                          ****END OF INPUT****

CARTESIAN COORDINATES (ANGSTROEM)
---------------------------------
  C      1.154640   -2.702690    8.837370
  C      1.691960   -2.588400    7.593370
  C      2.015580   -1.250430    7.291050
  C      1.702450   -0.373630    8.347470
  S      1.022460   -1.192390    9.684750
  C      2.049040    0.942880    7.965780
  C      2.585360    0.896650    6.663590
  C      2.576910   -0.491500    6.201700
  C      3.005290   -0.955120    4.987250
  C      3.542860   -0.118200    3.987940
  N      3.988530    0.541510    3.161400
  C      2.946060   -2.319790    4.644400
  N      2.917410   -3.430440    4.355010
  C      2.952870    2.135780    6.172900
  C      2.701980    3.167320    7.083480
  S      2.002720    2.538300    8.580810
  C      2.890990    4.549330    6.961000
  C      3.388100    5.228580    5.868220
  C      3.502310    6.631880    5.728330
  C      3.978730    7.045360    4.513840
  C      4.277550    5.987780    3.637650
  S      3.946410    4.454720    4.402770
  C      4.734140    5.969130    2.325580
  C      4.975200    7.000470    1.401360
  C      5.337600    6.546540    0.161560
  C      5.405720    5.139220    0.052330
  S      5.023980    4.411080    1.592230
  C      5.668800    4.390860   -1.078950
  C      5.698660    2.997890   -1.154300
  C      5.823970    2.237620   -2.329580
  C      5.777840    0.881080   -2.084360
  C      5.644980    0.571830   -0.704480
  S      5.548040    1.966380    0.270930
  C      5.604710   -0.818150   -0.543400
  C      5.686240   -1.416500   -1.829680
  C      5.809670   -0.372620   -2.828370
  C      5.933830   -0.523390   -4.179610
  C      5.954270   -1.789300   -4.801600
  N      5.975550   -2.809310   -5.325160
  C      6.055280    0.582860   -5.044960
  N      6.155090    1.483950   -5.747750
  C      5.624810   -2.797700   -1.774770
  C      5.520020   -3.264260   -0.464710
  S      5.509040   -1.968240    0.724490
  C      5.414590   -4.606040   -0.044130
  C      5.437140   -4.927660    1.339250
  C      5.390940   -6.269950    1.823990
  N      5.266000   -6.485910    3.146260
  C      5.352130   -5.471310    3.956890
  C      5.572850   -4.161550    3.484620
  N      5.555360   -3.909070    2.205630
  C      5.396850   -7.371770    0.930610
  C      5.283590   -7.059870   -0.441900
  C      5.303620   -5.701710   -0.931410
  N      5.225090   -5.657600   -2.261500
  S      5.136820   -7.154400   -2.834680
  N      5.204460   -7.942690   -1.437760
  C      5.447610   -8.717800    1.367220
  C      6.113150   -9.155160    2.479900
  C      5.998970  -10.461560    3.087340
  C      5.016740  -11.387440    2.839190
  C      4.930290  -12.638270    3.482140
  N      4.814820  -13.671700    3.969850
  C      3.947090  -11.205750    1.937840
  N      3.034250  -11.134870    1.244590
  C      7.055240  -10.587450    4.085540
  C      7.789560   -9.377640    4.120060
  C      7.247420   -8.440150    3.113170
  O      7.734000   -7.371370    2.806780
  C      8.857040   -9.184260    4.961850
  C      9.214310  -10.233310    5.815920
  C      8.476190  -11.439040    5.772380
  C      7.398250  -11.636380    4.917740
  S      9.094110  -12.607700    6.901220
  C     10.317100  -11.473990    7.410290
  C     10.268130  -10.282390    6.769850
  Br    11.545290  -11.971370    8.738250
  H      0.816540   -3.592960    9.328710
  H      1.844040   -3.420280    6.930010
  H      3.377580    2.288560    5.199880
  H      2.592670    5.152940    7.808440
  H      3.217100    7.297970    6.523560
  H      4.118230    8.074750    4.235880
  H      4.859240    8.038570    1.657070
  H      5.546340    7.185160   -0.678630
  H      5.837910    4.930020   -2.001770
  H      5.924710    2.692990   -3.298390
  H      5.648570   -3.469690   -2.613510
  H      5.221360   -5.674830    5.010430
  H      5.728670   -3.325560    4.150440
  H      4.947550   -9.433030    0.726000
  H      9.400900   -8.252540    4.961650
  H      6.872570  -12.576640    4.915260
  H     10.947240   -9.471010    6.958570

 Total Charge           Charge          ....    0
 Multiplicity           Mult            ....    1
 Number of Electrons    NEL             ....  600
 Basis Dimension        Dim             .... 1213

ORBITAL ENERGIES
----------------

  NO   OCC          E(Eh)            E(eV)
   0   2.0000    -482.879992    -13139.8326
   1   2.0000     -89.027944     -2422.5735
   2   2.0000     -88.990740     -2421.5612
   3   2.0000     -88.989240     -2421.5203
   4   2.0000     -88.980015     -2421.2693
   5   2.0000     -88.972836     -2421.0740
   6   2.0000     -88.967690     -2420.9339
   7   2.0000     -88.959212     -2420.7032
   8   2.0000     -88.958281     -2420.6779
   9   2.0000     -62.557719     -1702.2821
  10   2.0000     -56.391661     -1534.4951
  11   2.0000     -56.388959     -1534.4216
  12   2.0000     -56.388925     -1534.4207
  13   2.0000     -19.200968      -522.4849
  14   2.0000     -14.441615      -392.9763
  15   2.0000     -14.439057      -392.9067
  16   2.0000     -14.437438      -392.8627
  17   2.0000     -14.435025      -392.7970
  18   2.0000     -14.433434      -392.7537
  19   2.0000     -14.423021      -392.4704
  20   2.0000     -14.421688      -392.4341
  21   2.0000     -14.419580      -392.3767
  22   2.0000     -14.402664      -391.9164
  23   2.0000     -14.399422      -391.8282
  24   2.0000     -10.368056      -282.1291
  25   2.0000     -10.357050      -281.8297
  26   2.0000     -10.353209      -281.7251
  27   2.0000     -10.352684      -281.7109
  28   2.0000     -10.351683      -281.6836
  29   2.0000     -10.342852      -281.4433
  30   2.0000     -10.340196      -281.3710
  31   2.0000     -10.338311      -281.3197
  32   2.0000     -10.335083      -281.2319
  33   2.0000     -10.329701      -281.0854
  34   2.0000     -10.328702      -281.0583
  35   2.0000     -10.327611      -281.0286
  36   2.0000     -10.327116      -281.0151
  37   2.0000     -10.326834      -281.0074
  38   2.0000     -10.326350      -280.9943
  39   2.0000     -10.325932      -280.9829
  40   2.0000     -10.325705      -280.9767
  41   2.0000     -10.323569      -280.9186
  42   2.0000     -10.323110      -280.9061
  43   2.0000     -10.322738      -280.8960
  44   2.0000     -10.322709      -280.8952
  45   2.0000     -10.322650      -280.8936
  46   2.0000     -10.322515      -280.8899
  47   2.0000     -10.321266      -280.8559
  48   2.0000     -10.320038      -280.8225
  49   2.0000     -10.319805      -280.8162
  50   2.0000     -10.318037      -280.7681
  51   2.0000     -10.316562      -280.7279
  52   2.0000     -10.315983      -280.7122
  53   2.0000     -10.315871      -280.7091
  54   2.0000     -10.314193      -280.6635
  55   2.0000     -10.310862      -280.5728
  56   2.0000     -10.306041      -280.4416
  57   2.0000     -10.305556      -280.4284
  58   2.0000     -10.302719      -280.3512
  59   2.0000     -10.302570      -280.3472
  60   2.0000     -10.301701      -280.3235
  61   2.0000     -10.301339      -280.3137
  62   2.0000     -10.301187      -280.3096
  63   2.0000     -10.300614      -280.2939
  64   2.0000     -10.300252      -280.2841
  65   2.0000     -10.299319      -280.2587
  66   2.0000     -10.298861      -280.2463
  67   2.0000     -10.298780      -280.2441
  68   2.0000     -10.298763      -280.2436
  69   2.0000     -10.298583      -280.2387
  70   2.0000     -10.297993      -280.2226
  71   2.0000     -10.297037      -280.1966
  72   2.0000     -10.296680      -280.1869
  73   2.0000     -10.295271      -280.1486
  74   2.0000     -10.291150      -280.0364
  75   2.0000     -10.290944      -280.0308
  76   2.0000     -10.289910      -280.0027
  77   2.0000     -10.289631      -279.9951
  78   2.0000     -10.286044      -279.8975
  79   2.0000     -10.281121      -279.7635
  80   2.0000     -10.281067      -279.7621
  81   2.0000      -8.787154      -239.1106
  82   2.0000      -8.119425      -220.9408
  83   2.0000      -8.085777      -220.0252
  84   2.0000      -8.083843      -219.9726
  85   2.0000      -8.074089      -219.7071
  86   2.0000      -8.064536      -219.4472
  87   2.0000      -8.063744      -219.4256
  88   2.0000      -8.055160      -219.1920
  89   2.0000      -8.054784      -219.1818
  90   2.0000      -6.623426      -180.2326
  91   2.0000      -6.608905      -179.8375
  92   2.0000      -6.608710      -179.8322
  93   2.0000      -6.090532      -165.7318
  94   2.0000      -6.082710      -165.5189
  95   2.0000      -6.082113      -165.5027
  96   2.0000      -6.055022      -164.7655
  97   2.0000      -6.053075      -164.7126
  98   2.0000      -6.050613      -164.6456
  99   2.0000      -6.049059      -164.6033
 100   2.0000      -6.048344      -164.5838
 101   2.0000      -6.046108      -164.5230
 102   2.0000      -6.043292      -164.4463
 103   2.0000      -6.039017      -164.3300
 104   2.0000      -6.036542      -164.2627
 105   2.0000      -6.034259      -164.2005
 106   2.0000      -6.033445      -164.1784
 107   2.0000      -6.029213      -164.0632
 108   2.0000      -6.029169      -164.0620
 109   2.0000      -6.027024      -164.0037
 110   2.0000      -6.024935      -163.9468
 111   2.0000      -6.024904      -163.9460
 112   2.0000      -6.024479      -163.9344
 113   2.0000      -6.020681      -163.8311
 114   2.0000      -6.020210      -163.8182
 115   2.0000      -6.016238      -163.7102
 116   2.0000      -6.015839      -163.6993
 117   2.0000      -2.739254       -74.5389
 118   2.0000      -2.735215       -74.4290
 119   2.0000      -2.735135       -74.4268
 120   2.0000      -2.723559       -74.1118
 121   2.0000      -2.723526       -74.1109
 122   2.0000      -1.126295       -30.6481
 123   2.0000      -1.116485       -30.3811
 124   2.0000      -1.087377       -29.5890
 125   2.0000      -1.045712       -28.4553
 126   2.0000      -1.033553       -28.1244
 127   2.0000      -1.028348       -27.9828
 128   2.0000      -1.015512       -27.6335
 129   2.0000      -1.014078       -27.5945
 130   2.0000      -1.012691       -27.5567
 131   2.0000      -1.012502       -27.5516
 132   2.0000      -1.009966       -27.4826
 133   2.0000      -1.000841       -27.2343
 134   2.0000      -0.998222       -27.1630
 135   2.0000      -0.996698       -27.1215
 136   2.0000      -0.989768       -26.9330
 137   2.0000      -0.983733       -26.7687
 138   2.0000      -0.980091       -26.6696
 139   2.0000      -0.978368       -26.6227
 140   2.0000      -0.976292       -26.5663
 141   2.0000      -0.960557       -26.1381
 142   2.0000      -0.960132       -26.1265
 143   2.0000      -0.944110       -25.6905
 144   2.0000      -0.931737       -25.3538
 145   2.0000      -0.920313       -25.0430
 146   2.0000      -0.911442       -24.8016
 147   2.0000      -0.898720       -24.4554
 148   2.0000      -0.896639       -24.3988
 149   2.0000      -0.889106       -24.1938
 150   2.0000      -0.877422       -23.8759
 151   2.0000      -0.876089       -23.8396
 152   2.0000      -0.870351       -23.6834
 153   2.0000      -0.867370       -23.6023
 154   2.0000      -0.864479       -23.5237
 155   2.0000      -0.859436       -23.3865
 156   2.0000      -0.857128       -23.3236
 157   2.0000      -0.855076       -23.2678
 158   2.0000      -0.842310       -22.9204
 159   2.0000      -0.833554       -22.6821
 160   2.0000      -0.831563       -22.6280
 161   2.0000      -0.820697       -22.3323
 162   2.0000      -0.818864       -22.2824
 163   2.0000      -0.795888       -21.6572
 164   2.0000      -0.789543       -21.4845
 165   2.0000      -0.781676       -21.2705
 166   2.0000      -0.774654       -21.0794
 167   2.0000      -0.768659       -20.9163
 168   2.0000      -0.761129       -20.7114
 169   2.0000      -0.751609       -20.4523
 170   2.0000      -0.746792       -20.3212
 171   2.0000      -0.736951       -20.0534
 172   2.0000      -0.721289       -19.6273
 173   2.0000      -0.708153       -19.2698
 174   2.0000      -0.707486       -19.2517
 175   2.0000      -0.698962       -19.0197
 176   2.0000      -0.693395       -18.8682
 177   2.0000      -0.689552       -18.7637
 178   2.0000      -0.685365       -18.6497
 179   2.0000      -0.678981       -18.4760
 180   2.0000      -0.678804       -18.4712
 181   2.0000      -0.673578       -18.3290
 182   2.0000      -0.667577       -18.1657
 183   2.0000      -0.659812       -17.9544
 184   2.0000      -0.650357       -17.6971
 185   2.0000      -0.648352       -17.6426
 186   2.0000      -0.646440       -17.5905
 187   2.0000      -0.640212       -17.4210
 188   2.0000      -0.638394       -17.3716
 189   2.0000      -0.632906       -17.2222
 190   2.0000      -0.631864       -17.1939
 191   2.0000      -0.629329       -17.1249
 192   2.0000      -0.617716       -16.8089
 193   2.0000      -0.613466       -16.6932
 194   2.0000      -0.613209       -16.6863
 195   2.0000      -0.606955       -16.5161
 196   2.0000      -0.602739       -16.4014
 197   2.0000      -0.600470       -16.3396
 198   2.0000      -0.597820       -16.2675
 199   2.0000      -0.588129       -16.0038
 200   2.0000      -0.581938       -15.8353
 201   2.0000      -0.575465       -15.6592
 202   2.0000      -0.567794       -15.4505
 203   2.0000      -0.563589       -15.3360
 204   2.0000      -0.559049       -15.2125
 205   2.0000      -0.558183       -15.1889
 206   2.0000      -0.554770       -15.0960
 207   2.0000      -0.548724       -14.9315
 208   2.0000      -0.545653       -14.8480
 209   2.0000      -0.542183       -14.7535
 210   2.0000      -0.538016       -14.6402
 211   2.0000      -0.536400       -14.5962
 212   2.0000      -0.533725       -14.5234
 213   2.0000      -0.531322       -14.4580
 214   2.0000      -0.527871       -14.3641
 215   2.0000      -0.524540       -14.2735
 216   2.0000      -0.521085       -14.1795
 217   2.0000      -0.516451       -14.0533
 218   2.0000      -0.513721       -13.9791
 219   2.0000      -0.513086       -13.9618
 220   2.0000      -0.511255       -13.9120
 221   2.0000      -0.507710       -13.8155
 222   2.0000      -0.506774       -13.7900
 223   2.0000      -0.504357       -13.7242
 224   2.0000      -0.503023       -13.6880
 225   2.0000      -0.498761       -13.5720
 226   2.0000      -0.498160       -13.5556
 227   2.0000      -0.496635       -13.5141
 228   2.0000      -0.495543       -13.4844
 229   2.0000      -0.491945       -13.3865
 230   2.0000      -0.489234       -13.3127
 231   2.0000      -0.486877       -13.2486
 232   2.0000      -0.485280       -13.2051
 233   2.0000      -0.483206       -13.1487
 234   2.0000      -0.481040       -13.0898
 235   2.0000      -0.478238       -13.0135
 236   2.0000      -0.477328       -12.9888
 237   2.0000      -0.476467       -12.9653
 238   2.0000      -0.472480       -12.8568
 239   2.0000      -0.469908       -12.7868
 240   2.0000      -0.468358       -12.7447
 241   2.0000      -0.467058       -12.7093
 242   2.0000      -0.466571       -12.6960
 243   2.0000      -0.464125       -12.6295
 244   2.0000      -0.462102       -12.5744
 245   2.0000      -0.454544       -12.3688
 246   2.0000      -0.453115       -12.3299
 247   2.0000      -0.451404       -12.2833
 248   2.0000      -0.449887       -12.2420
 249   2.0000      -0.449550       -12.2329
 250   2.0000      -0.447761       -12.1842
 251   2.0000      -0.446463       -12.1489
 252   2.0000      -0.444985       -12.1086
 253   2.0000      -0.443730       -12.0745
 254   2.0000      -0.442502       -12.0411
 255   2.0000      -0.438670       -11.9368
 256   2.0000      -0.436915       -11.8891
 257   2.0000      -0.435719       -11.8565
 258   2.0000      -0.433294       -11.7905
 259   2.0000      -0.431518       -11.7422
 260   2.0000      -0.431221       -11.7341
 261   2.0000      -0.429304       -11.6820
 262   2.0000      -0.428592       -11.6626
 263   2.0000      -0.425668       -11.5830
 264   2.0000      -0.424620       -11.5545
 265   2.0000      -0.419274       -11.4090
 266   2.0000      -0.417395       -11.3579
 267   2.0000      -0.412956       -11.2371
 268   2.0000      -0.410538       -11.1713
 269   2.0000      -0.407506       -11.0888
 270   2.0000      -0.402840       -10.9618
 271   2.0000      -0.401315       -10.9203
 272   2.0000      -0.398901       -10.8546
 273   2.0000      -0.396827       -10.7982
 274   2.0000      -0.394462       -10.7339
 275   2.0000      -0.393685       -10.7127
 276   2.0000      -0.384428       -10.4608
 277   2.0000      -0.380635       -10.3576
 278   2.0000      -0.371833       -10.1181
 279   2.0000      -0.369604       -10.0574
 280   2.0000      -0.368180       -10.0187
 281   2.0000      -0.364386        -9.9155
 282   2.0000      -0.359831        -9.7915
 283   2.0000      -0.352769        -9.5993
 284   2.0000      -0.349274        -9.5042
 285   2.0000      -0.341681        -9.2976
 286   2.0000      -0.338893        -9.2218
 287   2.0000      -0.336217        -9.1489
 288   2.0000      -0.329760        -8.9732
 289   2.0000      -0.327065        -8.8999
 290   2.0000      -0.323732        -8.8092
 291   2.0000      -0.321228        -8.7410
 292   2.0000      -0.316631        -8.6160
 293   2.0000      -0.309699        -8.4273
 294   2.0000      -0.305794        -8.3211
 295   2.0000      -0.299838        -8.1590
 296   2.0000      -0.284875        -7.7518
 297   2.0000      -0.274667        -7.4741
 298   2.0000      -0.245238        -6.6733
 299   2.0000      -0.211413        -5.7528
 300   0.0000      -0.119670        -3.2564
 301   0.0000      -0.109987        -2.9929
 302   0.0000      -0.092013        -2.5038
 303   0.0000      -0.081440        -2.2161
 304   0.0000      -0.063757        -1.7349

MULLIKEN ATOMIC CHARGES
-----------------------
   0 C :   -0.083476
   1 C :    0.039636
   2 C :   -0.046319
   3 C :   -0.114366
   4 S :    0.181939
   5 C :   -0.102583
   6 C :   -0.009682
   7 C :    0.323428
   8 C :   -0.326483
   9 C :   -0.180148
  10 N :    0.168902
  11 C :   -0.175371
  12 N :    0.155046
  13 C :   -0.042979
  14 C :   -0.098324
  15 S :    0.179299
  16 C :    0.039002
  17 C :   -0.028932
  18 C :    0.034046
  19 C :    0.027012
  20 C :   -0.020703
  21 S :    0.041836
  22 C :   -0.015011
  23 C :    0.027194
  24 C :    0.037413
  25 C :   -0.035237
  26 S :    0.052435
  27 C :    0.008056
  28 C :   -0.057873
  29 C :   -0.051315
  30 C :    0.043272
  31 C :   -0.103792
  32 S :    0.184766
  33 C :   -0.041101
  34 C :    0.026305
  35 C :    0.303792
  36 C :   -0.301556
  37 C :   -0.189060
  38 N :    0.172133
  39 C :   -0.192198
  40 N :    0.165408
  41 C :   -0.051744
  42 C :   -0.184754
  43 S :    0.218009
  44 C :    0.183860
  45 C :   -0.019565
  46 C :   -0.029728
  47 N :   -0.019738
  48 C :    0.055875
  49 C :    0.074496
  50 N :   -0.102006
  51 C :    0.056501
  52 C :    0.010170
  53 C :   -0.012961
  54 N :   -0.280901
  55 S :    0.544794
  56 N :   -0.274393
  57 C :   -0.071407
  58 C :   -0.063374
  59 C :    0.298256
  60 C :   -0.345931
  61 C :   -0.188936
  62 N :    0.142558
  63 C :   -0.204559
  64 N :    0.161590
  65 C :    0.018373
  66 C :   -0.016431
  67 C :    0.147326
  68 O :   -0.161063
  69 C :   -0.076623
  70 C :    0.117828
  71 C :   -0.089674
  72 C :   -0.024922
  73 S :    0.181132
  74 C :   -0.123937
  75 C :    0.036015
  76 Br:    0.016053
  77 H :    0.037217
  78 H :    0.010478
  79 H :    0.030512
  80 H :   -0.015821
  81 H :   -0.009000
  82 H :   -0.008922
  83 H :   -0.009793
  84 H :   -0.005778
  85 H :   -0.001505
  86 H :    0.005411
  87 H :    0.021769
  88 H :    0.013388
  89 H :    0.006968
  90 H :    0.042461
  91 H :   -0.016831
  92 H :   -0.008852
  93 H :   -0.006300
Sum of atomic charges:   -0.0000000

LOEWDIN ATOMIC CHARGES
----------------------
   0 C :   -0.179163
   1 C :   -0.034524
   2 C :   -0.086293
   3 C :   -0.173667
   4 S :    0.476081
   5 C :   -0.194198
   6 C :   -0.064286
   7 C :    0.089905
   8 C :   -0.114133
   9 C :   -0.013666
  10 N :   -0.045029
  11 C :   -0.007343
  12 N :   -0.039088
  13 C :   -0.042491
  14 C :   -0.160820
  15 S :    0.466897
  16 C :   -0.078686
  17 C :   -0.146058
  18 C :   -0.029762
  19 C :   -0.035226
  20 C :   -0.175673
  21 S :    0.403941
  22 C :   -0.174267
  23 C :   -0.037571
  24 C :   -0.026583
  25 C :   -0.157571
  26 S :    0.386983
  27 C :   -0.062581
  28 C :   -0.160471
  29 C :   -0.024583
  30 C :   -0.056130
  31 C :   -0.193447
  32 S :    0.491735
  33 C :   -0.164658
  34 C :   -0.079874
  35 C :    0.081999
  36 C :   -0.108832
  37 C :   -0.017811
  38 N :   -0.034147
  39 C :   -0.015848
  40 N :   -0.041896
  41 C :    0.004913
  42 C :   -0.168747
  43 S :    0.519125
  44 C :   -0.008586
  45 C :   -0.022587
  46 C :    0.026381
  47 N :   -0.019494
  48 C :    0.032618
  49 C :    0.026296
  50 N :   -0.055401
  51 C :   -0.064125
  52 C :   -0.029791
  53 C :   -0.050284
  54 N :   -0.274948
  55 S :    0.674236
  56 N :   -0.288073
  57 C :    0.084797
  58 C :   -0.087187
  59 C :    0.074353
  60 C :   -0.142766
  61 C :   -0.017718
  62 N :   -0.061964
  63 C :   -0.024008
  64 N :   -0.053040
  65 C :   -0.018296
  66 C :   -0.046802
  67 C :    0.083428
  68 O :   -0.154779
  69 C :    0.016562
  70 C :   -0.035237
  71 C :   -0.145092
  72 C :   -0.012478
  73 S :    0.428020
  74 C :   -0.274079
  75 C :   -0.071702
  76 Br:    0.131036
  77 H :    0.027923
  78 H :    0.041590
  79 H :    0.022029
  80 H :    0.034288
  81 H :    0.034461
  82 H :    0.034487
  83 H :    0.034052
  84 H :    0.035861
  85 H :    0.044691
  86 H :    0.040636
  87 H :    0.039725
  88 H :    0.027864
  89 H :    0.022909
  90 H :    0.047799
  91 H :    0.038202
  92 H :    0.040252
  93 H :    0.037488

  Mayer bond orders larger than 0.100000
B(  0-C ,  1-C ) :   1.5588 B(  0-C ,  4-S ) :   1.1378 B(  0-C , 77-H ) :   0.9640
B(  1-C ,  2-C ) :   1.2660 B(  1-C , 78-H ) :   0.9958 B(  2-C ,  3-C ) :   1.4317
B(  2-C ,  7-C ) :   1.0358 B(  3-C ,  4-S ) :   1.1416 B(  3-C ,  5-C ) :   1.2094
B(  5-C ,  6-C ) :   1.4310 B(  5-C , 15-S ) :   1.1124 B(  6-C ,  7-C ) :   0.9900
B(  6-C , 13-C ) :   1.3587 B(  7-C ,  8-C ) :   1.6785 B(  8-C ,  9-C ) :   1.1436
B(  8-C , 11-C ) :   1.1472 B(  9-C , 10-N ) :   2.9769 B( 11-C , 12-N ) :   2.9434
B( 13-C , 14-C ) :   1.3860 B( 13-C , 79-H ) :   0.9640 B( 14-C , 15-S ) :   1.0977
B( 14-C , 16-C ) :   1.1967 B( 16-C , 17-C ) :   1.5607 B( 16-C , 80-H ) :   0.9527
B( 17-C , 18-C ) :   1.1677 B( 17-C , 21-S ) :   1.0502 B( 18-C , 19-C ) :   1.5608
B( 18-C , 81-H ) :   0.9988 B( 19-C , 20-C ) :   1.2142 B( 19-C , 82-H ) :   0.9962
B( 20-C , 21-S ) :   1.0507 B( 20-C , 22-C ) :   1.4579 B( 22-C , 23-C ) :   1.2123
B( 22-C , 26-S ) :   1.0530 B( 23-C , 24-C ) :   1.5589 B( 23-C , 83-H ) :   0.9957
B( 24-C , 25-C ) :   1.1732 B( 24-C , 84-H ) :   0.9996 B( 25-C , 26-S ) :   1.0464
B( 25-C , 27-C ) :   1.4986 B( 27-C , 28-C ) :   1.2407 B( 27-C , 85-H ) :   0.9744
B( 28-C , 29-C ) :   1.3246 B( 28-C , 32-S ) :   1.0864 B( 29-C , 30-C ) :   1.3645
B( 29-C , 86-H ) :   1.0051 B( 30-C , 31-C ) :   1.3479 B( 30-C , 35-C ) :   0.9785
B( 31-C , 32-S ) :   1.1289 B( 31-C , 33-C ) :   1.2610 B( 33-C , 34-C ) :   1.3362
B( 33-C , 43-S ) :   1.0895 B( 34-C , 35-C ) :   1.0027 B( 34-C , 41-C ) :   1.3111
B( 35-C , 36-C ) :   1.7054 B( 36-C , 37-C ) :   1.1375 B( 36-C , 39-C ) :   1.1342
B( 37-C , 38-N ) :   2.9907 B( 39-C , 40-N ) :   2.9922 B( 41-C , 42-C ) :   1.3767
B( 41-C , 87-H ) :   0.9837 B( 42-C , 43-S ) :   1.0636 B( 42-C , 44-C ) :   1.2552
B( 44-C , 45-C ) :   1.2406 B( 44-C , 51-C ) :   0.1177 B( 44-C , 53-C ) :   1.1882
B( 45-C , 46-C ) :   1.1570 B( 45-C , 50-N ) :   1.3903 B( 46-C , 47-N ) :   1.4237
B( 46-C , 51-C ) :   1.2570 B( 47-N , 48-C ) :   1.6867 B( 48-C , 49-C ) :   1.1869
B( 48-C , 88-H ) :   0.9739 B( 49-C , 50-N ) :   1.6512 B( 49-C , 89-H ) :   0.9671
B( 51-C , 52-C ) :   1.1763 B( 51-C , 57-C ) :   1.2135 B( 52-C , 53-C ) :   1.1092
B( 52-C , 56-N ) :   1.5460 B( 53-C , 54-N ) :   1.5193 B( 54-N , 55-S ) :   1.2804
B( 54-N , 56-N ) :   0.1497 B( 55-S , 56-N ) :   1.2684 B( 57-C , 58-C ) :   1.5449
B( 57-C , 90-H ) :   0.9377 B( 58-C , 59-C ) :   1.0864 B( 58-C , 67-C ) :   0.9534
B( 59-C , 60-C ) :   1.6274 B( 59-C , 65-C ) :   0.9980 B( 60-C , 61-C ) :   1.1444
B( 60-C , 63-C ) :   1.1445 B( 61-C , 62-N ) :   2.9682 B( 63-C , 64-N ) :   2.9923
B( 65-C , 66-C ) :   1.2764 B( 65-C , 72-C ) :   1.4133 B( 66-C , 67-C ) :   0.9427
B( 66-C , 69-C ) :   1.4255 B( 67-C , 68-O ) :   2.2067 B( 69-C , 70-C ) :   1.2441
B( 69-C , 91-H ) :   1.0163 B( 70-C , 71-C ) :   1.3118 B( 70-C , 75-C ) :   1.1582
B( 71-C , 72-C ) :   1.3263 B( 71-C , 73-S ) :   1.0820 B( 72-C , 92-H ) :   0.9802
B( 73-S , 74-C ) :   1.0856 B( 74-C , 75-C ) :   1.6219 B( 74-C , 76-Br) :   1.0139
B( 75-C , 93-H ) :   1.0001

-----------------------------------------------------------------------------
         ABSORPTION SPECTRUM VIA TRANSITION ELECTRIC DIPOLE MOMENTS
-----------------------------------------------------------------------------
State   Energy  Wavelength   fosc         T2         TX        TY        TZ
        (cm-1)    (nm)                  (au**2)     (au)      (au)      (au)
-----------------------------------------------------------------------------
   0    6386.3   1565.9   0.232468342  11.98370   1.28843  -2.43764  -2.09322
   1    7581.9   1318.9   0.330195426  14.33728  -0.32318   3.76943   0.15580
   2   11753.2    850.8   0.153638610   4.30349   0.30337  -1.98376   0.52549
   3   13780.5    725.7   0.320603291   7.65911  -0.02313  -2.57746   1.00761
   4   14653.3    682.4   0.942816322  21.18206  -1.12856  -1.96702   4.00491
   5   15426.3    648.2   0.006646257   0.14184  -0.09767  -0.34761  -0.10707
   6   18850.7    530.5   0.005609268   0.09796  -0.28390   0.12921   0.02583
   7   19711.7    507.3   0.009413711   0.15722   0.10282   0.12101   0.36333
   8   20532.5    487.0   0.216940135   3.47836   0.15073  -1.67535   0.80550
   9   21058.1    474.9   0.065385686   1.02221  -0.34824  -0.86407   0.39282
  10   22641.4    441.7   0.016138886   0.23466  -0.01796  -0.47023  -0.11499
  11   22944.6    435.8   0.211126400   3.02927  -0.33982  -1.67340   0.33693
  12   23816.5    419.9   0.036541917   0.50511   0.23867  -0.11333   0.65978
  13   24412.3    409.6   0.127988095   1.72598  -0.59927   1.00037  -0.60508
  14   24695.8    404.9   0.101143015   1.34830   0.26318   0.98147  -0.56192
  15   25570.6    391.1   0.227337942   2.92689   0.06415   1.70916   0.03925
  16   26030.9    384.2   0.294357856   3.72274  -0.67888  -1.62353  -0.79122
  17   26352.5    379.5   0.071750390   0.89635   0.30819   0.51003  -0.73569
  18   26726.6    374.2   0.012743185   0.15697  -0.29339  -0.24606   0.10172
  19   27057.8    369.6   0.306291072   3.72664  -0.21370   1.90440   0.23290
  20   27366.5    365.4   0.092041553   1.10724   0.22524  -0.77716   0.67270
  21   27760.9    360.2   0.008455903   0.10028  -0.13925   0.05574   0.27889
  22   28969.9    345.2   0.020645883   0.23462  -0.01920   0.48348   0.02232
  23   29074.7    343.9   0.250276111   2.83387   0.16698   1.56153   0.60631
  24   29256.7    341.8   0.024666200   0.27756  -0.18926  -0.27171  -0.40977
  25   29267.8    341.7   0.027217250   0.30615   0.14907   0.44298   0.29613
  26   30041.8    332.9   0.047835955   0.52421   0.22906  -0.62315  -0.28884
  27   30163.0    331.5   0.123773396   1.35092   0.10662  -0.56446  -1.01041
  28   30220.1    330.9   0.042681518   0.46496  -0.24674   0.04622  -0.63399
  29   30336.9    329.6   0.013872008   0.15054   0.05892   0.33021   0.19500
  30   30721.4    325.5   0.420248546   4.50340  -0.47899   0.06699   2.06627
  31   30982.4    322.8   0.123274343   1.30988   0.50327  -0.28996  -0.98617
  32   31131.0    321.2   0.342743423   3.62453  -0.88845   0.77276   1.49601
  33   31332.5    319.2   0.551795811   5.79775  -1.59988   0.20430  -1.78785
  34   31702.1    315.4   0.105200084   1.09245  -0.15904   0.68672   0.77173
  35   31709.2    315.4   0.119629911   1.24203  -0.70446  -0.59469  -0.62618
  36   31906.9    313.4   0.259544120   2.67794   0.36646   0.83013  -1.36181
  37   32190.0    310.7   0.059691505   0.61047   0.11149   0.61642  -0.46698
  38   32350.7    309.1   0.034328358   0.34934   0.02408  -0.58178  -0.10146
  39   32420.8    308.4   0.007183549   0.07294   0.10782   0.17353   0.17665
  40   32656.1    306.2   0.178168016   1.79614   0.45679   0.88797  -0.89387
  41   32727.1    305.6   0.021542788   0.21671   0.17786  -0.00453  -0.43017
  42   32775.2    305.1   0.006237737   0.06266   0.07828   0.11638  -0.20732
  43   32881.7    304.1   0.058226384   0.58296   0.01338  -0.12108   0.75374
  44   33024.8    302.8   0.167531014   1.67005   0.01639  -0.14027   1.28457
  45   33499.7    298.5   0.011531083   0.11332   0.25887  -0.11530   0.18169
  46   33590.3    297.7   0.054141112   0.53063  -0.16317   0.54361   0.45661
  47   33812.3    295.8   0.120492765   1.17317  -0.46644  -0.00716   0.97753
  48   33912.0    294.9   0.091957772   0.89271  -0.76946  -0.37992  -0.39535
  49   34028.9    293.9   0.037746023   0.36517   0.17463  -0.26778  -0.51281
  50   34171.1    292.6   0.008794225   0.08473  -0.11388  -0.19405  -0.18467
  51   34470.5    290.1   0.023820203   0.22750  -0.00567  -0.33466   0.33980
  52   34892.3    286.6   0.018675775   0.17621  -0.03159  -0.05993  -0.41427
  53   34984.3    285.8   0.027955150   0.26307  -0.01362  -0.51138   0.03700
  54   35152.0    284.5   0.046842287   0.43870  -0.19709  -0.33489   0.53637
  55   35197.5    284.1   0.020198800   0.18892   0.04737   0.09445   0.42162
  56   35294.3    283.3   0.029087335   0.27132  -0.13419   0.28770   0.41296
  57   35493.8    281.7   0.016419053   0.15229   0.09426  -0.19300   0.32582
  58   35681.0    280.3   0.038722946   0.35728  -0.24105   0.41661  -0.35442
  59   35830.6    279.1   0.058043750   0.53331   0.07034   0.63651   0.35103
  60   36057.4    277.3   0.067454823   0.61588   0.05047   0.72717   0.29079
  61   36213.3    276.1   0.060262972   0.54785  -0.27193   0.18815   0.66219
  62   36300.9    275.5   0.172167694   1.56139   0.76218   0.89964   0.41365
  63   36380.1    274.9   0.053611319   0.48514  -0.26101  -0.01590  -0.64557
  64   36541.4    273.7   0.101637064   0.91568   0.47254   0.53195   0.63986
  65   36735.8    272.2   0.075659947   0.67804   0.53081   0.43003   0.45973
  66   36821.1    271.6   0.022131319   0.19787   0.03747  -0.43039   0.10597
  67   36955.3    270.6   0.001289755   0.01149   0.01249  -0.05571   0.09072
  68   37280.3    268.2   0.056930012   0.50273  -0.21055  -0.66421  -0.13126
  69   37520.1    266.5   0.062431005   0.54779  -0.21864  -0.31225   0.63442
  70   37698.3    265.3   0.056087335   0.48980  -0.40445  -0.57114   0.00492
  71   37950.5    263.5   0.060030866   0.52075   0.11521  -0.37078  -0.60828
  72   38142.6    262.2   0.032205378   0.27797   0.08829   0.51297  -0.08387
  73   38287.1    261.2   0.007176579   0.06171  -0.12797  -0.19766  -0.07911
  74   38450.1    260.1   0.005644021   0.04832   0.04225  -0.07356   0.20280
  75   38699.7    258.4   0.009603552   0.08170  -0.11633   0.26041   0.01871
  76   38920.6    256.9   0.015428876   0.13051   0.13972   0.07734  -0.32404
  77   39174.5    255.3   0.012851886   0.10800   0.25455   0.04439  -0.20307
  78   39325.6    254.3   0.035492097   0.29712   0.06459   0.45739  -0.28938
  79   39458.9    253.4   0.003547074   0.02959  -0.09748  -0.12261  -0.07112
  80   39549.0    252.9   0.030389378   0.25297  -0.24810  -0.30815  -0.31057
  81   39645.8    252.2   0.036717324   0.30489   0.30562  -0.45791   0.04253
  82   39993.0    250.0   0.014135333   0.11636  -0.13104  -0.05490  -0.31012
  83   40113.8    249.3   0.016430181   0.13484  -0.00683  -0.01012  -0.36701

FINAL SINGLE POINT ENERGY     -8559.784807361284

DIPOLE MOMENT
-------------
                                X             Y             Z
Electronic contribution:     61.98757    -113.90509      49.93767
Nuclear contribution   :    -61.91275     119.80097     -45.61718
                        -----------------------------------------
Total Dipole Moment    :      0.07482       5.89588       4.32049
                        -----------------------------------------
Magnitude (a.u.)       :      7.30983
Magnitude (Debye)      :     18.58012

Rotational constants in cm-1:     0.000745     0.000323     0.000256
Rotational constants in MHz :    22.341673     9.688843     7.680323

                             ****ORCA TERMINATED NORMALLY****
TOTAL RUN TIME: 0 days 0 hours 11 minutes 57 seconds 105 msec
