                         Program Version 4.2.0 -  RELEASE  -
|  1> # ORCA input file
|  2> # SCF done       -175.446542042499          0.000477666261
|  3> ! CAM-B3LYP def2-SVP def2/J RIJCOSX Grid4 TightSCF
|  4> %maxcore 5000
|  5> %tddft
|  6>     Mode sTDDFT
|  7>     Ethresh 5.0
|  8>     maxcore 5000
|  9> end
| 10>
| 11> %pal
| 12>   nprocs 6
| 13>   end
| 14> * xyz 0 1
| 15>    C       -6.88019        14.36383         1.85194
| 16>    C       -7.04220        13.53541         2.91902
| 17>    C       -6.41906        12.29027         2.70237
| 18>    C       -5.79632        12.21564         1.44990
| 19>    S       -5.97264        13.65605         0.55325
| 20>    C       -5.20039        10.92862         1.31187
| 21>    C       -5.44257        10.20553         2.48532
| 22>    C       -6.24127        11.02551         3.38751
| 23>    C       -6.76538        10.64110         4.58888
| 24>    C       -6.59104         9.34334         5.11135
| 25>    N       -6.47765         8.28606         5.54359
| 26>    C       -7.55112        11.50693         5.37723
| 27>    N       -8.18519        12.20716         6.02789
| 28>    C       -4.88798         8.92551         2.46706
| 29>    C       -4.25540         8.64905         1.27093
| 30>    S       -4.31467        10.01960         0.16938
| 31>    C       -3.57251         7.46030         0.87444
| 32>    S       -2.35777         7.58053        -0.36863
| 33>    C       -1.93636         5.92742        -0.16936
| 34>    C       -2.66572         5.30649         0.79132
| 35>    C       -2.50669         3.86756         1.15317
| 36>    C       -3.63684         6.17125         1.39193
| 37>    C       -4.55771         5.67328         2.38041
| 38>    C       -5.84072         6.06613         2.53503
| 39>    C       -6.74007         5.60351         3.53955
| 40>    C       -6.39633         4.85441         4.61515
| 41>    C       -7.27392         4.45129         5.65440
| 42>    S       -6.57316         4.28972         7.22696
| 43>    C       -8.10489         4.09799         8.01391
| 44>    C       -9.14769         4.22851         7.07766
| 45>    C       -8.66887         4.28017         5.72113
| 46>    C       -9.60477         4.04505         4.67702
| 47>    C       -9.23479         3.64815         3.27499
| 48>    F       -8.01124         3.11882         3.14552
| 49>    F      -10.07685         2.70366         2.81071
| 50>    F       -9.32070         4.65433         2.37819
| 51>    C      -10.94854         4.02624         4.96595
| 52>    C      -11.41372         4.27288         6.26027
| 53>    C      -10.54358         4.36761         7.31956
| 54>    O      -11.08440         4.57827         8.55706
| 55>    C      -10.64388         5.72925         9.25206
| 56>    C       -8.08070         3.68300         9.36931
| 57>    C       -9.07974         3.02669        10.01617
| 58>    C       -9.01025         2.52202        11.34749
| 59>    C       -8.05790         2.83915        12.26494
| 60>    C       -8.02217         2.27501        13.56889
| 61>    C       -8.81934         1.24606        13.94312
| 62>    C       -9.77337         0.65327        12.92968
| 63>    C      -10.15139         1.61761        11.78723
| 64>    N      -10.67809         0.92603        10.63107
| 65>    C      -10.30070        -0.25195        10.41018
| 66>    C       -9.39784        -0.98156        11.32002
| 67>    N       -9.14207        -0.57121        12.47936
| 68>    F       -8.82516        -2.09740        10.87425
| 69>    F      -10.74614        -0.88632         9.32990
| 70>    C       -8.72306         0.58916        15.22934
| 71>    C       -7.57729         0.60857        16.00057
| 72>    C       -7.46298        -0.03373        17.25065
| 73>    C       -8.48814        -0.73919        17.81183
| 74>    C       -9.68506        -0.79368        17.07601
| 75>    C       -9.80891        -0.14381        15.79048
| 76>    N      -11.04108        -0.36218        15.37077
| 77>    O      -11.63832        -1.09420        16.31218
| 78>    N      -10.84530        -1.36482        17.34182
| 79>    H       -7.24035        15.36618         1.73533
| 80>    H       -7.57784        13.80698         3.81027
| 81>    H       -4.92219         8.23250         3.28630
| 82>    H       -1.16462         5.50760        -0.78395
| 83>    H       -1.75953         3.39956         0.51787
| 84>    H       -3.45154         3.33952         1.03450
| 85>    H       -2.18996         3.76827         2.19113
| 86>    H       -4.17394         4.87087         2.99478
| 87>    H       -6.25024         6.78565         1.83882
| 88>    H       -7.76106         5.94153         3.44734
| 89>    H       -5.35359         4.62819         4.79173
| 90>    H      -11.66223         3.83869         4.17886
| 91>    H      -12.47114         4.35783         6.45021
| 92>    H      -11.13219         5.69177        10.22353
| 93>    H      -10.95327         6.63608         8.72187
| 94>    H       -9.56123         5.74700         9.39114
| 95>    H       -7.12413         3.81374         9.85948
| 96>    H       -9.99771         2.81421         9.48995
| 97>    H       -7.29246         3.55779        12.01618
| 98>    H       -7.31976         2.69945        14.27060
| 99>    H      -10.68779         0.34099        13.45168
|100>    H      -10.96315         2.27390        12.13105
|101>    H       -6.70428         1.11733        15.62280
|102>    H       -6.51837         0.03598        17.76942
|103>    H       -8.41045        -1.23819        18.76254
|104> *
|105>
|106>                          ****END OF INPUT****

CARTESIAN COORDINATES (ANGSTROEM)
---------------------------------
  C     -6.880190   14.363830    1.851940
  C     -7.042200   13.535410    2.919020
  C     -6.419060   12.290270    2.702370
  C     -5.796320   12.215640    1.449900
  S     -5.972640   13.656050    0.553250
  C     -5.200390   10.928620    1.311870
  C     -5.442570   10.205530    2.485320
  C     -6.241270   11.025510    3.387510
  C     -6.765380   10.641100    4.588880
  C     -6.591040    9.343340    5.111350
  N     -6.477650    8.286060    5.543590
  C     -7.551120   11.506930    5.377230
  N     -8.185190   12.207160    6.027890
  C     -4.887980    8.925510    2.467060
  C     -4.255400    8.649050    1.270930
  S     -4.314670   10.019600    0.169380
  C     -3.572510    7.460300    0.874440
  S     -2.357770    7.580530   -0.368630
  C     -1.936360    5.927420   -0.169360
  C     -2.665720    5.306490    0.791320
  C     -2.506690    3.867560    1.153170
  C     -3.636840    6.171250    1.391930
  C     -4.557710    5.673280    2.380410
  C     -5.840720    6.066130    2.535030
  C     -6.740070    5.603510    3.539550
  C     -6.396330    4.854410    4.615150
  C     -7.273920    4.451290    5.654400
  S     -6.573160    4.289720    7.226960
  C     -8.104890    4.097990    8.013910
  C     -9.147690    4.228510    7.077660
  C     -8.668870    4.280170    5.721130
  C     -9.604770    4.045050    4.677020
  C     -9.234790    3.648150    3.274990
  F     -8.011240    3.118820    3.145520
  F    -10.076850    2.703660    2.810710
  F     -9.320700    4.654330    2.378190
  C    -10.948540    4.026240    4.965950
  C    -11.413720    4.272880    6.260270
  C    -10.543580    4.367610    7.319560
  O    -11.084400    4.578270    8.557060
  C    -10.643880    5.729250    9.252060
  C     -8.080700    3.683000    9.369310
  C     -9.079740    3.026690   10.016170
  C     -9.010250    2.522020   11.347490
  C     -8.057900    2.839150   12.264940
  C     -8.022170    2.275010   13.568890
  C     -8.819340    1.246060   13.943120
  C     -9.773370    0.653270   12.929680
  C    -10.151390    1.617610   11.787230
  N    -10.678090    0.926030   10.631070
  C    -10.300700   -0.251950   10.410180
  C     -9.397840   -0.981560   11.320020
  N     -9.142070   -0.571210   12.479360
  F     -8.825160   -2.097400   10.874250
  F    -10.746140   -0.886320    9.329900
  C     -8.723060    0.589160   15.229340
  C     -7.577290    0.608570   16.000570
  C     -7.462980   -0.033730   17.250650
  C     -8.488140   -0.739190   17.811830
  C     -9.685060   -0.793680   17.076010
  C     -9.808910   -0.143810   15.790480
  N    -11.041080   -0.362180   15.370770
  O    -11.638320   -1.094200   16.312180
  N    -10.845300   -1.364820   17.341820
  H     -7.240350   15.366180    1.735330
  H     -7.577840   13.806980    3.810270
  H     -4.922190    8.232500    3.286300
  H     -1.164620    5.507600   -0.783950
  H     -1.759530    3.399560    0.517870
  H     -3.451540    3.339520    1.034500
  H     -2.189960    3.768270    2.191130
  H     -4.173940    4.870870    2.994780
  H     -6.250240    6.785650    1.838820
  H     -7.761060    5.941530    3.447340
  H     -5.353590    4.628190    4.791730
  H    -11.662230    3.838690    4.178860
  H    -12.471140    4.357830    6.450210
  H    -11.132190    5.691770   10.223530
  H    -10.953270    6.636080    8.721870
  H     -9.561230    5.747000    9.391140
  H     -7.124130    3.813740    9.859480
  H     -9.997710    2.814210    9.489950
  H     -7.292460    3.557790   12.016180
  H     -7.319760    2.699450   14.270600
  H    -10.687790    0.340990   13.451680
  H    -10.963150    2.273900   12.131050
  H     -6.704280    1.117330   15.622800
  H     -6.518370    0.035980   17.769420
  H     -8.410450   -1.238190   18.762540

 Total Charge           Charge          ....    0
 Multiplicity           Mult            ....    1
 Number of Electrons    NEL             ....  474
 Basis Dimension        Dim             .... 1037

ORBITAL ENERGIES
----------------

  NO   OCC          E(Eh)            E(eV)
   0   2.0000     -88.980929     -2421.2942
   1   2.0000     -88.980526     -2421.2832
   2   2.0000     -88.963697     -2420.8253
   3   2.0000     -88.953641     -2420.5516
   4   2.0000     -24.795286      -674.7140
   5   2.0000     -24.793304      -674.6601
   6   2.0000     -24.787073      -674.4906
   7   2.0000     -24.784504      -674.4206
   8   2.0000     -24.782091      -674.3550
   9   2.0000     -19.350716      -526.5598
  10   2.0000     -19.237232      -523.4717
  11   2.0000     -14.476122      -393.9153
  12   2.0000     -14.473631      -393.8475
  13   2.0000     -14.424965      -392.5232
  14   2.0000     -14.423604      -392.4862
  15   2.0000     -14.421993      -392.4424
  16   2.0000     -14.421798      -392.4371
  17   2.0000     -10.505515      -285.8696
  18   2.0000     -10.409375      -283.2535
  19   2.0000     -10.405959      -283.1605
  20   2.0000     -10.355889      -281.7981
  21   2.0000     -10.344312      -281.4830
  22   2.0000     -10.337251      -281.2909
  23   2.0000     -10.325609      -280.9741
  24   2.0000     -10.324440      -280.9423
  25   2.0000     -10.323740      -280.9232
  26   2.0000     -10.322087      -280.8783
  27   2.0000     -10.319144      -280.7982
  28   2.0000     -10.318552      -280.7821
  29   2.0000     -10.318494      -280.7805
  30   2.0000     -10.318072      -280.7690
  31   2.0000     -10.313265      -280.6382
  32   2.0000     -10.311686      -280.5953
  33   2.0000     -10.306663      -280.4585
  34   2.0000     -10.305888      -280.4375
  35   2.0000     -10.305812      -280.4354
  36   2.0000     -10.304450      -280.3983
  37   2.0000     -10.304372      -280.3962
  38   2.0000     -10.294325      -280.1228
  39   2.0000     -10.293426      -280.0984
  40   2.0000     -10.292209      -280.0652
  41   2.0000     -10.292159      -280.0639
  42   2.0000     -10.291422      -280.0438
  43   2.0000     -10.290983      -280.0319
  44   2.0000     -10.290609      -280.0217
  45   2.0000     -10.289729      -279.9978
  46   2.0000     -10.288315      -279.9593
  47   2.0000     -10.287797      -279.9452
  48   2.0000     -10.287628      -279.9406
  49   2.0000     -10.286831      -279.9189
  50   2.0000     -10.286346      -279.9057
  51   2.0000     -10.284407      -279.8529
  52   2.0000     -10.283001      -279.8147
  53   2.0000     -10.281221      -279.7662
  54   2.0000     -10.280036      -279.7340
  55   2.0000     -10.277140      -279.6552
  56   2.0000     -10.275892      -279.6213
  57   2.0000     -10.273492      -279.5559
  58   2.0000     -10.272324      -279.5241
  59   2.0000     -10.270013      -279.4612
  60   2.0000     -10.268553      -279.4215
  61   2.0000     -10.267775      -279.4004
  62   2.0000     -10.267591      -279.3954
  63   2.0000     -10.267331      -279.3883
  64   2.0000      -8.075973      -219.7584
  65   2.0000      -8.075043      -219.7331
  66   2.0000      -8.059436      -219.3084
  67   2.0000      -8.049715      -219.0439
  68   2.0000      -6.045211      -164.4986
  69   2.0000      -6.044314      -164.4741
  70   2.0000      -6.040800      -164.3785
  71   2.0000      -6.040098      -164.3594
  72   2.0000      -6.038576      -164.3180
  73   2.0000      -6.037463      -164.2877
  74   2.0000      -6.028219      -164.0362
  75   2.0000      -6.024267      -163.9286
  76   2.0000      -6.022356      -163.8766
  77   2.0000      -6.019090      -163.7878
  78   2.0000      -6.014743      -163.6695
  79   2.0000      -6.011844      -163.5906
  80   2.0000      -1.375356       -37.4253
  81   2.0000      -1.323524       -36.0149
  82   2.0000      -1.308890       -35.6167
  83   2.0000      -1.303454       -35.4688
  84   2.0000      -1.278658       -34.7941
  85   2.0000      -1.273099       -34.6428
  86   2.0000      -1.141986       -31.0750
  87   2.0000      -1.073881       -29.2218
  88   2.0000      -1.034951       -28.1624
  89   2.0000      -1.015275       -27.6270
  90   2.0000      -1.009612       -27.4729
  91   2.0000      -1.003890       -27.3172
  92   2.0000      -1.001715       -27.2580
  93   2.0000      -0.997149       -27.1338
  94   2.0000      -0.994170       -27.0527
  95   2.0000      -0.992548       -27.0086
  96   2.0000      -0.975748       -26.5514
  97   2.0000      -0.947646       -25.7868
  98   2.0000      -0.947453       -25.7815
  99   2.0000      -0.938901       -25.5488
 100   2.0000      -0.915716       -24.9179
 101   2.0000      -0.910923       -24.7875
 102   2.0000      -0.902125       -24.5481
 103   2.0000      -0.897644       -24.4261
 104   2.0000      -0.883399       -24.0385
 105   2.0000      -0.865665       -23.5560
 106   2.0000      -0.863960       -23.5095
 107   2.0000      -0.860527       -23.4161
 108   2.0000      -0.850632       -23.1469
 109   2.0000      -0.848419       -23.0867
 110   2.0000      -0.842879       -22.9359
 111   2.0000      -0.835779       -22.7427
 112   2.0000      -0.832257       -22.6469
 113   2.0000      -0.811777       -22.0896
 114   2.0000      -0.794326       -21.6147
 115   2.0000      -0.793274       -21.5861
 116   2.0000      -0.773506       -21.0482
 117   2.0000      -0.770435       -20.9646
 118   2.0000      -0.766087       -20.8463
 119   2.0000      -0.762273       -20.7425
 120   2.0000      -0.755561       -20.5599
 121   2.0000      -0.753785       -20.5115
 122   2.0000      -0.748051       -20.3555
 123   2.0000      -0.734551       -19.9882
 124   2.0000      -0.730009       -19.8646
 125   2.0000      -0.721263       -19.6266
 126   2.0000      -0.704099       -19.1595
 127   2.0000      -0.701168       -19.0798
 128   2.0000      -0.695431       -18.9236
 129   2.0000      -0.691117       -18.8063
 130   2.0000      -0.675863       -18.3912
 131   2.0000      -0.673069       -18.3151
 132   2.0000      -0.669913       -18.2293
 133   2.0000      -0.663074       -18.0432
 134   2.0000      -0.658606       -17.9216
 135   2.0000      -0.655085       -17.8258
 136   2.0000      -0.653350       -17.7786
 137   2.0000      -0.649032       -17.6611
 138   2.0000      -0.645176       -17.5561
 139   2.0000      -0.631359       -17.1802
 140   2.0000      -0.630652       -17.1609
 141   2.0000      -0.626903       -17.0589
 142   2.0000      -0.618520       -16.8308
 143   2.0000      -0.614873       -16.7315
 144   2.0000      -0.614240       -16.7143
 145   2.0000      -0.606913       -16.5149
 146   2.0000      -0.605098       -16.4656
 147   2.0000      -0.601029       -16.3548
 148   2.0000      -0.598748       -16.2928
 149   2.0000      -0.596231       -16.2243
 150   2.0000      -0.584317       -15.9001
 151   2.0000      -0.580725       -15.8023
 152   2.0000      -0.579106       -15.7583
 153   2.0000      -0.573442       -15.6042
 154   2.0000      -0.567509       -15.4427
 155   2.0000      -0.564620       -15.3641
 156   2.0000      -0.556581       -15.1453
 157   2.0000      -0.553124       -15.0513
 158   2.0000      -0.552166       -15.0252
 159   2.0000      -0.549026       -14.9397
 160   2.0000      -0.544112       -14.8060
 161   2.0000      -0.538849       -14.6628
 162   2.0000      -0.537532       -14.6270
 163   2.0000      -0.536556       -14.6004
 164   2.0000      -0.535336       -14.5672
 165   2.0000      -0.531295       -14.4573
 166   2.0000      -0.529358       -14.4046
 167   2.0000      -0.524863       -14.2822
 168   2.0000      -0.519486       -14.1359
 169   2.0000      -0.516896       -14.0655
 170   2.0000      -0.514854       -14.0099
 171   2.0000      -0.513101       -13.9622
 172   2.0000      -0.509048       -13.8519
 173   2.0000      -0.506829       -13.7915
 174   2.0000      -0.504674       -13.7329
 175   2.0000      -0.498513       -13.5652
 176   2.0000      -0.497685       -13.5427
 177   2.0000      -0.495999       -13.4968
 178   2.0000      -0.494016       -13.4429
 179   2.0000      -0.491063       -13.3625
 180   2.0000      -0.488966       -13.3054
 181   2.0000      -0.488029       -13.2799
 182   2.0000      -0.485246       -13.2042
 183   2.0000      -0.484223       -13.1764
 184   2.0000      -0.480931       -13.0868
 185   2.0000      -0.477532       -12.9943
 186   2.0000      -0.476281       -12.9603
 187   2.0000      -0.472265       -12.8510
 188   2.0000      -0.470804       -12.8112
 189   2.0000      -0.464242       -12.6327
 190   2.0000      -0.463768       -12.6198
 191   2.0000      -0.462236       -12.5781
 192   2.0000      -0.458295       -12.4708
 193   2.0000      -0.456886       -12.4325
 194   2.0000      -0.453020       -12.3273
 195   2.0000      -0.451736       -12.2924
 196   2.0000      -0.450537       -12.2597
 197   2.0000      -0.449382       -12.2283
 198   2.0000      -0.447089       -12.1659
 199   2.0000      -0.444233       -12.0882
 200   2.0000      -0.441075       -12.0023
 201   2.0000      -0.437455       -11.9038
 202   2.0000      -0.435525       -11.8512
 203   2.0000      -0.434767       -11.8306
 204   2.0000      -0.433341       -11.7918
 205   2.0000      -0.431806       -11.7500
 206   2.0000      -0.430671       -11.7192
 207   2.0000      -0.425041       -11.5659
 208   2.0000      -0.424447       -11.5498
 209   2.0000      -0.420720       -11.4484
 210   2.0000      -0.420608       -11.4453
 211   2.0000      -0.413834       -11.2610
 212   2.0000      -0.410586       -11.1726
 213   2.0000      -0.409079       -11.1316
 214   2.0000      -0.407096       -11.0776
 215   2.0000      -0.402401       -10.9499
 216   2.0000      -0.400852       -10.9077
 217   2.0000      -0.398270       -10.8375
 218   2.0000      -0.390405       -10.6235
 219   2.0000      -0.384579       -10.4649
 220   2.0000      -0.380460       -10.3528
 221   2.0000      -0.368449       -10.0260
 222   2.0000      -0.364663        -9.9230
 223   2.0000      -0.357976        -9.7410
 224   2.0000      -0.345978        -9.4145
 225   2.0000      -0.344627        -9.3778
 226   2.0000      -0.338884        -9.2215
 227   2.0000      -0.334673        -9.1069
 228   2.0000      -0.325163        -8.8481
 229   2.0000      -0.317252        -8.6329
 230   2.0000      -0.316218        -8.6047
 231   2.0000      -0.312393        -8.5006
 232   2.0000      -0.309343        -8.4177
 233   2.0000      -0.289629        -7.8812
 234   2.0000      -0.268979        -7.3193
 235   2.0000      -0.247811        -6.7433
 236   2.0000      -0.219115        -5.9624
 237   0.0000      -0.095502        -2.5987
 238   0.0000      -0.078297        -2.1306
 239   0.0000      -0.055019        -1.4972
 240   0.0000      -0.034759        -0.9458
 241   0.0000      -0.025495        -0.6938

MULLIKEN ATOMIC CHARGES
-----------------------
   0 C :   -0.085329
   1 C :    0.039150
   2 C :   -0.036383
   3 C :   -0.118247
   4 S :    0.175638
   5 C :   -0.100247
   6 C :   -0.003340
   7 C :    0.305581
   8 C :   -0.306347
   9 C :   -0.189499
  10 N :    0.171534
  11 C :   -0.194645
  12 N :    0.169363
  13 C :   -0.055956
  14 C :   -0.079674
  15 S :    0.181141
  16 C :   -0.138506
  17 S :    0.106858
  18 C :   -0.123434
  19 C :   -0.081186
  20 C :    0.114927
  21 C :    0.136758
  22 C :   -0.052844
  23 C :   -0.011070
  24 C :    0.026170
  25 C :    0.061383
  26 C :   -0.152960
  27 S :    0.172152
  28 C :   -0.175136
  29 C :    0.070075
  30 C :    0.119051
  31 C :   -0.137793
  32 C :    0.512643
  33 F :   -0.152144
  34 F :   -0.170232
  35 F :   -0.173213
  36 C :    0.012609
  37 C :   -0.012865
  38 C :    0.127949
  39 O :   -0.335610
  40 C :    0.201706
  41 C :    0.047712
  42 C :    0.007594
  43 C :   -0.030119
  44 C :   -0.017753
  45 C :   -0.037379
  46 C :    0.001156
  47 C :    0.072365
  48 C :    0.121669
  49 N :   -0.095007
  50 C :    0.118287
  51 C :    0.110542
  52 N :   -0.072793
  53 F :   -0.149167
  54 F :   -0.145120
  55 C :    0.137223
  56 C :   -0.059512
  57 C :    0.048349
  58 C :   -0.025591
  59 C :    0.002701
  60 C :   -0.046415
  61 N :    0.020927
  62 O :   -0.095946
  63 N :    0.055394
  64 H :    0.032521
  65 H :    0.009422
  66 H :    0.025849
  67 H :    0.016176
  68 H :    0.008844
  69 H :    0.036499
  70 H :    0.029402
  71 H :   -0.010151
  72 H :    0.007193
  73 H :   -0.006734
  74 H :   -0.021856
  75 H :    0.003060
  76 H :   -0.014670
  77 H :    0.028952
  78 H :    0.018433
  79 H :    0.033390
  80 H :   -0.021717
  81 H :    0.024982
  82 H :   -0.025492
  83 H :   -0.022284
  84 H :    0.050419
  85 H :    0.036509
  86 H :   -0.014958
  87 H :   -0.000580
  88 H :   -0.010358
Sum of atomic charges:   -0.0000000

LOEWDIN ATOMIC CHARGES
----------------------
   0 C :   -0.182854
   1 C :   -0.034374
   2 C :   -0.083703
   3 C :   -0.178123
   4 S :    0.473099
   5 C :   -0.192397
   6 C :   -0.071699
   7 C :    0.086738
   8 C :   -0.110562
   9 C :   -0.015983
  10 N :   -0.038110
  11 C :   -0.017044
  12 N :   -0.039763
  13 C :   -0.031078
  14 C :   -0.178280
  15 S :    0.467786
  16 C :   -0.192629
  17 S :    0.419117
  18 C :   -0.192408
  19 C :   -0.053782
  20 C :   -0.044220
  21 C :   -0.055807
  22 C :   -0.024928
  23 C :   -0.015059
  24 C :   -0.019890
  25 C :   -0.036937
  26 C :   -0.167043
  27 S :    0.498317
  28 C :   -0.182965
  29 C :   -0.060791
  30 C :   -0.032481
  31 C :   -0.095536
  32 C :    0.174446
  33 F :   -0.047578
  34 F :   -0.066001
  35 F :   -0.070451
  36 C :    0.007886
  37 C :   -0.047572
  38 C :    0.065895
  39 O :   -0.112772
  40 C :    0.080723
  41 C :   -0.041109
  42 C :   -0.027765
  43 C :   -0.019061
  44 C :   -0.040472
  45 C :   -0.013143
  46 C :   -0.021765
  47 C :    0.010725
  48 C :    0.023068
  49 N :   -0.067290
  50 C :    0.053404
  51 C :    0.042550
  52 N :   -0.064770
  53 F :   -0.037978
  54 F :   -0.033573
  55 C :   -0.010884
  56 C :   -0.005541
  57 C :   -0.006618
  58 C :   -0.019919
  59 C :   -0.056802
  60 C :   -0.041382
  61 N :   -0.033281
  62 O :    0.075844
  63 N :   -0.022323
  64 H :    0.026076
  65 H :    0.041559
  66 H :    0.042029
  67 H :    0.022071
  68 H :    0.033215
  69 H :    0.038909
  70 H :    0.035010
  71 H :    0.025061
  72 H :    0.033075
  73 H :    0.025058
  74 H :    0.022811
  75 H :    0.036335
  76 H :    0.036708
  77 H :    0.026042
  78 H :    0.015375
  79 H :    0.015355
  80 H :    0.022994
  81 H :    0.032906
  82 H :    0.026395
  83 H :    0.028454
  84 H :    0.036841
  85 H :    0.047087
  86 H :    0.032065
  87 H :    0.035739
  88 H :    0.039726

  Mayer bond orders larger than 0.100000
B(  0-C ,  1-C ) :   1.5549 B(  0-C ,  4-S ) :   1.1421 B(  0-C , 64-H ) :   0.9642
B(  1-C ,  2-C ) :   1.2734 B(  1-C , 65-H ) :   0.9956 B(  2-C ,  3-C ) :   1.4567
B(  2-C ,  7-C ) :   1.0175 B(  3-C ,  4-S ) :   1.1411 B(  3-C ,  5-C ) :   1.1825
B(  5-C ,  6-C ) :   1.4576 B(  5-C , 15-S ) :   1.1166 B(  6-C ,  7-C ) :   0.9912
B(  6-C , 13-C ) :   1.2845 B(  7-C ,  8-C ) :   1.7015 B(  8-C ,  9-C ) :   1.1372
B(  8-C , 11-C ) :   1.1316 B(  9-C , 10-N ) :   2.9812 B( 11-C , 12-N ) :   3.0056
B( 13-C , 14-C ) :   1.4957 B( 13-C , 66-H ) :   0.9882 B( 14-C , 15-S ) :   1.1131
B( 14-C , 16-C ) :   1.0940 B( 16-C , 17-S ) :   1.1374 B( 16-C , 21-C ) :   1.5005
B( 17-S , 18-C ) :   1.1275 B( 18-C , 19-C ) :   1.6051 B( 18-C , 67-H ) :   0.9675
B( 19-C , 20-C ) :   1.0964 B( 19-C , 21-C ) :   1.2256 B( 20-C , 68-H ) :   0.9501
B( 20-C , 69-H ) :   0.9445 B( 20-C , 70-H ) :   0.9410 B( 21-C , 22-C ) :   1.0790
B( 22-C , 23-C ) :   1.7227 B( 22-C , 71-H ) :   0.9420 B( 23-C , 24-C ) :   1.1601
B( 23-C , 72-H ) :   0.9758 B( 24-C , 25-C ) :   1.6948 B( 24-C , 73-H ) :   0.9578
B( 25-C , 26-C ) :   1.1363 B( 25-C , 74-H ) :   0.9355 B( 26-C , 27-S ) :   1.1709
B( 26-C , 28-C ) :   0.1068 B( 26-C , 30-C ) :   1.3333 B( 27-S , 28-C ) :   1.1565
B( 28-C , 29-C ) :   1.3160 B( 28-C , 41-C ) :   1.1561 B( 29-C , 30-C ) :   1.2208
B( 29-C , 38-C ) :   1.1597 B( 30-C , 31-C ) :   1.2298 B( 31-C , 32-C ) :   0.9632
B( 31-C , 36-C ) :   1.5258 B( 32-C , 33-F ) :   1.1533 B( 32-C , 34-F ) :   1.1479
B( 32-C , 35-F ) :   1.1344 B( 36-C , 37-C ) :   1.1987 B( 36-C , 75-H ) :   0.9863
B( 37-C , 38-C ) :   1.5329 B( 37-C , 76-H ) :   0.9929 B( 38-C , 39-O ) :   1.1127
B( 39-O , 40-C ) :   0.9358 B( 40-C , 77-H ) :   0.9822 B( 40-C , 78-H ) :   0.9665
B( 40-C , 79-H ) :   0.9651 B( 41-C , 42-C ) :   1.6377 B( 41-C , 80-H ) :   0.9455
B( 42-C , 43-C ) :   1.1597 B( 42-C , 81-H ) :   0.9597 B( 43-C , 44-C ) :   1.6791
B( 43-C , 48-C ) :   0.9339 B( 44-C , 45-C ) :   1.1089 B( 44-C , 82-H ) :   0.9742
B( 45-C , 46-C ) :   1.7016 B( 45-C , 83-H ) :   0.9773 B( 46-C , 47-C ) :   0.9904
B( 46-C , 55-C ) :   1.0502 B( 47-C , 48-C ) :   0.9858 B( 47-C , 52-N ) :   1.0294
B( 47-C , 84-H ) :   0.8605 B( 48-C , 49-N ) :   1.0154 B( 48-C , 85-H ) :   0.8822
B( 49-N , 50-C ) :   1.9391 B( 50-C , 51-C ) :   0.9309 B( 50-C , 54-F ) :   1.1633
B( 51-C , 52-N ) :   1.9600 B( 51-C , 53-F ) :   1.1599 B( 55-C , 56-C ) :   1.5391
B( 55-C , 58-C ) :   0.1062 B( 55-C , 60-C ) :   1.1291 B( 56-C , 57-C ) :   1.1906
B( 56-C , 86-H ) :   0.9897 B( 57-C , 58-C ) :   1.5240 B( 57-C , 87-H ) :   0.9823
B( 58-C , 59-C ) :   1.1666 B( 58-C , 88-H ) :   1.0232 B( 59-C , 60-C ) :   1.1476
B( 59-C , 63-N ) :   1.5922 B( 60-C , 61-N ) :   1.5645 B( 61-N , 62-O ) :   1.0605
B( 61-N , 63-N ) :   0.1857 B( 61-N , 84-H ) :   0.1011 B( 62-O , 63-N ) :   1.0740

-----------------------------------------------------------------------------
         ABSORPTION SPECTRUM VIA TRANSITION ELECTRIC DIPOLE MOMENTS
-----------------------------------------------------------------------------
State   Energy  Wavelength   fosc         T2         TX        TY        TZ
        (cm-1)    (nm)                  (au**2)     (au)      (au)      (au)
-----------------------------------------------------------------------------
   0   11682.2    856.0   0.099947326   2.81658   0.03359  -1.53986   0.66653
   1   15860.9    630.5   0.363640325   7.54777  -0.90530  -0.92579   2.42304
   2   16381.2    610.5   1.043771508  20.97656  -0.86161  -2.02824   4.01503
   3   21722.9    460.3   0.088970771   1.34836  -0.86392  -0.49663  -0.59613
   4   23634.0    423.1   0.136462156   1.90086  -0.29873   0.34223   1.30173
   5   24339.6    410.9   0.028548582   0.38614  -0.14783  -0.60291   0.02808
   6   24477.3    408.5   0.004377281   0.05887  -0.04096  -0.22983   0.06613
   7   25330.3    394.8   0.119504567   1.55317  -0.00267   1.21300   0.28600
   8   26552.4    376.6   0.079129170   0.98109  -0.55439   0.78699  -0.23320
   9   28842.9    346.7   0.061294402   0.69961  -0.56084   0.61219  -0.10149
  10   29160.3    342.9   0.197961249   2.23493   0.74131  -0.85306   0.97861
  11   29722.9    336.4   0.003320295   0.03678  -0.11885   0.10168  -0.11096
  12   30339.8    329.6   0.128212320   1.39121  -0.63613   0.90017   0.41982
  13   30864.8    324.0   0.043808583   0.46727   0.43865   0.17783  -0.49319
  14   31696.7    315.5   0.433742084   4.50499  -1.27826   0.01942   1.69430
  15   31944.6    313.0   0.511581868   5.27221  -0.54246  -1.24819   1.84932
  16   33059.0    302.5   0.054279077   0.54053  -0.33543  -0.60063   0.25934
  17   33328.5    300.0   0.204093822   2.01600   0.94920  -0.79223  -0.69813
  18   33630.6    297.3   0.122370184   1.19789   0.88203  -0.29723  -0.57581
  19   34433.4    290.4   0.085389836   0.81640  -0.45423  -0.52376   0.57944
  20   34993.1    285.8   0.152041593   1.43039   1.00318  -0.55817   0.33536
  21   35219.0    283.9   0.046488746   0.43456  -0.04103   0.07722  -0.65338
  22   35534.0    281.4   0.016382728   0.15178  -0.08505   0.29685   0.23755
  23   35909.4    278.5   0.018648957   0.17097   0.17612  -0.21160   0.30851
  24   36359.3    275.0   0.037616752   0.34060  -0.42871  -0.39593  -0.00701
  25   36944.3    270.7   0.258919873   2.30725   1.30491  -0.21458  -0.74726
  26   37484.7    266.8   0.016928308   0.14867  -0.21101   0.16574  -0.27691
  27   37663.4    265.5   0.085181574   0.74456   0.59042  -0.01868  -0.62898
  28   38400.1    260.4   0.005462226   0.04683   0.01356  -0.04962  -0.21020
  29   38626.5    258.9   0.003365227   0.02868   0.14770   0.06425   0.05232
  30   38830.6    257.5   0.020042371   0.16992  -0.17641  -0.25461   0.27198
  31   39054.0    256.1   0.087610881   0.73853  -0.30575   0.67742   0.43145
  32   39249.5    254.8   0.008412188   0.07056   0.06259   0.22525   0.12611
  33   39515.7    253.1   0.047060047   0.39206  -0.06746  -0.46885  -0.40950
  34   39881.4    250.7   0.019306026   0.15937   0.04046  -0.36066  -0.16629
  35   39996.1    250.0   0.007742954   0.06373   0.02685   0.20953  -0.13823
  36   40202.1    248.7   0.131296428   1.07518  -0.79754   0.48817   0.44811

FINAL SINGLE POINT ENERGY     -4372.854844842524

DIPOLE MOMENT
-------------
                                X             Y             Z
Electronic contribution:    -12.00323      -6.30612     -23.25163
Nuclear contribution   :     14.25962       8.27146      22.75314
                        -----------------------------------------
Total Dipole Moment    :      2.25639       1.96534      -0.49849
                        -----------------------------------------
Magnitude (a.u.)       :      3.03354
Magnitude (Debye)      :      7.71065

Rotational constants in cm-1:     0.002056     0.000367     0.000349
Rotational constants in MHz :    61.649299    11.011658    10.475259

                             ****ORCA TERMINATED NORMALLY****
TOTAL RUN TIME: 0 days 0 hours 7 minutes 38 seconds 211 msec
