                         Program Version 4.2.0 -  RELEASE  -
|  1> # ORCA input file
|  2> # SCF done       -179.240375005378          0.000949695820
|  3> ! CAM-B3LYP def2-SVP def2/J RIJCOSX Grid4 TightSCF
|  4> %maxcore 5000
|  5> %tddft
|  6>     Mode sTDDFT
|  7>     Ethresh 5.0
|  8>     maxcore 5000
|  9> end
| 10>
| 11> %pal
| 12>   nprocs 6
| 13>   end
| 14> * xyz 0 1
| 15>    C        1.53445         0.81270         6.19401
| 16>    C        0.46824         0.23300         5.57695
| 17>    C       -0.00966         1.03317         4.52117
| 18>    C        0.72587         2.21413         4.37089
| 19>    S        1.98769         2.34070         5.51219
| 20>    C        0.18012         2.95514         3.28250
| 21>    C       -0.89939         2.23735         2.75538
| 22>    C       -1.05020         0.99907         3.50993
| 23>    C       -1.96183         0.00833         3.28721
| 24>    C       -2.89971         0.07765         2.23618
| 25>    N       -3.64958         0.13384         1.37000
| 26>    C       -2.01462        -1.15792         4.07848
| 27>    N       -2.06149        -2.10898         4.71773
| 28>    C       -1.51716         2.88192         1.67971
| 29>    C       -0.90518         4.08291         1.37440
| 30>    S        0.44757         4.41978         2.45205
| 31>    C       -1.20034         5.02548         0.34875
| 32>    S       -0.41252         6.57800         0.39966
| 33>    C       -1.18298         7.07189        -1.08157
| 34>    C       -2.01899         6.07729        -1.55918
| 35>    C       -2.02431         4.91725        -0.76032
| 36>    C       -2.83514         3.70930        -1.10411
| 37>    C       -3.40034         3.77782        -2.52235
| 38>    C       -3.96790         5.16520        -2.81512
| 39>    C       -5.07342         5.55151        -1.86333
| 40>    O       -5.66457         4.81243        -1.13126
| 41>    C       -2.84626         6.20629        -2.79884
| 42>    C       -0.86182         8.34721        -1.61774
| 43>    C       -0.16520         9.35005        -0.96527
| 44>    C        0.04638        10.46266        -1.77765
| 45>    C       -0.47942        10.30658        -3.06871
| 46>    S       -1.25498         8.79844        -3.27205
| 47>    C       -0.19159        11.47419        -3.82152
| 48>    C        0.50810        12.37241        -3.00103
| 49>    C        0.67333        11.77459        -1.68787
| 50>    C        1.27788        12.32901        -0.59795
| 51>    C        1.82818        13.62711        -0.63538
| 52>    N        2.26538        14.68691        -0.66858
| 53>    C        1.38246        11.64934         0.63356
| 54>    N        1.46881        11.10132         1.63713
| 55>    C        0.87002        13.55036        -3.66165
| 56>    C        0.45635        13.55501        -4.97844
| 57>    S       -0.40284        12.07559        -5.40392
| 58>    C        0.65840        14.54136        -5.98544
| 59>    S        0.51931        14.07423        -7.65678
| 60>    C        0.89671        15.68969        -8.18877
| 61>    C        1.11470        16.52925        -7.10915
| 62>    C        0.97252        15.88338        -5.86470
| 63>    C        1.11454        16.61317        -4.56644
| 64>    C        1.00931        18.12271        -4.76914
| 65>    C        1.92529        18.58097        -5.91321
| 66>    C        3.34411        18.17066        -5.60008
| 67>    O        4.09850        18.79450        -4.91116
| 68>    C        1.45034        17.98137        -7.23636
| 69>    C        0.93762        15.94304        -9.58625
| 70>    C        0.80926        14.98984       -10.58223
| 71>    C        0.89148        15.54341       -11.85903
| 72>    C        1.07656        16.93056       -11.84275
| 73>    S        1.15132        17.55479       -10.25535
| 74>    C        1.15678        17.39201       -13.18749
| 75>    C        1.02022        16.29400       -14.04535
| 76>    C        0.84931        15.09565       -13.24797
| 77>    C        0.68751        13.81537       -13.69061
| 78>    C        0.66627        13.49193       -15.06345
| 79>    N        0.64705        13.22320       -16.17810
| 80>    C        0.53180        12.72797       -12.80590
| 81>    N        0.40595        11.83953       -12.09157
| 82>    C        1.08860        16.66204       -15.40371
| 83>    C        1.27163        18.00290       -15.54560
| 84>    S        1.36599        18.85634       -14.03851
| 85>    H        2.09825         0.43615         7.02377
| 86>    H        0.05252        -0.71444         5.86746
| 87>    H       -2.38266         2.50382         1.17295
| 88>    H       -3.66541         3.62761        -0.39694
| 89>    H       -2.22177         2.81121        -1.00252
| 90>    H       -4.18351         3.02673        -2.62608
| 91>    H       -2.61531         3.55913        -3.24887
| 92>    H       -4.43085         5.17353        -3.81079
| 93>    H       -5.32756         6.63087        -1.91288
| 94>    H       -3.26960         7.21287        -2.86225
| 95>    H       -2.20771         6.06866        -3.67740
| 96>    H        0.16273         9.25520         0.05429
| 97>    H        1.44160        14.33922        -3.21324
| 98>    H        2.08432        16.37759        -4.11658
| 99>    H        0.34036        16.27932        -3.87130
|100>    H        1.28676        18.63444        -3.84726
|101>    H       -0.01936        18.39295        -5.01726
|102>    H        1.89634        19.67376        -5.96632
|103>    H        3.64984        17.21078        -6.06327
|104>    H        2.22493        18.11875        -7.99681
|105>    H        0.56454        18.52386        -7.58287
|106>    H        0.66886        13.94561       -10.36782
|107>    H        1.00810        15.97957       -16.22990
|108>    H        1.36009        18.56262       -16.45497
|109> *
|110>
|111>                          ****END OF INPUT****

CARTESIAN COORDINATES (ANGSTROEM)
---------------------------------
  C      1.534450    0.812700    6.194010
  C      0.468240    0.233000    5.576950
  C     -0.009660    1.033170    4.521170
  C      0.725870    2.214130    4.370890
  S      1.987690    2.340700    5.512190
  C      0.180120    2.955140    3.282500
  C     -0.899390    2.237350    2.755380
  C     -1.050200    0.999070    3.509930
  C     -1.961830    0.008330    3.287210
  C     -2.899710    0.077650    2.236180
  N     -3.649580    0.133840    1.370000
  C     -2.014620   -1.157920    4.078480
  N     -2.061490   -2.108980    4.717730
  C     -1.517160    2.881920    1.679710
  C     -0.905180    4.082910    1.374400
  S      0.447570    4.419780    2.452050
  C     -1.200340    5.025480    0.348750
  S     -0.412520    6.578000    0.399660
  C     -1.182980    7.071890   -1.081570
  C     -2.018990    6.077290   -1.559180
  C     -2.024310    4.917250   -0.760320
  C     -2.835140    3.709300   -1.104110
  C     -3.400340    3.777820   -2.522350
  C     -3.967900    5.165200   -2.815120
  C     -5.073420    5.551510   -1.863330
  O     -5.664570    4.812430   -1.131260
  C     -2.846260    6.206290   -2.798840
  C     -0.861820    8.347210   -1.617740
  C     -0.165200    9.350050   -0.965270
  C      0.046380   10.462660   -1.777650
  C     -0.479420   10.306580   -3.068710
  S     -1.254980    8.798440   -3.272050
  C     -0.191590   11.474190   -3.821520
  C      0.508100   12.372410   -3.001030
  C      0.673330   11.774590   -1.687870
  C      1.277880   12.329010   -0.597950
  C      1.828180   13.627110   -0.635380
  N      2.265380   14.686910   -0.668580
  C      1.382460   11.649340    0.633560
  N      1.468810   11.101320    1.637130
  C      0.870020   13.550360   -3.661650
  C      0.456350   13.555010   -4.978440
  S     -0.402840   12.075590   -5.403920
  C      0.658400   14.541360   -5.985440
  S      0.519310   14.074230   -7.656780
  C      0.896710   15.689690   -8.188770
  C      1.114700   16.529250   -7.109150
  C      0.972520   15.883380   -5.864700
  C      1.114540   16.613170   -4.566440
  C      1.009310   18.122710   -4.769140
  C      1.925290   18.580970   -5.913210
  C      3.344110   18.170660   -5.600080
  O      4.098500   18.794500   -4.911160
  C      1.450340   17.981370   -7.236360
  C      0.937620   15.943040   -9.586250
  C      0.809260   14.989840  -10.582230
  C      0.891480   15.543410  -11.859030
  C      1.076560   16.930560  -11.842750
  S      1.151320   17.554790  -10.255350
  C      1.156780   17.392010  -13.187490
  C      1.020220   16.294000  -14.045350
  C      0.849310   15.095650  -13.247970
  C      0.687510   13.815370  -13.690610
  C      0.666270   13.491930  -15.063450
  N      0.647050   13.223200  -16.178100
  C      0.531800   12.727970  -12.805900
  N      0.405950   11.839530  -12.091570
  C      1.088600   16.662040  -15.403710
  C      1.271630   18.002900  -15.545600
  S      1.365990   18.856340  -14.038510
  H      2.098250    0.436150    7.023770
  H      0.052520   -0.714440    5.867460
  H     -2.382660    2.503820    1.172950
  H     -3.665410    3.627610   -0.396940
  H     -2.221770    2.811210   -1.002520
  H     -4.183510    3.026730   -2.626080
  H     -2.615310    3.559130   -3.248870
  H     -4.430850    5.173530   -3.810790
  H     -5.327560    6.630870   -1.912880
  H     -3.269600    7.212870   -2.862250
  H     -2.207710    6.068660   -3.677400
  H      0.162730    9.255200    0.054290
  H      1.441600   14.339220   -3.213240
  H      2.084320   16.377590   -4.116580
  H      0.340360   16.279320   -3.871300
  H      1.286760   18.634440   -3.847260
  H     -0.019360   18.392950   -5.017260
  H      1.896340   19.673760   -5.966320
  H      3.649840   17.210780   -6.063270
  H      2.224930   18.118750   -7.996810
  H      0.564540   18.523860   -7.582870
  H      0.668860   13.945610  -10.367820
  H      1.008100   15.979570  -16.229900
  H      1.360090   18.562620  -16.454970

 Total Charge           Charge          ....    0
 Multiplicity           Mult            ....    1
 Number of Electrons    NEL             ....  534
 Basis Dimension        Dim             .... 1132

ORBITAL ENERGIES
----------------

  NO   OCC          E(Eh)            E(eV)
   0   2.0000     -88.992617     -2421.6122
   1   2.0000     -88.992178     -2421.6003
   2   2.0000     -88.988684     -2421.5052
   3   2.0000     -88.987193     -2421.4646
   4   2.0000     -88.983354     -2421.3602
   5   2.0000     -88.983153     -2421.3547
   6   2.0000     -88.967576     -2420.9308
   7   2.0000     -88.963726     -2420.8260
   8   2.0000     -19.224354      -523.1213
   9   2.0000     -19.219784      -522.9969
  10   2.0000     -14.431807      -392.7094
  11   2.0000     -14.430714      -392.6797
  12   2.0000     -14.429789      -392.6545
  13   2.0000     -14.428962      -392.6320
  14   2.0000     -14.425167      -392.5288
  15   2.0000     -14.424458      -392.5094
  16   2.0000     -10.364955      -282.0448
  17   2.0000     -10.362940      -281.9899
  18   2.0000     -10.362614      -281.9811
  19   2.0000     -10.358685      -281.8741
  20   2.0000     -10.357881      -281.8523
  21   2.0000     -10.352254      -281.6992
  22   2.0000     -10.350728      -281.6576
  23   2.0000     -10.345961      -281.5279
  24   2.0000     -10.332321      -281.1567
  25   2.0000     -10.331794      -281.1424
  26   2.0000     -10.331042      -281.1220
  27   2.0000     -10.330407      -281.1047
  28   2.0000     -10.329864      -281.0899
  29   2.0000     -10.329836      -281.0891
  30   2.0000     -10.329399      -281.0772
  31   2.0000     -10.329376      -281.0766
  32   2.0000     -10.328606      -281.0557
  33   2.0000     -10.327842      -281.0349
  34   2.0000     -10.327469      -281.0247
  35   2.0000     -10.325839      -280.9804
  36   2.0000     -10.324984      -280.9571
  37   2.0000     -10.324854      -280.9536
  38   2.0000     -10.324587      -280.9463
  39   2.0000     -10.323270      -280.9105
  40   2.0000     -10.319096      -280.7969
  41   2.0000     -10.317679      -280.7583
  42   2.0000     -10.315872      -280.7092
  43   2.0000     -10.313547      -280.6459
  44   2.0000     -10.310700      -280.5684
  45   2.0000     -10.306814      -280.4627
  46   2.0000     -10.303239      -280.3654
  47   2.0000     -10.302402      -280.3426
  48   2.0000     -10.300951      -280.3031
  49   2.0000     -10.300023      -280.2779
  50   2.0000     -10.299461      -280.2626
  51   2.0000     -10.299187      -280.2551
  52   2.0000     -10.297922      -280.2207
  53   2.0000     -10.297073      -280.1976
  54   2.0000     -10.295491      -280.1546
  55   2.0000     -10.294724      -280.1337
  56   2.0000     -10.293953      -280.1127
  57   2.0000     -10.293919      -280.1118
  58   2.0000     -10.293651      -280.1045
  59   2.0000     -10.293266      -280.0940
  60   2.0000     -10.292944      -280.0852
  61   2.0000     -10.292211      -280.0653
  62   2.0000     -10.291392      -280.0430
  63   2.0000     -10.290482      -280.0183
  64   2.0000     -10.287788      -279.9449
  65   2.0000     -10.287566      -279.9389
  66   2.0000     -10.284971      -279.8683
  67   2.0000     -10.283211      -279.8204
  68   2.0000     -10.273579      -279.5583
  69   2.0000     -10.272953      -279.5413
  70   2.0000      -8.086421      -220.0427
  71   2.0000      -8.086031      -220.0321
  72   2.0000      -8.083531      -219.9641
  73   2.0000      -8.082234      -219.9288
  74   2.0000      -8.078117      -219.8167
  75   2.0000      -8.078035      -219.8145
  76   2.0000      -8.063107      -219.4083
  77   2.0000      -8.059361      -219.3064
  78   2.0000      -6.055766      -164.7858
  79   2.0000      -6.055373      -164.7751
  80   2.0000      -6.052810      -164.7053
  81   2.0000      -6.051480      -164.6691
  82   2.0000      -6.051455      -164.6685
  83   2.0000      -6.051075      -164.6581
  84   2.0000      -6.048837      -164.5972
  85   2.0000      -6.048580      -164.5902
  86   2.0000      -6.048438      -164.5864
  87   2.0000      -6.047408      -164.5583
  88   2.0000      -6.047302      -164.5555
  89   2.0000      -6.047049      -164.5486
  90   2.0000      -6.045818      -164.5151
  91   2.0000      -6.044837      -164.4884
  92   2.0000      -6.043144      -164.4423
  93   2.0000      -6.042845      -164.4342
  94   2.0000      -6.040732      -164.3767
  95   2.0000      -6.040406      -164.3678
  96   2.0000      -6.032519      -164.1532
  97   2.0000      -6.028800      -164.0520
  98   2.0000      -6.028464      -164.0428
  99   2.0000      -6.024853      -163.9446
 100   2.0000      -6.024711      -163.9407
 101   2.0000      -6.021066      -163.8415
 102   2.0000      -1.139418       -31.0052
 103   2.0000      -1.134271       -30.8651
 104   2.0000      -1.044591       -28.4248
 105   2.0000      -1.042659       -28.3722
 106   2.0000      -1.037731       -28.2381
 107   2.0000      -1.023084       -27.8395
 108   2.0000      -1.021244       -27.7895
 109   2.0000      -1.016650       -27.6645
 110   2.0000      -1.013234       -27.5715
 111   2.0000      -1.008722       -27.4487
 112   2.0000      -1.007284       -27.4096
 113   2.0000      -1.006503       -27.3884
 114   2.0000      -1.002385       -27.2763
 115   2.0000      -0.995233       -27.0817
 116   2.0000      -0.988264       -26.8920
 117   2.0000      -0.982097       -26.7242
 118   2.0000      -0.958853       -26.0917
 119   2.0000      -0.955180       -25.9918
 120   2.0000      -0.950954       -25.8768
 121   2.0000      -0.938294       -25.5323
 122   2.0000      -0.933828       -25.4107
 123   2.0000      -0.918653       -24.9978
 124   2.0000      -0.909450       -24.7474
 125   2.0000      -0.902099       -24.5474
 126   2.0000      -0.883367       -24.0377
 127   2.0000      -0.878104       -23.8944
 128   2.0000      -0.867269       -23.5996
 129   2.0000      -0.865393       -23.5485
 130   2.0000      -0.859411       -23.3858
 131   2.0000      -0.856213       -23.2988
 132   2.0000      -0.852317       -23.1927
 133   2.0000      -0.850460       -23.1422
 134   2.0000      -0.845107       -22.9965
 135   2.0000      -0.839597       -22.8466
 136   2.0000      -0.836286       -22.7565
 137   2.0000      -0.826534       -22.4911
 138   2.0000      -0.806838       -21.9552
 139   2.0000      -0.788390       -21.4532
 140   2.0000      -0.777106       -21.1461
 141   2.0000      -0.775013       -21.0892
 142   2.0000      -0.770636       -20.9701
 143   2.0000      -0.764106       -20.7924
 144   2.0000      -0.747159       -20.3312
 145   2.0000      -0.744261       -20.2524
 146   2.0000      -0.737776       -20.0759
 147   2.0000      -0.726186       -19.7605
 148   2.0000      -0.722292       -19.6546
 149   2.0000      -0.712961       -19.4007
 150   2.0000      -0.702374       -19.1126
 151   2.0000      -0.698806       -19.0155
 152   2.0000      -0.697521       -18.9805
 153   2.0000      -0.686376       -18.6772
 154   2.0000      -0.681526       -18.5453
 155   2.0000      -0.678962       -18.4755
 156   2.0000      -0.674916       -18.3654
 157   2.0000      -0.663954       -18.0671
 158   2.0000      -0.658808       -17.9271
 159   2.0000      -0.651628       -17.7317
 160   2.0000      -0.638946       -17.3866
 161   2.0000      -0.636075       -17.3085
 162   2.0000      -0.634063       -17.2537
 163   2.0000      -0.627447       -17.0737
 164   2.0000      -0.624491       -16.9933
 165   2.0000      -0.619131       -16.8474
 166   2.0000      -0.616798       -16.7839
 167   2.0000      -0.615029       -16.7358
 168   2.0000      -0.613553       -16.6956
 169   2.0000      -0.609328       -16.5807
 170   2.0000      -0.601071       -16.3560
 171   2.0000      -0.600464       -16.3395
 172   2.0000      -0.588004       -16.0004
 173   2.0000      -0.578947       -15.7540
 174   2.0000      -0.566254       -15.4085
 175   2.0000      -0.563454       -15.3324
 176   2.0000      -0.557976       -15.1833
 177   2.0000      -0.551876       -15.0173
 178   2.0000      -0.549792       -14.9606
 179   2.0000      -0.547946       -14.9104
 180   2.0000      -0.546316       -14.8660
 181   2.0000      -0.545583       -14.8461
 182   2.0000      -0.540967       -14.7205
 183   2.0000      -0.540552       -14.7092
 184   2.0000      -0.539545       -14.6818
 185   2.0000      -0.531589       -14.4653
 186   2.0000      -0.529116       -14.3980
 187   2.0000      -0.523561       -14.2468
 188   2.0000      -0.522145       -14.2083
 189   2.0000      -0.519327       -14.1316
 190   2.0000      -0.517291       -14.0762
 191   2.0000      -0.513302       -13.9677
 192   2.0000      -0.512201       -13.9377
 193   2.0000      -0.509042       -13.8517
 194   2.0000      -0.504672       -13.7328
 195   2.0000      -0.503931       -13.7127
 196   2.0000      -0.502633       -13.6773
 197   2.0000      -0.500023       -13.6063
 198   2.0000      -0.498132       -13.5549
 199   2.0000      -0.497279       -13.5317
 200   2.0000      -0.496950       -13.5227
 201   2.0000      -0.493199       -13.4206
 202   2.0000      -0.489457       -13.3188
 203   2.0000      -0.487582       -13.2678
 204   2.0000      -0.484861       -13.1937
 205   2.0000      -0.484552       -13.1853
 206   2.0000      -0.480231       -13.0678
 207   2.0000      -0.479828       -13.0568
 208   2.0000      -0.477548       -12.9947
 209   2.0000      -0.475812       -12.9475
 210   2.0000      -0.471088       -12.8190
 211   2.0000      -0.467617       -12.7245
 212   2.0000      -0.465684       -12.6719
 213   2.0000      -0.462935       -12.5971
 214   2.0000      -0.462578       -12.5874
 215   2.0000      -0.461585       -12.5604
 216   2.0000      -0.460987       -12.5441
 217   2.0000      -0.459592       -12.5061
 218   2.0000      -0.458430       -12.4745
 219   2.0000      -0.456831       -12.4310
 220   2.0000      -0.456448       -12.4206
 221   2.0000      -0.453911       -12.3515
 222   2.0000      -0.453379       -12.3371
 223   2.0000      -0.452251       -12.3064
 224   2.0000      -0.451096       -12.2749
 225   2.0000      -0.447920       -12.1885
 226   2.0000      -0.444582       -12.0977
 227   2.0000      -0.442116       -12.0306
 228   2.0000      -0.441542       -12.0150
 229   2.0000      -0.441259       -12.0073
 230   2.0000      -0.439698       -11.9648
 231   2.0000      -0.438885       -11.9427
 232   2.0000      -0.438211       -11.9243
 233   2.0000      -0.438124       -11.9220
 234   2.0000      -0.435328       -11.8459
 235   2.0000      -0.434039       -11.8108
 236   2.0000      -0.432875       -11.7791
 237   2.0000      -0.428615       -11.6632
 238   2.0000      -0.426225       -11.5982
 239   2.0000      -0.421989       -11.4829
 240   2.0000      -0.419178       -11.4064
 241   2.0000      -0.416565       -11.3353
 242   2.0000      -0.412168       -11.2157
 243   2.0000      -0.411483       -11.1970
 244   2.0000      -0.409763       -11.1502
 245   2.0000      -0.408350       -11.1118
 246   2.0000      -0.405362       -11.0305
 247   2.0000      -0.403061       -10.9679
 248   2.0000      -0.401732       -10.9317
 249   2.0000      -0.390010       -10.6127
 250   2.0000      -0.380404       -10.3513
 251   2.0000      -0.364910        -9.9297
 252   2.0000      -0.349118        -9.5000
 253   2.0000      -0.347141        -9.4462
 254   2.0000      -0.341615        -9.2958
 255   2.0000      -0.339773        -9.2457
 256   2.0000      -0.333222        -9.0674
 257   2.0000      -0.330756        -9.0003
 258   2.0000      -0.323955        -8.8153
 259   2.0000      -0.321622        -8.7518
 260   2.0000      -0.320535        -8.7222
 261   2.0000      -0.319924        -8.7056
 262   2.0000      -0.315048        -8.5729
 263   2.0000      -0.310294        -8.4435
 264   2.0000      -0.282757        -7.6942
 265   2.0000      -0.254673        -6.9300
 266   2.0000      -0.233470        -6.3530
 267   0.0000      -0.106006        -2.8846
 268   0.0000      -0.100879        -2.7451
 269   0.0000      -0.096612        -2.6289
 270   0.0000      -0.055418        -1.5080
 271   0.0000      -0.039870        -1.0849

MULLIKEN ATOMIC CHARGES
-----------------------
   0 C :   -0.083449
   1 C :    0.036760
   2 C :   -0.031680
   3 C :   -0.118222
   4 S :    0.181962
   5 C :   -0.099428
   6 C :    0.013969
   7 C :    0.300379
   8 C :   -0.299400
   9 C :   -0.184804
  10 N :    0.166294
  11 C :   -0.189645
  12 N :    0.170687
  13 C :   -0.064927
  14 C :   -0.070062
  15 S :    0.177816
  16 C :   -0.078719
  17 S :    0.117397
  18 C :   -0.078503
  19 C :   -0.114505
  20 C :   -0.091081
  21 C :    0.073220
  22 C :    0.098392
  23 C :   -0.102654
  24 C :    0.147579
  25 O :   -0.162829
  26 C :    0.108064
  27 C :   -0.075841
  28 C :   -0.067763
  29 C :    0.027461
  30 C :   -0.097231
  31 S :    0.155325
  32 C :   -0.091785
  33 C :    0.006801
  34 C :    0.307576
  35 C :   -0.301759
  36 C :   -0.187534
  37 N :    0.170010
  38 C :   -0.185919
  39 N :    0.173072
  40 C :   -0.059715
  41 C :   -0.076332
  42 S :    0.183863
  43 C :   -0.085711
  44 S :    0.120327
  45 C :   -0.078789
  46 C :   -0.120653
  47 C :   -0.078598
  48 C :    0.060155
  49 C :    0.083079
  50 C :   -0.082728
  51 C :    0.123863
  52 O :   -0.165698
  53 C :    0.110794
  54 C :   -0.069053
  55 C :   -0.072871
  56 C :    0.028897
  57 C :   -0.096837
  58 S :    0.149637
  59 C :   -0.110752
  60 C :   -0.036119
  61 C :    0.297852
  62 C :   -0.297189
  63 C :   -0.193004
  64 N :    0.173282
  65 C :   -0.187199
  66 N :    0.171944
  67 C :    0.039199
  68 C :   -0.084174
  69 S :    0.177442
  70 H :    0.035234
  71 H :    0.010583
  72 H :    0.002606
  73 H :    0.060085
  74 H :    0.026958
  75 H :    0.021061
  76 H :    0.006853
  77 H :    0.029767
  78 H :   -0.007728
  79 H :    0.023356
  80 H :    0.030385
  81 H :    0.014584
  82 H :   -0.000434
  83 H :    0.053042
  84 H :    0.028057
  85 H :    0.025403
  86 H :    0.014525
  87 H :    0.019684
  88 H :    0.000415
  89 H :    0.030767
  90 H :    0.030197
  91 H :    0.016448
  92 H :    0.012625
  93 H :    0.035592
Sum of atomic charges:   -0.0000000

LOEWDIN ATOMIC CHARGES
----------------------
   0 C :   -0.179752
   1 C :   -0.034068
   2 C :   -0.078644
   3 C :   -0.182856
   4 S :    0.477708
   5 C :   -0.182668
   6 C :   -0.071767
   7 C :    0.085099
   8 C :   -0.106114
   9 C :   -0.015624
  10 N :   -0.037008
  11 C :   -0.016918
  12 N :   -0.035413
  13 C :   -0.034233
  14 C :   -0.175024
  15 S :    0.467056
  16 C :   -0.187401
  17 S :    0.430513
  18 C :   -0.188257
  19 C :   -0.063040
  20 C :   -0.049138
  21 C :   -0.030707
  22 C :   -0.014731
  23 C :   -0.072163
  24 C :    0.119479
  25 O :   -0.114653
  26 C :   -0.031616
  27 C :   -0.174445
  28 C :   -0.040982
  29 C :   -0.065626
  30 C :   -0.191861
  31 S :    0.486347
  32 C :   -0.178596
  33 C :   -0.075389
  34 C :    0.084549
  35 C :   -0.103198
  36 C :   -0.015029
  37 N :   -0.035382
  38 C :   -0.017061
  39 N :   -0.032116
  40 C :   -0.034289
  41 C :   -0.177707
  42 S :    0.467059
  43 C :   -0.190520
  44 S :    0.433589
  45 C :   -0.185124
  46 C :   -0.063715
  47 C :   -0.055879
  48 C :   -0.031278
  49 C :   -0.008250
  50 C :   -0.068453
  51 C :    0.113091
  52 O :   -0.115779
  53 C :   -0.035702
  54 C :   -0.176981
  55 C :   -0.041930
  56 C :   -0.065311
  57 C :   -0.192330
  58 S :    0.487529
  59 C :   -0.180800
  60 C :   -0.080873
  61 C :    0.084333
  62 C :   -0.104447
  63 C :   -0.016931
  64 N :   -0.033557
  65 C :   -0.016193
  66 N :   -0.036153
  67 C :   -0.033688
  68 C :   -0.179720
  69 S :    0.474132
  70 H :    0.027086
  71 H :    0.042093
  72 H :    0.039050
  73 H :    0.040449
  74 H :    0.036970
  75 H :    0.034984
  76 H :    0.025642
  77 H :    0.047634
  78 H :   -0.006323
  79 H :    0.019751
  80 H :    0.033894
  81 H :    0.035271
  82 H :    0.038484
  83 H :    0.036468
  84 H :    0.038831
  85 H :    0.034247
  86 H :    0.026600
  87 H :    0.039874
  88 H :   -0.006253
  89 H :    0.022430
  90 H :    0.035604
  91 H :    0.033943
  92 H :    0.042570
  93 H :    0.027302

  Mayer bond orders larger than 0.100000
B(  0-C ,  1-C ) :   1.5496 B(  0-C ,  4-S ) :   1.1478 B(  0-C , 70-H ) :   0.9644
B(  1-C ,  2-C ) :   1.2779 B(  1-C , 71-H ) :   0.9959 B(  2-C ,  3-C ) :   1.4576
B(  2-C ,  7-C ) :   1.0147 B(  3-C ,  4-S ) :   1.1389 B(  3-C ,  5-C ) :   1.1798
B(  5-C ,  6-C ) :   1.4639 B(  5-C , 15-S ) :   1.1233 B(  6-C ,  7-C ) :   0.9957
B(  6-C , 13-C ) :   1.2619 B(  7-C ,  8-C ) :   1.7071 B(  8-C ,  9-C ) :   1.1357
B(  8-C , 11-C ) :   1.1290 B(  9-C , 10-N ) :   2.9836 B( 11-C , 12-N ) :   3.0027
B( 13-C , 14-C ) :   1.4802 B( 13-C , 72-H ) :   0.9913 B( 14-C , 15-S ) :   1.0982
B( 14-C , 16-C ) :   1.1217 B( 16-C , 17-S ) :   1.1035 B( 16-C , 18-C ) :   0.1166
B( 16-C , 20-C ) :   1.5576 B( 17-S , 18-C ) :   1.1232 B( 18-C , 19-C ) :   1.5185
B( 18-C , 27-C ) :   1.1437 B( 19-C , 20-C ) :   1.3016 B( 19-C , 26-C ) :   1.0448
B( 20-C , 21-C ) :   1.0644 B( 21-C , 22-C ) :   1.0766 B( 21-C , 73-H ) :   0.8961
B( 21-C , 74-H ) :   0.9074 B( 22-C , 23-C ) :   1.0418 B( 22-C , 75-H ) :   0.9245
B( 22-C , 76-H ) :   0.9429 B( 23-C , 24-C ) :   0.9170 B( 23-C , 26-C ) :   1.0436
B( 23-C , 77-H ) :   0.8926 B( 24-C , 25-O ) :   2.1952 B( 24-C , 78-H ) :   0.9481
B( 26-C , 79-H ) :   0.9101 B( 26-C , 80-H ) :   0.9034 B( 27-C , 28-C ) :   1.4461
B( 27-C , 31-S ) :   1.1059 B( 28-C , 29-C ) :   1.2981 B( 28-C , 81-H ) :   0.9888
B( 29-C , 30-C ) :   1.4462 B( 29-C , 34-C ) :   0.9867 B( 30-C , 31-S ) :   1.1101
B( 30-C , 32-C ) :   1.1766 B( 32-C , 33-C ) :   1.4437 B( 32-C , 42-S ) :   1.1215
B( 33-C , 34-C ) :   1.0016 B( 33-C , 40-C ) :   1.2635 B( 34-C , 35-C ) :   1.7109
B( 35-C , 36-C ) :   1.1386 B( 35-C , 38-C ) :   1.1317 B( 36-C , 37-N ) :   2.9855
B( 38-C , 39-N ) :   2.9918 B( 40-C , 41-C ) :   1.4843 B( 40-C , 82-H ) :   0.9923
B( 41-C , 42-S ) :   1.0937 B( 41-C , 43-C ) :   1.1052 B( 43-C , 44-S ) :   1.1060
B( 43-C , 45-C ) :   0.1161 B( 43-C , 47-C ) :   1.5605 B( 44-S , 45-C ) :   1.1237
B( 45-C , 46-C ) :   1.5200 B( 45-C , 54-C ) :   1.1520 B( 46-C , 47-C ) :   1.2955
B( 46-C , 53-C ) :   1.0385 B( 47-C , 48-C ) :   1.0543 B( 48-C , 49-C ) :   1.0835
B( 48-C , 83-H ) :   0.8995 B( 48-C , 84-H ) :   0.9095 B( 49-C , 50-C ) :   1.0444
B( 49-C , 85-H ) :   0.9322 B( 49-C , 86-H ) :   0.9485 B( 50-C , 51-C ) :   0.9111
B( 50-C , 53-C ) :   1.0192 B( 50-C , 87-H ) :   0.9038 B( 51-C , 52-O ) :   2.2110
B( 51-C , 88-H ) :   0.9451 B( 53-C , 89-H ) :   0.9138 B( 53-C , 90-H ) :   0.9018
B( 54-C , 55-C ) :   1.4463 B( 54-C , 58-S ) :   1.1060 B( 55-C , 56-C ) :   1.3011
B( 55-C , 91-H ) :   0.9867 B( 56-C , 57-C ) :   1.4579 B( 56-C , 61-C ) :   0.9889
B( 57-C , 58-S ) :   1.1116 B( 57-C , 59-C ) :   1.1768 B( 59-C , 60-C ) :   1.4523
B( 59-C , 69-S ) :   1.1375 B( 60-C , 61-C ) :   1.0215 B( 60-C , 67-C ) :   1.2732
B( 61-C , 62-C ) :   1.7105 B( 62-C , 63-C ) :   1.1313 B( 62-C , 65-C ) :   1.1331
B( 63-C , 64-N ) :   3.0031 B( 65-C , 66-N ) :   2.9904 B( 67-C , 68-C ) :   1.5528
B( 67-C , 92-H ) :   0.9962 B( 68-C , 69-S ) :   1.1436 B( 68-C , 93-H ) :   0.9650

-----------------------------------------------------------------------------
         ABSORPTION SPECTRUM VIA TRANSITION ELECTRIC DIPOLE MOMENTS
-----------------------------------------------------------------------------
State   Energy  Wavelength   fosc         T2         TX        TY        TZ
        (cm-1)    (nm)                  (au**2)     (au)      (au)      (au)
-----------------------------------------------------------------------------
   0   10777.3    927.9   0.217358628   6.63961   0.32818   1.93953  -1.66437
   1   13296.6    752.1   0.123981245   3.06966  -0.00606  -0.59496   1.64792
   2   13525.1    739.4   0.054719202   1.33191   0.32955  -0.84239   0.71672
   3   19202.2    520.8   0.008912444   0.15280  -0.06222   0.37760   0.07968
   4   21514.0    464.8   0.509687238   7.79936  -0.27334  -1.89701   2.03125
   5   22473.0    445.0   0.623115780   9.12814  -0.25380  -2.23105   2.02142
   6   23555.1    424.5   0.883873050  12.35323  -0.25783  -2.21117   2.71983
   7   25284.2    395.5   0.397102069   5.17045   0.26111   1.55646  -1.63698
   8   27134.3    368.5   0.291495315   3.53662   0.02268   1.38296   1.27418
   9   27545.0    363.0   0.077329688   0.92423  -0.00049  -0.88521  -0.37500
  10   28402.0    352.1   0.014829629   0.17189  -0.05161   0.19790  -0.36065
  11   30878.1    323.9   0.048439639   0.51645  -0.27480  -0.64644  -0.15183
  12   31178.0    320.7   0.014171514   0.14964   0.26774   0.25384   0.11626
  13   31319.8    319.3   0.094232933   0.99051  -0.07808  -0.19423  -0.97298
  14   31608.4    316.4   0.134502223   1.40088   0.00932  -0.48439   1.07989
  15   31761.6    314.8   0.506818076   5.25322   1.60601   1.49296   0.66711
  16   32166.1    310.9   0.396784892   4.06100  -0.05289   2.01450  -0.00002
  17   32464.4    308.0   0.316860226   3.21319   0.53533   0.46503   1.64631
  18   32702.4    305.8   0.206399479   2.07780  -0.58334  -0.44546  -1.24060
  19   32808.5    304.8   0.239641062   2.40464  -0.93197  -0.97801  -0.76130
  20   32996.6    303.1   0.408237604   4.07304  -0.13983  -1.71273   1.05832
  21   33137.4    301.8   0.182805624   1.81613   0.97333   0.45029   0.81609
  22   33877.6    295.2   0.198187362   1.92592  -0.56768  -1.26248   0.09908
  23   34243.0    292.0   0.115515935   1.11057   0.57603  -0.15134   0.86940
  24   34669.3    288.4   0.313058489   2.97273   0.36519   0.93201   1.40382
  25   34924.3    286.3   0.049689972   0.46840  -0.23605  -0.54524   0.33970
  26   35758.5    279.7   0.001965676   0.01810  -0.05559  -0.10619   0.06108
  27   36120.3    276.9   0.010551109   0.09617   0.24642   0.06108   0.17808
  28   36219.1    276.1   0.095894623   0.87163  -0.50348  -0.18682  -0.76370
  29   36625.8    273.0   0.005867131   0.05274  -0.09657  -0.13581  -0.15801
  30   37252.3    268.4   0.023123311   0.20435   0.23877   0.11893   0.36496
  31   37316.5    268.0   0.006989947   0.06167  -0.10967  -0.14919  -0.16547
  32   37638.3    265.7   0.059369137   0.51929  -0.18451   0.43800  -0.54166
  33   37714.4    265.2   0.004153441   0.03626   0.06607   0.17600   0.03026
  34   37994.7    263.2   0.006470575   0.05607   0.02096  -0.20363   0.11901
  35   38180.7    261.9   0.005291235   0.04562  -0.09571  -0.16176  -0.10147
  36   38318.9    261.0   0.011092372   0.09530   0.09181   0.22983   0.18452
  37   38740.4    258.1   0.106571398   0.90563   0.53076   0.72348   0.31702
  38   38946.1    256.8   0.039645787   0.33513   0.40953  -0.33074   0.24089
  39   39218.2    255.0   0.025582981   0.21475   0.31156   0.11150   0.32443
  40   39614.5    252.4   0.014191154   0.11793   0.06435  -0.15576  -0.29922
  41   39741.2    251.6   0.005399394   0.04473   0.02925   0.01303   0.20905
  42   39986.4    250.1   0.026151645   0.21531   0.05063   0.25162  -0.38656

FINAL SINGLE POINT ENERGY     -5732.304092685728

DIPOLE MOMENT
-------------
                                X             Y             Z
Electronic contribution:     11.38358     -10.17943       1.78319
Nuclear contribution   :    -11.12488      12.62911      -3.31646
                        -----------------------------------------
Total Dipole Moment    :      0.25870       2.44968      -1.53327
                        -----------------------------------------
Magnitude (a.u.)       :      2.90151
Magnitude (Debye)      :      7.37505

Rotational constants in cm-1:     0.001732     0.000229     0.000210
Rotational constants in MHz :    51.909695     6.878359     6.295193

                             ****ORCA TERMINATED NORMALLY****
TOTAL RUN TIME: 0 days 0 hours 10 minutes 7 seconds 615 msec
