                         Program Version 4.2.0 -  RELEASE  -
|  1> # ORCA input file
|  2> # SCF done       -192.290133440429          0.000802511657
|  3> ! CAM-B3LYP def2-SVP def2/J RIJCOSX Grid4 TightSCF
|  4> %maxcore 5000
|  5> %tddft
|  6>     Mode sTDDFT
|  7>     Ethresh 5.0
|  8>     maxcore 5000
|  9> end
| 10>
| 11> %pal
| 12>   nprocs 6
| 13>   end
| 14> * xyz 0 1
| 15>    C       -0.78867        -1.46884         2.43338
| 16>    C       -0.78588        -0.89259         3.66598
| 17>    C       -0.83480         0.51224         3.57614
| 18>    C       -0.87850         0.96296         2.24772
| 19>    S       -0.85764        -0.32641         1.12888
| 20>    C       -0.93063         2.38271         2.24803
| 21>    C       -0.90633         2.82300         3.57977
| 22>    C       -0.88502         1.65707         4.45772
| 23>    C       -0.98398         1.67038         5.82094
| 24>    C       -1.16576         2.87845         6.51832
| 25>    N       -1.35607         3.87639         7.05317
| 26>    C       -0.96657         0.49058         6.59230
| 27>    N       -0.94761        -0.47102         7.21631
| 28>    C       -0.90341         4.20813         3.70378
| 29>    C       -0.96787         4.84645         2.47355
| 30>    S       -0.99172         3.68502         1.14379
| 31>    C       -0.99740         6.22804         2.18382
| 32>    S       -0.71514         6.74720         0.55474
| 33>    C       -0.82916         8.43107         0.96544
| 34>    C       -1.09748         8.57960         2.34119
| 35>    C       -1.21470         7.33376         3.02898
| 36>    C       -1.56004         7.33849         4.39107
| 37>    C       -1.72465         8.52656         5.05200
| 38>    S       -2.13961         8.56401         6.77690
| 39>    C       -1.56605         9.76934         4.38382
| 40>    O       -1.72323        10.95020         5.02202
| 41>    C       -1.26777         9.78243         3.04246
| 42>    C       -0.65203         9.44693         0.01684
| 43>    C       -0.44587         9.25107        -1.31955
| 44>    C       -0.18770        10.26920        -2.27030
| 45>    C       -0.05323        11.60802        -1.95750
| 46>    C        0.30090        12.61402        -2.84372
| 47>    C        0.37236        12.35652        -4.28662
| 48>    C        0.25579        11.12608        -4.83483
| 49>    S        0.02072         9.69312        -3.91977
| 50>    C        0.57531        13.62995        -4.88695
| 51>    C        0.65462        14.61160        -3.89770
| 52>    C        0.87487        15.89688        -4.43896
| 53>    C        0.95086        15.85996        -5.79512
| 54>    S        0.76744        14.27524        -6.46866
| 55>    C        0.52436        13.99280        -2.60523
| 56>    C        0.64038        14.66668        -1.37319
| 57>    C        0.89585        14.06095        -0.17650
| 58>    C        0.89863        14.66214         1.10210
| 59>    C        1.06077        13.88075         2.23697
| 60>    C        1.02394        14.34349         3.53934
| 61>    C        0.84738        15.76322         3.83568
| 62>    C        0.67771        16.71588         2.89137
| 63>    S        0.63530        16.39279         1.20659
| 64>    C        0.88228        15.85802         5.25461
| 65>    C        1.04417        14.59279         5.82243
| 66>    C        1.10703        14.66417         7.23178
| 67>    C        0.98770        15.94186         7.67957
| 68>    S        0.79370        17.11232         6.42348
| 69>    C        1.12230        13.61548         4.75926
| 70>    C        1.24831        12.22878         4.83900
| 71>    C        1.24112        11.46905         5.98727
| 72>    C        1.34954        10.08244         5.95789
| 73>    C        1.35081         9.21728         7.03693
| 74>    C        0.99396         7.80438         6.84763
| 75>    O        0.86695         7.20025         5.79734
| 76>    C        0.75729         7.27382         8.21277
| 77>    C        1.03480         8.28080         9.15403
| 78>    C        1.52475         9.46307         8.44077
| 79>    C        2.21146        10.49674         9.03532
| 80>    C        2.95967        11.46728         8.34133
| 81>    N        3.62546        12.26479         7.85059
| 82>    C        2.34529        10.65347        10.42811
| 83>    N        2.46815        10.85175        11.55318
| 84>    C        0.84569         8.03490        10.50129
| 85>    C        0.38769         6.78003        10.89084
| 86>    C        0.12923         5.78240         9.95350
| 87>    C        0.31372         6.02788         8.59798
| 88>   Br       -0.47905         4.07508        10.50364
| 89>   Br        0.11513         6.45086        12.73514
| 90>    H       -0.75408        -2.51297         2.19526
| 91>    H       -0.74728        -1.44744         4.58560
| 92>    H       -0.78870         4.73015         4.63254
| 93>    H       -1.72115         6.41380         4.91654
| 94>    H       -2.13158         7.24813         6.94996
| 95>    H       -1.92941        10.80690         5.95489
| 96>    H       -1.18017        10.73804         2.55208
| 97>    H       -0.68984        10.45121         0.41310
| 98>    H       -0.45330         8.23542        -1.69408
| 99>    H       -0.26052        11.88381        -0.93663
|100>    H        0.32357        10.95460        -5.89742
|101>    H        0.96987        16.79986        -3.86372
|102>    H        1.10815        16.68130        -6.46665
|103>    H        0.54136        15.74504        -1.40041
|104>    H        1.13826        13.00886        -0.17005
|105>    H        1.21437        12.82303         2.06908
|106>    H        0.54323        17.75793         3.13343
|107>    H        1.25941        13.83703         7.89851
|108>    H        1.00544        16.28247         8.69629
|109>    H        1.35997        11.69486         3.90320
|110>    H        1.09864        11.96086         6.93431
|111>    H        1.33305         9.59602         4.98730
|112>    H        1.03262         8.78402        11.25352
|113>    H        0.09718         5.25977         7.87074
|114> *
|115>
|116>                          ****END OF INPUT****

CARTESIAN COORDINATES (ANGSTROEM)
---------------------------------
  C     -0.788670   -1.468840    2.433380
  C     -0.785880   -0.892590    3.665980
  C     -0.834800    0.512240    3.576140
  C     -0.878500    0.962960    2.247720
  S     -0.857640   -0.326410    1.128880
  C     -0.930630    2.382710    2.248030
  C     -0.906330    2.823000    3.579770
  C     -0.885020    1.657070    4.457720
  C     -0.983980    1.670380    5.820940
  C     -1.165760    2.878450    6.518320
  N     -1.356070    3.876390    7.053170
  C     -0.966570    0.490580    6.592300
  N     -0.947610   -0.471020    7.216310
  C     -0.903410    4.208130    3.703780
  C     -0.967870    4.846450    2.473550
  S     -0.991720    3.685020    1.143790
  C     -0.997400    6.228040    2.183820
  S     -0.715140    6.747200    0.554740
  C     -0.829160    8.431070    0.965440
  C     -1.097480    8.579600    2.341190
  C     -1.214700    7.333760    3.028980
  C     -1.560040    7.338490    4.391070
  C     -1.724650    8.526560    5.052000
  S     -2.139610    8.564010    6.776900
  C     -1.566050    9.769340    4.383820
  O     -1.723230   10.950200    5.022020
  C     -1.267770    9.782430    3.042460
  C     -0.652030    9.446930    0.016840
  C     -0.445870    9.251070   -1.319550
  C     -0.187700   10.269200   -2.270300
  C     -0.053230   11.608020   -1.957500
  C      0.300900   12.614020   -2.843720
  C      0.372360   12.356520   -4.286620
  C      0.255790   11.126080   -4.834830
  S      0.020720    9.693120   -3.919770
  C      0.575310   13.629950   -4.886950
  C      0.654620   14.611600   -3.897700
  C      0.874870   15.896880   -4.438960
  C      0.950860   15.859960   -5.795120
  S      0.767440   14.275240   -6.468660
  C      0.524360   13.992800   -2.605230
  C      0.640380   14.666680   -1.373190
  C      0.895850   14.060950   -0.176500
  C      0.898630   14.662140    1.102100
  C      1.060770   13.880750    2.236970
  C      1.023940   14.343490    3.539340
  C      0.847380   15.763220    3.835680
  C      0.677710   16.715880    2.891370
  S      0.635300   16.392790    1.206590
  C      0.882280   15.858020    5.254610
  C      1.044170   14.592790    5.822430
  C      1.107030   14.664170    7.231780
  C      0.987700   15.941860    7.679570
  S      0.793700   17.112320    6.423480
  C      1.122300   13.615480    4.759260
  C      1.248310   12.228780    4.839000
  C      1.241120   11.469050    5.987270
  C      1.349540   10.082440    5.957890
  C      1.350810    9.217280    7.036930
  C      0.993960    7.804380    6.847630
  O      0.866950    7.200250    5.797340
  C      0.757290    7.273820    8.212770
  C      1.034800    8.280800    9.154030
  C      1.524750    9.463070    8.440770
  C      2.211460   10.496740    9.035320
  C      2.959670   11.467280    8.341330
  N      3.625460   12.264790    7.850590
  C      2.345290   10.653470   10.428110
  N      2.468150   10.851750   11.553180
  C      0.845690    8.034900   10.501290
  C      0.387690    6.780030   10.890840
  C      0.129230    5.782400    9.953500
  C      0.313720    6.027880    8.597980
  Br    -0.479050    4.075080   10.503640
  Br     0.115130    6.450860   12.735140
  H     -0.754080   -2.512970    2.195260
  H     -0.747280   -1.447440    4.585600
  H     -0.788700    4.730150    4.632540
  H     -1.721150    6.413800    4.916540
  H     -2.131580    7.248130    6.949960
  H     -1.929410   10.806900    5.954890
  H     -1.180170   10.738040    2.552080
  H     -0.689840   10.451210    0.413100
  H     -0.453300    8.235420   -1.694080
  H     -0.260520   11.883810   -0.936630
  H      0.323570   10.954600   -5.897420
  H      0.969870   16.799860   -3.863720
  H      1.108150   16.681300   -6.466650
  H      0.541360   15.745040   -1.400410
  H      1.138260   13.008860   -0.170050
  H      1.214370   12.823030    2.069080
  H      0.543230   17.757930    3.133430
  H      1.259410   13.837030    7.898510
  H      1.005440   16.282470    8.696290
  H      1.359970   11.694860    3.903200
  H      1.098640   11.960860    6.934310
  H      1.333050    9.596020    4.987300
  H      1.032620    8.784020   11.253520
  H      0.097180    5.259770    7.870740

 Total Charge           Charge          ....    0
 Multiplicity           Mult            ....    1
 Number of Electrons    NEL             ....  620
 Basis Dimension        Dim             .... 1238

ORBITAL ENERGIES
----------------

  NO   OCC          E(Eh)            E(eV)
   0   2.0000    -482.857987    -13139.2338
   1   2.0000    -482.857603    -13139.2234
   2   2.0000     -88.989755     -2421.5343
   3   2.0000     -88.989077     -2421.5159
   4   2.0000     -88.982970     -2421.3497
   5   2.0000     -88.980713     -2421.2883
   6   2.0000     -88.973778     -2421.0996
   7   2.0000     -88.959303     -2420.7057
   8   2.0000     -88.954524     -2420.5757
   9   2.0000     -88.945820     -2420.3388
  10   2.0000     -62.535571     -1701.6794
  11   2.0000     -62.535067     -1701.6657
  12   2.0000     -56.369504     -1533.8922
  13   2.0000     -56.369008     -1533.8787
  14   2.0000     -56.366899     -1533.8213
  15   2.0000     -56.366771     -1533.8178
  16   2.0000     -56.366400     -1533.8077
  17   2.0000     -56.366242     -1533.8034
  18   2.0000     -19.258245      -524.0435
  19   2.0000     -19.199434      -522.4432
  20   2.0000     -14.437420      -392.8622
  21   2.0000     -14.429837      -392.6558
  22   2.0000     -14.396358      -391.7448
  23   2.0000     -14.395059      -391.7095
  24   2.0000     -10.364412      -282.0300
  25   2.0000     -10.353546      -281.7343
  26   2.0000     -10.350159      -281.6422
  27   2.0000     -10.348360      -281.5932
  28   2.0000     -10.340053      -281.3672
  29   2.0000     -10.333174      -281.1800
  30   2.0000     -10.332776      -281.1691
  31   2.0000     -10.332020      -281.1485
  32   2.0000     -10.331600      -281.1371
  33   2.0000     -10.331293      -281.1288
  34   2.0000     -10.331253      -281.1277
  35   2.0000     -10.330309      -281.1020
  36   2.0000     -10.330189      -281.0987
  37   2.0000     -10.329879      -281.0903
  38   2.0000     -10.329459      -281.0789
  39   2.0000     -10.325742      -280.9777
  40   2.0000     -10.321166      -280.8532
  41   2.0000     -10.320513      -280.8354
  42   2.0000     -10.314794      -280.6798
  43   2.0000     -10.312222      -280.6098
  44   2.0000     -10.309963      -280.5484
  45   2.0000     -10.303492      -280.3723
  46   2.0000     -10.303382      -280.3693
  47   2.0000     -10.302156      -280.3359
  48   2.0000     -10.300940      -280.3028
  49   2.0000     -10.300354      -280.2869
  50   2.0000     -10.300351      -280.2868
  51   2.0000     -10.300266      -280.2845
  52   2.0000     -10.299801      -280.2718
  53   2.0000     -10.299620      -280.2669
  54   2.0000     -10.298568      -280.2383
  55   2.0000     -10.298398      -280.2337
  56   2.0000     -10.297753      -280.2161
  57   2.0000     -10.295693      -280.1601
  58   2.0000     -10.295130      -280.1447
  59   2.0000     -10.295122      -280.1445
  60   2.0000     -10.294021      -280.1145
  61   2.0000     -10.293812      -280.1089
  62   2.0000     -10.292900      -280.0841
  63   2.0000     -10.292803      -280.0814
  64   2.0000     -10.292098      -280.0622
  65   2.0000     -10.291943      -280.0580
  66   2.0000     -10.291530      -280.0468
  67   2.0000     -10.289380      -279.9883
  68   2.0000     -10.289153      -279.9821
  69   2.0000     -10.288874      -279.9745
  70   2.0000     -10.286149      -279.9003
  71   2.0000     -10.284815      -279.8640
  72   2.0000     -10.283615      -279.8314
  73   2.0000     -10.280219      -279.7390
  74   2.0000     -10.278293      -279.6866
  75   2.0000     -10.277479      -279.6644
  76   2.0000     -10.277317      -279.6600
  77   2.0000     -10.275866      -279.6205
  78   2.0000     -10.275708      -279.6162
  79   2.0000     -10.274527      -279.5841
  80   2.0000     -10.268779      -279.4277
  81   2.0000     -10.267655      -279.3971
  82   2.0000     -10.264441      -279.3096
  83   2.0000      -8.764857      -238.5039
  84   2.0000      -8.764343      -238.4899
  85   2.0000      -8.084245      -219.9835
  86   2.0000      -8.083897      -219.9740
  87   2.0000      -8.078164      -219.8180
  88   2.0000      -8.076115      -219.7623
  89   2.0000      -8.069115      -219.5718
  90   2.0000      -8.054726      -219.1802
  91   2.0000      -8.049901      -219.0489
  92   2.0000      -8.040735      -218.7995
  93   2.0000      -6.600908      -179.6198
  94   2.0000      -6.600363      -179.6050
  95   2.0000      -6.587007      -179.2416
  96   2.0000      -6.586548      -179.2291
  97   2.0000      -6.586261      -179.2213
  98   2.0000      -6.585725      -179.2067
  99   2.0000      -6.053573      -164.7261
 100   2.0000      -6.053149      -164.7146
 101   2.0000      -6.049347      -164.6111
 102   2.0000      -6.048704      -164.5936
 103   2.0000      -6.047554      -164.5623
 104   2.0000      -6.046592      -164.5361
 105   2.0000      -6.046538      -164.5347
 106   2.0000      -6.045552      -164.5078
 107   2.0000      -6.043107      -164.4413
 108   2.0000      -6.041104      -164.3868
 109   2.0000      -6.040351      -164.3663
 110   2.0000      -6.038225      -164.3085
 111   2.0000      -6.038175      -164.3071
 112   2.0000      -6.034198      -164.1989
 113   2.0000      -6.031535      -164.1264
 114   2.0000      -6.024203      -163.9269
 115   2.0000      -6.019952      -163.8112
 116   2.0000      -6.019317      -163.7939
 117   2.0000      -6.016686      -163.7223
 118   2.0000      -6.015058      -163.6780
 119   2.0000      -6.012041      -163.5959
 120   2.0000      -6.011073      -163.5696
 121   2.0000      -6.006878      -163.4555
 122   2.0000      -6.001059      -163.2971
 123   2.0000      -2.716842       -73.9290
 124   2.0000      -2.716330       -73.9151
 125   2.0000      -2.713068       -73.8263
 126   2.0000      -2.712574       -73.8129
 127   2.0000      -2.712517       -73.8113
 128   2.0000      -2.711934       -73.7955
 129   2.0000      -2.701443       -73.5100
 130   2.0000      -2.701441       -73.5100
 131   2.0000      -2.700943       -73.4964
 132   2.0000      -2.700930       -73.4960
 133   2.0000      -1.156181       -31.4613
 134   2.0000      -1.111041       -30.2330
 135   2.0000      -1.044357       -28.4184
 136   2.0000      -1.025656       -27.9095
 137   2.0000      -1.011859       -27.5341
 138   2.0000      -1.010381       -27.4939
 139   2.0000      -1.009438       -27.4682
 140   2.0000      -1.008467       -27.4418
 141   2.0000      -1.001935       -27.2640
 142   2.0000      -0.990388       -26.9498
 143   2.0000      -0.986944       -26.8561
 144   2.0000      -0.977225       -26.5916
 145   2.0000      -0.976216       -26.5642
 146   2.0000      -0.974651       -26.5216
 147   2.0000      -0.958511       -26.0824
 148   2.0000      -0.954543       -25.9744
 149   2.0000      -0.948223       -25.8025
 150   2.0000      -0.937133       -25.5007
 151   2.0000      -0.931022       -25.3344
 152   2.0000      -0.920943       -25.0601
 153   2.0000      -0.912300       -24.8249
 154   2.0000      -0.906442       -24.6655
 155   2.0000      -0.900159       -24.4946
 156   2.0000      -0.895532       -24.3687
 157   2.0000      -0.889518       -24.2050
 158   2.0000      -0.888745       -24.1840
 159   2.0000      -0.882609       -24.0170
 160   2.0000      -0.869440       -23.6587
 161   2.0000      -0.865931       -23.5632
 162   2.0000      -0.864491       -23.5240
 163   2.0000      -0.853946       -23.2370
 164   2.0000      -0.845861       -23.0171
 165   2.0000      -0.844169       -22.9710
 166   2.0000      -0.841844       -22.9077
 167   2.0000      -0.831393       -22.6234
 168   2.0000      -0.830195       -22.5907
 169   2.0000      -0.819469       -22.2989
 170   2.0000      -0.811653       -22.0862
 171   2.0000      -0.807685       -21.9782
 172   2.0000      -0.804922       -21.9030
 173   2.0000      -0.789975       -21.4963
 174   2.0000      -0.779993       -21.2247
 175   2.0000      -0.776570       -21.1316
 176   2.0000      -0.765259       -20.8238
 177   2.0000      -0.754864       -20.5409
 178   2.0000      -0.745345       -20.2819
 179   2.0000      -0.742693       -20.2097
 180   2.0000      -0.733911       -19.9707
 181   2.0000      -0.720970       -19.6186
 182   2.0000      -0.719832       -19.5876
 183   2.0000      -0.716259       -19.4904
 184   2.0000      -0.706606       -19.2277
 185   2.0000      -0.702088       -19.1048
 186   2.0000      -0.692058       -18.8318
 187   2.0000      -0.683162       -18.5898
 188   2.0000      -0.678217       -18.4552
 189   2.0000      -0.676877       -18.4188
 190   2.0000      -0.671921       -18.2839
 191   2.0000      -0.663325       -18.0500
 192   2.0000      -0.658762       -17.9258
 193   2.0000      -0.654212       -17.8020
 194   2.0000      -0.652031       -17.7427
 195   2.0000      -0.646004       -17.5787
 196   2.0000      -0.637173       -17.3384
 197   2.0000      -0.636125       -17.3098
 198   2.0000      -0.627586       -17.0775
 199   2.0000      -0.623217       -16.9586
 200   2.0000      -0.620919       -16.8961
 201   2.0000      -0.618006       -16.8168
 202   2.0000      -0.614728       -16.7276
 203   2.0000      -0.607808       -16.5393
 204   2.0000      -0.599445       -16.3117
 205   2.0000      -0.593394       -16.1471
 206   2.0000      -0.590828       -16.0773
 207   2.0000      -0.583910       -15.8890
 208   2.0000      -0.580993       -15.8096
 209   2.0000      -0.577025       -15.7017
 210   2.0000      -0.576106       -15.6767
 211   2.0000      -0.570056       -15.5120
 212   2.0000      -0.563892       -15.3443
 213   2.0000      -0.561893       -15.2899
 214   2.0000      -0.557714       -15.1762
 215   2.0000      -0.552540       -15.0354
 216   2.0000      -0.548403       -14.9228
 217   2.0000      -0.546758       -14.8780
 218   2.0000      -0.545594       -14.8464
 219   2.0000      -0.539594       -14.6831
 220   2.0000      -0.534690       -14.5497
 221   2.0000      -0.530845       -14.4450
 222   2.0000      -0.528087       -14.3700
 223   2.0000      -0.526785       -14.3346
 224   2.0000      -0.522456       -14.2167
 225   2.0000      -0.518588       -14.1115
 226   2.0000      -0.517223       -14.0743
 227   2.0000      -0.514122       -13.9900
 228   2.0000      -0.513324       -13.9683
 229   2.0000      -0.512100       -13.9349
 230   2.0000      -0.510613       -13.8945
 231   2.0000      -0.510456       -13.8902
 232   2.0000      -0.509255       -13.8575
 233   2.0000      -0.505892       -13.7660
 234   2.0000      -0.502174       -13.6649
 235   2.0000      -0.501025       -13.6336
 236   2.0000      -0.496542       -13.5116
 237   2.0000      -0.493811       -13.4373
 238   2.0000      -0.493276       -13.4227
 239   2.0000      -0.490599       -13.3499
 240   2.0000      -0.485313       -13.2060
 241   2.0000      -0.480663       -13.0795
 242   2.0000      -0.478925       -13.0322
 243   2.0000      -0.477240       -12.9864
 244   2.0000      -0.476759       -12.9733
 245   2.0000      -0.473237       -12.8774
 246   2.0000      -0.471467       -12.8293
 247   2.0000      -0.470060       -12.7910
 248   2.0000      -0.469102       -12.7649
 249   2.0000      -0.468604       -12.7514
 250   2.0000      -0.466712       -12.6999
 251   2.0000      -0.462471       -12.5845
 252   2.0000      -0.459838       -12.5128
 253   2.0000      -0.458896       -12.4872
 254   2.0000      -0.453756       -12.3473
 255   2.0000      -0.452098       -12.3022
 256   2.0000      -0.448617       -12.2075
 257   2.0000      -0.447618       -12.1803
 258   2.0000      -0.445368       -12.1191
 259   2.0000      -0.443192       -12.0599
 260   2.0000      -0.441445       -12.0123
 261   2.0000      -0.439665       -11.9639
 262   2.0000      -0.438983       -11.9453
 263   2.0000      -0.437784       -11.9127
 264   2.0000      -0.436334       -11.8732
 265   2.0000      -0.433420       -11.7940
 266   2.0000      -0.431780       -11.7493
 267   2.0000      -0.430714       -11.7203
 268   2.0000      -0.429525       -11.6880
 269   2.0000      -0.428549       -11.6614
 270   2.0000      -0.427186       -11.6243
 271   2.0000      -0.424739       -11.5577
 272   2.0000      -0.423409       -11.5215
 273   2.0000      -0.421378       -11.4663
 274   2.0000      -0.419541       -11.4163
 275   2.0000      -0.415653       -11.3105
 276   2.0000      -0.414938       -11.2910
 277   2.0000      -0.414241       -11.2721
 278   2.0000      -0.410785       -11.1780
 279   2.0000      -0.408710       -11.1216
 280   2.0000      -0.408183       -11.1072
 281   2.0000      -0.405313       -11.0291
 282   2.0000      -0.401890       -10.9360
 283   2.0000      -0.399832       -10.8800
 284   2.0000      -0.395723       -10.7682
 285   2.0000      -0.391313       -10.6482
 286   2.0000      -0.382548       -10.4097
 287   2.0000      -0.379731       -10.3330
 288   2.0000      -0.370273       -10.0756
 289   2.0000      -0.368020       -10.0143
 290   2.0000      -0.359390        -9.7795
 291   2.0000      -0.355775        -9.6811
 292   2.0000      -0.353136        -9.6093
 293   2.0000      -0.347218        -9.4483
 294   2.0000      -0.337009        -9.1705
 295   2.0000      -0.330382        -8.9902
 296   2.0000      -0.328362        -8.9352
 297   2.0000      -0.327089        -8.9005
 298   2.0000      -0.323597        -8.8055
 299   2.0000      -0.321235        -8.7413
 300   2.0000      -0.317129        -8.6295
 301   2.0000      -0.300881        -8.1874
 302   2.0000      -0.295429        -8.0390
 303   2.0000      -0.291416        -7.9298
 304   2.0000      -0.286870        -7.8061
 305   2.0000      -0.285523        -7.7695
 306   2.0000      -0.277632        -7.5547
 307   2.0000      -0.255889        -6.9631
 308   2.0000      -0.229657        -6.2493
 309   2.0000      -0.212707        -5.7880
 310   0.0000      -0.108398        -2.9496
 311   0.0000      -0.094407        -2.5689
 312   0.0000      -0.073850        -2.0096
 313   0.0000      -0.054513        -1.4834
 314   0.0000      -0.046467        -1.2644

MULLIKEN ATOMIC CHARGES
-----------------------
   0 C :   -0.084082
   1 C :    0.040935
   2 C :   -0.034335
   3 C :   -0.116288
   4 S :    0.182419
   5 C :   -0.096317
   6 C :    0.007035
   7 C :    0.292472
   8 C :   -0.292965
   9 C :   -0.137920
  10 N :    0.133202
  11 C :   -0.186760
  12 N :    0.176241
  13 C :   -0.049847
  14 C :   -0.079113
  15 S :    0.177907
  16 C :   -0.084004
  17 S :    0.131082
  18 C :   -0.098336
  19 C :    0.146991
  20 C :    0.125825
  21 C :   -0.001941
  22 C :   -0.099063
  23 S :   -0.007121
  24 C :    0.133543
  25 O :   -0.161306
  26 C :   -0.132080
  27 C :    0.015865
  28 C :    0.013978
  29 C :   -0.069020
  30 C :   -0.053739
  31 C :    0.056269
  32 C :    0.065527
  33 C :   -0.136673
  34 S :    0.144202
  35 C :   -0.115694
  36 C :    0.059244
  37 C :    0.009649
  38 C :   -0.068039
  39 S :    0.127250
  40 C :    0.060681
  41 C :    0.000978
  42 C :   -0.057145
  43 C :   -0.009241
  44 C :   -0.070851
  45 C :    0.095779
  46 C :    0.064342
  47 C :   -0.123804
  48 S :    0.132658
  49 C :   -0.121981
  50 C :    0.065805
  51 C :    0.010699
  52 C :   -0.065409
  53 S :    0.128321
  54 C :    0.107648
  55 C :    0.001246
  56 C :   -0.002637
  57 C :    0.019550
  58 C :   -0.123376
  59 C :    0.153381
  60 O :   -0.175131
  61 C :    0.006517
  62 C :    0.020093
  63 C :    0.291380
  64 C :   -0.359873
  65 C :   -0.222222
  66 N :    0.161949
  67 C :   -0.180963
  68 N :    0.137613
  69 C :   -0.017442
  70 C :   -0.027878
  71 C :   -0.019164
  72 C :   -0.032264
  73 Br:    0.000556
  74 Br:    0.003601
  75 H :    0.037355
  76 H :    0.012663
  77 H :    0.017022
  78 H :   -0.045045
  79 H :    0.100937
  80 H :    0.188487
  81 H :   -0.036483
  82 H :   -0.012552
  83 H :   -0.013376
  84 H :   -0.029193
  85 H :    0.036902
  86 H :   -0.019579
  87 H :    0.027546
  88 H :   -0.009663
  89 H :   -0.007827
  90 H :   -0.024667
  91 H :    0.039099
  92 H :   -0.005549
  93 H :    0.029121
  94 H :   -0.027696
  95 H :   -0.028022
  96 H :    0.003930
  97 H :    0.003587
  98 H :   -0.025403
Sum of atomic charges:   -0.0000000

LOEWDIN ATOMIC CHARGES
----------------------
   0 C :   -0.178554
   1 C :   -0.031894
   2 C :   -0.080984
   3 C :   -0.178634
   4 S :    0.477895
   5 C :   -0.184899
   6 C :   -0.068820
   7 C :    0.090411
   8 C :   -0.108992
   9 C :    0.009139
  10 N :   -0.044776
  11 C :   -0.018520
  12 N :   -0.030723
  13 C :   -0.027547
  14 C :   -0.175003
  15 S :    0.463661
  16 C :   -0.176583
  17 S :    0.455503
  18 C :   -0.189396
  19 C :   -0.025114
  20 C :   -0.044286
  21 C :   -0.015843
  22 C :   -0.170983
  23 S :    0.240319
  24 C :    0.044816
  25 O :   -0.032119
  26 C :   -0.068481
  27 C :   -0.017892
  28 C :   -0.075134
  29 C :   -0.153404
  30 C :   -0.032869
  31 C :    0.000446
  32 C :   -0.046797
  33 C :   -0.145701
  34 S :    0.459650
  35 C :   -0.209140
  36 C :   -0.036525
  37 C :   -0.065650
  38 C :   -0.162724
  39 S :    0.420421
  40 C :   -0.069226
  41 C :    0.001235
  42 C :   -0.081957
  43 C :   -0.138112
  44 C :   -0.038877
  45 C :    0.022015
  46 C :   -0.046531
  47 C :   -0.144174
  48 S :    0.468742
  49 C :   -0.205831
  50 C :   -0.028357
  51 C :   -0.055444
  52 C :   -0.160731
  53 S :    0.424949
  54 C :   -0.064907
  55 C :    0.053481
  56 C :   -0.061522
  57 C :    0.060199
  58 C :   -0.128182
  59 C :    0.074998
  60 O :   -0.170647
  61 C :   -0.048304
  62 C :   -0.008982
  63 C :    0.069393
  64 C :   -0.158400
  65 C :   -0.025256
  66 N :   -0.059926
  67 C :   -0.022175
  68 N :   -0.065825
  69 C :   -0.015754
  70 C :   -0.123538
  71 C :   -0.126710
  72 C :   -0.006553
  73 Br:    0.125837
  74 Br:    0.126954
  75 H :    0.027849
  76 H :    0.043119
  77 H :    0.038808
  78 H :    0.026839
  79 H :   -0.004551
  80 H :    0.078314
  81 H :    0.029337
  82 H :    0.032348
  83 H :    0.019228
  84 H :    0.032699
  85 H :    0.036483
  86 H :    0.029694
  87 H :    0.023798
  88 H :    0.023430
  89 H :    0.031885
  90 H :    0.033885
  91 H :    0.037350
  92 H :    0.032181
  93 H :    0.025825
  94 H :    0.029080
  95 H :    0.024512
  96 H :    0.038451
  97 H :    0.042453
  98 H :    0.030827

  Mayer bond orders larger than 0.100000
B(  0-C ,  1-C ) :   1.5517 B(  0-C ,  4-S ) :   1.1434 B(  0-C , 75-H ) :   0.9644
B(  1-C ,  2-C ) :   1.2740 B(  1-C , 76-H ) :   0.9968 B(  2-C ,  3-C ) :   1.4448
B(  2-C ,  7-C ) :   1.0271 B(  3-C ,  4-S ) :   1.1406 B(  3-C ,  5-C ) :   1.1934
B(  5-C ,  6-C ) :   1.4480 B(  5-C , 15-S ) :   1.1187 B(  6-C ,  7-C ) :   0.9886
B(  6-C , 13-C ) :   1.2992 B(  7-C ,  8-C ) :   1.7017 B(  8-C ,  9-C ) :   1.1472
B(  8-C , 11-C ) :   1.1219 B(  9-C , 10-N ) :   2.8908 B( 11-C , 12-N ) :   3.0068
B( 13-C , 14-C ) :   1.4493 B( 13-C , 77-H ) :   0.9846 B( 14-C , 15-S ) :   1.0941
B( 14-C , 16-C ) :   1.1706 B( 16-C , 17-S ) :   1.1544 B( 16-C , 18-C ) :   0.1094
B( 16-C , 20-C ) :   1.3581 B( 17-S , 18-C ) :   1.0951 B( 18-C , 19-C ) :   1.2894
B( 18-C , 27-C ) :   1.2538 B( 19-C , 20-C ) :   1.2175 B( 19-C , 26-C ) :   1.1822
B( 20-C , 21-C ) :   1.2209 B( 21-C , 22-C ) :   1.5269 B( 21-C , 78-H ) :   0.9730
B( 22-C , 23-S ) :   1.0217 B( 22-C , 24-C ) :   1.2051 B( 23-S , 79-H ) :   0.9453
B( 24-C , 25-O ) :   1.2665 B( 24-C , 26-C ) :   1.4953 B( 25-O , 80-H ) :   0.9426
B( 26-C , 81-H ) :   1.0002 B( 27-C , 28-C ) :   1.5978 B( 27-C , 82-H ) :   0.9577
B( 28-C , 29-C ) :   1.1464 B( 28-C , 83-H ) :   0.9654 B( 29-C , 30-C ) :   1.4870
B( 29-C , 34-S ) :   1.0698 B( 30-C , 31-C ) :   1.2869 B( 30-C , 84-H ) :   0.9588
B( 31-C , 32-C ) :   1.0664 B( 31-C , 40-C ) :   1.3260 B( 32-C , 33-C ) :   1.6009
B( 32-C , 35-C ) :   1.1763 B( 33-C , 34-S ) :   1.1411 B( 33-C , 85-H ) :   0.9409
B( 35-C , 36-C ) :   1.4435 B( 35-C , 39-S ) :   1.0708 B( 36-C , 37-C ) :   1.2240
B( 36-C , 40-C ) :   1.0962 B( 37-C , 38-C ) :   1.5807 B( 37-C , 86-H ) :   0.9983
B( 38-C , 39-S ) :   1.1581 B( 38-C , 87-H ) :   0.9668 B( 40-C , 41-C ) :   1.2271
B( 41-C , 42-C ) :   1.5399 B( 41-C , 88-H ) :   0.9516 B( 42-C , 43-C ) :   1.1952
B( 42-C , 89-H ) :   0.9787 B( 43-C , 44-C ) :   1.4305 B( 43-C , 48-S ) :   1.0754
B( 44-C , 45-C ) :   1.2887 B( 44-C , 90-H ) :   0.9762 B( 45-C , 46-C ) :   1.0740
B( 45-C , 54-C ) :   1.2693 B( 46-C , 47-C ) :   1.5925 B( 46-C , 49-C ) :   1.1689
B( 47-C , 48-S ) :   1.1403 B( 47-C , 91-H ) :   0.9406 B( 49-C , 50-C ) :   1.4595
B( 49-C , 53-S ) :   1.0821 B( 50-C , 51-C ) :   1.2270 B( 50-C , 54-C ) :   1.0577
B( 51-C , 52-C ) :   1.5830 B( 51-C , 92-H ) :   0.9966 B( 52-C , 53-S ) :   1.1543
B( 52-C , 93-H ) :   0.9641 B( 54-C , 55-C ) :   1.2604 B( 55-C , 56-C ) :   1.4503
B( 55-C , 94-H ) :   0.9679 B( 56-C , 57-C ) :   1.2738 B( 56-C , 95-H ) :   0.9704
B( 57-C , 58-C ) :   1.4345 B( 57-C , 96-H ) :   0.9520 B( 58-C , 59-C ) :   0.9966
B( 58-C , 63-C ) :   1.1045 B( 59-C , 60-O ) :   2.1669 B( 59-C , 61-C ) :   0.9209
B( 61-C , 62-C ) :   1.3216 B( 61-C , 72-C ) :   1.3780 B( 62-C , 63-C ) :   0.9942
B( 62-C , 69-C ) :   1.3791 B( 63-C , 64-C ) :   1.5867 B( 64-C , 65-C ) :   1.1759
B( 64-C , 67-C ) :   1.1343 B( 65-C , 66-N ) :   2.9853 B( 67-C , 68-N ) :   2.9751
B( 69-C , 70-C ) :   1.3516 B( 69-C , 97-H ) :   0.9819 B( 70-C , 71-C ) :   1.4396
B( 70-C , 74-Br) :   1.0448 B( 71-C , 72-C ) :   1.3474 B( 71-C , 73-Br) :   1.0367
B( 72-C , 98-H ) :   0.9953

-----------------------------------------------------------------------------
         ABSORPTION SPECTRUM VIA TRANSITION ELECTRIC DIPOLE MOMENTS
-----------------------------------------------------------------------------
State   Energy  Wavelength   fosc         T2         TX        TY        TZ
        (cm-1)    (nm)                  (au**2)     (au)      (au)      (au)
-----------------------------------------------------------------------------
   0    8874.3   1126.9   0.231283427   8.58000   0.73763   2.68801   0.90029
   1   10673.2    936.9   0.171462371   5.28872  -0.68389   0.30335  -2.17462
   2   13730.0    728.3   0.065655247   1.57425   0.06203  -0.88916   0.88306
   3   15975.5    626.0   1.371685050  28.26668   0.05635   3.56185  -3.94674
   4   16665.8    600.0   0.513186862  10.13734  -0.20725  -2.42792   2.04929
   5   19041.9    525.2   0.023100796   0.39938   0.01022   0.38039  -0.50456
   6   19389.3    515.7   0.004461715   0.07576   0.05255   0.24899  -0.10488
   7   19876.6    503.1   0.043822231   0.72582  -0.17734   0.02050   0.83304
   8   20596.4    485.5   0.010437658   0.16683   0.22682  -0.33883  -0.02415
   9   21261.6    470.3   0.060568348   0.93783   0.00035  -0.95498   0.16079
  10   23006.7    434.7   0.248715899   3.55898  -0.21058   1.45006  -1.18826
  11   23468.0    426.1   0.114021391   1.59950  -0.19619   1.21682   0.28349
  12   23704.2    421.9   0.038188102   0.53037   0.42602   0.45728  -0.37386
  13   23929.3    417.9   0.119779118   1.64789  -0.07154  -0.87503  -0.93653
  14   24104.4    414.9   0.026907038   0.36749   0.10657  -0.27052  -0.53193
  15   24794.1    403.3   0.117435604   1.55929   0.02047   1.15113  -0.48349
  16   25565.3    391.2   0.023735511   0.30565  -0.14375  -0.00973  -0.53375
  17   25775.6    388.0   0.322962565   4.12496   0.03987  -1.85064  -0.83576
  18   26266.7    380.7   0.032128591   0.40268  -0.05627   0.09543  -0.62483
  19   26902.9    371.7   0.048000624   0.58739   0.18770   0.35596  -0.65227
  20   27105.0    368.9   0.131011065   1.59123   0.15654   0.89072   0.87940
  21   27858.1    359.0   0.032220353   0.38076   0.18460   0.48478   0.33417
  22   28117.0    355.7   0.048739600   0.57067   0.09211   0.67161   0.33335
  23   28726.5    348.1   0.005562038   0.06374   0.05948  -0.24497   0.01395
  24   28814.9    347.0   0.079091887   0.90363  -0.26549   0.38584  -0.82721
  25   29276.7    341.6   0.167715074   1.88593  -0.15128   0.54039   1.25341
  26   29642.7    337.4   0.061660394   0.68480   0.23013   0.66320  -0.43819
  27   30104.5    332.2   0.060601017   0.66271   0.39212   0.55837  -0.44404
  28   30218.5    330.9   0.279276389   3.04255  -0.30132   0.34809   1.68243
  29   30313.6    329.9   0.088687926   0.96317   0.10998  -0.09403  -0.97069
  30   30579.3    327.0   0.040639775   0.43752   0.13388   0.64654   0.03976
  31   30852.0    324.1   0.040676431   0.43405  -0.07554  -0.64741  -0.09593
  32   31293.2    319.6   0.420558873   4.42438   0.11210   0.14726   2.09526
  33   31539.7    317.1   0.011902185   0.12424  -0.16616  -0.12002  -0.28674
  34   31827.5    314.2   0.195483907   2.02201   0.00678  -0.70875   1.23274
  35   31922.5    313.3   0.263404815   2.71645  -0.08677   0.29162   1.61984
  36   32117.0    311.4   0.010351163   0.10610  -0.02833   0.28827  -0.14901
  37   32266.6    309.9   0.039274104   0.40071   0.15248   0.59881   0.13743
  38   32476.6    307.9   0.046602689   0.47241  -0.14180  -0.42188  -0.52375
  39   32725.2    305.6   0.109901367   1.10560   0.05911   0.91861   0.50820
  40   32830.4    304.6   0.152416528   1.52838  -0.32886   0.70862   0.95817
  41   32927.4    303.7   0.143193521   1.43167   0.07160  -1.16685   0.25496
  42   33206.9    301.1   0.068056932   0.67471   0.13036   0.49517   0.64228
  43   33272.6    300.5   0.092927133   0.91946  -0.55067  -0.71613  -0.32153
  44   33578.1    297.8   0.201427591   1.97487   0.14598  -1.35560  -0.34047
  45   33894.1    295.0   0.045526063   0.44219  -0.15752  -0.02605   0.64552
  46   33966.8    294.4   0.161009202   1.56053  -0.53138  -0.80908   0.78965
  47   34178.1    292.6   0.094017592   0.90560   0.04812   0.94957   0.03995
  48   34383.3    290.8   0.091977257   0.88066  -0.21003  -0.76165  -0.50639
  49   34555.7    289.4   0.144690384   1.37846   0.24543   0.21674  -1.12750
  50   35031.4    285.5   0.024287988   0.22825   0.17320   0.41754  -0.15463
  51   35186.9    284.2   0.019665334   0.18399  -0.10843  -0.40434   0.09348
  52   35320.3    283.1   0.038605531   0.35983  -0.18220  -0.57091   0.02646
  53   35527.0    281.5   0.268856478   2.49137  -0.28512  -1.21058   0.97189
  54   35651.1    280.5   0.298391796   2.75543  -0.37841  -0.77539  -1.41810
  55   35918.1    278.4   0.110175943   1.00983   0.26170   0.96896  -0.04969
  56   36059.4    277.3   0.020350809   0.18580  -0.28287  -0.10629   0.30738
  57   36390.0    274.8   0.105157057   0.95133   0.26175   0.41561   0.84267
  58   36445.5    274.4   0.111593147   1.00802  -0.23454  -0.55670   0.80193
  59   36606.2    273.2   0.080019569   0.71964   0.25903   0.26752   0.76222
  60   36827.2    271.5   0.053152487   0.47515  -0.16612  -0.05779   0.66649
  61   37016.1    270.2   0.058006353   0.51589  -0.06338  -0.64620  -0.30708
  62   37128.2    269.3   0.014652639   0.12992   0.03158  -0.18065  -0.31031
  63   37228.6    268.6   0.115539541   1.02171  -0.04316  -0.56694  -0.83572
  64   37662.1    265.5   0.012582467   0.10999  -0.08569  -0.31765   0.04171
  65   37896.6    263.9   0.042129792   0.36599  -0.02568   0.59401   0.11172
  66   38006.1    263.1   0.130605258   1.13131   0.14803   0.07688  -1.05047
  67   38342.5    260.8   0.128111199   1.09997   0.05264  -0.92419   0.49303
  68   38685.0    258.5   0.091665089   0.78008   0.01846   0.06473   0.88065
  69   38766.0    258.0   0.059320202   0.50376   0.03529  -0.34123   0.62135
  70   38975.1    256.6   0.009516315   0.08038   0.04435   0.10888  -0.25799
  71   39016.1    256.3   0.000079467   0.00067   0.02232   0.00195  -0.01299
  72   39147.6    255.4   0.003516022   0.02957  -0.13435   0.05680  -0.09106
  73   39223.3    255.0   0.096587792   0.81069  -0.03920  -0.63938  -0.63273
  74   39597.3    252.5   0.080302650   0.66764   0.05438   0.68804  -0.43736
  75   39790.8    251.3   0.006360234   0.05262   0.00391  -0.20834   0.09592
  76   40037.0    249.8   0.032475318   0.26703  -0.02588   0.37955  -0.34972
  77   40214.8    248.7   0.008163666   0.06683   0.08003   0.24508  -0.01896

FINAL SINGLE POINT ENERGY    -10961.138384822532

DIPOLE MOMENT
-------------
                                X             Y             Z
Electronic contribution:     -7.18026     -99.81606     161.50906
Nuclear contribution   :      5.45454      99.99582    -167.17284
                        -----------------------------------------
Total Dipole Moment    :     -1.72572       0.17976      -5.66378
                        -----------------------------------------
Magnitude (a.u.)       :      5.92358
Magnitude (Debye)      :     15.05655

Rotational constants in cm-1:     0.000741     0.000402     0.000268
Rotational constants in MHz :    22.206787    12.059693     8.032681

                             ****ORCA TERMINATED NORMALLY****
TOTAL RUN TIME: 0 days 0 hours 13 minutes 39 seconds 474 msec
