                         Program Version 4.2.0 -  RELEASE  -
|  1> # ORCA input file
|  2> # SCF done       -187.845693160991          0.000596091441
|  3> ! CAM-B3LYP def2-SVP def2/J RIJCOSX Grid4 TightSCF
|  4> %maxcore 5000
|  5> %tddft
|  6>     Mode sTDDFT
|  7>     Ethresh 5.0
|  8>     maxcore 5000
|  9> end
| 10>
| 11> %pal
| 12>   nprocs 6
| 13>   end
| 14> * xyz 0 1
| 15>    C        2.57829         4.39144        10.70751
| 16>    C        2.08853         5.65995        10.76672
| 17>    C        1.74648         6.13815         9.48662
| 18>    C        1.99337         5.19597         8.48158
| 19>    S        2.63807         3.74230         9.10081
| 20>    C        1.60999         5.75628         7.22946
| 21>    C        1.12969         7.05248         7.45034
| 22>    C        1.19653         7.33586         8.88009
| 23>    C        0.80913         8.48302         9.50813
| 24>    C        0.28301         9.58612         8.80367
| 25>    N       -0.14380        10.48692         8.23694
| 26>    C        0.90365         8.64242        10.90653
| 27>    N        0.97561         8.77615        12.04323
| 28>    C        0.71292         7.68364         6.27874
| 29>    C        0.86814         6.87997         5.16165
| 30>    S        1.55011         5.31609         5.58311
| 31>    C        0.49249         7.22881         3.83430
| 32>    C        0.57714         6.51758         2.64347
| 33>    C        1.13547         5.13978         2.47616
| 34>    C        0.06779         4.07886         2.75153
| 35>    C        0.02322         7.21912         1.56763
| 36>    C       -0.47361         8.46463         1.88810
| 37>    S       -0.24272         8.78919         3.57877
| 38>    C       -1.13038         9.42230         1.06679
| 39>    C       -1.56073         9.15968        -0.18541
| 40>    C       -2.29269        10.07643        -1.01471
| 41>    C       -2.06065        11.46245        -1.07403
| 42>    C       -0.96526        12.27958        -0.48639
| 43>    O       -0.04546        11.93603         0.21141
| 44>    N       -1.17462        13.58388        -0.94785
| 45>    C       -2.29631        13.67981        -1.77737
| 46>    O       -2.69019        14.69213        -2.29310
| 47>    C       -2.83208        12.30495        -1.87829
| 48>    C       -3.87113        11.84993        -2.66781
| 49>    C       -4.08703        10.47805        -2.65260
| 50>    C       -3.32463         9.61136        -1.86909
| 51>    C       -3.71553         8.20040        -2.00157
| 52>    O       -3.26039         7.23541        -1.45922
| 53>    S       -5.07589         8.06759        -3.18046
| 54>    C       -5.13309         9.83377        -3.47008
| 55>    O       -5.90501        10.36149        -4.21241
| 56>    C       -0.37449        14.70182        -0.73459
| 57>    C        0.73662        14.75140         0.01327
| 58>    C        1.54912        15.92265         0.12490
| 59>    S        2.98963        15.87229         1.10058
| 60>    C        3.39953        17.50531         0.66649
| 61>    C        2.44854        18.03908        -0.17746
| 62>    C        1.41308        17.15520        -0.47738
| 63>    C        4.59143        18.12208         1.13092
| 64>    C        5.51530        17.64079         2.03335
| 65>    C        6.59559        18.49938         2.23448
| 66>    C        6.52587        19.65517         1.48323
| 67>    S        5.07574        19.67886         0.52131
| 68>    C        7.46918        20.71568         1.40977
| 69>    S        7.27390        22.01860         0.27781
| 70>    C        8.76890        22.75500         0.78240
| 71>    C        9.35717        22.01076         1.78688
| 72>    C        8.63405        20.87315         2.13670
| 73>    C        9.21036        23.94167         0.13670
| 74>    C       10.36599        24.59224         0.39559
| 75>    C       10.79809        25.75715        -0.29953
| 76>    C       11.96189        26.44663        -0.09982
| 77>    C       12.12897        27.55583        -0.96556
| 78>    C       11.03197        27.70166        -1.85504
| 79>    S        9.83346        26.46607        -1.58789
| 80>    C       10.96961        28.70484        -2.79678
| 81>    C       12.03367        29.60061        -2.86578
| 82>    C       13.12959        29.45678        -1.97723
| 83>    C       13.19257        28.45490        -1.03361
| 84>    S       14.33034        30.69074        -2.25932
| 85>    C       13.37024        31.36517        -3.53454
| 86>    C       12.21090        30.70954        -3.74482
| 87>    H        2.91583         3.77799        11.51859
| 88>    H        1.97963         6.21576        11.67993
| 89>    H        0.30820         8.67807         6.22285
| 90>    H        1.98918         4.98800         3.13910
| 91>    H        1.48717         5.03156         1.44841
| 92>    H       -0.31152         4.16560         3.76682
| 93>    H        0.48604         3.08407         2.62332
| 94>    H       -0.76539         4.19868         2.06314
| 95>    H       -0.00641         6.81781         0.57077
| 96>    H       -1.33030        10.37961         1.52529
| 97>    H       -1.44863         8.16126        -0.57994
| 98>    H       -4.46472        12.50999        -3.27903
| 99>    H       -0.74931        15.56086        -1.27361
|100>    H        1.07526        13.87651         0.54681
|101>    H        2.51797        19.04194        -0.56071
|102>    H        0.59245        17.40810        -1.12318
|103>    H        5.39943        16.69064         2.52421
|104>    H        7.41159        18.28207         2.89915
|105>    H       10.28737        22.28431         2.25087
|106>    H        8.94519        20.18020         2.89726
|107>    H        8.55853        24.33035        -0.63561
|108>    H       11.03887        24.23156         1.16123
|109>    H       12.68693        26.16850         0.64471
|110>    H       10.12678        28.79674        -3.46351
|111>    H       14.03573        28.36235        -0.36751
|112>    H       13.74578        32.22584        -4.05310
|113>    H       11.49149        30.98676        -4.49442
|114> *
|115>
|116>                          ****END OF INPUT****

CARTESIAN COORDINATES (ANGSTROEM)
---------------------------------
  C      2.578290    4.391440   10.707510
  C      2.088530    5.659950   10.766720
  C      1.746480    6.138150    9.486620
  C      1.993370    5.195970    8.481580
  S      2.638070    3.742300    9.100810
  C      1.609990    5.756280    7.229460
  C      1.129690    7.052480    7.450340
  C      1.196530    7.335860    8.880090
  C      0.809130    8.483020    9.508130
  C      0.283010    9.586120    8.803670
  N     -0.143800   10.486920    8.236940
  C      0.903650    8.642420   10.906530
  N      0.975610    8.776150   12.043230
  C      0.712920    7.683640    6.278740
  C      0.868140    6.879970    5.161650
  S      1.550110    5.316090    5.583110
  C      0.492490    7.228810    3.834300
  C      0.577140    6.517580    2.643470
  C      1.135470    5.139780    2.476160
  C      0.067790    4.078860    2.751530
  C      0.023220    7.219120    1.567630
  C     -0.473610    8.464630    1.888100
  S     -0.242720    8.789190    3.578770
  C     -1.130380    9.422300    1.066790
  C     -1.560730    9.159680   -0.185410
  C     -2.292690   10.076430   -1.014710
  C     -2.060650   11.462450   -1.074030
  C     -0.965260   12.279580   -0.486390
  O     -0.045460   11.936030    0.211410
  N     -1.174620   13.583880   -0.947850
  C     -2.296310   13.679810   -1.777370
  O     -2.690190   14.692130   -2.293100
  C     -2.832080   12.304950   -1.878290
  C     -3.871130   11.849930   -2.667810
  C     -4.087030   10.478050   -2.652600
  C     -3.324630    9.611360   -1.869090
  C     -3.715530    8.200400   -2.001570
  O     -3.260390    7.235410   -1.459220
  S     -5.075890    8.067590   -3.180460
  C     -5.133090    9.833770   -3.470080
  O     -5.905010   10.361490   -4.212410
  C     -0.374490   14.701820   -0.734590
  C      0.736620   14.751400    0.013270
  C      1.549120   15.922650    0.124900
  S      2.989630   15.872290    1.100580
  C      3.399530   17.505310    0.666490
  C      2.448540   18.039080   -0.177460
  C      1.413080   17.155200   -0.477380
  C      4.591430   18.122080    1.130920
  C      5.515300   17.640790    2.033350
  C      6.595590   18.499380    2.234480
  C      6.525870   19.655170    1.483230
  S      5.075740   19.678860    0.521310
  C      7.469180   20.715680    1.409770
  S      7.273900   22.018600    0.277810
  C      8.768900   22.755000    0.782400
  C      9.357170   22.010760    1.786880
  C      8.634050   20.873150    2.136700
  C      9.210360   23.941670    0.136700
  C     10.365990   24.592240    0.395590
  C     10.798090   25.757150   -0.299530
  C     11.961890   26.446630   -0.099820
  C     12.128970   27.555830   -0.965560
  C     11.031970   27.701660   -1.855040
  S      9.833460   26.466070   -1.587890
  C     10.969610   28.704840   -2.796780
  C     12.033670   29.600610   -2.865780
  C     13.129590   29.456780   -1.977230
  C     13.192570   28.454900   -1.033610
  S     14.330340   30.690740   -2.259320
  C     13.370240   31.365170   -3.534540
  C     12.210900   30.709540   -3.744820
  H      2.915830    3.777990   11.518590
  H      1.979630    6.215760   11.679930
  H      0.308200    8.678070    6.222850
  H      1.989180    4.988000    3.139100
  H      1.487170    5.031560    1.448410
  H     -0.311520    4.165600    3.766820
  H      0.486040    3.084070    2.623320
  H     -0.765390    4.198680    2.063140
  H     -0.006410    6.817810    0.570770
  H     -1.330300   10.379610    1.525290
  H     -1.448630    8.161260   -0.579940
  H     -4.464720   12.509990   -3.279030
  H     -0.749310   15.560860   -1.273610
  H      1.075260   13.876510    0.546810
  H      2.517970   19.041940   -0.560710
  H      0.592450   17.408100   -1.123180
  H      5.399430   16.690640    2.524210
  H      7.411590   18.282070    2.899150
  H     10.287370   22.284310    2.250870
  H      8.945190   20.180200    2.897260
  H      8.558530   24.330350   -0.635610
  H     11.038870   24.231560    1.161230
  H     12.686930   26.168500    0.644710
  H     10.126780   28.796740   -3.463510
  H     14.035730   28.362350   -0.367510
  H     13.745780   32.225840   -4.053100
  H     11.491490   30.986760   -4.494420

 Total Charge           Charge          ....    0
 Multiplicity           Mult            ....    1
 Number of Electrons    NEL             ....  560
 Basis Dimension        Dim             .... 1179

ORBITAL ENERGIES
----------------

  NO   OCC          E(Eh)            E(eV)
   0   2.0000     -88.989274     -2421.5212
   1   2.0000     -88.985021     -2421.4055
   2   2.0000     -88.962216     -2420.7850
   3   2.0000     -88.952573     -2420.5226
   4   2.0000     -88.952548     -2420.5219
   5   2.0000     -88.951973     -2420.5062
   6   2.0000     -88.951815     -2420.5019
   7   2.0000     -88.938884     -2420.1501
   8   2.0000     -88.937512     -2420.1127
   9   2.0000     -19.246734      -523.7303
  10   2.0000     -19.244955      -523.6818
  11   2.0000     -19.235652      -523.4287
  12   2.0000     -19.234023      -523.3844
  13   2.0000     -14.485063      -394.1586
  14   2.0000     -14.426649      -392.5691
  15   2.0000     -14.426437      -392.5633
  16   2.0000     -10.416450      -283.4460
  17   2.0000     -10.412909      -283.3497
  18   2.0000     -10.409152      -283.2474
  19   2.0000     -10.406115      -283.1648
  20   2.0000     -10.360196      -281.9153
  21   2.0000     -10.348083      -281.5857
  22   2.0000     -10.337301      -281.2923
  23   2.0000     -10.327674      -281.0303
  24   2.0000     -10.327312      -281.0204
  25   2.0000     -10.327141      -281.0158
  26   2.0000     -10.326918      -281.0097
  27   2.0000     -10.326082      -280.9870
  28   2.0000     -10.326055      -280.9862
  29   2.0000     -10.325160      -280.9619
  30   2.0000     -10.325032      -280.9584
  31   2.0000     -10.324056      -280.9318
  32   2.0000     -10.320697      -280.8405
  33   2.0000     -10.316844      -280.7356
  34   2.0000     -10.315971      -280.7118
  35   2.0000     -10.308649      -280.5126
  36   2.0000     -10.307398      -280.4786
  37   2.0000     -10.302810      -280.3537
  38   2.0000     -10.302310      -280.3401
  39   2.0000     -10.301860      -280.3279
  40   2.0000     -10.301141      -280.3083
  41   2.0000     -10.300872      -280.3010
  42   2.0000     -10.299108      -280.2530
  43   2.0000     -10.297556      -280.2107
  44   2.0000     -10.297390      -280.2062
  45   2.0000     -10.296637      -280.1857
  46   2.0000     -10.296352      -280.1780
  47   2.0000     -10.295765      -280.1620
  48   2.0000     -10.294847      -280.1370
  49   2.0000     -10.291389      -280.0429
  50   2.0000     -10.290261      -280.0122
  51   2.0000     -10.289488      -279.9912
  52   2.0000     -10.288633      -279.9679
  53   2.0000     -10.284300      -279.8500
  54   2.0000     -10.281192      -279.7654
  55   2.0000     -10.281145      -279.7642
  56   2.0000     -10.280871      -279.7567
  57   2.0000     -10.280238      -279.7395
  58   2.0000     -10.277899      -279.6758
  59   2.0000     -10.273851      -279.5657
  60   2.0000     -10.273219      -279.5485
  61   2.0000     -10.272950      -279.5412
  62   2.0000     -10.272310      -279.5238
  63   2.0000     -10.271123      -279.4915
  64   2.0000     -10.271025      -279.4888
  65   2.0000     -10.270498      -279.4744
  66   2.0000     -10.270167      -279.4655
  67   2.0000     -10.269916      -279.4586
  68   2.0000     -10.268827      -279.4290
  69   2.0000     -10.266879      -279.3760
  70   2.0000     -10.266014      -279.3525
  71   2.0000     -10.264667      -279.3158
  72   2.0000      -8.083080      -219.9518
  73   2.0000      -8.080052      -219.8694
  74   2.0000      -8.057748      -219.2625
  75   2.0000      -8.051741      -219.0990
  76   2.0000      -8.048251      -219.0040
  77   2.0000      -8.047862      -218.9935
  78   2.0000      -8.047461      -218.9826
  79   2.0000      -8.035209      -218.6492
  80   2.0000      -8.033482      -218.6022
  81   2.0000      -6.052446      -164.6954
  82   2.0000      -6.049290      -164.6096
  83   2.0000      -6.048083      -164.5767
  84   2.0000      -6.045505      -164.5066
  85   2.0000      -6.044881      -164.4896
  86   2.0000      -6.042668      -164.4293
  87   2.0000      -6.027057      -164.0045
  88   2.0000      -6.022963      -163.8932
  89   2.0000      -6.020608      -163.8291
  90   2.0000      -6.019766      -163.8062
  91   2.0000      -6.017621      -163.7478
  92   2.0000      -6.017350      -163.7404
  93   2.0000      -6.017073      -163.7329
  94   2.0000      -6.016728      -163.7235
  95   2.0000      -6.013517      -163.6361
  96   2.0000      -6.013027      -163.6228
  97   2.0000      -6.012799      -163.6166
  98   2.0000      -6.012700      -163.6139
  99   2.0000      -6.010171      -163.5451
 100   2.0000      -6.010035      -163.5414
 101   2.0000      -6.009541      -163.5279
 102   2.0000      -6.004858      -163.4005
 103   2.0000      -6.003063      -163.3517
 104   2.0000      -6.000657      -163.2862
 105   2.0000      -5.999197      -163.2465
 106   2.0000      -5.996561      -163.1747
 107   2.0000      -5.994647      -163.1226
 108   2.0000      -1.181855       -32.1599
 109   2.0000      -1.170316       -31.8459
 110   2.0000      -1.165870       -31.7249
 111   2.0000      -1.157934       -31.5090
 112   2.0000      -1.074122       -29.2283
 113   2.0000      -1.040016       -28.3003
 114   2.0000      -1.018333       -27.7102
 115   2.0000      -1.013203       -27.5707
 116   2.0000      -1.004359       -27.3300
 117   2.0000      -1.001706       -27.2578
 118   2.0000      -0.994166       -27.0526
 119   2.0000      -0.989027       -26.9128
 120   2.0000      -0.984139       -26.7798
 121   2.0000      -0.981163       -26.6988
 122   2.0000      -0.965464       -26.2716
 123   2.0000      -0.962734       -26.1973
 124   2.0000      -0.955076       -25.9889
 125   2.0000      -0.952639       -25.9226
 126   2.0000      -0.927840       -25.2478
 127   2.0000      -0.908026       -24.7086
 128   2.0000      -0.907179       -24.6856
 129   2.0000      -0.901595       -24.5337
 130   2.0000      -0.893652       -24.3175
 131   2.0000      -0.881855       -23.9965
 132   2.0000      -0.876728       -23.8570
 133   2.0000      -0.870496       -23.6874
 134   2.0000      -0.864347       -23.5201
 135   2.0000      -0.858834       -23.3701
 136   2.0000      -0.848847       -23.0983
 137   2.0000      -0.848296       -23.0833
 138   2.0000      -0.837162       -22.7803
 139   2.0000      -0.832805       -22.6618
 140   2.0000      -0.827361       -22.5136
 141   2.0000      -0.824622       -22.4391
 142   2.0000      -0.818992       -22.2859
 143   2.0000      -0.814786       -22.1714
 144   2.0000      -0.811217       -22.0743
 145   2.0000      -0.796626       -21.6773
 146   2.0000      -0.794853       -21.6291
 147   2.0000      -0.782649       -21.2970
 148   2.0000      -0.774888       -21.0858
 149   2.0000      -0.771902       -21.0045
 150   2.0000      -0.770180       -20.9577
 151   2.0000      -0.755348       -20.5541
 152   2.0000      -0.749779       -20.4025
 153   2.0000      -0.739640       -20.1266
 154   2.0000      -0.723179       -19.6787
 155   2.0000      -0.721089       -19.6218
 156   2.0000      -0.703840       -19.1525
 157   2.0000      -0.699835       -19.0435
 158   2.0000      -0.692423       -18.8418
 159   2.0000      -0.689431       -18.7604
 160   2.0000      -0.685177       -18.6446
 161   2.0000      -0.681052       -18.5324
 162   2.0000      -0.678058       -18.4509
 163   2.0000      -0.662848       -18.0370
 164   2.0000      -0.661066       -17.9885
 165   2.0000      -0.652131       -17.7454
 166   2.0000      -0.648487       -17.6462
 167   2.0000      -0.644886       -17.5483
 168   2.0000      -0.639310       -17.3965
 169   2.0000      -0.634732       -17.2719
 170   2.0000      -0.628653       -17.1065
 171   2.0000      -0.621513       -16.9122
 172   2.0000      -0.617683       -16.8080
 173   2.0000      -0.616682       -16.7808
 174   2.0000      -0.614405       -16.7188
 175   2.0000      -0.613007       -16.6808
 176   2.0000      -0.610734       -16.6189
 177   2.0000      -0.607355       -16.5270
 178   2.0000      -0.604836       -16.4584
 179   2.0000      -0.594455       -16.1759
 180   2.0000      -0.593144       -16.1403
 181   2.0000      -0.590176       -16.0595
 182   2.0000      -0.588305       -16.0086
 183   2.0000      -0.581054       -15.8113
 184   2.0000      -0.573888       -15.6163
 185   2.0000      -0.568355       -15.4657
 186   2.0000      -0.564470       -15.3600
 187   2.0000      -0.558675       -15.2023
 188   2.0000      -0.556123       -15.1329
 189   2.0000      -0.555584       -15.1182
 190   2.0000      -0.553371       -15.0580
 191   2.0000      -0.545374       -14.8404
 192   2.0000      -0.543366       -14.7857
 193   2.0000      -0.542423       -14.7601
 194   2.0000      -0.539190       -14.6721
 195   2.0000      -0.538857       -14.6630
 196   2.0000      -0.537256       -14.6195
 197   2.0000      -0.529249       -14.4016
 198   2.0000      -0.528675       -14.3860
 199   2.0000      -0.524537       -14.2734
 200   2.0000      -0.520483       -14.1631
 201   2.0000      -0.518351       -14.1051
 202   2.0000      -0.511309       -13.9134
 203   2.0000      -0.508448       -13.8356
 204   2.0000      -0.506121       -13.7722
 205   2.0000      -0.503260       -13.6944
 206   2.0000      -0.501873       -13.6567
 207   2.0000      -0.501444       -13.6450
 208   2.0000      -0.497730       -13.5439
 209   2.0000      -0.497501       -13.5377
 210   2.0000      -0.496154       -13.5010
 211   2.0000      -0.494966       -13.4687
 212   2.0000      -0.494005       -13.4425
 213   2.0000      -0.493649       -13.4329
 214   2.0000      -0.491198       -13.3662
 215   2.0000      -0.488533       -13.2937
 216   2.0000      -0.486273       -13.2322
 217   2.0000      -0.484806       -13.1922
 218   2.0000      -0.483343       -13.1524
 219   2.0000      -0.478903       -13.0316
 220   2.0000      -0.477098       -12.9825
 221   2.0000      -0.475365       -12.9353
 222   2.0000      -0.472706       -12.8630
 223   2.0000      -0.471679       -12.8350
 224   2.0000      -0.465424       -12.6648
 225   2.0000      -0.463180       -12.6038
 226   2.0000      -0.459187       -12.4951
 227   2.0000      -0.458550       -12.4778
 228   2.0000      -0.458042       -12.4639
 229   2.0000      -0.456158       -12.4127
 230   2.0000      -0.454514       -12.3680
 231   2.0000      -0.453924       -12.3519
 232   2.0000      -0.450789       -12.2666
 233   2.0000      -0.449152       -12.2220
 234   2.0000      -0.444476       -12.0948
 235   2.0000      -0.443613       -12.0713
 236   2.0000      -0.440718       -11.9926
 237   2.0000      -0.438772       -11.9396
 238   2.0000      -0.436987       -11.8910
 239   2.0000      -0.436749       -11.8846
 240   2.0000      -0.434555       -11.8248
 241   2.0000      -0.433426       -11.7941
 242   2.0000      -0.426984       -11.6188
 243   2.0000      -0.425716       -11.5843
 244   2.0000      -0.425560       -11.5801
 245   2.0000      -0.424137       -11.5414
 246   2.0000      -0.420769       -11.4497
 247   2.0000      -0.416884       -11.3440
 248   2.0000      -0.412590       -11.2271
 249   2.0000      -0.410638       -11.1740
 250   2.0000      -0.407514       -11.0890
 251   2.0000      -0.405043       -11.0218
 252   2.0000      -0.401980       -10.9384
 253   2.0000      -0.400001       -10.8846
 254   2.0000      -0.393683       -10.7127
 255   2.0000      -0.383572       -10.4375
 256   2.0000      -0.379931       -10.3384
 257   2.0000      -0.379573       -10.3287
 258   2.0000      -0.374599       -10.1934
 259   2.0000      -0.369502       -10.0547
 260   2.0000      -0.367463        -9.9992
 261   2.0000      -0.365776        -9.9533
 262   2.0000      -0.356035        -9.6882
 263   2.0000      -0.349491        -9.5101
 264   2.0000      -0.347297        -9.4504
 265   2.0000      -0.345530        -9.4023
 266   2.0000      -0.342804        -9.3282
 267   2.0000      -0.327885        -8.9222
 268   2.0000      -0.325235        -8.8501
 269   2.0000      -0.323957        -8.8153
 270   2.0000      -0.320637        -8.7250
 271   2.0000      -0.318173        -8.6579
 272   2.0000      -0.315408        -8.5827
 273   2.0000      -0.311574        -8.4784
 274   2.0000      -0.299989        -8.1631
 275   2.0000      -0.289248        -7.8709
 276   2.0000      -0.264765        -7.2046
 277   2.0000      -0.249790        -6.7971
 278   2.0000      -0.246990        -6.7209
 279   2.0000      -0.221747        -6.0340
 280   0.0000      -0.099366        -2.7039
 281   0.0000      -0.095791        -2.6066
 282   0.0000      -0.072791        -1.9807
 283   0.0000      -0.052733        -1.4349
 284   0.0000      -0.033450        -0.9102

MULLIKEN ATOMIC CHARGES
-----------------------
   0 C :   -0.082057
   1 C :    0.037689
   2 C :   -0.034957
   3 C :   -0.112660
   4 S :    0.177080
   5 C :   -0.104540
   6 C :    0.029305
   7 C :    0.298615
   8 C :   -0.301034
   9 C :   -0.188287
  10 N :    0.173369
  11 C :   -0.191498
  12 N :    0.172793
  13 C :   -0.072318
  14 C :   -0.049776
  15 S :    0.164104
  16 C :   -0.094977
  17 C :   -0.050981
  18 C :    0.046622
  19 C :    0.028316
  20 C :   -0.024815
  21 C :   -0.079709
  22 S :    0.136919
  23 C :    0.136545
  24 C :   -0.076171
  25 C :    0.064246
  26 C :   -0.049700
  27 C :    0.205009
  28 O :   -0.145761
  29 N :   -0.224675
  30 C :    0.191591
  31 O :   -0.134498
  32 C :    0.011302
  33 C :   -0.074605
  34 C :    0.046284
  35 C :    0.044509
  36 C :    0.031659
  37 O :   -0.132096
  38 S :    0.010045
  39 C :    0.049437
  40 O :   -0.117993
  41 C :    0.062892
  42 C :    0.061908
  43 C :   -0.088420
  44 S :    0.129340
  45 C :   -0.047168
  46 C :   -0.012249
  47 C :    0.015910
  48 C :   -0.029917
  49 C :   -0.011740
  50 C :   -0.004258
  51 C :   -0.029572
  52 S :    0.117270
  53 C :   -0.042856
  54 S :    0.124842
  55 C :   -0.077596
  56 C :    0.012272
  57 C :   -0.005214
  58 C :    0.059307
  59 C :    0.011545
  60 C :   -0.020524
  61 C :   -0.044284
  62 C :    0.119763
  63 C :   -0.044938
  64 S :    0.082572
  65 C :   -0.049505
  66 C :    0.086558
  67 C :   -0.069082
  68 C :   -0.054537
  69 S :    0.091412
  70 C :   -0.057242
  71 C :    0.024998
  72 H :    0.034537
  73 H :    0.011033
  74 H :    0.017666
  75 H :    0.017511
  76 H :    0.008083
  77 H :    0.014140
  78 H :    0.019290
  79 H :    0.017947
  80 H :   -0.016624
  81 H :   -0.006670
  82 H :    0.019006
  83 H :    0.018904
  84 H :    0.027268
  85 H :    0.014302
  86 H :   -0.012274
  87 H :   -0.018523
  88 H :   -0.014266
  89 H :   -0.021128
  90 H :   -0.020794
  91 H :   -0.022066
  92 H :   -0.006674
  93 H :   -0.016415
  94 H :   -0.028409
  95 H :   -0.033596
  96 H :   -0.033660
  97 H :    0.026541
  98 H :   -0.018949
Sum of atomic charges:   -0.0000000

LOEWDIN ATOMIC CHARGES
----------------------
   0 C :   -0.180140
   1 C :   -0.034000
   2 C :   -0.080005
   3 C :   -0.181476
   4 S :    0.473745
   5 C :   -0.190874
   6 C :   -0.067146
   7 C :    0.084061
   8 C :   -0.104401
   9 C :   -0.016909
  10 N :   -0.034353
  11 C :   -0.016605
  12 N :   -0.034471
  13 C :   -0.039578
  14 C :   -0.176994
  15 S :    0.495676
  16 C :   -0.184083
  17 C :   -0.051284
  18 C :   -0.038406
  19 C :   -0.050659
  20 C :   -0.038939
  21 C :   -0.171268
  22 S :    0.453454
  23 C :    0.014467
  24 C :   -0.044964
  25 C :    0.036596
  26 C :   -0.040637
  27 C :    0.102008
  28 O :   -0.129678
  29 N :   -0.010216
  30 C :    0.096006
  31 O :   -0.132225
  32 C :   -0.027959
  33 C :    0.031984
  34 C :   -0.050521
  35 C :   -0.062858
  36 C :   -0.038965
  37 O :   -0.115555
  38 S :    0.298453
  39 C :   -0.047789
  40 O :   -0.110992
  41 C :    0.022238
  42 C :   -0.055169
  43 C :   -0.171165
  44 S :    0.438106
  45 C :   -0.186223
  46 C :   -0.061265
  47 C :   -0.055097
  48 C :   -0.181225
  49 C :   -0.061720
  50 C :   -0.053675
  51 C :   -0.184490
  52 S :    0.427707
  53 C :   -0.185707
  54 S :    0.430062
  55 C :   -0.172681
  56 C :   -0.051784
  57 C :   -0.054241
  58 C :   -0.043350
  59 C :   -0.037016
  60 C :   -0.145999
  61 C :   -0.057352
  62 C :   -0.046354
  63 C :   -0.151732
  64 S :    0.380287
  65 C :   -0.038757
  66 C :   -0.047242
  67 C :   -0.157241
  68 C :   -0.037023
  69 S :    0.385138
  70 C :   -0.162006
  71 C :   -0.063165
  72 H :    0.026997
  73 H :    0.042286
  74 H :    0.034004
  75 H :    0.014477
  76 H :    0.033867
  77 H :    0.016111
  78 H :    0.025608
  79 H :    0.027553
  80 H :    0.031114
  81 H :    0.029755
  82 H :    0.032139
  83 H :    0.051365
  84 H :    0.032072
  85 H :    0.033306
  86 H :    0.026238
  87 H :    0.029294
  88 H :    0.027207
  89 H :    0.029067
  90 H :    0.028358
  91 H :    0.028770
  92 H :    0.022804
  93 H :    0.032228
  94 H :    0.028138
  95 H :    0.029673
  96 H :    0.029382
  97 H :    0.023781
  98 H :    0.030043

  Mayer bond orders larger than 0.100000
B(  0-C ,  1-C ) :   1.5525 B(  0-C ,  4-S ) :   1.1448 B(  0-C , 72-H ) :   0.9643
B(  1-C ,  2-C ) :   1.2734 B(  1-C , 73-H ) :   0.9966 B(  2-C ,  3-C ) :   1.4568
B(  2-C ,  7-C ) :   1.0188 B(  3-C ,  4-S ) :   1.1377 B(  3-C ,  5-C ) :   1.1749
B(  5-C ,  6-C ) :   1.4551 B(  5-C , 15-S ) :   1.1212 B(  6-C ,  7-C ) :   0.9902
B(  6-C , 13-C ) :   1.2993 B(  7-C ,  8-C ) :   1.7086 B(  8-C ,  9-C ) :   1.1353
B(  8-C , 11-C ) :   1.1304 B(  9-C , 10-N ) :   2.9909 B( 11-C , 12-N ) :   3.0030
B( 13-C , 14-C ) :   1.4516 B( 13-C , 74-H ) :   0.9843 B( 14-C , 15-S ) :   1.1089
B( 14-C , 16-C ) :   1.1516 B( 16-C , 17-C ) :   1.4922 B( 16-C , 22-S ) :   1.1402
B( 17-C , 18-C ) :   1.0678 B( 17-C , 20-C ) :   1.2833 B( 18-C , 19-C ) :   1.0987
B( 18-C , 75-H ) :   0.9182 B( 18-C , 76-H ) :   0.9182 B( 19-C , 77-H ) :   0.9682
B( 19-C , 78-H ) :   0.9680 B( 19-C , 79-H ) :   0.9667 B( 20-C , 21-C ) :   1.4869
B( 20-C , 80-H ) :   0.9927 B( 21-C , 22-S ) :   1.1085 B( 21-C , 23-C ) :   1.1363
B( 23-C , 24-C ) :   1.7048 B( 23-C , 81-H ) :   0.9531 B( 24-C , 25-C ) :   1.1206
B( 24-C , 82-H ) :   0.9396 B( 25-C , 26-C ) :   1.3390 B( 25-C , 35-C ) :   1.3358
B( 26-C , 27-C ) :   0.9026 B( 26-C , 32-C ) :   1.3852 B( 27-C , 28-O ) :   2.1507
B( 27-C , 29-N ) :   1.0423 B( 29-N , 30-C ) :   1.0319 B( 29-N , 41-C ) :   1.0103
B( 30-C , 31-O ) :   2.2305 B( 30-C , 32-C ) :   0.8744 B( 32-C , 33-C ) :   1.3395
B( 33-C , 34-C ) :   1.3309 B( 33-C , 83-H ) :   1.0292 B( 34-C , 35-C ) :   1.3464
B( 34-C , 39-C ) :   0.8393 B( 35-C , 36-C ) :   0.8672 B( 36-C , 37-O ) :   2.1531
B( 36-C , 38-S ) :   1.0275 B( 37-O , 38-S ) :   0.1028 B( 38-S , 39-C ) :   1.0263
B( 38-S , 40-O ) :   0.1085 B( 39-C , 40-O ) :   2.2235 B( 41-C , 42-C ) :   1.7478
B( 41-C , 84-H ) :   0.9680 B( 42-C , 43-C ) :   1.0859 B( 42-C , 85-H ) :   0.9547
B( 43-C , 44-S ) :   1.1212 B( 43-C , 45-C ) :   0.1003 B( 43-C , 47-C ) :   1.5205
B( 44-S , 45-C ) :   1.1298 B( 45-C , 46-C ) :   1.4969 B( 45-C , 48-C ) :   1.1495
B( 46-C , 47-C ) :   1.2772 B( 46-C , 86-H ) :   0.9912 B( 47-C , 87-H ) :   0.9901
B( 48-C , 49-C ) :   1.5051 B( 48-C , 51-C ) :   0.1072 B( 48-C , 52-S ) :   1.1226
B( 49-C , 50-C ) :   1.2632 B( 49-C , 88-H ) :   0.9936 B( 50-C , 51-C ) :   1.5277
B( 50-C , 89-H ) :   0.9956 B( 51-C , 52-S ) :   1.1134 B( 51-C , 53-C ) :   1.1114
B( 53-C , 54-S ) :   1.1276 B( 53-C , 55-C ) :   0.1068 B( 53-C , 57-C ) :   1.5075
B( 54-S , 55-C ) :   1.1148 B( 55-C , 56-C ) :   1.4963 B( 55-C , 58-C ) :   1.1199
B( 56-C , 57-C ) :   1.2818 B( 56-C , 90-H ) :   0.9924 B( 57-C , 91-H ) :   0.9961
B( 58-C , 59-C ) :   1.6820 B( 58-C , 92-H ) :   0.9560 B( 59-C , 60-C ) :   1.1550
B( 59-C , 93-H ) :   0.9789 B( 60-C , 61-C ) :   1.5472 B( 60-C , 64-S ) :   1.0602
B( 61-C , 62-C ) :   1.1352 B( 61-C , 94-H ) :   1.0064 B( 62-C , 63-C ) :   1.2842
B( 62-C , 68-C ) :   1.3293 B( 63-C , 64-S ) :   1.0373 B( 63-C , 65-C ) :   1.3957
B( 65-C , 66-C ) :   1.3296 B( 65-C , 68-C ) :   0.1025 B( 65-C , 95-H ) :   1.0003
B( 66-C , 67-C ) :   1.2909 B( 66-C , 71-C ) :   1.1586 B( 67-C , 68-C ) :   1.3862
B( 67-C , 69-S ) :   1.0523 B( 68-C , 96-H ) :   1.0020 B( 69-S , 70-C ) :   1.1120
B( 70-C , 71-C ) :   1.6468 B( 70-C , 97-H ) :   0.9683 B( 71-C , 98-H ) :   0.9981

-----------------------------------------------------------------------------
         ABSORPTION SPECTRUM VIA TRANSITION ELECTRIC DIPOLE MOMENTS
-----------------------------------------------------------------------------
State   Energy  Wavelength   fosc         T2         TX        TY        TZ
        (cm-1)    (nm)                  (au**2)     (au)      (au)      (au)
-----------------------------------------------------------------------------
   0   13563.6    737.3   0.105643237   2.56414  -0.39582   0.63818  -1.41428
   1   16229.0    616.2   0.005979140   0.12129  -0.05120  -0.34249   0.03698
   2   18336.9    545.3   0.029391339   0.52768  -0.48861  -0.38236  -0.37780
   3   19512.4    512.5   0.162383032   2.73971  -0.91145  -1.35858   0.25142
   4   21012.7    475.9   1.804051591  28.26457   2.74408   4.33978  -1.37873
   5   22543.1    443.6   1.252827936  18.29592  -3.24675  -0.86703  -2.64628
   6   23559.3    424.5   0.479631060   6.70224   0.62212   1.84906  -1.70181
   7   24519.4    407.8   0.012224512   0.16413   0.02732  -0.29392   0.27749
   8   26231.3    381.2   0.011078974   0.13905   0.09138  -0.16785   0.32019
   9   26841.4    372.6   0.012067280   0.14801   0.18742   0.00582   0.33592
  10   28222.7    354.3   0.000086145   0.00100   0.00516  -0.02972   0.00975
  11   28978.5    345.1   0.062816029   0.71363   0.04443   0.39457  -0.74563
  12   29446.6    339.6   0.244156060   2.72966   0.66432  -0.48206   1.43386
  13   29747.1    336.2   0.009682471   0.10716  -0.05039   0.30958  -0.09367
  14   29979.0    333.6   0.032329967   0.35503   0.42672   0.16069   0.38357
  15   30235.3    330.7   0.162749114   1.77206   0.94966   0.54158   0.75954
  16   30906.2    323.6   0.010442343   0.11123  -0.25497  -0.01281  -0.21461
  17   31391.8    318.6   0.565673265   5.93232   0.60449  -1.78663  -1.54106
  18   31477.9    317.7   0.194936179   2.03874   0.32863  -1.23949   0.62801
  19   31709.2    315.4   0.039626985   0.41142   0.20920  -0.20933  -0.56906
  20   32107.0    311.5   0.127927877   1.31172  -0.22805   0.81654  -0.77005
  21   32786.9    305.0   0.050300508   0.50507   0.46921  -0.34546   0.40690
  22   32935.3    303.6   0.223603161   2.23507  -0.59651   1.17485  -0.70638
  23   33137.4    301.8   0.025768452   0.25600   0.09428   0.49477  -0.04819
  24   33331.1    300.0   0.013692435   0.13524   0.10872   0.33806  -0.09559
  25   33871.7    295.2   0.101282965   0.98441  -0.03873   0.01930   0.99123
  26   33978.2    294.3   0.093881798   0.90961   0.19180   0.32478   0.87598
  27   34198.7    292.4   0.038747448   0.37300  -0.14960  -0.32412  -0.49554
  28   34480.9    290.0   0.009669273   0.09232   0.23306   0.02759  -0.19298
  29   34911.5    286.4   0.009484870   0.08944   0.07491  -0.09859   0.27223
  30   35006.6    285.7   0.033166584   0.31191   0.00754   0.44229  -0.34093
  31   35120.6    284.7   0.140011515   1.31244  -0.43178   0.29524  -1.01923
  32   35340.3    283.0   0.040640130   0.37858   0.09678   0.20357  -0.57252
  33   35453.6    282.1   0.007011154   0.06510  -0.10633   0.18278  -0.14278
  34   35951.6    278.2   0.001794552   0.01643  -0.09642  -0.05842  -0.06102
  35   36072.2    277.2   0.021901061   0.19988   0.28487   0.06536   0.33831
  36   36913.3    270.9   0.088472428   0.78904   0.32418   0.77439  -0.29029
  37   37000.0    270.3   0.048901416   0.43511   0.51327   0.39349   0.12971
  38   37097.8    269.6   0.307017410   2.72453   1.20522   1.11860   0.14387
  39   37267.9    268.3   0.047605929   0.42053  -0.14564   0.12200  -0.62003
  40   37835.0    264.3   0.077057886   0.67050   0.25078  -0.73794  -0.25110
  41   38119.9    262.3   0.006765116   0.05843   0.21601   0.10828   0.00638
  42   38315.9    261.0   0.067174782   0.57717  -0.52753  -0.54483  -0.04526
  43   38928.0    256.9   0.032249565   0.27273   0.36505   0.34576   0.14115
  44   39086.4    255.8   0.001582020   0.01332   0.01239   0.07603  -0.08597
  45   39255.8    254.7   0.007828648   0.06565   0.21235   0.07792   0.12036
  46   39359.7    254.1   0.018532071   0.15501   0.22150   0.27148   0.17956
  47   39585.1    252.6   0.013314152   0.11073  -0.03541  -0.10445   0.31395
  48   39710.9    251.8   0.005566689   0.04615  -0.04141  -0.07844  -0.19566
  49   40051.2    249.7   0.000266262   0.00219   0.04026  -0.00822   0.02237
  50   40159.5    249.0   0.008576445   0.07031  -0.22394  -0.09208  -0.10807

FINAL SINGLE POINT ENERGY     -6194.689478997076

DIPOLE MOMENT
-------------
                                X             Y             Z
Electronic contribution:    -28.63732     -17.11870       5.01455
Nuclear contribution   :     30.05259      14.87880      -5.08696
                        -----------------------------------------
Total Dipole Moment    :      1.41527      -2.23990      -0.07241
                        -----------------------------------------
Magnitude (a.u.)       :      2.65054
Magnitude (Debye)      :      6.73714

Rotational constants in cm-1:     0.000809     0.000159     0.000136
Rotational constants in MHz :    24.246448     4.754391     4.083112

                             ****ORCA TERMINATED NORMALLY****
TOTAL RUN TIME: 0 days 0 hours 8 minutes 43 seconds 805 msec
