                         Program Version 4.2.0 -  RELEASE  -
|  1> # ORCA input file
|  2> # SCF done       -179.935769163178          0.000858490630
|  3> ! CAM-B3LYP def2-SVP def2/J RIJCOSX Grid4 TightSCF
|  4> %maxcore 5000
|  5> %tddft
|  6>     Mode sTDDFT
|  7>     Ethresh 5.0
|  8>     maxcore 5000
|  9> end
| 10>
| 11> %pal
| 12>   nprocs 6
| 13>   end
| 14> * xyz 0 1
| 15>    C       -8.22142         3.12641        -1.65258
| 16>    C       -8.21739         4.48270        -1.56516
| 17>    C       -6.96183         5.02172        -1.91060
| 18>    C       -6.03005         4.02406        -2.25721
| 19>    S       -6.69997         2.45330        -2.15743
| 20>    C       -4.80384         4.64153        -2.58057
| 21>    C       -4.95514         6.03393        -2.43478
| 22>    C       -6.32856         6.30918        -2.01464
| 23>    C       -6.88304         7.54065        -1.78186
| 24>    C       -6.15277         8.73817        -1.89018
| 25>    N       -5.56761         9.72427        -1.95613
| 26>    C       -8.22006         7.69309        -1.37058
| 27>    N       -9.30540         7.83018        -1.02126
| 28>    C       -3.80218         6.74109        -2.72219
| 29>    C       -2.74286         5.91352        -3.10775
| 30>    S       -3.22267         4.21683        -3.09643
| 31>    C       -1.45992         6.36653        -3.44313
| 32>    S       -1.11995         8.05271        -3.19257
| 33>    C        0.52339         7.92715        -3.78229
| 34>    C        0.78228         6.59011        -4.17483
| 35>    C       -0.32505         5.71529        -3.97447
| 36>    C       -0.20235         4.36330        -4.32209
| 37>    C        0.97842         3.89726        -4.84503
| 38>    S        1.17391         2.19149        -5.30337
| 39>    C        2.08478         4.76024        -5.04024
| 40>    O        3.25596         4.31981        -5.55115
| 41>    C        1.97504         6.09265        -4.70509
| 42>    C        1.34613         9.04656        -3.78729
| 43>    C        0.87224        10.23793        -3.26155
| 44>    C        1.44459        11.48115        -3.10397
| 45>    C        0.72292        12.47207        -2.42600
| 46>    C        1.02219        13.80585        -2.13709
| 47>    C        0.05006        14.46349        -1.40436
| 48>    C       -1.04486        13.66260        -1.08402
| 49>    S       -0.83647        12.06533        -1.74338
| 50>    C       -2.20602        13.88070        -0.32883
| 51>    C       -2.67506        14.97855         0.39119
| 52>    C       -3.85087        14.72655         1.06559
| 53>    C       -4.34201        13.41857         0.92309
| 54>    S       -3.29664        12.53165        -0.15119
| 55>    C       -5.53183        12.94444         1.47565
| 56>    C       -6.12395        11.69327         1.51195
| 57>    S       -7.82879        11.69668         1.94430
| 58>    C       -8.01136         9.98671         1.72194
| 59>    C       -6.75915         9.40512         1.40734
| 60>    C       -5.70225        10.34886         1.28322
| 61>    C       -4.41549         9.87233         1.02182
| 62>    C       -4.19894         8.53309         0.79916
| 63>    S       -2.59305         7.93260         0.33698
| 64>    C       -5.24826         7.59461         0.91630
| 65>    O       -5.05407         6.26888         0.71637
| 66>    C       -6.51120         8.03744         1.23925
| 67>    C       -9.24711         9.34381         1.79266
| 68>    C      -10.43751         9.97116         2.04604
| 69>    C      -11.68854         9.33876         2.03317
| 70>    C      -12.92245         9.94422         2.27053
| 71>    C      -13.97637         9.05164         2.15930
| 72>    C      -13.55982         7.74487         1.83333
| 73>    S      -11.86268         7.62451         1.66565
| 74>    C      -14.70773         6.92420         1.74059
| 75>    C      -15.84719         7.70433         2.00628
| 76>    C      -15.43204         9.05921         2.27830
| 77>    C      -16.22348        10.13271         2.58461
| 78>    C      -17.62522        10.02970         2.67592
| 79>    N      -18.76759         9.95315         2.75265
| 80>    C      -15.69083        11.41288         2.83062
| 81>    N      -15.26381        12.45889         3.03367
| 82>    C      -17.03899         6.95682         1.92927
| 83>    C      -16.79248         5.65658         1.61535
| 84>    S      -15.10653         5.29608         1.40233
| 85>    H       -9.03136         2.45442        -1.45110
| 86>    H       -9.07204         5.06319        -1.26850
| 87>    H       -3.70405         7.81113        -2.67942
| 88>    H       -1.03590         3.69336        -4.18236
| 89>    H       -0.04971         1.81703        -4.95089
| 90>    H        3.21014         3.37439        -5.74503
| 91>    H        2.82572         6.73394        -4.86412
| 92>    H        2.34938         8.96271        -4.17707
| 93>    H       -0.14236        10.16835        -2.88166
| 94>    H        2.43274        11.71073        -3.47482
| 95>    H        1.93755        14.26840        -2.46292
| 96>    H        0.12240        15.49211        -1.09787
| 97>    H       -2.15591        15.91997         0.41356
| 98>    H       -4.35665        15.45397         1.67605
| 99>    H       -6.14043        13.73033         1.91231
|100>    H       -3.58046        10.54792         0.99471
|101>    H       -2.08326         9.12102         0.04307
|102>    H       -4.12494         6.09585         0.51281
|103>    H       -7.29786         7.30958         1.35246
|104>    H       -9.25843         8.28251         1.58724
|105>    H      -10.43941        11.03353         2.25543
|106>    H      -13.01424        10.98860         2.50824
|107>    H      -18.02346         7.35452         2.09585
|108>    H      -17.50228         4.86346         1.49050
|109> *
|110>
|111>                          ****END OF INPUT****

CARTESIAN COORDINATES (ANGSTROEM)
---------------------------------
  C     -8.221420    3.126410   -1.652580
  C     -8.217390    4.482700   -1.565160
  C     -6.961830    5.021720   -1.910600
  C     -6.030050    4.024060   -2.257210
  S     -6.699970    2.453300   -2.157430
  C     -4.803840    4.641530   -2.580570
  C     -4.955140    6.033930   -2.434780
  C     -6.328560    6.309180   -2.014640
  C     -6.883040    7.540650   -1.781860
  C     -6.152770    8.738170   -1.890180
  N     -5.567610    9.724270   -1.956130
  C     -8.220060    7.693090   -1.370580
  N     -9.305400    7.830180   -1.021260
  C     -3.802180    6.741090   -2.722190
  C     -2.742860    5.913520   -3.107750
  S     -3.222670    4.216830   -3.096430
  C     -1.459920    6.366530   -3.443130
  S     -1.119950    8.052710   -3.192570
  C      0.523390    7.927150   -3.782290
  C      0.782280    6.590110   -4.174830
  C     -0.325050    5.715290   -3.974470
  C     -0.202350    4.363300   -4.322090
  C      0.978420    3.897260   -4.845030
  S      1.173910    2.191490   -5.303370
  C      2.084780    4.760240   -5.040240
  O      3.255960    4.319810   -5.551150
  C      1.975040    6.092650   -4.705090
  C      1.346130    9.046560   -3.787290
  C      0.872240   10.237930   -3.261550
  C      1.444590   11.481150   -3.103970
  C      0.722920   12.472070   -2.426000
  C      1.022190   13.805850   -2.137090
  C      0.050060   14.463490   -1.404360
  C     -1.044860   13.662600   -1.084020
  S     -0.836470   12.065330   -1.743380
  C     -2.206020   13.880700   -0.328830
  C     -2.675060   14.978550    0.391190
  C     -3.850870   14.726550    1.065590
  C     -4.342010   13.418570    0.923090
  S     -3.296640   12.531650   -0.151190
  C     -5.531830   12.944440    1.475650
  C     -6.123950   11.693270    1.511950
  S     -7.828790   11.696680    1.944300
  C     -8.011360    9.986710    1.721940
  C     -6.759150    9.405120    1.407340
  C     -5.702250   10.348860    1.283220
  C     -4.415490    9.872330    1.021820
  C     -4.198940    8.533090    0.799160
  S     -2.593050    7.932600    0.336980
  C     -5.248260    7.594610    0.916300
  O     -5.054070    6.268880    0.716370
  C     -6.511200    8.037440    1.239250
  C     -9.247110    9.343810    1.792660
  C    -10.437510    9.971160    2.046040
  C    -11.688540    9.338760    2.033170
  C    -12.922450    9.944220    2.270530
  C    -13.976370    9.051640    2.159300
  C    -13.559820    7.744870    1.833330
  S    -11.862680    7.624510    1.665650
  C    -14.707730    6.924200    1.740590
  C    -15.847190    7.704330    2.006280
  C    -15.432040    9.059210    2.278300
  C    -16.223480   10.132710    2.584610
  C    -17.625220   10.029700    2.675920
  N    -18.767590    9.953150    2.752650
  C    -15.690830   11.412880    2.830620
  N    -15.263810   12.458890    3.033670
  C    -17.038990    6.956820    1.929270
  C    -16.792480    5.656580    1.615350
  S    -15.106530    5.296080    1.402330
  H     -9.031360    2.454420   -1.451100
  H     -9.072040    5.063190   -1.268500
  H     -3.704050    7.811130   -2.679420
  H     -1.035900    3.693360   -4.182360
  H     -0.049710    1.817030   -4.950890
  H      3.210140    3.374390   -5.745030
  H      2.825720    6.733940   -4.864120
  H      2.349380    8.962710   -4.177070
  H     -0.142360   10.168350   -2.881660
  H      2.432740   11.710730   -3.474820
  H      1.937550   14.268400   -2.462920
  H      0.122400   15.492110   -1.097870
  H     -2.155910   15.919970    0.413560
  H     -4.356650   15.453970    1.676050
  H     -6.140430   13.730330    1.912310
  H     -3.580460   10.547920    0.994710
  H     -2.083260    9.121020    0.043070
  H     -4.124940    6.095850    0.512810
  H     -7.297860    7.309580    1.352460
  H     -9.258430    8.282510    1.587240
  H    -10.439410   11.033530    2.255430
  H    -13.014240   10.988600    2.508240
  H    -18.023460    7.354520    2.095850
  H    -17.502280    4.863460    1.490500

 Total Charge           Charge          ....    0
 Multiplicity           Mult            ....    1
 Number of Electrons    NEL             ....  552
 Basis Dimension        Dim             .... 1140

ORBITAL ENERGIES
----------------

  NO   OCC          E(Eh)            E(eV)
   0   2.0000     -88.977860     -2421.2107
   1   2.0000     -88.977621     -2421.2042
   2   2.0000     -88.974540     -2421.1203
   3   2.0000     -88.973712     -2421.0978
   4   2.0000     -88.957679     -2420.6615
   5   2.0000     -88.956650     -2420.6335
   6   2.0000     -88.947497     -2420.3844
   7   2.0000     -88.947035     -2420.3719
   8   2.0000     -88.943663     -2420.2801
   9   2.0000     -88.941953     -2420.2336
  10   2.0000     -19.257836      -524.0324
  11   2.0000     -19.251812      -523.8684
  12   2.0000     -14.422432      -392.4543
  13   2.0000     -14.419410      -392.3721
  14   2.0000     -14.419326      -392.3698
  15   2.0000     -14.417597      -392.3228
  16   2.0000     -10.351564      -281.6804
  17   2.0000     -10.348707      -281.6026
  18   2.0000     -10.344117      -281.4777
  19   2.0000     -10.342436      -281.4320
  20   2.0000     -10.339991      -281.3655
  21   2.0000     -10.337073      -281.2860
  22   2.0000     -10.324428      -280.9420
  23   2.0000     -10.320281      -280.8291
  24   2.0000     -10.320187      -280.8266
  25   2.0000     -10.320035      -280.8224
  26   2.0000     -10.318710      -280.7864
  27   2.0000     -10.318501      -280.7807
  28   2.0000     -10.317734      -280.7598
  29   2.0000     -10.315672      -280.7037
  30   2.0000     -10.315497      -280.6989
  31   2.0000     -10.310509      -280.5632
  32   2.0000     -10.310375      -280.5596
  33   2.0000     -10.310067      -280.5512
  34   2.0000     -10.309551      -280.5371
  35   2.0000     -10.309135      -280.5258
  36   2.0000     -10.306286      -280.4483
  37   2.0000     -10.306047      -280.4418
  38   2.0000     -10.305936      -280.4388
  39   2.0000     -10.304241      -280.3926
  40   2.0000     -10.303513      -280.3729
  41   2.0000     -10.303203      -280.3644
  42   2.0000     -10.301590      -280.3205
  43   2.0000     -10.298583      -280.2387
  44   2.0000     -10.292981      -280.0863
  45   2.0000     -10.290471      -280.0180
  46   2.0000     -10.289339      -279.9872
  47   2.0000     -10.288077      -279.9528
  48   2.0000     -10.287408      -279.9346
  49   2.0000     -10.287383      -279.9339
  50   2.0000     -10.286951      -279.9222
  51   2.0000     -10.286660      -279.9142
  52   2.0000     -10.286290      -279.9042
  53   2.0000     -10.286239      -279.9028
  54   2.0000     -10.285856      -279.8924
  55   2.0000     -10.285533      -279.8836
  56   2.0000     -10.284335      -279.8510
  57   2.0000     -10.284329      -279.8508
  58   2.0000     -10.283648      -279.8323
  59   2.0000     -10.283483      -279.8278
  60   2.0000     -10.282947      -279.8132
  61   2.0000     -10.282065      -279.7892
  62   2.0000     -10.281996      -279.7873
  63   2.0000     -10.280533      -279.7475
  64   2.0000     -10.278236      -279.6850
  65   2.0000     -10.277527      -279.6657
  66   2.0000     -10.275529      -279.6113
  67   2.0000     -10.274047      -279.5710
  68   2.0000     -10.273519      -279.5567
  69   2.0000     -10.272444      -279.5274
  70   2.0000      -8.072566      -219.6657
  71   2.0000      -8.071591      -219.6392
  72   2.0000      -8.069564      -219.5840
  73   2.0000      -8.067988      -219.5411
  74   2.0000      -8.053056      -219.1348
  75   2.0000      -8.051270      -219.0862
  76   2.0000      -8.043683      -218.8797
  77   2.0000      -8.042724      -218.8536
  78   2.0000      -8.038651      -218.7428
  79   2.0000      -8.038266      -218.7323
  80   2.0000      -6.041841      -164.4068
  81   2.0000      -6.041019      -164.3845
  82   2.0000      -6.038897      -164.3267
  83   2.0000      -6.037422      -164.2866
  84   2.0000      -6.037183      -164.2801
  85   2.0000      -6.036939      -164.2735
  86   2.0000      -6.035143      -164.2246
  87   2.0000      -6.034470      -164.2063
  88   2.0000      -6.033723      -164.1860
  89   2.0000      -6.033123      -164.1696
  90   2.0000      -6.032027      -164.1398
  91   2.0000      -6.030403      -164.0956
  92   2.0000      -6.022160      -163.8713
  93   2.0000      -6.020526      -163.8268
  94   2.0000      -6.018282      -163.7658
  95   2.0000      -6.016509      -163.7175
  96   2.0000      -6.015307      -163.6848
  97   2.0000      -6.013455      -163.6344
  98   2.0000      -6.013243      -163.6287
  99   2.0000      -6.013092      -163.6246
 100   2.0000      -6.008988      -163.5129
 101   2.0000      -6.008984      -163.5128
 102   2.0000      -6.008937      -163.5115
 103   2.0000      -6.007869      -163.4824
 104   2.0000      -6.005084      -163.4067
 105   2.0000      -6.004754      -163.3977
 106   2.0000      -6.003758      -163.3706
 107   2.0000      -6.002748      -163.3431
 108   2.0000      -5.999535      -163.2556
 109   2.0000      -5.999033      -163.2420
 110   2.0000      -1.154270       -31.4093
 111   2.0000      -1.150778       -31.3143
 112   2.0000      -1.030263       -28.0349
 113   2.0000      -1.029061       -28.0022
 114   2.0000      -1.011780       -27.5319
 115   2.0000      -1.010146       -27.4875
 116   2.0000      -0.999161       -27.1885
 117   2.0000      -0.997755       -27.1503
 118   2.0000      -0.997066       -27.1316
 119   2.0000      -0.996645       -27.1201
 120   2.0000      -0.993211       -27.0266
 121   2.0000      -0.980983       -26.6939
 122   2.0000      -0.976545       -26.5731
 123   2.0000      -0.972111       -26.4525
 124   2.0000      -0.946193       -25.7472
 125   2.0000      -0.945507       -25.7285
 126   2.0000      -0.942251       -25.6400
 127   2.0000      -0.941265       -25.6131
 128   2.0000      -0.913132       -24.8476
 129   2.0000      -0.909241       -24.7417
 130   2.0000      -0.898937       -24.4613
 131   2.0000      -0.895613       -24.3709
 132   2.0000      -0.882860       -24.0239
 133   2.0000      -0.881534       -23.9878
 134   2.0000      -0.874847       -23.8058
 135   2.0000      -0.862243       -23.4628
 136   2.0000      -0.855269       -23.2730
 137   2.0000      -0.853474       -23.2242
 138   2.0000      -0.847419       -23.0594
 139   2.0000      -0.840511       -22.8715
 140   2.0000      -0.840008       -22.8578
 141   2.0000      -0.838212       -22.8089
 142   2.0000      -0.830409       -22.5966
 143   2.0000      -0.823695       -22.4139
 144   2.0000      -0.817654       -22.2495
 145   2.0000      -0.810384       -22.0517
 146   2.0000      -0.796398       -21.6711
 147   2.0000      -0.794812       -21.6279
 148   2.0000      -0.788348       -21.4520
 149   2.0000      -0.768962       -20.9245
 150   2.0000      -0.764671       -20.8078
 151   2.0000      -0.763780       -20.7835
 152   2.0000      -0.749528       -20.3957
 153   2.0000      -0.740006       -20.1366
 154   2.0000      -0.720271       -19.5996
 155   2.0000      -0.715287       -19.4639
 156   2.0000      -0.714534       -19.4435
 157   2.0000      -0.709404       -19.3039
 158   2.0000      -0.698850       -19.0167
 159   2.0000      -0.691888       -18.8272
 160   2.0000      -0.689955       -18.7746
 161   2.0000      -0.681864       -18.5545
 162   2.0000      -0.679615       -18.4933
 163   2.0000      -0.671386       -18.2693
 164   2.0000      -0.666734       -18.1428
 165   2.0000      -0.663505       -18.0549
 166   2.0000      -0.653653       -17.7868
 167   2.0000      -0.643587       -17.5129
 168   2.0000      -0.640220       -17.4213
 169   2.0000      -0.635281       -17.2869
 170   2.0000      -0.626875       -17.0581
 171   2.0000      -0.622558       -16.9407
 172   2.0000      -0.619615       -16.8606
 173   2.0000      -0.616134       -16.7659
 174   2.0000      -0.614385       -16.7183
 175   2.0000      -0.608987       -16.5714
 176   2.0000      -0.604157       -16.4399
 177   2.0000      -0.603105       -16.4113
 178   2.0000      -0.601572       -16.3696
 179   2.0000      -0.595239       -16.1973
 180   2.0000      -0.591919       -16.1069
 181   2.0000      -0.580779       -15.8038
 182   2.0000      -0.579921       -15.7805
 183   2.0000      -0.572027       -15.5656
 184   2.0000      -0.566170       -15.4063
 185   2.0000      -0.558624       -15.2009
 186   2.0000      -0.549574       -14.9547
 187   2.0000      -0.547856       -14.9079
 188   2.0000      -0.543919       -14.8008
 189   2.0000      -0.540100       -14.6969
 190   2.0000      -0.537293       -14.6205
 191   2.0000      -0.535050       -14.5595
 192   2.0000      -0.533129       -14.5072
 193   2.0000      -0.526817       -14.3354
 194   2.0000      -0.521970       -14.2035
 195   2.0000      -0.519844       -14.1457
 196   2.0000      -0.518476       -14.1084
 197   2.0000      -0.514458       -13.9991
 198   2.0000      -0.513271       -13.9668
 199   2.0000      -0.510601       -13.8942
 200   2.0000      -0.500956       -13.6317
 201   2.0000      -0.499673       -13.5968
 202   2.0000      -0.497438       -13.5360
 203   2.0000      -0.497070       -13.5260
 204   2.0000      -0.493014       -13.4156
 205   2.0000      -0.492643       -13.4055
 206   2.0000      -0.491716       -13.3803
 207   2.0000      -0.490375       -13.3438
 208   2.0000      -0.488113       -13.2822
 209   2.0000      -0.485045       -13.1988
 210   2.0000      -0.483952       -13.1690
 211   2.0000      -0.482174       -13.1206
 212   2.0000      -0.478898       -13.0315
 213   2.0000      -0.478166       -13.0115
 214   2.0000      -0.474395       -12.9089
 215   2.0000      -0.471793       -12.8381
 216   2.0000      -0.470445       -12.8015
 217   2.0000      -0.469209       -12.7678
 218   2.0000      -0.468561       -12.7502
 219   2.0000      -0.464545       -12.6409
 220   2.0000      -0.463089       -12.6013
 221   2.0000      -0.461456       -12.5569
 222   2.0000      -0.458638       -12.4802
 223   2.0000      -0.457070       -12.4375
 224   2.0000      -0.454884       -12.3780
 225   2.0000      -0.453193       -12.3320
 226   2.0000      -0.451321       -12.2811
 227   2.0000      -0.450696       -12.2641
 228   2.0000      -0.449188       -12.2230
 229   2.0000      -0.446705       -12.1555
 230   2.0000      -0.444652       -12.0996
 231   2.0000      -0.438632       -11.9358
 232   2.0000      -0.437713       -11.9108
 233   2.0000      -0.435820       -11.8593
 234   2.0000      -0.433511       -11.7964
 235   2.0000      -0.430534       -11.7154
 236   2.0000      -0.429716       -11.6932
 237   2.0000      -0.428950       -11.6723
 238   2.0000      -0.427415       -11.6306
 239   2.0000      -0.426450       -11.6043
 240   2.0000      -0.425646       -11.5824
 241   2.0000      -0.423705       -11.5296
 242   2.0000      -0.421903       -11.4806
 243   2.0000      -0.419535       -11.4161
 244   2.0000      -0.417489       -11.3604
 245   2.0000      -0.416124       -11.3233
 246   2.0000      -0.414034       -11.2665
 247   2.0000      -0.412027       -11.2118
 248   2.0000      -0.411198       -11.1893
 249   2.0000      -0.407328       -11.0839
 250   2.0000      -0.406639       -11.0652
 251   2.0000      -0.401612       -10.9284
 252   2.0000      -0.397019       -10.8034
 253   2.0000      -0.387749       -10.5512
 254   2.0000      -0.384204       -10.4547
 255   2.0000      -0.380825       -10.3628
 256   2.0000      -0.377422       -10.2702
 257   2.0000      -0.362863        -9.8740
 258   2.0000      -0.358935        -9.7671
 259   2.0000      -0.347420        -9.4538
 260   2.0000      -0.336967        -9.1693
 261   2.0000      -0.335040        -9.1169
 262   2.0000      -0.334653        -9.1064
 263   2.0000      -0.333246        -9.0681
 264   2.0000      -0.323887        -8.8134
 265   2.0000      -0.317469        -8.6388
 266   2.0000      -0.310580        -8.4513
 267   2.0000      -0.308092        -8.3836
 268   2.0000      -0.303854        -8.2683
 269   2.0000      -0.288437        -7.8488
 270   2.0000      -0.284385        -7.7385
 271   2.0000      -0.281423        -7.6579
 272   2.0000      -0.271294        -7.3823
 273   2.0000      -0.248231        -6.7547
 274   2.0000      -0.219878        -5.9832
 275   2.0000      -0.178556        -4.8588
 276   0.0000      -0.109171        -2.9707
 277   0.0000      -0.092864        -2.5270
 278   0.0000      -0.084499        -2.2993
 279   0.0000      -0.058363        -1.5881
 280   0.0000      -0.031003        -0.8436

MULLIKEN ATOMIC CHARGES
-----------------------
   0 C :   -0.089082
   1 C :    0.039479
   2 C :   -0.046770
   3 C :   -0.102402
   4 S :    0.160160
   5 C :   -0.108730
   6 C :    0.006618
   7 C :    0.353073
   8 C :   -0.314159
   9 C :   -0.191814
  10 N :    0.175685
  11 C :   -0.199623
  12 N :    0.161002
  13 C :   -0.091918
  14 C :   -0.066529
  15 S :    0.129167
  16 C :   -0.076432
  17 S :    0.069825
  18 C :   -0.079419
  19 C :    0.130094
  20 C :    0.123559
  21 C :   -0.081528
  22 C :   -0.082652
  23 S :   -0.008789
  24 C :    0.126758
  25 O :   -0.170703
  26 C :   -0.109205
  27 C :    0.010249
  28 C :   -0.036341
  29 C :    0.027576
  30 C :   -0.025168
  31 C :    0.014624
  32 C :    0.025209
  33 C :   -0.023486
  34 S :    0.016316
  35 C :   -0.034656
  36 C :    0.021447
  37 C :    0.028324
  38 C :   -0.047298
  39 S :    0.087640
  40 C :    0.019142
  41 C :   -0.120968
  42 S :    0.124843
  43 C :   -0.077074
  44 C :    0.120872
  45 C :    0.160838
  46 C :   -0.054699
  47 C :   -0.087290
  48 S :   -0.003137
  49 C :    0.113463
  50 O :   -0.175406
  51 C :   -0.108392
  52 C :   -0.003190
  53 C :   -0.008085
  54 C :   -0.033752
  55 C :   -0.047506
  56 C :    0.018455
  57 C :   -0.101944
  58 S :    0.179500
  59 C :   -0.112480
  60 C :   -0.039067
  61 C :    0.299578
  62 C :   -0.300022
  63 C :   -0.192420
  64 N :    0.166658
  65 C :   -0.184295
  66 N :    0.166281
  67 C :    0.039183
  68 C :   -0.085401
  69 S :    0.171606
  70 H :    0.027561
  71 H :    0.001093
  72 H :    0.015566
  73 H :   -0.039146
  74 H :    0.079055
  75 H :    0.181965
  76 H :   -0.027759
  77 H :   -0.017590
  78 H :    0.034615
  79 H :   -0.020366
  80 H :   -0.016196
  81 H :   -0.016118
  82 H :   -0.015780
  83 H :   -0.012292
  84 H :   -0.008817
  85 H :   -0.034838
  86 H :    0.089092
  87 H :    0.192559
  88 H :   -0.023355
  89 H :    0.001052
  90 H :   -0.001789
  91 H :    0.003809
  92 H :    0.009299
  93 H :    0.032987
Sum of atomic charges:   -0.0000000

LOEWDIN ATOMIC CHARGES
----------------------
   0 C :   -0.188458
   1 C :   -0.036454
   2 C :   -0.086615
   3 C :   -0.171368
   4 S :    0.456804
   5 C :   -0.210288
   6 C :   -0.062768
   7 C :    0.084895
   8 C :   -0.111619
   9 C :   -0.015191
  10 N :   -0.041909
  11 C :   -0.005568
  12 N :   -0.053594
  13 C :   -0.051918
  14 C :   -0.176076
  15 S :    0.451326
  16 C :   -0.196961
  17 S :    0.460827
  18 C :   -0.153163
  19 C :   -0.042494
  20 C :   -0.050492
  21 C :   -0.054952
  22 C :   -0.170396
  23 S :    0.213059
  24 C :    0.030320
  25 O :   -0.046477
  26 C :   -0.040960
  27 C :   -0.054822
  28 C :   -0.043641
  29 C :   -0.061818
  30 C :   -0.139515
  31 C :   -0.051981
  32 C :   -0.034429
  33 C :   -0.189346
  34 S :    0.385926
  35 C :   -0.173516
  36 C :   -0.049724
  37 C :   -0.031772
  38 C :   -0.169876
  39 S :    0.430552
  40 C :   -0.066444
  41 C :   -0.159572
  42 S :    0.454453
  43 C :   -0.162463
  44 C :   -0.037325
  45 C :   -0.043277
  46 C :   -0.031402
  47 C :   -0.177679
  48 S :    0.235405
  49 C :    0.029302
  50 O :   -0.037625
  51 C :   -0.049564
  52 C :   -0.044649
  53 C :   -0.040759
  54 C :   -0.154998
  55 C :   -0.027872
  56 C :   -0.068963
  57 C :   -0.189174
  58 S :    0.479595
  59 C :   -0.176278
  60 C :   -0.082792
  61 C :    0.085523
  62 C :   -0.108732
  63 C :   -0.016399
  64 N :   -0.039094
  65 C :   -0.015729
  66 N :   -0.039805
  67 C :   -0.033924
  68 C :   -0.182720
  69 S :    0.467303
  70 H :    0.023624
  71 H :    0.038393
  72 H :    0.027648
  73 H :    0.009198
  74 H :   -0.013133
  75 H :    0.076370
  76 H :    0.034536
  77 H :    0.031502
  78 H :   -0.001055
  79 H :    0.031176
  80 H :    0.031498
  81 H :    0.031509
  82 H :    0.032037
  83 H :    0.032342
  84 H :    0.035788
  85 H :    0.003968
  86 H :   -0.010053
  87 H :    0.077772
  88 H :    0.033720
  89 H :    0.024487
  90 H :    0.031160
  91 H :    0.040132
  92 H :    0.041688
  93 H :    0.025799

  Mayer bond orders larger than 0.100000
B(  0-C ,  1-C ) :   1.5593 B(  0-C ,  4-S ) :   1.1274 B(  0-C , 70-H ) :   0.9643
B(  1-C ,  2-C ) :   1.2662 B(  1-C , 71-H ) :   0.9939 B(  2-C ,  3-C ) :   1.4252
B(  2-C ,  7-C ) :   1.0431 B(  3-C ,  4-S ) :   1.1280 B(  3-C ,  5-C ) :   1.2175
B(  5-C ,  6-C ) :   1.4238 B(  5-C , 15-S ) :   1.0809 B(  6-C ,  7-C ) :   0.9664
B(  6-C , 13-C ) :   1.3513 B(  7-C ,  8-C ) :   1.6908 B(  8-C ,  9-C ) :   1.1494
B(  8-C , 11-C ) :   1.1501 B(  9-C , 10-N ) :   2.9412 B( 11-C , 12-N ) :   2.9524
B( 13-C , 14-C ) :   1.3579 B( 13-C , 72-H ) :   0.9830 B( 14-C , 15-S ) :   1.0974
B( 14-C , 16-C ) :   1.2577 B( 16-C , 17-S ) :   1.1186 B( 16-C , 20-C ) :   1.2975
B( 17-S , 18-C ) :   1.0956 B( 18-C , 19-C ) :   1.2285 B( 18-C , 27-C ) :   1.3168
B( 19-C , 20-C ) :   1.2198 B( 19-C , 26-C ) :   1.2209 B( 20-C , 21-C ) :   1.2369
B( 21-C , 22-C ) :   1.5169 B( 21-C , 73-H ) :   0.9655 B( 22-C , 23-S ) :   1.0112
B( 22-C , 24-C ) :   1.2256 B( 23-S , 74-H ) :   0.9521 B( 24-C , 25-O ) :   1.2635
B( 24-C , 26-C ) :   1.4770 B( 25-O , 75-H ) :   0.9508 B( 26-C , 76-H ) :   1.0038
B( 27-C , 28-C ) :   1.4305 B( 27-C , 77-H ) :   0.9778 B( 28-C , 29-C ) :   1.3135
B( 28-C , 78-H ) :   0.9450 B( 29-C , 30-C ) :   1.3857 B( 29-C , 79-H ) :   0.9910
B( 30-C , 31-C ) :   1.2564 B( 30-C , 34-S ) :   1.0640 B( 31-C , 32-C ) :   1.4546
B( 31-C , 80-H ) :   0.9978 B( 32-C , 33-C ) :   1.3075 B( 32-C , 81-H ) :   0.9973
B( 33-C , 34-S ) :   1.0642 B( 33-C , 35-C ) :   1.3374 B( 35-C , 36-C ) :   1.2897
B( 35-C , 39-S ) :   1.0790 B( 36-C , 37-C ) :   1.4732 B( 36-C , 82-H ) :   0.9960
B( 37-C , 38-C ) :   1.2436 B( 37-C , 83-H ) :   0.9979 B( 38-C , 39-S ) :   1.0502
B( 38-C , 40-C ) :   1.4492 B( 40-C , 41-C ) :   1.3228 B( 40-C , 84-H ) :   0.9352
B( 41-C , 42-S ) :   1.1120 B( 41-C , 45-C ) :   1.2178 B( 42-S , 43-C ) :   1.1208
B( 43-C , 44-C ) :   1.2551 B( 43-C , 52-C ) :   1.2769 B( 44-C , 45-C ) :   1.2463
B( 44-C , 51-C ) :   1.2150 B( 45-C , 46-C ) :   1.2589 B( 46-C , 47-C ) :   1.4899
B( 46-C , 85-H ) :   0.9521 B( 47-C , 48-S ) :   1.0148 B( 47-C , 49-C ) :   1.2384
B( 48-S , 86-H ) :   0.9472 B( 49-C , 50-O ) :   1.2460 B( 49-C , 51-C ) :   1.4667
B( 50-O , 87-H ) :   0.9415 B( 51-C , 88-H ) :   0.9946 B( 52-C , 53-C ) :   1.5377
B( 52-C , 89-H ) :   0.9511 B( 53-C , 54-C ) :   1.2224 B( 53-C , 90-H ) :   0.9747
B( 54-C , 55-C ) :   1.3846 B( 54-C , 58-S ) :   1.0975 B( 55-C , 56-C ) :   1.3073
B( 55-C , 91-H ) :   1.0040 B( 56-C , 57-C ) :   1.4264 B( 56-C , 61-C ) :   0.9875
B( 57-C , 58-S ) :   1.1242 B( 57-C , 59-C ) :   1.2097 B( 59-C , 60-C ) :   1.4368
B( 59-C , 69-S ) :   1.1348 B( 60-C , 61-C ) :   1.0309 B( 60-C , 67-C ) :   1.2719
B( 61-C , 62-C ) :   1.6994 B( 62-C , 63-C ) :   1.1331 B( 62-C , 65-C ) :   1.1347
B( 63-C , 64-N ) :   3.0007 B( 65-C , 66-N ) :   2.9901 B( 67-C , 68-C ) :   1.5537
B( 67-C , 92-H ) :   0.9961 B( 68-C , 69-S ) :   1.1373 B( 68-C , 93-H ) :   0.9644

-----------------------------------------------------------------------------
         ABSORPTION SPECTRUM VIA TRANSITION ELECTRIC DIPOLE MOMENTS
-----------------------------------------------------------------------------
State   Energy  Wavelength   fosc         T2         TX        TY        TZ
        (cm-1)    (nm)                  (au**2)     (au)      (au)      (au)
-----------------------------------------------------------------------------
   0     578.8   17277.0   0.002849857   1.62094  -0.82760   0.64618   0.72005
   1    5810.5   1721.0   0.288752486  16.36019  -3.72102  -0.01887   1.58552
   2    8225.6   1215.7   0.048879370   1.95630   0.05646   1.08688   0.87852
   3    9801.7   1020.2   0.147824416   4.96499  -2.02292  -0.85016   0.38730
   4   12648.1    790.6   0.320735886   8.34829   2.31630   1.71535  -0.20158
   5   14396.1    694.6   0.540074317  12.35046   2.55431   2.41330  -0.04420
   6   15642.0    639.3   0.583681997  12.28459  -2.69731  -2.17791   0.51556
   7   16598.7    602.5   0.174666392   3.46426   1.20947   1.41054   0.10872
   8   18686.8    535.1   0.034730542   0.61186   0.32200  -0.40793  -0.58461
   9   19952.6    501.2   0.034197849   0.56425   0.42167  -0.58206  -0.21830
  10   20765.0    481.6   0.018288784   0.28995  -0.44867   0.14704  -0.25889
  11   21700.0    460.8   0.089024975   1.35060   0.71567  -0.01760  -0.91548
  12   22087.1    452.8   0.043685376   0.65114  -0.48885   0.34914   0.53877
  13   23029.3    434.2   0.022280817   0.31851   0.31566  -0.32679  -0.33478
  14   23262.5    429.9   0.152658741   2.16043   0.75408  -1.02086  -0.74138
  15   23766.4    420.8   0.419838122   5.81558   2.23366  -0.67163  -0.61257
  16   24407.3    409.7   0.118767471   1.60197   1.26084  -0.00546  -0.11057
  17   25483.6    392.4   0.036271911   0.46858   0.66506  -0.15986   0.02695
  18   26057.5    383.8   0.249235987   3.14886  -0.84265   1.47542   0.51178
  19   26227.0    381.3   0.064221936   0.80614  -0.61632   0.64185   0.11968
  20   26907.0    371.7   0.104345135   1.27668  -0.35019  -1.07146  -0.07759
  21   27323.4    366.0   0.136660808   1.64659   1.28165   0.06131   0.01429
  22   27513.0    363.5   0.085106150   1.01835   0.67377  -0.32145  -0.67901
  23   27753.7    360.3   0.101884717   1.20855  -1.07051  -0.11392   0.22265
  24   28107.3    355.8   0.084534272   0.99012  -0.82680   0.53248   0.15163
  25   28162.9    355.1   0.445767431   5.21083  -1.53261   1.55346   0.66985
  26   29470.6    339.3   0.074189971   0.82877  -0.30608  -0.85729   0.01160
  27   29659.4    337.2   0.067625462   0.75063  -0.45409   0.71959   0.16318
  28   30145.7    331.7   0.010931971   0.11938   0.29691   0.15578   0.08345
  29   30253.8    330.5   0.028436262   0.30943   0.36679  -0.36686  -0.20078
  30   30477.3    328.1   0.080417610   0.86866   0.21369  -0.90603  -0.04589
  31   31042.4    322.1   0.490648444   5.20344   1.32035  -1.79822  -0.47592
  32   31187.2    320.6   0.013518937   0.14271  -0.10546   0.35983  -0.04592
  33   31414.3    318.3   0.002699649   0.02829   0.09896   0.12793  -0.04617
  34   31574.3    316.7   0.048362553   0.50426   0.05032   0.69467   0.13840
  35   31997.4    312.5   0.010567838   0.10873  -0.22581   0.13453   0.19910
  36   32095.4    311.6   0.110026789   1.12858   0.49397  -0.79473  -0.50297
  37   32356.4    309.1   0.148885195   1.51484   0.34913  -1.12880  -0.34462
  38   32577.7    307.0   0.119973830   1.21239   0.73455   0.81128  -0.12103
  39   32838.3    304.5   0.034105905   0.34192  -0.47560   0.33903  -0.02796
  40   33089.4    302.2   0.014323224   0.14250  -0.26785   0.26595   0.00544
  41   33131.0    301.8   0.246360595   2.44801  -1.55348   0.03774   0.18244
  42   33287.9    300.4   0.191537067   1.89427  -0.19886  -1.35932  -0.08348
  43   33404.0    299.4   0.231271171   2.27928   1.34098  -0.62405  -0.30270
  44   33540.0    298.2   0.021035730   0.20648   0.29898   0.03709  -0.34016
  45   33584.0    297.8   0.012713085   0.12462  -0.02434  -0.34021  -0.09104
  46   33920.8    294.8   0.072011945   0.69890   0.51517  -0.60333  -0.26361
  47   34103.9    293.2   0.035225888   0.34004  -0.19773  -0.53993  -0.09704
  48   34299.5    291.5   0.056163858   0.53907  -0.06852  -0.72168  -0.11642
  49   34585.1    289.1   0.101696538   0.96804   0.62009  -0.70136  -0.30270
  50   34740.5    287.8   0.001509063   0.01430   0.02322   0.06084   0.10030
  51   34852.1    286.9   0.032193598   0.30410   0.29011   0.46530   0.05862
  52   35274.3    283.5   0.011824905   0.11036  -0.08341   0.29702  -0.12323
  53   35351.9    282.9   0.049622677   0.46211   0.17646  -0.59955  -0.26740
  54   35482.9    281.8   0.033080191   0.30692   0.22876  -0.49007  -0.12007
  55   35932.6    278.3   0.032363299   0.29651  -0.37883  -0.38209  -0.08373
  56   36137.1    276.7   0.005853844   0.05333  -0.06195  -0.22241  -0.00505
  57   36429.8    274.5   0.012739629   0.11513  -0.11354  -0.29443   0.12468
  58   36591.6    273.3   0.049265590   0.44324  -0.31859  -0.57871  -0.08262
  59   36723.6    272.3   0.076034457   0.68162  -0.37946   0.70362   0.20626
  60   36812.7    271.6   0.012984027   0.11611  -0.26626   0.18936   0.09676
  61   36895.5    271.0   0.000590693   0.00527   0.04451   0.02488   0.05168
  62   37100.4    269.5   0.040040407   0.35530  -0.49541  -0.10920   0.31295
  63   37556.2    266.3   0.046959346   0.41164  -0.53958   0.26141   0.22838
  64   37658.4    265.5   0.016076288   0.14054  -0.01016   0.33880   0.16016
  65   37764.7    264.8   0.054024106   0.47095   0.48441  -0.40092  -0.27488
  66   38068.4    262.7   0.006844057   0.05919  -0.18100  -0.14108  -0.08076
  67   38116.6    262.4   0.109015484   0.94156  -0.89517  -0.37311  -0.03209
  68   38418.1    260.3   0.016622244   0.14244   0.21098   0.31085  -0.03602
  69   38576.1    259.2   0.081134940   0.69241   0.07036   0.82810  -0.04139
  70   38956.0    256.7   0.093511622   0.79025   0.02068   0.87969   0.12637
  71   38977.7    256.6   0.007926023   0.06694   0.19505   0.15712  -0.06490
  72   39322.2    254.3   0.083298315   0.69739   0.52488   0.64332   0.08965
  73   39587.6    252.6   0.037577157   0.31249  -0.22242   0.50665   0.07958
  74   39694.3    251.9   0.011165574   0.09260   0.25891  -0.13883  -0.07932
  75   39929.9    250.4   0.015458694   0.12745  -0.06354   0.35130   0.00193
  76   40083.8    249.5   0.012520206   0.10283  -0.22930   0.18622   0.12479
  77   40243.5    248.5   0.009704483   0.07939  -0.14970  -0.23818   0.01580

FINAL SINGLE POINT ENERGY     -6419.042167625292

DIPOLE MOMENT
-------------
                                X             Y             Z
Electronic contribution:    -29.91898     -14.91698       3.96441
Nuclear contribution   :     32.61690      12.75844      -4.41633
                        -----------------------------------------
Total Dipole Moment    :      2.69792      -2.15853      -0.45192
                        -----------------------------------------
Magnitude (a.u.)       :      3.48458
Magnitude (Debye)      :      8.85710

Rotational constants in cm-1:     0.001225     0.000411     0.000317
Rotational constants in MHz :    36.735270    12.312021     9.489812

                             ****ORCA TERMINATED NORMALLY****
TOTAL RUN TIME: 0 days 0 hours 16 minutes 54 seconds 568 msec
