                         Program Version 4.2.0 -  RELEASE  -
|  1> # ORCA input file
|  2> # SCF done       -179.483311258511          0.000335354663
|  3> ! CAM-B3LYP def2-SVP def2/J RIJCOSX Grid4 TightSCF
|  4> %maxcore 5000
|  5> %tddft
|  6>     Mode sTDDFT
|  7>     Ethresh 5.0
|  8>     maxcore 5000
|  9> end
| 10>
| 11> %pal
| 12>   nprocs 6
| 13>   end
| 14> * xyz 0 1
| 15>    C       -7.73841        -0.12324        -0.47240
| 16>    C       -6.58465        -0.59576         0.07446
| 17>    C       -5.57711         0.38816         0.07302
| 18>    C       -6.01047         1.59634        -0.48460
| 19>    S       -7.63472         1.52415        -1.00106
| 20>    C       -4.93357         2.53054        -0.44087
| 21>    C       -3.82864         1.90180         0.14165
| 22>    C       -4.19606         0.53593         0.49291
| 23>    C       -3.40425        -0.38962         1.10845
| 24>    C       -2.08126        -0.09152         1.49480
| 25>    N       -1.01040         0.16539         1.81623
| 26>    C       -3.85773        -1.69047         1.41040
| 27>    N       -4.22115        -2.74972         1.65684
| 28>    C       -2.70472         2.72857         0.22640
| 29>    C       -2.94980         3.99025        -0.27793
| 30>    S       -4.59835         4.14492        -0.87782
| 31>    C       -2.08275         5.11770        -0.36322
| 32>    S       -2.53893         6.45394        -1.37579
| 33>    C       -1.10404         7.34523        -0.95480
| 34>    C       -0.32000         6.61287        -0.07964
| 35>    C       -0.87171         5.36184         0.25981
| 36>    C       -0.21005         4.41352         1.21136
| 37>    C        0.93020         5.08809         1.98810
| 38>    C        0.39294         5.96257         3.00580
| 39>    N       -0.03826         6.66423         3.79779
| 40>    C        1.81182         5.90874         1.02338
| 41>    C        2.27538         5.06000        -0.05141
| 42>    N        2.62353         4.39074        -0.90917
| 43>    C        0.99995         7.07872         0.45109
| 44>    C       -0.89514         8.66691        -1.44867
| 45>    S        0.12687         9.77596        -0.58124
| 46>    C       -0.19864        11.06569        -1.70275
| 47>    C       -1.05827        10.63286        -2.69715
| 48>    C       -1.45426         9.28960        -2.55082
| 49>    C       -2.38518         8.61280        -3.50728
| 50>    C       -2.51708         9.40025        -4.81820
| 51>    C       -1.31184         9.26290        -5.60468
| 52>    N       -0.35258         9.16040        -6.21648
| 53>    C       -2.76459        10.89300        -4.51442
| 54>    C       -3.92910        11.02469        -3.66789
| 55>    N       -4.84322        11.12094        -2.98958
| 56>    C       -1.53637        11.49810        -3.82064
| 57>    C        0.44340        12.33018        -1.55034
| 58>    S        0.66512        13.38715        -2.91572
| 59>    C        1.53461        14.54683        -1.95750
| 60>    C        1.63596        14.12438        -0.64380
| 61>    C        1.01552        12.88031        -0.41584
| 62>    C        0.97206        12.24087         0.93702
| 63>    C        1.28935        13.25786         2.04180
| 64>    C        0.19106        14.18727         2.18456
| 65>    N       -0.67845        14.92224         2.27745
| 66>    C        2.57698        14.02894         1.68304
| 67>    C        3.64824        13.08763         1.44766
| 68>    N        4.48532        12.33565         1.24936
| 69>    C        2.34181        14.88930         0.43286
| 70>    C        2.02734        15.72811        -2.58356
| 71>    C        2.50229        16.89235        -2.01319
| 72>    C        2.90992        17.82035        -2.97568
| 73>    C        2.73419        17.36848        -4.28733
| 74>    S        2.07662        15.79547        -4.34266
| 75>    C        3.17045        18.39386        -5.17767
| 76>    C        3.62039        19.48156        -4.42071
| 77>    C        3.48114        19.16060        -3.01254
| 78>    C        3.82888        19.92932        -1.93985
| 79>    C        4.38165        21.21894        -2.08229
| 80>    N        4.83008        22.26851        -2.19248
| 81>    C        3.66855        19.46881        -0.61670
| 82>    N        3.54495        19.07923         0.45525
| 83>    C        4.07617        20.54451        -5.22422
| 84>    C        3.96392        20.24738        -6.54808
| 85>    S        3.30514        18.67387        -6.85505
| 86>    H       -8.66535        -0.64451        -0.60348
| 87>    H       -6.46842        -1.59404         0.45495
| 88>    H       -1.75555         2.40433         0.60344
| 89>    H        0.20712         3.56933         0.65242
| 90>    H       -0.94829         4.02098         1.91628
| 91>    H        1.53084         4.31804         2.48705
| 92>    H        2.68964         6.29842         1.55253
| 93>    H        1.57050         7.56890        -0.34259
| 94>    H        0.83754         7.81511         1.24543
| 95>    H       -3.37610         8.52563        -3.04843
| 96>    H       -2.03127         7.60033        -3.72116
| 97>    H       -3.35061         8.99268        -5.40310
| 98>    H       -2.96001        11.43856        -5.44562
| 99>    H       -1.78078        12.49632        -3.44665
|100>    H       -0.73482        11.60973        -4.55895
|101>    H        1.70714        11.43031         0.98430
|102>    H       -0.01455        11.80319         1.11247
|103>    H        1.41691        12.73214         2.99561
|104>    H        2.87406        14.67762         2.51589
|105>    H        3.30135        15.25644         0.05804
|106>    H        1.73644        15.75527         0.72048
|107>    H        2.52195        17.08253        -0.95888
|108>    H        4.46416        21.47461        -4.85108
|109>    H        4.23054        20.86177        -7.38446
|110> *
|111>
|112>                          ****END OF INPUT****

CARTESIAN COORDINATES (ANGSTROEM)
---------------------------------
  C     -7.738410   -0.123240   -0.472400
  C     -6.584650   -0.595760    0.074460
  C     -5.577110    0.388160    0.073020
  C     -6.010470    1.596340   -0.484600
  S     -7.634720    1.524150   -1.001060
  C     -4.933570    2.530540   -0.440870
  C     -3.828640    1.901800    0.141650
  C     -4.196060    0.535930    0.492910
  C     -3.404250   -0.389620    1.108450
  C     -2.081260   -0.091520    1.494800
  N     -1.010400    0.165390    1.816230
  C     -3.857730   -1.690470    1.410400
  N     -4.221150   -2.749720    1.656840
  C     -2.704720    2.728570    0.226400
  C     -2.949800    3.990250   -0.277930
  S     -4.598350    4.144920   -0.877820
  C     -2.082750    5.117700   -0.363220
  S     -2.538930    6.453940   -1.375790
  C     -1.104040    7.345230   -0.954800
  C     -0.320000    6.612870   -0.079640
  C     -0.871710    5.361840    0.259810
  C     -0.210050    4.413520    1.211360
  C      0.930200    5.088090    1.988100
  C      0.392940    5.962570    3.005800
  N     -0.038260    6.664230    3.797790
  C      1.811820    5.908740    1.023380
  C      2.275380    5.060000   -0.051410
  N      2.623530    4.390740   -0.909170
  C      0.999950    7.078720    0.451090
  C     -0.895140    8.666910   -1.448670
  S      0.126870    9.775960   -0.581240
  C     -0.198640   11.065690   -1.702750
  C     -1.058270   10.632860   -2.697150
  C     -1.454260    9.289600   -2.550820
  C     -2.385180    8.612800   -3.507280
  C     -2.517080    9.400250   -4.818200
  C     -1.311840    9.262900   -5.604680
  N     -0.352580    9.160400   -6.216480
  C     -2.764590   10.893000   -4.514420
  C     -3.929100   11.024690   -3.667890
  N     -4.843220   11.120940   -2.989580
  C     -1.536370   11.498100   -3.820640
  C      0.443400   12.330180   -1.550340
  S      0.665120   13.387150   -2.915720
  C      1.534610   14.546830   -1.957500
  C      1.635960   14.124380   -0.643800
  C      1.015520   12.880310   -0.415840
  C      0.972060   12.240870    0.937020
  C      1.289350   13.257860    2.041800
  C      0.191060   14.187270    2.184560
  N     -0.678450   14.922240    2.277450
  C      2.576980   14.028940    1.683040
  C      3.648240   13.087630    1.447660
  N      4.485320   12.335650    1.249360
  C      2.341810   14.889300    0.432860
  C      2.027340   15.728110   -2.583560
  C      2.502290   16.892350   -2.013190
  C      2.909920   17.820350   -2.975680
  C      2.734190   17.368480   -4.287330
  S      2.076620   15.795470   -4.342660
  C      3.170450   18.393860   -5.177670
  C      3.620390   19.481560   -4.420710
  C      3.481140   19.160600   -3.012540
  C      3.828880   19.929320   -1.939850
  C      4.381650   21.218940   -2.082290
  N      4.830080   22.268510   -2.192480
  C      3.668550   19.468810   -0.616700
  N      3.544950   19.079230    0.455250
  C      4.076170   20.544510   -5.224220
  C      3.963920   20.247380   -6.548080
  S      3.305140   18.673870   -6.855050
  H     -8.665350   -0.644510   -0.603480
  H     -6.468420   -1.594040    0.454950
  H     -1.755550    2.404330    0.603440
  H      0.207120    3.569330    0.652420
  H     -0.948290    4.020980    1.916280
  H      1.530840    4.318040    2.487050
  H      2.689640    6.298420    1.552530
  H      1.570500    7.568900   -0.342590
  H      0.837540    7.815110    1.245430
  H     -3.376100    8.525630   -3.048430
  H     -2.031270    7.600330   -3.721160
  H     -3.350610    8.992680   -5.403100
  H     -2.960010   11.438560   -5.445620
  H     -1.780780   12.496320   -3.446650
  H     -0.734820   11.609730   -4.558950
  H      1.707140   11.430310    0.984300
  H     -0.014550   11.803190    1.112470
  H      1.416910   12.732140    2.995610
  H      2.874060   14.677620    2.515890
  H      3.301350   15.256440    0.058040
  H      1.736440   15.755270    0.720480
  H      2.521950   17.082530   -0.958880
  H      4.464160   21.474610   -4.851080
  H      4.230540   20.861770   -7.384460

 Total Charge           Charge          ....    0
 Multiplicity           Mult            ....    1
 Number of Electrons    NEL             ....  530
 Basis Dimension        Dim             .... 1142

ORBITAL ENERGIES
----------------

  NO   OCC          E(Eh)            E(eV)
   0   2.0000     -88.992263     -2421.6026
   1   2.0000     -88.992144     -2421.5993
   2   2.0000     -88.989642     -2421.5313
   3   2.0000     -88.989508     -2421.5276
   4   2.0000     -88.978056     -2421.2160
   5   2.0000     -88.976582     -2421.1759
   6   2.0000     -88.976428     -2421.1717
   7   2.0000     -14.433391      -392.7525
   8   2.0000     -14.433300      -392.7501
   9   2.0000     -14.430631      -392.6774
  10   2.0000     -14.430578      -392.6760
  11   2.0000     -14.421400      -392.4262
  12   2.0000     -14.421385      -392.4258
  13   2.0000     -14.419610      -392.3775
  14   2.0000     -14.419560      -392.3762
  15   2.0000     -14.417607      -392.3230
  16   2.0000     -14.417550      -392.3215
  17   2.0000     -10.365228      -282.0522
  18   2.0000     -10.365118      -282.0492
  19   2.0000     -10.353030      -281.7203
  20   2.0000     -10.353029      -281.7202
  21   2.0000     -10.348718      -281.6029
  22   2.0000     -10.348593      -281.5995
  23   2.0000     -10.345552      -281.5168
  24   2.0000     -10.345448      -281.5139
  25   2.0000     -10.345205      -281.5073
  26   2.0000     -10.345092      -281.5043
  27   2.0000     -10.334274      -281.2099
  28   2.0000     -10.334158      -281.2067
  29   2.0000     -10.333260      -281.1823
  30   2.0000     -10.333258      -281.1822
  31   2.0000     -10.332439      -281.1600
  32   2.0000     -10.332386      -281.1585
  33   2.0000     -10.331724      -281.1405
  34   2.0000     -10.331579      -281.1366
  35   2.0000     -10.330975      -281.1201
  36   2.0000     -10.330891      -281.1178
  37   2.0000     -10.325823      -280.9799
  38   2.0000     -10.325761      -280.9782
  39   2.0000     -10.325310      -280.9660
  40   2.0000     -10.325243      -280.9641
  41   2.0000     -10.324569      -280.9458
  42   2.0000     -10.324362      -280.9402
  43   2.0000     -10.319740      -280.8144
  44   2.0000     -10.319698      -280.8133
  45   2.0000     -10.318082      -280.7693
  46   2.0000     -10.318053      -280.7685
  47   2.0000     -10.315863      -280.7089
  48   2.0000     -10.315826      -280.7079
  49   2.0000     -10.313356      -280.6407
  50   2.0000     -10.313327      -280.6399
  51   2.0000     -10.310046      -280.5506
  52   2.0000     -10.309944      -280.5478
  53   2.0000     -10.308200      -280.5004
  54   2.0000     -10.308110      -280.4979
  55   2.0000     -10.308066      -280.4967
  56   2.0000     -10.308006      -280.4951
  57   2.0000     -10.303601      -280.3752
  58   2.0000     -10.303595      -280.3751
  59   2.0000     -10.303186      -280.3639
  60   2.0000     -10.303174      -280.3636
  61   2.0000     -10.302646      -280.3493
  62   2.0000     -10.302497      -280.3452
  63   2.0000     -10.302413      -280.3429
  64   2.0000     -10.302307      -280.3400
  65   2.0000     -10.301868      -280.3281
  66   2.0000     -10.301783      -280.3258
  67   2.0000     -10.301085      -280.3068
  68   2.0000     -10.301004      -280.3046
  69   2.0000     -10.299357      -280.2598
  70   2.0000     -10.299222      -280.2561
  71   2.0000      -8.086995      -220.0583
  72   2.0000      -8.086954      -220.0572
  73   2.0000      -8.084624      -219.9938
  74   2.0000      -8.084544      -219.9916
  75   2.0000      -8.072325      -219.6591
  76   2.0000      -8.071651      -219.6408
  77   2.0000      -8.071564      -219.6384
  78   2.0000      -6.056305      -164.8004
  79   2.0000      -6.056243      -164.7987
  80   2.0000      -6.053838      -164.7333
  81   2.0000      -6.053800      -164.7323
  82   2.0000      -6.052048      -164.6846
  83   2.0000      -6.052014      -164.6837
  84   2.0000      -6.049436      -164.6135
  85   2.0000      -6.049325      -164.6105
  86   2.0000      -6.049292      -164.6096
  87   2.0000      -6.049242      -164.6082
  88   2.0000      -6.047280      -164.5549
  89   2.0000      -6.047166      -164.5517
  90   2.0000      -6.041823      -164.4064
  91   2.0000      -6.041096      -164.3866
  92   2.0000      -6.041005      -164.3841
  93   2.0000      -6.037495      -164.2886
  94   2.0000      -6.036893      -164.2722
  95   2.0000      -6.036808      -164.2699
  96   2.0000      -6.034360      -164.2033
  97   2.0000      -6.033564      -164.1816
  98   2.0000      -6.033457      -164.1787
  99   2.0000      -1.045584       -28.4518
 100   2.0000      -1.045523       -28.4501
 101   2.0000      -1.032938       -28.1077
 102   2.0000      -1.027237       -27.9525
 103   2.0000      -1.024916       -27.8894
 104   2.0000      -1.023122       -27.8406
 105   2.0000      -1.023041       -27.8384
 106   2.0000      -1.012998       -27.5651
 107   2.0000      -1.009995       -27.4834
 108   2.0000      -1.009514       -27.4703
 109   2.0000      -1.008608       -27.4456
 110   2.0000      -1.006310       -27.3831
 111   2.0000      -1.003467       -27.3057
 112   2.0000      -1.003442       -27.3050
 113   2.0000      -1.001983       -27.2654
 114   2.0000      -0.992987       -27.0206
 115   2.0000      -0.988875       -26.9087
 116   2.0000      -0.964399       -26.2426
 117   2.0000      -0.963361       -26.2144
 118   2.0000      -0.962792       -26.1989
 119   2.0000      -0.957268       -26.0486
 120   2.0000      -0.954875       -25.9835
 121   2.0000      -0.922738       -25.1090
 122   2.0000      -0.913960       -24.8701
 123   2.0000      -0.904689       -24.6178
 124   2.0000      -0.896480       -24.3945
 125   2.0000      -0.893575       -24.3154
 126   2.0000      -0.877083       -23.8667
 127   2.0000      -0.870970       -23.7003
 128   2.0000      -0.867979       -23.6189
 129   2.0000      -0.867711       -23.6116
 130   2.0000      -0.863940       -23.5090
 131   2.0000      -0.862749       -23.4766
 132   2.0000      -0.853398       -23.2221
 133   2.0000      -0.851765       -23.1777
 134   2.0000      -0.846532       -23.0353
 135   2.0000      -0.822587       -22.3837
 136   2.0000      -0.795620       -21.6499
 137   2.0000      -0.793106       -21.5815
 138   2.0000      -0.780174       -21.2296
 139   2.0000      -0.779198       -21.2031
 140   2.0000      -0.773247       -21.0411
 141   2.0000      -0.770512       -20.9667
 142   2.0000      -0.767012       -20.8715
 143   2.0000      -0.760213       -20.6864
 144   2.0000      -0.756472       -20.5847
 145   2.0000      -0.755387       -20.5551
 146   2.0000      -0.735381       -20.0107
 147   2.0000      -0.712493       -19.3879
 148   2.0000      -0.705248       -19.1908
 149   2.0000      -0.705225       -19.1901
 150   2.0000      -0.694111       -18.8877
 151   2.0000      -0.685211       -18.6456
 152   2.0000      -0.680362       -18.5136
 153   2.0000      -0.671581       -18.2746
 154   2.0000      -0.665677       -18.1140
 155   2.0000      -0.660382       -17.9699
 156   2.0000      -0.657098       -17.8806
 157   2.0000      -0.645583       -17.5672
 158   2.0000      -0.638662       -17.3789
 159   2.0000      -0.636356       -17.3161
 160   2.0000      -0.629146       -17.1199
 161   2.0000      -0.622231       -16.9318
 162   2.0000      -0.617174       -16.7942
 163   2.0000      -0.617130       -16.7930
 164   2.0000      -0.613426       -16.6922
 165   2.0000      -0.610790       -16.6204
 166   2.0000      -0.608434       -16.5563
 167   2.0000      -0.608044       -16.5457
 168   2.0000      -0.601381       -16.3644
 169   2.0000      -0.589459       -16.0400
 170   2.0000      -0.588463       -16.0129
 171   2.0000      -0.583980       -15.8909
 172   2.0000      -0.573559       -15.6073
 173   2.0000      -0.565542       -15.3892
 174   2.0000      -0.565523       -15.3887
 175   2.0000      -0.564679       -15.3657
 176   2.0000      -0.554843       -15.0980
 177   2.0000      -0.552460       -15.0332
 178   2.0000      -0.549709       -14.9583
 179   2.0000      -0.547840       -14.9075
 180   2.0000      -0.547164       -14.8891
 181   2.0000      -0.542933       -14.7739
 182   2.0000      -0.539975       -14.6935
 183   2.0000      -0.537847       -14.6356
 184   2.0000      -0.534609       -14.5474
 185   2.0000      -0.529942       -14.4205
 186   2.0000      -0.523918       -14.2565
 187   2.0000      -0.521671       -14.1954
 188   2.0000      -0.520223       -14.1560
 189   2.0000      -0.519486       -14.1359
 190   2.0000      -0.518174       -14.1002
 191   2.0000      -0.509904       -13.8752
 192   2.0000      -0.509375       -13.8608
 193   2.0000      -0.507545       -13.8110
 194   2.0000      -0.505580       -13.7575
 195   2.0000      -0.504449       -13.7268
 196   2.0000      -0.501864       -13.6564
 197   2.0000      -0.495794       -13.4913
 198   2.0000      -0.495690       -13.4884
 199   2.0000      -0.494931       -13.4678
 200   2.0000      -0.493439       -13.4272
 201   2.0000      -0.484608       -13.1869
 202   2.0000      -0.481215       -13.0945
 203   2.0000      -0.477578       -12.9956
 204   2.0000      -0.477302       -12.9880
 205   2.0000      -0.470287       -12.7971
 206   2.0000      -0.470235       -12.7957
 207   2.0000      -0.469280       -12.7698
 208   2.0000      -0.467112       -12.7108
 209   2.0000      -0.464229       -12.6323
 210   2.0000      -0.464136       -12.6298
 211   2.0000      -0.462318       -12.5803
 212   2.0000      -0.460986       -12.5441
 213   2.0000      -0.459652       -12.5078
 214   2.0000      -0.459142       -12.4939
 215   2.0000      -0.454607       -12.3705
 216   2.0000      -0.454114       -12.3571
 217   2.0000      -0.453606       -12.3433
 218   2.0000      -0.449972       -12.2444
 219   2.0000      -0.449599       -12.2342
 220   2.0000      -0.448530       -12.2051
 221   2.0000      -0.448146       -12.1947
 222   2.0000      -0.447185       -12.1685
 223   2.0000      -0.447124       -12.1669
 224   2.0000      -0.445531       -12.1235
 225   2.0000      -0.445369       -12.1191
 226   2.0000      -0.444031       -12.0827
 227   2.0000      -0.443029       -12.0554
 228   2.0000      -0.442313       -12.0359
 229   2.0000      -0.442228       -12.0336
 230   2.0000      -0.440136       -11.9767
 231   2.0000      -0.439775       -11.9669
 232   2.0000      -0.437550       -11.9064
 233   2.0000      -0.435209       -11.8426
 234   2.0000      -0.434588       -11.8257
 235   2.0000      -0.432812       -11.7774
 236   2.0000      -0.431838       -11.7509
 237   2.0000      -0.431174       -11.7328
 238   2.0000      -0.426989       -11.6190
 239   2.0000      -0.426757       -11.6127
 240   2.0000      -0.421229       -11.4622
 241   2.0000      -0.418083       -11.3766
 242   2.0000      -0.417930       -11.3725
 243   2.0000      -0.415335       -11.3018
 244   2.0000      -0.412240       -11.2176
 245   2.0000      -0.410634       -11.1739
 246   2.0000      -0.408704       -11.1214
 247   2.0000      -0.407606       -11.0915
 248   2.0000      -0.403849       -10.9893
 249   2.0000      -0.402465       -10.9516
 250   2.0000      -0.400088       -10.8869
 251   2.0000      -0.391381       -10.6500
 252   2.0000      -0.381700       -10.3866
 253   2.0000      -0.358716        -9.7612
 254   2.0000      -0.349233        -9.5031
 255   2.0000      -0.349135        -9.5004
 256   2.0000      -0.335303        -9.1241
 257   2.0000      -0.332544        -9.0490
 258   2.0000      -0.330229        -8.9860
 259   2.0000      -0.329635        -8.9698
 260   2.0000      -0.322568        -8.7775
 261   2.0000      -0.321387        -8.7454
 262   2.0000      -0.297693        -8.1006
 263   2.0000      -0.266676        -7.2566
 264   2.0000      -0.244787        -6.6610
 265   0.0000      -0.105094        -2.8598
 266   0.0000      -0.103822        -2.8251
 267   0.0000      -0.064977        -1.7681
 268   0.0000      -0.038654        -1.0518
 269   0.0000      -0.007475        -0.2034

MULLIKEN ATOMIC CHARGES
-----------------------
   0 C :   -0.081066
   1 C :    0.038226
   2 C :   -0.032021
   3 C :   -0.117639
   4 S :    0.183268
   5 C :   -0.095846
   6 C :    0.011584
   7 C :    0.302286
   8 C :   -0.304820
   9 C :   -0.176726
  10 N :    0.159681
  11 C :   -0.189451
  12 N :    0.178438
  13 C :   -0.065851
  14 C :   -0.071541
  15 S :    0.180842
  16 C :   -0.067021
  17 S :    0.096154
  18 C :   -0.111440
  19 C :   -0.077803
  20 C :   -0.082072
  21 C :    0.110862
  22 C :   -0.051661
  23 C :   -0.247066
  24 N :    0.143162
  25 C :   -0.051537
  26 C :   -0.249059
  27 N :    0.150698
  28 C :    0.120654
  29 C :   -0.098298
  30 S :    0.073146
  31 C :   -0.098440
  32 C :   -0.076469
  33 C :   -0.076077
  34 C :    0.117565
  35 C :   -0.049591
  36 C :   -0.251065
  37 N :    0.148117
  38 C :   -0.054053
  39 C :   -0.251230
  40 N :    0.150003
  41 C :    0.119922
  42 C :   -0.108841
  43 S :    0.097535
  44 C :   -0.067957
  45 C :   -0.080310
  46 C :   -0.080771
  47 C :    0.122299
  48 C :   -0.055719
  49 C :   -0.248676
  50 N :    0.152450
  51 C :   -0.046059
  52 C :   -0.251007
  53 N :    0.143908
  54 C :    0.108981
  55 C :   -0.071954
  56 C :   -0.068368
  57 C :    0.011707
  58 C :   -0.094881
  59 S :    0.180476
  60 C :   -0.119110
  61 C :   -0.033978
  62 C :    0.303825
  63 C :   -0.297318
  64 C :   -0.189570
  65 N :    0.176550
  66 C :   -0.177122
  67 N :    0.155229
  68 C :    0.037914
  69 C :   -0.080582
  70 S :    0.184079
  71 H :    0.036770
  72 H :    0.012296
  73 H :   -0.003616
  74 H :    0.075853
  75 H :    0.052871
  76 H :    0.060242
  77 H :    0.054774
  78 H :    0.053644
  79 H :    0.059859
  80 H :    0.062274
  81 H :    0.051383
  82 H :    0.053212
  83 H :    0.053594
  84 H :    0.051280
  85 H :    0.062480
  86 H :    0.059594
  87 H :    0.053049
  88 H :    0.055416
  89 H :    0.059295
  90 H :    0.052465
  91 H :    0.076510
  92 H :   -0.002362
  93 H :    0.012263
  94 H :    0.037361
Sum of atomic charges:   -0.0000000

LOEWDIN ATOMIC CHARGES
----------------------
   0 C :   -0.176912
   1 C :   -0.033266
   2 C :   -0.077242
   3 C :   -0.183835
   4 S :    0.479790
   5 C :   -0.179684
   6 C :   -0.071295
   7 C :    0.085106
   8 C :   -0.104890
   9 C :   -0.012313
  10 N :   -0.041047
  11 C :   -0.017756
  12 N :   -0.031405
  13 C :   -0.035697
  14 C :   -0.177377
  15 S :    0.467949
  16 C :   -0.187818
  17 S :    0.451376
  18 C :   -0.182344
  19 C :   -0.058933
  20 C :   -0.052823
  21 C :   -0.008850
  22 C :   -0.032595
  23 C :   -0.034785
  24 N :   -0.053048
  25 C :   -0.031975
  26 C :   -0.036499
  27 N :   -0.047304
  28 C :   -0.023017
  29 C :   -0.184016
  30 S :    0.486279
  31 C :   -0.183723
  32 C :   -0.059728
  33 C :   -0.059498
  34 C :   -0.022191
  35 C :   -0.032469
  36 C :   -0.036820
  37 N :   -0.048788
  38 C :   -0.032704
  39 C :   -0.036853
  40 N :   -0.048732
  41 C :   -0.022040
  42 C :   -0.182386
  43 S :    0.451444
  44 C :   -0.187668
  45 C :   -0.052853
  46 C :   -0.058886
  47 C :   -0.022895
  48 C :   -0.032105
  49 C :   -0.036474
  50 N :   -0.047234
  51 C :   -0.032403
  52 C :   -0.034914
  53 N :   -0.053015
  54 C :   -0.008932
  55 C :   -0.177486
  56 C :   -0.035821
  57 C :   -0.071239
  58 C :   -0.179491
  59 S :    0.467740
  60 C :   -0.184071
  61 C :   -0.077123
  62 C :    0.085154
  63 C :   -0.104707
  64 C :   -0.017931
  65 N :   -0.031332
  66 C :   -0.012200
  67 N :   -0.041288
  68 C :   -0.033187
  69 C :   -0.177172
  70 S :    0.480023
  71 H :    0.028018
  72 H :    0.042927
  73 H :    0.036920
  74 H :    0.048585
  75 H :    0.047237
  76 H :    0.065175
  77 H :    0.063013
  78 H :    0.038658
  79 H :    0.038100
  80 H :    0.039937
  81 H :    0.038191
  82 H :    0.062351
  83 H :    0.062355
  84 H :    0.038085
  85 H :    0.040083
  86 H :    0.037961
  87 H :    0.038548
  88 H :    0.063060
  89 H :    0.065092
  90 H :    0.047143
  91 H :    0.048673
  92 H :    0.037095
  93 H :    0.042862
  94 H :    0.028152

  Mayer bond orders larger than 0.100000
B(  0-C ,  1-C ) :   1.5492 B(  0-C ,  4-S ) :   1.1508 B(  0-C , 71-H ) :   0.9645
B(  1-C ,  2-C ) :   1.2761 B(  1-C , 72-H ) :   0.9964 B(  2-C ,  3-C ) :   1.4589
B(  2-C ,  7-C ) :   1.0158 B(  3-C ,  4-S ) :   1.1386 B(  3-C ,  5-C ) :   1.1766
B(  5-C ,  6-C ) :   1.4670 B(  5-C , 15-S ) :   1.1232 B(  6-C ,  7-C ) :   0.9976
B(  6-C , 13-C ) :   1.2629 B(  7-C ,  8-C ) :   1.7069 B(  8-C ,  9-C ) :   1.1387
B(  8-C , 11-C ) :   1.1308 B(  9-C , 10-N ) :   2.9769 B( 11-C , 12-N ) :   3.0044
B( 13-C , 14-C ) :   1.4831 B( 13-C , 73-H ) :   0.9884 B( 14-C , 15-S ) :   1.0996
B( 14-C , 16-C ) :   1.1120 B( 16-C , 17-S ) :   1.1060 B( 16-C , 18-C ) :   0.1204
B( 16-C , 20-C ) :   1.5611 B( 17-S , 18-C ) :   1.1217 B( 18-C , 19-C ) :   1.5276
B( 18-C , 29-C ) :   1.0951 B( 19-C , 20-C ) :   1.3037 B( 19-C , 28-C ) :   1.0401
B( 20-C , 21-C ) :   1.0473 B( 21-C , 22-C ) :   1.0514 B( 21-C , 74-H ) :   0.8927
B( 21-C , 75-H ) :   0.9102 B( 22-C , 23-C ) :   1.1082 B( 22-C , 25-C ) :   1.0771
B( 22-C , 76-H ) :   0.8516 B( 23-C , 24-N ) :   3.0996 B( 25-C , 26-C ) :   1.1104
B( 25-C , 28-C ) :   1.0555 B( 25-C , 77-H ) :   0.8508 B( 26-C , 27-N ) :   3.1012
B( 28-C , 78-H ) :   0.9092 B( 28-C , 79-H ) :   0.8966 B( 29-C , 30-S ) :   1.1199
B( 29-C , 31-C ) :   0.1160 B( 29-C , 33-C ) :   1.5196 B( 30-S , 31-C ) :   1.1195
B( 31-C , 32-C ) :   1.5190 B( 31-C , 42-C ) :   1.0956 B( 32-C , 33-C ) :   1.3096
B( 32-C , 41-C ) :   1.0419 B( 33-C , 34-C ) :   1.0417 B( 34-C , 35-C ) :   1.0564
B( 34-C , 80-H ) :   0.8974 B( 34-C , 81-H ) :   0.9089 B( 35-C , 36-C ) :   1.1088
B( 35-C , 38-C ) :   1.0769 B( 35-C , 82-H ) :   0.8526 B( 36-C , 37-N ) :   3.1032
B( 38-C , 39-C ) :   1.1094 B( 38-C , 41-C ) :   1.0556 B( 38-C , 83-H ) :   0.8529
B( 39-C , 40-N ) :   3.1037 B( 41-C , 84-H ) :   0.9086 B( 41-C , 85-H ) :   0.8974
B( 42-C , 43-S ) :   1.1208 B( 42-C , 44-C ) :   0.1210 B( 42-C , 46-C ) :   1.5289
B( 43-S , 44-C ) :   1.1077 B( 44-C , 45-C ) :   1.5611 B( 44-C , 55-C ) :   1.1125
B( 45-C , 46-C ) :   1.3041 B( 45-C , 54-C ) :   1.0471 B( 46-C , 47-C ) :   1.0396
B( 47-C , 48-C ) :   1.0549 B( 47-C , 86-H ) :   0.8967 B( 47-C , 87-H ) :   0.9092
B( 48-C , 49-C ) :   1.1119 B( 48-C , 51-C ) :   1.0749 B( 48-C , 88-H ) :   0.8520
B( 49-C , 50-N ) :   3.1020 B( 51-C , 52-C ) :   1.1104 B( 51-C , 54-C ) :   1.0517
B( 51-C , 89-H ) :   0.8509 B( 52-C , 53-N ) :   3.0993 B( 54-C , 90-H ) :   0.9099
B( 54-C , 91-H ) :   0.8929 B( 55-C , 56-C ) :   1.4802 B( 55-C , 59-S ) :   1.0993
B( 56-C , 57-C ) :   1.2627 B( 56-C , 92-H ) :   0.9893 B( 57-C , 58-C ) :   1.4681
B( 57-C , 62-C ) :   0.9954 B( 58-C , 59-S ) :   1.1228 B( 58-C , 60-C ) :   1.1768
B( 60-C , 61-C ) :   1.4588 B( 60-C , 70-S ) :   1.1389 B( 61-C , 62-C ) :   1.0135
B( 61-C , 68-C ) :   1.2793 B( 62-C , 63-C ) :   1.7081 B( 63-C , 64-C ) :   1.1279
B( 63-C , 66-C ) :   1.1356 B( 64-C , 65-N ) :   3.0041 B( 66-C , 67-N ) :   2.9759
B( 68-C , 69-C ) :   1.5496 B( 68-C , 93-H ) :   0.9955 B( 69-C , 70-S ) :   1.1501
B( 69-C , 94-H ) :   0.9639

-----------------------------------------------------------------------------
         ABSORPTION SPECTRUM VIA TRANSITION ELECTRIC DIPOLE MOMENTS
-----------------------------------------------------------------------------
State   Energy  Wavelength   fosc         T2         TX        TY        TZ
        (cm-1)    (nm)                  (au**2)     (au)      (au)      (au)
-----------------------------------------------------------------------------
   0   13934.5    717.6   0.213528550   5.04475   1.10810   1.86865  -0.57008
   1   14129.1    707.8   0.010779653   0.25117   0.26457  -0.07165   0.41957
   2   22258.3    449.3   1.268637351  18.76378  -1.67652  -3.91722   0.78004
   3   23120.2    432.5   0.000045053   0.00064  -0.00961   0.01076  -0.02082
   4   24540.6    407.5   1.067651465  14.32254   1.45401   3.42866  -0.67281
   5   28863.5    346.5   0.004571402   0.05214   0.13408  -0.02516   0.18311
   6   29287.7    341.4   0.042326299   0.47577  -0.32726  -0.58317   0.16907
   7   29672.0    337.0   0.000102458   0.00114   0.01049   0.00035   0.03204
   8   31036.0    322.2   0.003303653   0.03504   0.10130  -0.01460   0.15674
   9   32123.2    311.3   0.551759263   5.65466  -0.64020   2.06392   0.99249
  10   32163.0    310.9   0.790769688   8.09412  -1.66809   0.44280  -2.26175
  11   33605.5    297.6   0.015949907   0.15625   0.33443   0.07588  -0.19660
  12   33828.8    295.6   0.149465004   1.45455   0.67208  -0.09790   0.99663
  13   34850.0    286.9   0.066779362   0.63083   0.46927  -0.52592  -0.36610
  14   35275.0    283.5   0.009350479   0.08727   0.15480  -0.02472   0.25038
  15   35565.0    281.2   0.693134143   6.41608  -1.35472  -2.01034   0.73439
  16   35624.6    280.7   0.147874435   1.36653  -0.64174  -0.91130   0.35246
  17   36393.0    274.8   0.045863046   0.41488  -0.36395   0.04730  -0.52932
  18   36917.7    270.9   0.099496774   0.88726   0.76251   0.24885  -0.49387
  19   38031.2    262.9   0.022966869   0.19881   0.24873  -0.03197   0.36868
  20   38276.7    261.3   0.000784582   0.00675   0.05220   0.05698  -0.02787
  21   38791.3    257.8   0.003708141   0.03147  -0.00767   0.17628   0.01837
  22   39547.8    252.9   0.059453980   0.49492   0.13459   0.68998  -0.02694
  23   40095.8    249.4   0.016822653   0.13812   0.20358  -0.03312   0.30917

FINAL SINGLE POINT ENERGY     -5402.676416355792

DIPOLE MOMENT
-------------
                                X             Y             Z
Electronic contribution:     -7.43429       1.04415     -10.91587
Nuclear contribution   :      5.80673      -0.81424       8.51014
                        -----------------------------------------
Total Dipole Moment    :     -1.62756       0.22991      -2.40573
                        -----------------------------------------
Magnitude (a.u.)       :      2.91365
Magnitude (Debye)      :      7.40592

Rotational constants in cm-1:     0.002118     0.000302     0.000283
Rotational constants in MHz :    63.502296     9.064247     8.479981

                             ****ORCA TERMINATED NORMALLY****
TOTAL RUN TIME: 0 days 0 hours 13 minutes 45 seconds 365 msec
