                         Program Version 4.2.0 -  RELEASE  -
|  1> # ORCA input file
|  2> # SCF done       -208.561392038729          0.000411502782
|  3> ! CAM-B3LYP def2-SVP def2/J RIJCOSX Grid4 TightSCF
|  4> %maxcore 5000
|  5> %tddft
|  6>     Mode sTDDFT
|  7>     Ethresh 5.0
|  8>     maxcore 5000
|  9> end
| 10>
| 11> %pal
| 12>   nprocs 6
| 13>   end
| 14> * xyz 0 1
| 15>    C      -16.73110         1.27313         3.17779
| 16>    C      -18.09157         1.31126         3.30407
| 17>    F      -18.75602         2.45535         3.09221
| 18>    C      -18.81162         0.15276         3.65692
| 19>    F      -20.14552         0.21803         3.77235
| 20>    C      -18.16067        -1.02803         3.88082
| 21>    C      -16.75929        -1.09871         3.76173
| 22>    C      -16.03014         0.07114         3.40076
| 23>    C      -14.62254         0.02232         3.27152
| 24>    C      -13.96811        -1.15815         3.50245
| 25>    C      -14.70203        -2.31802         3.87604
| 26>    C      -16.06062        -2.30327         4.00194
| 27>    C      -13.76960        -3.44090         4.10576
| 28>    O      -14.07395        -4.56475         4.45111
| 29>    C      -12.41873        -2.87725         3.90970
| 30>    C      -12.55318        -1.51110         3.44818
| 31>    C      -11.54772        -0.72487         2.94931
| 32>    C      -11.73475         0.59650         2.49480
| 33>    N      -11.83333         1.67785         2.12231
| 34>    C      -10.21729        -1.15983         2.77193
| 35>    N       -9.13029        -1.46899         2.56909
| 36>    C      -11.24892        -3.45545         4.32714
| 37>    C      -11.05119        -4.78501         4.75569
| 38>    S       -9.89246        -5.05249         6.03976
| 39>    C      -10.34143        -6.70115         6.14105
| 40>    C      -11.28558        -7.06543         5.22845
| 41>    C      -11.82317        -8.44947         5.09076
| 42>    C      -11.67792        -5.97894         4.39622
| 43>    C      -12.51246        -6.14988         3.23919
| 44>    C      -12.31453        -5.51206         2.06451
| 45>    C      -13.12327        -5.72056         0.91613
| 46>    C      -12.82918        -5.21383        -0.30536
| 47>    C      -13.59988        -5.41621        -1.47822
| 48>    C      -13.24181        -5.08047        -2.77263
| 49>    C      -14.21499        -5.44502        -3.70294
| 50>    C      -15.33828        -6.04827        -3.11030
| 51>    S      -15.18255        -6.18722        -1.41661
| 52>    C      -16.26857        -6.37745        -4.13000
| 53>    C      -15.72644        -5.99145        -5.36625
| 54>    C      -14.40741        -5.42204        -5.14421
| 55>    C      -13.51495        -5.03430        -6.10095
| 56>    C      -13.79231        -5.18239        -7.47598
| 57>    N      -14.01155        -5.33465        -8.59166
| 58>    C      -12.24752        -4.50609        -5.77762
| 59>    N      -11.21862        -4.07421        -5.51430
| 60>    C      -16.57299        -6.25574        -6.44225
| 61>    C      -17.74728        -6.86399        -6.04447
| 62>    S      -17.81555        -7.08147        -4.29926
| 63>    C      -18.85306        -7.26274        -6.85271
| 64>    S      -20.44046        -7.28149        -6.14405
| 65>    C      -21.15536        -7.65149        -7.66179
| 66>    C      -20.24933        -7.75052        -8.66648
| 67>    C      -20.60935        -8.08132       -10.07576
| 68>    C      -18.90366        -7.55342        -8.21377
| 69>    C      -17.79202        -7.73709        -9.10403
| 70>    C      -16.56943        -8.20711        -8.76630
| 71>    C      -15.53290        -8.42273        -9.70630
| 72>    C      -14.30662        -8.89399        -9.35236
| 73>    C      -13.21299        -9.12339       -10.21630
| 74>    C      -13.15079        -9.33253       -11.56601
| 75>    C      -11.82901        -9.16785       -12.23155
| 76>    O      -10.75451        -9.05650       -11.68714
| 77>    C      -12.11557        -9.13702       -13.67978
| 78>    C      -11.26160        -8.90973       -14.71946
| 79>    C      -11.76934        -8.91368       -16.03808
| 80>    C      -13.15958        -9.14342       -16.24966
| 81>    C      -13.66127        -9.14169       -17.56672
| 82>    C      -12.82166        -8.92743       -18.62339
| 83>    C      -11.44660        -8.70260       -18.41299
| 84>    C      -10.93004        -8.69493       -17.14772
| 85>    F      -10.64681        -8.49528       -19.46842
| 86>    F      -13.30060        -8.92958       -19.87505
| 87>    C      -14.01854        -9.37973       -15.15157
| 88>    C      -13.50159        -9.38731       -13.88370
| 89>    C      -14.12413        -9.64935       -12.58489
| 90>    C      -15.32102       -10.30195       -12.42250
| 91>    C      -15.80479       -10.78484       -11.19223
| 92>    N      -16.24342       -11.22366       -10.22603
| 93>    C      -16.19000       -10.63378       -13.48120
| 94>    N      -16.95529       -10.90301       -14.29401
| 95>    H      -16.19542         2.16912         2.90557
| 96>    H      -18.72612        -1.90575         4.15220
| 97>    H      -14.09664         0.92431         3.00250
| 98>    H      -16.59521        -3.19731         4.28478
| 99>    H      -10.38906        -2.80643         4.45482
|100>    H       -9.87585        -7.32580         6.87887
|101>    H      -11.38807        -9.10271         5.84224
|102>    H      -11.59452        -8.84847         4.10338
|103>    H      -12.90530        -8.44463         5.21326
|104>    H      -13.28580        -6.90157         3.31180
|105>    H      -11.48356        -4.82489         1.96258
|106>    H      -14.00842        -6.33290         1.03699
|107>    H      -11.92632        -4.63116        -0.43764
|108>    H      -12.30895        -4.60282        -3.01175
|109>    H      -16.36373        -6.00181        -7.46439
|110>    H      -22.21851        -7.77655        -7.72091
|111>    H      -21.68219        -8.22858       -10.16507
|112>    H      -20.10303        -8.99174       -10.39332
|113>    H      -20.31359        -7.27426       -10.74541
|114>    H      -17.99909        -7.54913       -10.14993
|115>    H      -16.36231        -8.48099        -7.74147
|116>    H      -15.72896        -8.14771       -10.73432
|117>    H      -14.11048        -9.04408        -8.29810
|118>    H      -12.23284        -9.07929        -9.74786
|119>    H      -10.21242        -8.73209       -14.53894
|120>    H      -14.71062        -9.31653       -17.74615
|121>    H       -9.87526        -8.52135       -17.00285
|122>    H      -15.06678        -9.54382       -15.34355
|123> *
|124>
|125>                          ****END OF INPUT****

CARTESIAN COORDINATES (ANGSTROEM)
---------------------------------
  C    -16.731100    1.273130    3.177790
  C    -18.091570    1.311260    3.304070
  F    -18.756020    2.455350    3.092210
  C    -18.811620    0.152760    3.656920
  F    -20.145520    0.218030    3.772350
  C    -18.160670   -1.028030    3.880820
  C    -16.759290   -1.098710    3.761730
  C    -16.030140    0.071140    3.400760
  C    -14.622540    0.022320    3.271520
  C    -13.968110   -1.158150    3.502450
  C    -14.702030   -2.318020    3.876040
  C    -16.060620   -2.303270    4.001940
  C    -13.769600   -3.440900    4.105760
  O    -14.073950   -4.564750    4.451110
  C    -12.418730   -2.877250    3.909700
  C    -12.553180   -1.511100    3.448180
  C    -11.547720   -0.724870    2.949310
  C    -11.734750    0.596500    2.494800
  N    -11.833330    1.677850    2.122310
  C    -10.217290   -1.159830    2.771930
  N     -9.130290   -1.468990    2.569090
  C    -11.248920   -3.455450    4.327140
  C    -11.051190   -4.785010    4.755690
  S     -9.892460   -5.052490    6.039760
  C    -10.341430   -6.701150    6.141050
  C    -11.285580   -7.065430    5.228450
  C    -11.823170   -8.449470    5.090760
  C    -11.677920   -5.978940    4.396220
  C    -12.512460   -6.149880    3.239190
  C    -12.314530   -5.512060    2.064510
  C    -13.123270   -5.720560    0.916130
  C    -12.829180   -5.213830   -0.305360
  C    -13.599880   -5.416210   -1.478220
  C    -13.241810   -5.080470   -2.772630
  C    -14.214990   -5.445020   -3.702940
  C    -15.338280   -6.048270   -3.110300
  S    -15.182550   -6.187220   -1.416610
  C    -16.268570   -6.377450   -4.130000
  C    -15.726440   -5.991450   -5.366250
  C    -14.407410   -5.422040   -5.144210
  C    -13.514950   -5.034300   -6.100950
  C    -13.792310   -5.182390   -7.475980
  N    -14.011550   -5.334650   -8.591660
  C    -12.247520   -4.506090   -5.777620
  N    -11.218620   -4.074210   -5.514300
  C    -16.572990   -6.255740   -6.442250
  C    -17.747280   -6.863990   -6.044470
  S    -17.815550   -7.081470   -4.299260
  C    -18.853060   -7.262740   -6.852710
  S    -20.440460   -7.281490   -6.144050
  C    -21.155360   -7.651490   -7.661790
  C    -20.249330   -7.750520   -8.666480
  C    -20.609350   -8.081320  -10.075760
  C    -18.903660   -7.553420   -8.213770
  C    -17.792020   -7.737090   -9.104030
  C    -16.569430   -8.207110   -8.766300
  C    -15.532900   -8.422730   -9.706300
  C    -14.306620   -8.893990   -9.352360
  C    -13.212990   -9.123390  -10.216300
  C    -13.150790   -9.332530  -11.566010
  C    -11.829010   -9.167850  -12.231550
  O    -10.754510   -9.056500  -11.687140
  C    -12.115570   -9.137020  -13.679780
  C    -11.261600   -8.909730  -14.719460
  C    -11.769340   -8.913680  -16.038080
  C    -13.159580   -9.143420  -16.249660
  C    -13.661270   -9.141690  -17.566720
  C    -12.821660   -8.927430  -18.623390
  C    -11.446600   -8.702600  -18.412990
  C    -10.930040   -8.694930  -17.147720
  F    -10.646810   -8.495280  -19.468420
  F    -13.300600   -8.929580  -19.875050
  C    -14.018540   -9.379730  -15.151570
  C    -13.501590   -9.387310  -13.883700
  C    -14.124130   -9.649350  -12.584890
  C    -15.321020  -10.301950  -12.422500
  C    -15.804790  -10.784840  -11.192230
  N    -16.243420  -11.223660  -10.226030
  C    -16.190000  -10.633780  -13.481200
  N    -16.955290  -10.903010  -14.294010
  H    -16.195420    2.169120    2.905570
  H    -18.726120   -1.905750    4.152200
  H    -14.096640    0.924310    3.002500
  H    -16.595210   -3.197310    4.284780
  H    -10.389060   -2.806430    4.454820
  H     -9.875850   -7.325800    6.878870
  H    -11.388070   -9.102710    5.842240
  H    -11.594520   -8.848470    4.103380
  H    -12.905300   -8.444630    5.213260
  H    -13.285800   -6.901570    3.311800
  H    -11.483560   -4.824890    1.962580
  H    -14.008420   -6.332900    1.036990
  H    -11.926320   -4.631160   -0.437640
  H    -12.308950   -4.602820   -3.011750
  H    -16.363730   -6.001810   -7.464390
  H    -22.218510   -7.776550   -7.720910
  H    -21.682190   -8.228580  -10.165070
  H    -20.103030   -8.991740  -10.393320
  H    -20.313590   -7.274260  -10.745410
  H    -17.999090   -7.549130  -10.149930
  H    -16.362310   -8.480990   -7.741470
  H    -15.728960   -8.147710  -10.734320
  H    -14.110480   -9.044080   -8.298100
  H    -12.232840   -9.079290   -9.747860
  H    -10.212420   -8.732090  -14.538940
  H    -14.710620   -9.316530  -17.746150
  H     -9.875260   -8.521350  -17.002850
  H    -15.066780   -9.543820  -15.343550

 Total Charge           Charge          ....    0
 Multiplicity           Mult            ....    1
 Number of Electrons    NEL             ....  570
 Basis Dimension        Dim             .... 1276

ORBITAL ENERGIES
----------------

  NO   OCC          E(Eh)            E(eV)
   0   2.0000     -88.990719     -2421.5606
   1   2.0000     -88.987301     -2421.4676
   2   2.0000     -88.967883     -2420.9392
   3   2.0000     -88.965748     -2420.8811
   4   2.0000     -24.799392      -674.8258
   5   2.0000     -24.797894      -674.7850
   6   2.0000     -24.794980      -674.7057
   7   2.0000     -24.794478      -674.6920
   8   2.0000     -19.218072      -522.9503
   9   2.0000     -19.209760      -522.7241
  10   2.0000     -14.432725      -392.7344
  11   2.0000     -14.430055      -392.6618
  12   2.0000     -14.415787      -392.2735
  13   2.0000     -14.415672      -392.2704
  14   2.0000     -14.414441      -392.2369
  15   2.0000     -14.414057      -392.2264
  16   2.0000     -10.382172      -282.5133
  17   2.0000     -10.381131      -282.4849
  18   2.0000     -10.377925      -282.3977
  19   2.0000     -10.377433      -282.3843
  20   2.0000     -10.367214      -282.1062
  21   2.0000     -10.365109      -282.0490
  22   2.0000     -10.360617      -281.9267
  23   2.0000     -10.352500      -281.7059
  24   2.0000     -10.342574      -281.4358
  25   2.0000     -10.341426      -281.4045
  26   2.0000     -10.340290      -281.3736
  27   2.0000     -10.339426      -281.3501
  28   2.0000     -10.333102      -281.1780
  29   2.0000     -10.332912      -281.1728
  30   2.0000     -10.331129      -281.1243
  31   2.0000     -10.330257      -281.1006
  32   2.0000     -10.328442      -281.0512
  33   2.0000     -10.327372      -281.0221
  34   2.0000     -10.320957      -280.8475
  35   2.0000     -10.320403      -280.8324
  36   2.0000     -10.318674      -280.7854
  37   2.0000     -10.318610      -280.7837
  38   2.0000     -10.317759      -280.7605
  39   2.0000     -10.315149      -280.6895
  40   2.0000     -10.314082      -280.6604
  41   2.0000     -10.310942      -280.5750
  42   2.0000     -10.310507      -280.5632
  43   2.0000     -10.310392      -280.5600
  44   2.0000     -10.310305      -280.5577
  45   2.0000     -10.307209      -280.4734
  46   2.0000     -10.306940      -280.4661
  47   2.0000     -10.306500      -280.4541
  48   2.0000     -10.304097      -280.3887
  49   2.0000     -10.302883      -280.3557
  50   2.0000     -10.302830      -280.3542
  51   2.0000     -10.302204      -280.3372
  52   2.0000     -10.301891      -280.3287
  53   2.0000     -10.301758      -280.3251
  54   2.0000     -10.301476      -280.3174
  55   2.0000     -10.301195      -280.3098
  56   2.0000     -10.300997      -280.3044
  57   2.0000     -10.299457      -280.2625
  58   2.0000     -10.299042      -280.2512
  59   2.0000     -10.298886      -280.2469
  60   2.0000     -10.298653      -280.2406
  61   2.0000     -10.298393      -280.2335
  62   2.0000     -10.297727      -280.2154
  63   2.0000     -10.297520      -280.2098
  64   2.0000     -10.297136      -280.1993
  65   2.0000     -10.296874      -280.1922
  66   2.0000     -10.295362      -280.1510
  67   2.0000     -10.293648      -280.1044
  68   2.0000     -10.292810      -280.0816
  69   2.0000     -10.292399      -280.0704
  70   2.0000     -10.291771      -280.0533
  71   2.0000     -10.289031      -279.9788
  72   2.0000     -10.288395      -279.9615
  73   2.0000     -10.287608      -279.9400
  74   2.0000     -10.287144      -279.9274
  75   2.0000     -10.285045      -279.8703
  76   2.0000     -10.284910      -279.8666
  77   2.0000     -10.283817      -279.8369
  78   2.0000     -10.279203      -279.7113
  79   2.0000     -10.274782      -279.5910
  80   2.0000      -8.085393      -220.0147
  81   2.0000      -8.082014      -219.9228
  82   2.0000      -8.063992      -219.4324
  83   2.0000      -8.061884      -219.3750
  84   2.0000      -6.054671      -164.7560
  85   2.0000      -6.051193      -164.6613
  86   2.0000      -6.050420      -164.6403
  87   2.0000      -6.047758      -164.5679
  88   2.0000      -6.047116      -164.5504
  89   2.0000      -6.044414      -164.4769
  90   2.0000      -6.033249      -164.1731
  91   2.0000      -6.031202      -164.1173
  92   2.0000      -6.029033      -164.0583
  93   2.0000      -6.026843      -163.9987
  94   2.0000      -6.026151      -163.9799
  95   2.0000      -6.024097      -163.9240
  96   2.0000      -1.321383       -35.9567
  97   2.0000      -1.317438       -35.8493
  98   2.0000      -1.306512       -35.5520
  99   2.0000      -1.302611       -35.4458
 100   2.0000      -1.132279       -30.8109
 101   2.0000      -1.125238       -30.6193
 102   2.0000      -1.044440       -28.4207
 103   2.0000      -1.022840       -27.8329
 104   2.0000      -1.020239       -27.7621
 105   2.0000      -1.017241       -27.6805
 106   2.0000      -1.009047       -27.4576
 107   2.0000      -1.005352       -27.3570
 108   2.0000      -1.004477       -27.3332
 109   2.0000      -1.001327       -27.2475
 110   2.0000      -1.001177       -27.2434
 111   2.0000      -0.994482       -27.0612
 112   2.0000      -0.992909       -27.0184
 113   2.0000      -0.987739       -26.8778
 114   2.0000      -0.981430       -26.7061
 115   2.0000      -0.977567       -26.6010
 116   2.0000      -0.958508       -26.0823
 117   2.0000      -0.934908       -25.4401
 118   2.0000      -0.933261       -25.3953
 119   2.0000      -0.926715       -25.2172
 120   2.0000      -0.923632       -25.1333
 121   2.0000      -0.910727       -24.7821
 122   2.0000      -0.908102       -24.7107
 123   2.0000      -0.902244       -24.5513
 124   2.0000      -0.894110       -24.3300
 125   2.0000      -0.890353       -24.2277
 126   2.0000      -0.886876       -24.1331
 127   2.0000      -0.885254       -24.0890
 128   2.0000      -0.882995       -24.0275
 129   2.0000      -0.874279       -23.7903
 130   2.0000      -0.865304       -23.5461
 131   2.0000      -0.855925       -23.2909
 132   2.0000      -0.853646       -23.2289
 133   2.0000      -0.848200       -23.0807
 134   2.0000      -0.840765       -22.8784
 135   2.0000      -0.836940       -22.7743
 136   2.0000      -0.828273       -22.5385
 137   2.0000      -0.818929       -22.2842
 138   2.0000      -0.806390       -21.9430
 139   2.0000      -0.795845       -21.6561
 140   2.0000      -0.780008       -21.2251
 141   2.0000      -0.774690       -21.0804
 142   2.0000      -0.768461       -20.9109
 143   2.0000      -0.767030       -20.8719
 144   2.0000      -0.763838       -20.7851
 145   2.0000      -0.762131       -20.7386
 146   2.0000      -0.742468       -20.2036
 147   2.0000      -0.738169       -20.0866
 148   2.0000      -0.731739       -19.9116
 149   2.0000      -0.719392       -19.5757
 150   2.0000      -0.717323       -19.5193
 151   2.0000      -0.713578       -19.4175
 152   2.0000      -0.706790       -19.2327
 153   2.0000      -0.704664       -19.1749
 154   2.0000      -0.692999       -18.8575
 155   2.0000      -0.686560       -18.6823
 156   2.0000      -0.684829       -18.6351
 157   2.0000      -0.680857       -18.5271
 158   2.0000      -0.678611       -18.4659
 159   2.0000      -0.669254       -18.2113
 160   2.0000      -0.662500       -18.0275
 161   2.0000      -0.660758       -17.9801
 162   2.0000      -0.653614       -17.7857
 163   2.0000      -0.652357       -17.7515
 164   2.0000      -0.650261       -17.6945
 165   2.0000      -0.644064       -17.5259
 166   2.0000      -0.642284       -17.4774
 167   2.0000      -0.639158       -17.3924
 168   2.0000      -0.637539       -17.3483
 169   2.0000      -0.628750       -17.1092
 170   2.0000      -0.624650       -16.9976
 171   2.0000      -0.618866       -16.8402
 172   2.0000      -0.615653       -16.7528
 173   2.0000      -0.611257       -16.6332
 174   2.0000      -0.608095       -16.5471
 175   2.0000      -0.604459       -16.4482
 176   2.0000      -0.593555       -16.1515
 177   2.0000      -0.589291       -16.0354
 178   2.0000      -0.588206       -16.0059
 179   2.0000      -0.585990       -15.9456
 180   2.0000      -0.585862       -15.9421
 181   2.0000      -0.582111       -15.8400
 182   2.0000      -0.578257       -15.7352
 183   2.0000      -0.576323       -15.6825
 184   2.0000      -0.567106       -15.4317
 185   2.0000      -0.561635       -15.2829
 186   2.0000      -0.560109       -15.2414
 187   2.0000      -0.555508       -15.1161
 188   2.0000      -0.551833       -15.0161
 189   2.0000      -0.550516       -14.9803
 190   2.0000      -0.547646       -14.9022
 191   2.0000      -0.547041       -14.8857
 192   2.0000      -0.546269       -14.8647
 193   2.0000      -0.543860       -14.7992
 194   2.0000      -0.539957       -14.6930
 195   2.0000      -0.535624       -14.5751
 196   2.0000      -0.533371       -14.5138
 197   2.0000      -0.531987       -14.4761
 198   2.0000      -0.531560       -14.4645
 199   2.0000      -0.528709       -14.3869
 200   2.0000      -0.527102       -14.3432
 201   2.0000      -0.525534       -14.3005
 202   2.0000      -0.522712       -14.2237
 203   2.0000      -0.518814       -14.1176
 204   2.0000      -0.518420       -14.1069
 205   2.0000      -0.516558       -14.0563
 206   2.0000      -0.515971       -14.0403
 207   2.0000      -0.512996       -13.9593
 208   2.0000      -0.512467       -13.9449
 209   2.0000      -0.508353       -13.8330
 210   2.0000      -0.505557       -13.7569
 211   2.0000      -0.505156       -13.7460
 212   2.0000      -0.502411       -13.6713
 213   2.0000      -0.500155       -13.6099
 214   2.0000      -0.497945       -13.5498
 215   2.0000      -0.496617       -13.5136
 216   2.0000      -0.494228       -13.4486
 217   2.0000      -0.491646       -13.3784
 218   2.0000      -0.491425       -13.3723
 219   2.0000      -0.487839       -13.2748
 220   2.0000      -0.486350       -13.2343
 221   2.0000      -0.481467       -13.1014
 222   2.0000      -0.481217       -13.0946
 223   2.0000      -0.477135       -12.9835
 224   2.0000      -0.474190       -12.9034
 225   2.0000      -0.472716       -12.8632
 226   2.0000      -0.469513       -12.7761
 227   2.0000      -0.465580       -12.6691
 228   2.0000      -0.464983       -12.6528
 229   2.0000      -0.463870       -12.6225
 230   2.0000      -0.463627       -12.6159
 231   2.0000      -0.462424       -12.5832
 232   2.0000      -0.461128       -12.5479
 233   2.0000      -0.459221       -12.4960
 234   2.0000      -0.458652       -12.4806
 235   2.0000      -0.458249       -12.4696
 236   2.0000      -0.453509       -12.3406
 237   2.0000      -0.450722       -12.2648
 238   2.0000      -0.449901       -12.2424
 239   2.0000      -0.448801       -12.2125
 240   2.0000      -0.447845       -12.1865
 241   2.0000      -0.446624       -12.1533
 242   2.0000      -0.445319       -12.1178
 243   2.0000      -0.444218       -12.0878
 244   2.0000      -0.443854       -12.0779
 245   2.0000      -0.442498       -12.0410
 246   2.0000      -0.441176       -12.0050
 247   2.0000      -0.439106       -11.9487
 248   2.0000      -0.438511       -11.9325
 249   2.0000      -0.434082       -11.8120
 250   2.0000      -0.433134       -11.7862
 251   2.0000      -0.430585       -11.7168
 252   2.0000      -0.427840       -11.6421
 253   2.0000      -0.427228       -11.6255
 254   2.0000      -0.425695       -11.5837
 255   2.0000      -0.425425       -11.5764
 256   2.0000      -0.423724       -11.5301
 257   2.0000      -0.423580       -11.5262
 258   2.0000      -0.420831       -11.4514
 259   2.0000      -0.415752       -11.3132
 260   2.0000      -0.411424       -11.1954
 261   2.0000      -0.405953       -11.0466
 262   2.0000      -0.403384       -10.9766
 263   2.0000      -0.398796       -10.8518
 264   2.0000      -0.393049       -10.6954
 265   2.0000      -0.386383       -10.5140
 266   2.0000      -0.382094       -10.3973
 267   2.0000      -0.381397       -10.3783
 268   2.0000      -0.361561        -9.8386
 269   2.0000      -0.358638        -9.7590
 270   2.0000      -0.354875        -9.6566
 271   2.0000      -0.348862        -9.4930
 272   2.0000      -0.335430        -9.1275
 273   2.0000      -0.333159        -9.0657
 274   2.0000      -0.325383        -8.8541
 275   2.0000      -0.323440        -8.8013
 276   2.0000      -0.319509        -8.6943
 277   2.0000      -0.317864        -8.6495
 278   2.0000      -0.313584        -8.5331
 279   2.0000      -0.304952        -8.2982
 280   2.0000      -0.298739        -8.1291
 281   2.0000      -0.294948        -8.0259
 282   2.0000      -0.284444        -7.7401
 283   2.0000      -0.268159        -7.2970
 284   2.0000      -0.241313        -6.5665
 285   0.0000      -0.107820        -2.9339
 286   0.0000      -0.095116        -2.5882
 287   0.0000      -0.093917        -2.5556
 288   0.0000      -0.065188        -1.7738
 289   0.0000      -0.057976        -1.5776

MULLIKEN ATOMIC CHARGES
-----------------------
   0 C :   -0.107304
   1 C :    0.240959
   2 F :   -0.171857
   3 C :    0.237399
   4 F :   -0.173203
   5 C :   -0.106162
   6 C :    0.118672
   7 C :    0.112853
   8 C :   -0.085910
   9 C :    0.053118
  10 C :   -0.002355
  11 C :   -0.088749
  12 C :    0.165350
  13 O :   -0.150468
  14 C :   -0.104658
  15 C :    0.295114
  16 C :   -0.346232
  17 C :   -0.178262
  18 N :    0.148764
  19 C :   -0.215293
  20 N :    0.166405
  21 C :    0.012365
  22 C :   -0.194281
  23 S :    0.141853
  24 C :   -0.104226
  25 C :   -0.091737
  26 C :    0.115830
  27 C :    0.167957
  28 C :   -0.004313
  29 C :    0.018938
  30 C :   -0.006564
  31 C :    0.014245
  32 C :   -0.047401
  33 C :   -0.030346
  34 C :    0.008226
  35 C :   -0.101653
  36 S :    0.170376
  37 C :   -0.092409
  38 C :   -0.004301
  39 C :    0.301185
  40 C :   -0.297385
  41 C :   -0.185488
  42 N :    0.166788
  43 C :   -0.187043
  44 N :    0.177920
  45 C :   -0.046733
  46 C :   -0.092608
  47 S :    0.188999
  48 C :   -0.133578
  49 S :    0.123296
  50 C :   -0.123845
  51 C :   -0.076452
  52 C :    0.111631
  53 C :    0.131512
  54 C :   -0.044278
  55 C :    0.011522
  56 C :    0.056853
  57 C :    0.008039
  58 C :    0.054889
  59 C :   -0.127841
  60 C :    0.132487
  61 O :   -0.142624
  62 C :    0.017524
  63 C :   -0.081772
  64 C :    0.111905
  65 C :    0.111489
  66 C :   -0.108101
  67 C :    0.241069
  68 C :    0.237324
  69 C :   -0.102812
  70 F :   -0.173001
  71 F :   -0.173072
  72 C :   -0.083583
  73 C :    0.031890
  74 C :    0.284238
  75 C :   -0.350104
  76 C :   -0.207300
  77 N :    0.173392
  78 C :   -0.174097
  79 N :    0.142941
  80 H :    0.007438
  81 H :   -0.003745
  82 H :   -0.005292
  83 H :   -0.015457
  84 H :    0.030015
  85 H :    0.027580
  86 H :    0.011714
  87 H :    0.034222
  88 H :    0.038517
  89 H :   -0.008653
  90 H :    0.008211
  91 H :   -0.005024
  92 H :    0.002998
  93 H :    0.007969
  94 H :    0.022891
  95 H :    0.021533
  96 H :    0.013511
  97 H :    0.043029
  98 H :    0.033483
  99 H :   -0.004587
 100 H :    0.020640
 101 H :    0.015262
 102 H :   -0.000869
 103 H :    0.029173
 104 H :   -0.008900
 105 H :    0.005856
 106 H :   -0.000950
 107 H :   -0.006479
Sum of atomic charges:   -0.0000000

LOEWDIN ATOMIC CHARGES
----------------------
   0 C :   -0.029255
   1 C :    0.065427
   2 F :   -0.049758
   3 C :    0.066971
   4 F :   -0.050634
   5 C :   -0.034698
   6 C :   -0.008881
   7 C :   -0.007888
   8 C :    0.016995
   9 C :   -0.022922
  10 C :   -0.047894
  11 C :    0.024548
  12 C :    0.081932
  13 O :   -0.133175
  14 C :   -0.101941
  15 C :    0.075544
  16 C :   -0.143538
  17 C :   -0.018397
  18 N :   -0.054459
  19 C :   -0.028029
  20 N :   -0.052345
  21 C :    0.053538
  22 C :   -0.185343
  23 S :    0.451247
  24 C :   -0.164956
  25 C :   -0.056523
  26 C :   -0.043072
  27 C :   -0.010428
  28 C :   -0.007061
  29 C :   -0.014490
  30 C :   -0.031623
  31 C :   -0.033507
  32 C :   -0.162457
  33 C :   -0.025393
  34 C :   -0.074701
  35 C :   -0.176839
  36 S :    0.469256
  37 C :   -0.185878
  38 C :   -0.071164
  39 C :    0.083612
  40 C :   -0.103973
  41 C :   -0.014728
  42 N :   -0.036781
  43 C :   -0.018308
  44 N :   -0.029802
  45 C :   -0.026777
  46 C :   -0.183761
  47 S :    0.471561
  48 C :   -0.183387
  49 S :    0.433473
  50 C :   -0.189918
  51 C :   -0.048388
  52 C :   -0.044018
  53 C :   -0.063052
  54 C :    0.007423
  55 C :   -0.013204
  56 C :    0.050643
  57 C :   -0.044232
  58 C :    0.074784
  59 C :   -0.098568
  60 C :    0.082733
  61 O :   -0.142809
  62 C :   -0.052329
  63 C :    0.029784
  64 C :   -0.009545
  65 C :   -0.006371
  66 C :   -0.030901
  67 C :    0.066044
  68 C :    0.066280
  69 C :   -0.032854
  70 F :   -0.050705
  71 F :   -0.050523
  72 C :    0.011864
  73 C :   -0.019874
  74 C :    0.068114
  75 C :   -0.147184
  76 C :   -0.017494
  77 N :   -0.044270
  78 C :   -0.019775
  79 N :   -0.059572
  80 H :    0.047606
  81 H :    0.043683
  82 H :    0.039897
  83 H :    0.038066
  84 H :    0.045644
  85 H :    0.027068
  86 H :    0.034422
  87 H :    0.038961
  88 H :    0.039156
  89 H :    0.031121
  90 H :    0.032161
  91 H :    0.021758
  92 H :    0.041146
  93 H :    0.042232
  94 H :    0.041832
  95 H :    0.024413
  96 H :    0.035619
  97 H :    0.041576
  98 H :    0.036569
  99 H :    0.032622
 100 H :    0.035173
 101 H :    0.034197
 102 H :    0.034486
 103 H :    0.048425
 104 H :    0.040623
 105 H :    0.046814
 106 H :    0.044702
 107 H :    0.038609

  Mayer bond orders larger than 0.100000
B(  0-C ,  1-C ) :   1.4399 B(  0-C ,  5-C ) :   0.1087 B(  0-C ,  7-C ) :   1.1891
B(  0-C , 80-H ) :   1.0065 B(  1-C ,  2-F ) :   1.1340 B(  1-C ,  3-C ) :   1.1945
B(  3-C ,  4-F ) :   1.1323 B(  3-C ,  5-C ) :   1.4405 B(  5-C ,  6-C ) :   1.1947
B(  5-C , 81-H ) :   1.0067 B(  6-C ,  7-C ) :   1.2589 B(  6-C , 11-C ) :   1.1826
B(  7-C ,  8-C ) :   1.2126 B(  8-C ,  9-C ) :   1.4535 B(  8-C , 82-H ) :   0.9909
B(  9-C , 10-C ) :   1.2201 B(  9-C , 15-C ) :   0.9883 B( 10-C , 11-C ) :   1.4797
B( 10-C , 12-C ) :   0.9409 B( 11-C , 83-H ) :   1.0163 B( 12-C , 13-O ) :   2.1842
B( 12-C , 14-C ) :   0.9661 B( 14-C , 15-C ) :   1.0669 B( 14-C , 21-C ) :   1.5713
B( 15-C , 16-C ) :   1.6428 B( 16-C , 17-C ) :   1.1408 B( 16-C , 19-C ) :   1.1447
B( 17-C , 18-N ) :   2.9695 B( 19-C , 20-N ) :   3.0016 B( 21-C , 22-C ) :   1.2029
B( 21-C , 84-H ) :   0.9358 B( 22-C , 23-S ) :   1.1053 B( 22-C , 27-C ) :   1.4049
B( 23-S , 24-C ) :   1.1747 B( 24-C , 25-C ) :   1.5533 B( 24-C , 85-H ) :   0.9660
B( 25-C , 26-C ) :   1.0961 B( 25-C , 27-C ) :   1.2696 B( 26-C , 86-H ) :   0.9496
B( 26-C , 87-H ) :   0.9424 B( 26-C , 88-H ) :   0.9448 B( 27-C , 28-C ) :   1.0765
B( 28-C , 29-C ) :   1.6951 B( 28-C , 89-H ) :   0.9459 B( 29-C , 30-C ) :   1.1525
B( 29-C , 90-H ) :   0.9810 B( 30-C , 31-C ) :   1.6286 B( 30-C , 91-H ) :   0.9796
B( 31-C , 32-C ) :   1.1437 B( 31-C , 92-H ) :   0.9816 B( 32-C , 33-C ) :   1.4409
B( 32-C , 36-S ) :   1.0851 B( 33-C , 34-C ) :   1.2765 B( 33-C , 93-H ) :   1.0040
B( 34-C , 35-C ) :   1.4383 B( 34-C , 39-C ) :   0.9975 B( 35-C , 36-S ) :   1.1258
B( 35-C , 37-C ) :   1.1933 B( 37-C , 38-C ) :   1.4404 B( 37-C , 47-S ) :   1.1173
B( 38-C , 39-C ) :   0.9941 B( 38-C , 45-C ) :   1.2917 B( 39-C , 40-C ) :   1.7127
B( 40-C , 41-C ) :   1.1352 B( 40-C , 43-C ) :   1.1296 B( 41-C , 42-N ) :   2.9765
B( 43-C , 44-N ) :   2.9985 B( 45-C , 46-C ) :   1.4842 B( 45-C , 94-H ) :   0.9893
B( 46-C , 47-S ) :   1.1096 B( 46-C , 48-C ) :   1.0907 B( 48-C , 49-S ) :   1.1565
B( 48-C , 53-C ) :   1.4830 B( 49-S , 50-C ) :   1.1270 B( 50-C , 51-C ) :   1.6089
B( 50-C , 95-H ) :   0.9671 B( 51-C , 52-C ) :   1.0966 B( 51-C , 53-C ) :   1.2230
B( 52-C , 96-H ) :   0.9496 B( 52-C , 97-H ) :   0.9441 B( 52-C , 98-H ) :   0.9413
B( 53-C , 54-C ) :   1.0781 B( 54-C , 55-C ) :   1.6663 B( 54-C , 99-H ) :   0.9566
B( 55-C , 56-C ) :   1.1696 B( 55-C ,100-H ) :   0.9822 B( 56-C , 57-C ) :   1.5855
B( 56-C ,101-H ) :   0.9751 B( 57-C , 58-C ) :   1.1751 B( 57-C ,102-H ) :   0.9607
B( 58-C , 59-C ) :   1.6212 B( 58-C ,103-H ) :   0.9274 B( 59-C , 60-C ) :   0.9501
B( 59-C , 74-C ) :   1.0543 B( 60-C , 61-O ) :   2.2635 B( 60-C , 62-C ) :   0.9171
B( 62-C , 63-C ) :   1.4777 B( 62-C , 73-C ) :   1.2225 B( 63-C , 64-C ) :   1.1924
B( 63-C ,104-H ) :   1.0156 B( 64-C , 65-C ) :   1.2583 B( 64-C , 69-C ) :   1.1925
B( 65-C , 66-C ) :   1.1911 B( 65-C , 72-C ) :   1.2152 B( 66-C , 67-C ) :   1.4416
B( 66-C , 69-C ) :   0.1090 B( 66-C ,105-H ) :   1.0064 B( 67-C , 68-C ) :   1.1920
B( 67-C , 71-F ) :   1.1331 B( 68-C , 69-C ) :   1.4441 B( 68-C , 70-F ) :   1.1323
B( 69-C ,106-H ) :   1.0067 B( 72-C , 73-C ) :   1.4579 B( 72-C ,107-H ) :   0.9920
B( 73-C , 74-C ) :   0.9936 B( 74-C , 75-C ) :   1.6243 B( 75-C , 76-C ) :   1.1769
B( 75-C , 78-C ) :   1.1305 B( 76-C , 77-N ) :   2.9859 B( 78-C , 79-N ) :   2.9775

-----------------------------------------------------------------------------
         ABSORPTION SPECTRUM VIA TRANSITION ELECTRIC DIPOLE MOMENTS
-----------------------------------------------------------------------------
State   Energy  Wavelength   fosc         T2         TX        TY        TZ
        (cm-1)    (nm)                  (au**2)     (au)      (au)      (au)
-----------------------------------------------------------------------------
   0   11097.2    901.1   0.184483361   5.47292   0.79050   0.76848   2.06337
   1   16526.0    605.1   0.667717774  13.30148   0.06510  -1.92023  -3.09999
   2   17614.9    567.7   0.187417062   3.50272   0.79116  -0.37437  -1.65428
   3   19550.6    511.5   0.021994347   0.37036   0.27514  -0.21220  -0.49963
   4   23099.8    432.9   0.044679693   0.63676   0.66438   0.43796  -0.05956
   5   23145.4    432.1   0.313062683   4.45289   1.34448  -1.61918   0.15340
   6   23616.7    423.4   0.246857909   3.44116   0.01837   0.28474  -1.83296
   7   24402.7    409.8   0.091119128   1.22927   0.28342  -0.53387   0.92948
   8   25913.3    385.9   0.151081194   1.91939   0.42760   0.56704   1.18954
   9   26812.3    373.0   0.049920962   0.61295   0.45924  -0.62520   0.10569
  10   27326.6    365.9   0.239135202   2.88094  -0.18260  -0.24435  -1.66970
  11   27936.8    358.0   0.048709022   0.57399   0.38894  -0.63436   0.14248
  12   28321.1    353.1   0.086358180   1.00385  -0.68866  -0.66589   0.29359
  13   28594.9    349.7   0.077642570   0.89390  -0.34258   0.40828  -0.78092
  14   28647.3    349.1   0.016166692   0.18579   0.09120   0.00685   0.42121
  15   29026.4    344.5   0.637968477   7.23572  -2.24212   0.56307  -1.37535
  16   29437.3    339.7   0.013162314   0.14720   0.12567  -0.36250  -0.00003
  17   29803.4    335.5   0.001838484   0.02031   0.11064   0.00787   0.08946
  18   29859.1    334.9   0.137808129   1.51940   1.19482  -0.01440  -0.30264
  19   30484.2    328.0   0.176728522   1.90857   0.96597  -0.61452   0.77320
  20   30962.4    323.0   0.489891405   5.20884  -0.80100  -0.82259   1.97246
  21   31005.6    322.5   0.090219876   0.95794   0.67567  -0.20207  -0.67866
  22   31361.8    318.9   0.026638771   0.27963  -0.01527  -0.15069  -0.50665
  23   31520.8    317.3   0.238607453   2.49208   1.55637   0.17562  -0.19736
  24   31915.5    313.3   0.028499599   0.29398  -0.46489  -0.17537   0.21703
  25   32276.6    309.8   0.277344997   2.82884  -1.11927  -0.31496   1.21527
  26   32727.8    305.6   0.222896920   2.24214  -1.37245   0.40066   0.44497
  27   32993.6    303.1   0.281437751   2.80820  -0.39417  -0.53765   1.53745
  28   33314.7    300.2   0.068759073   0.67947   0.44219   0.06065  -0.69301
  29   33519.3    298.3   0.160640996   1.57774   1.03078   0.45439  -0.55567
  30   33583.3    297.8   0.060852782   0.59653   0.75276   0.03208  -0.16986
  31   34133.7    293.0   0.589998405   5.69040   2.37113  -0.20556   0.16094
  32   34337.4    291.2   0.165691034   1.58857  -1.23366  -0.17455   0.19022
  33   34570.8    289.3   0.091829912   0.87448   0.86915   0.21415  -0.27056
  34   34743.0    287.8   0.311490702   2.95157   0.16975   0.35880  -1.67153
  35   34940.3    286.2   0.048497782   0.45695   0.63183   0.14335  -0.19285
  36   35161.9    284.4   0.224872987   2.10543  -0.00213  -0.16877   1.44116
  37   35437.8    282.2   0.115504272   1.07302   0.89514   0.09402  -0.51273
  38   35466.5    282.0   0.040494413   0.37588   0.10074  -0.03714  -0.60362
  39   35612.8    280.8   0.265452993   2.45390  -1.56057  -0.13526   0.01484
  40   35890.4    278.6   0.073679810   0.67584   0.19782   0.34839  -0.71787
  41   36024.0    277.6   0.079029133   0.72222  -0.41435  -0.58149   0.46088
  42   36263.6    275.8   0.011660345   0.10586   0.09210  -0.31173   0.01403
  43   36488.0    274.1   0.064737970   0.58410   0.68255  -0.13353  -0.31684
  44   37204.6    268.8   0.032170991   0.28467   0.50716   0.06696  -0.15156
  45   37401.9    267.4   0.002709797   0.02385   0.02880   0.05302  -0.14217
  46   37747.9    264.9   0.028853632   0.25164   0.38157  -0.28471  -0.15808
  47   37909.0    263.8   0.020803629   0.18066  -0.15326   0.25510  -0.30348
  48   38101.9    262.5   0.020476118   0.17692   0.35845  -0.00322  -0.22005
  49   38473.0    259.9   0.015475488   0.13242   0.26715   0.23626   0.07236
  50   38562.9    259.3   0.084521601   0.72156   0.56079   0.56821  -0.29020
  51   38704.5    258.4   0.014809026   0.12596   0.15624   0.09970  -0.30267
  52   38829.3    257.5   0.151785614   1.28690   0.86819   0.54976  -0.48054
  53   39458.5    253.4   0.003386609   0.02826   0.03420  -0.13834  -0.08915
  54   39622.7    252.4   0.040448557   0.33607   0.08672   0.15378  -0.55218
  55   40083.5    249.5   0.064762088   0.53190   0.47327  -0.10610   0.54466

FINAL SINGLE POINT ENERGY     -4921.922793635533

DIPOLE MOMENT
-------------
                                X             Y             Z
Electronic contribution:     -1.31494      26.77807     -20.82146
Nuclear contribution   :     -0.82090     -28.11547      23.46530
                        -----------------------------------------
Total Dipole Moment    :     -2.13584      -1.33741       2.64384
                        -----------------------------------------
Magnitude (a.u.)       :      3.65245
Magnitude (Debye)      :      9.28378

Rotational constants in cm-1:     0.001109     0.000211     0.000198
Rotational constants in MHz :    33.239391     6.333668     5.928748

                             ****ORCA TERMINATED NORMALLY****
TOTAL RUN TIME: 0 days 0 hours 12 minutes 41 seconds 487 msec
