                         Program Version 4.2.0 -  RELEASE  -
|  1> # ORCA input file
|  2> # SCF done       -152.888416721036          0.000534203233
|  3> ! CAM-B3LYP def2-SVP def2/J RIJCOSX Grid4 TightSCF
|  4> %maxcore 5000
|  5> %tddft
|  6>     Mode sTDDFT
|  7>     Ethresh 5.0
|  8>     maxcore 5000
|  9> end
| 10>
| 11> %pal
| 12>   nprocs 6
| 13>   end
| 14> * xyz 0 1
| 15>    C       -2.70002        -0.75539        -4.54356
| 16>    C       -2.31415        -1.02583        -3.26672
| 17>    C       -2.22901         0.15035        -2.49639
| 18>    C       -2.56111         1.29497        -3.23028
| 19>    S       -2.97209         0.93043        -4.84639
| 20>    C       -2.44966         2.43088        -2.37682
| 21>    C       -2.04465         1.99284        -1.11187
| 22>    C       -1.89806         0.54500        -1.14065
| 23>    C       -1.53954        -0.26231        -0.09695
| 24>    C       -1.26374         0.26052         1.18180
| 25>    N       -1.04658         0.69436         2.22200
| 26>    C       -1.43206        -1.66109        -0.22773
| 27>    N       -1.34233        -2.80041        -0.32794
| 28>    C       -1.89524         3.03480        -0.19012
| 29>    C       -2.19248         4.26360        -0.74185
| 30>    S       -2.65634         4.12387        -2.43507
| 31>    C       -2.17204         5.56081        -0.14705
| 32>    S       -2.31154         6.95662        -1.18048
| 33>    C       -2.20113         8.03166         0.17640
| 34>    C       -2.09102         7.33788         1.35245
| 35>    C       -2.06138         5.93533         1.17824
| 36>    C       -1.89104         4.98529         2.32331
| 37>    C       -2.01391         5.68286         3.68799
| 38>    C       -3.40514         5.88983         4.02400
| 39>    N       -4.50453         6.04950         4.29037
| 40>    C       -1.28243         7.04237         3.68059
| 41>    C        0.09120         6.86464         3.27002
| 42>    N        1.16855         6.74368         2.90796
| 43>    C       -1.97614         7.99017         2.69334
| 44>    C       -2.33377         9.46748        -0.02463
| 45>    C       -1.53920        10.19535        -0.89653
| 46>    O       -0.41676         9.67032        -1.47470
| 47>    C        0.43865         8.84960        -0.70096
| 48>    C       -1.83896        11.56428        -1.22072
| 49>    O       -1.18472        12.29159        -2.13829
| 50>    C       -0.28735        11.74409        -3.08064
| 51>    C       -2.88468        12.22739        -0.57875
| 52>    C       -3.65013        11.52589         0.37598
| 53>    C       -3.38468        10.14045         0.63941
| 54>    N       -4.22533         9.62549         1.53410
| 55>    S       -5.23579        10.78819         2.01168
| 56>    N       -4.65828        11.98694         1.11052
| 57>    C       -3.21538        13.61738        -0.86546
| 58>    N       -4.50640        13.97363        -0.78932
| 59>    C       -4.78840        15.22736        -1.03470
| 60>    C       -3.77404        16.13521        -1.40274
| 61>    N       -2.51437        15.69539        -1.43534
| 62>    N       -2.23604        14.47021        -1.15538
| 63>    C       -4.01816        17.52730        -1.74107
| 64>    C       -2.97599        18.36406        -2.09830
| 65>    C       -3.16582        19.71310        -2.42946
| 66>    C       -4.40787        20.29536        -2.41963
| 67>    C       -5.48803        19.48171        -2.06314
| 68>    C       -5.30630        18.10348        -1.72438
| 69>    N       -6.51970        17.60680        -1.43296
| 70>    N       -7.33062        18.61875        -1.59154
| 71>    N       -6.80111        19.74892        -1.95924
| 72>    C       -8.73817        18.49023        -1.36870
| 73>    H       -2.84715        -1.44825        -5.34755
| 74>    H       -2.10314        -2.01482        -2.90294
| 75>    H       -1.55979         2.89011         0.81703
| 76>    H       -0.89814         4.52677         2.26054
| 77>    H       -2.63512         4.18608         2.26066
| 78>    H       -1.58274         5.03108         4.45840
| 79>    H       -1.29076         7.47720         4.68720
| 80>    H       -1.42212         8.92892         2.60938
| 81>    H       -2.97836         8.23088         3.06052
| 82>    H        0.25011         7.78920        -0.88070
| 83>    H        0.34459         9.05746         0.36639
| 84>    H        1.45336         9.08511        -1.02528
| 85>    H       -0.16047        12.52975        -3.82590
| 86>    H       -0.68754        10.84631        -3.55453
| 87>    H        0.68077        11.51606        -2.63066
| 88>    H       -5.82203        15.53404        -0.95658
| 89>    H       -1.98170        17.94561        -2.11690
| 90>    H       -2.30238        20.30309        -2.69812
| 91>    H       -4.56519        21.33147        -2.67123
| 92>    H       -9.15096        17.73233        -2.03514
| 93>    H       -9.19788        19.45558        -1.56582
| 94>    H       -8.92369        18.18764        -0.33762
| 95> *
| 96>
| 97>                          ****END OF INPUT****

CARTESIAN COORDINATES (ANGSTROEM)
---------------------------------
  C     -2.700020   -0.755390   -4.543560
  C     -2.314150   -1.025830   -3.266720
  C     -2.229010    0.150350   -2.496390
  C     -2.561110    1.294970   -3.230280
  S     -2.972090    0.930430   -4.846390
  C     -2.449660    2.430880   -2.376820
  C     -2.044650    1.992840   -1.111870
  C     -1.898060    0.545000   -1.140650
  C     -1.539540   -0.262310   -0.096950
  C     -1.263740    0.260520    1.181800
  N     -1.046580    0.694360    2.222000
  C     -1.432060   -1.661090   -0.227730
  N     -1.342330   -2.800410   -0.327940
  C     -1.895240    3.034800   -0.190120
  C     -2.192480    4.263600   -0.741850
  S     -2.656340    4.123870   -2.435070
  C     -2.172040    5.560810   -0.147050
  S     -2.311540    6.956620   -1.180480
  C     -2.201130    8.031660    0.176400
  C     -2.091020    7.337880    1.352450
  C     -2.061380    5.935330    1.178240
  C     -1.891040    4.985290    2.323310
  C     -2.013910    5.682860    3.687990
  C     -3.405140    5.889830    4.024000
  N     -4.504530    6.049500    4.290370
  C     -1.282430    7.042370    3.680590
  C      0.091200    6.864640    3.270020
  N      1.168550    6.743680    2.907960
  C     -1.976140    7.990170    2.693340
  C     -2.333770    9.467480   -0.024630
  C     -1.539200   10.195350   -0.896530
  O     -0.416760    9.670320   -1.474700
  C      0.438650    8.849600   -0.700960
  C     -1.838960   11.564280   -1.220720
  O     -1.184720   12.291590   -2.138290
  C     -0.287350   11.744090   -3.080640
  C     -2.884680   12.227390   -0.578750
  C     -3.650130   11.525890    0.375980
  C     -3.384680   10.140450    0.639410
  N     -4.225330    9.625490    1.534100
  S     -5.235790   10.788190    2.011680
  N     -4.658280   11.986940    1.110520
  C     -3.215380   13.617380   -0.865460
  N     -4.506400   13.973630   -0.789320
  C     -4.788400   15.227360   -1.034700
  C     -3.774040   16.135210   -1.402740
  N     -2.514370   15.695390   -1.435340
  N     -2.236040   14.470210   -1.155380
  C     -4.018160   17.527300   -1.741070
  C     -2.975990   18.364060   -2.098300
  C     -3.165820   19.713100   -2.429460
  C     -4.407870   20.295360   -2.419630
  C     -5.488030   19.481710   -2.063140
  C     -5.306300   18.103480   -1.724380
  N     -6.519700   17.606800   -1.432960
  N     -7.330620   18.618750   -1.591540
  N     -6.801110   19.748920   -1.959240
  C     -8.738170   18.490230   -1.368700
  H     -2.847150   -1.448250   -5.347550
  H     -2.103140   -2.014820   -2.902940
  H     -1.559790    2.890110    0.817030
  H     -0.898140    4.526770    2.260540
  H     -2.635120    4.186080    2.260660
  H     -1.582740    5.031080    4.458400
  H     -1.290760    7.477200    4.687200
  H     -1.422120    8.928920    2.609380
  H     -2.978360    8.230880    3.060520
  H      0.250110    7.789200   -0.880700
  H      0.344590    9.057460    0.366390
  H      1.453360    9.085110   -1.025280
  H     -0.160470   12.529750   -3.825900
  H     -0.687540   10.846310   -3.554530
  H      0.680770   11.516060   -2.630660
  H     -5.822030   15.534040   -0.956580
  H     -1.981700   17.945610   -2.116900
  H     -2.302380   20.303090   -2.698120
  H     -4.565190   21.331470   -2.671230
  H     -9.150960   17.732330   -2.035140
  H     -9.197880   19.455580   -1.565820
  H     -8.923690   18.187640   -0.337620

 Total Charge           Charge          ....    0
 Multiplicity           Mult            ....    1
 Number of Electrons    NEL             ....  426
 Basis Dimension        Dim             ....  938

ORBITAL ENERGIES
----------------

  NO   OCC          E(Eh)            E(eV)
   0   2.0000     -89.008161     -2422.0352
   1   2.0000     -88.986634     -2421.4494
   2   2.0000     -88.985892     -2421.4292
   3   2.0000     -88.964280     -2420.8411
   4   2.0000     -19.256158      -523.9867
   5   2.0000     -19.246580      -523.7261
   6   2.0000     -14.540112      -395.6565
   7   2.0000     -14.439282      -392.9128
   8   2.0000     -14.438197      -392.8833
   9   2.0000     -14.436371      -392.8336
  10   2.0000     -14.429567      -392.6485
  11   2.0000     -14.427139      -392.5824
  12   2.0000     -14.426635      -392.5687
  13   2.0000     -14.425071      -392.5261
  14   2.0000     -14.421264      -392.4226
  15   2.0000     -14.414337      -392.2341
  16   2.0000     -14.410317      -392.1247
  17   2.0000     -14.409863      -392.1123
  18   2.0000     -10.360951      -281.9358
  19   2.0000     -10.357249      -281.8351
  20   2.0000     -10.355077      -281.7760
  21   2.0000     -10.349163      -281.6151
  22   2.0000     -10.338006      -281.3114
  23   2.0000     -10.336506      -281.2706
  24   2.0000     -10.334550      -281.2174
  25   2.0000     -10.330508      -281.1074
  26   2.0000     -10.327780      -281.0332
  27   2.0000     -10.327596      -281.0282
  28   2.0000     -10.327555      -281.0271
  29   2.0000     -10.326727      -281.0045
  30   2.0000     -10.322912      -280.9007
  31   2.0000     -10.321512      -280.8626
  32   2.0000     -10.315657      -280.7033
  33   2.0000     -10.315597      -280.7017
  34   2.0000     -10.314368      -280.6682
  35   2.0000     -10.313415      -280.6423
  36   2.0000     -10.313067      -280.6328
  37   2.0000     -10.311607      -280.5931
  38   2.0000     -10.309481      -280.5352
  39   2.0000     -10.308886      -280.5191
  40   2.0000     -10.308704      -280.5141
  41   2.0000     -10.308507      -280.5087
  42   2.0000     -10.301493      -280.3179
  43   2.0000     -10.300469      -280.2900
  44   2.0000     -10.300094      -280.2798
  45   2.0000     -10.298151      -280.2269
  46   2.0000     -10.297171      -280.2003
  47   2.0000     -10.296582      -280.1842
  48   2.0000     -10.295926      -280.1664
  49   2.0000     -10.295595      -280.1574
  50   2.0000     -10.292838      -280.0824
  51   2.0000     -10.291751      -280.0528
  52   2.0000     -10.288209      -279.9564
  53   2.0000     -10.283930      -279.8400
  54   2.0000     -10.282136      -279.7911
  55   2.0000     -10.278142      -279.6825
  56   2.0000     -10.272490      -279.5287
  57   2.0000     -10.271083      -279.4904
  58   2.0000      -8.100255      -220.4191
  59   2.0000      -8.081334      -219.9043
  60   2.0000      -8.080805      -219.8899
  61   2.0000      -8.059504      -219.3103
  62   2.0000      -6.071510      -165.2142
  63   2.0000      -6.063814      -165.0048
  64   2.0000      -6.062441      -164.9674
  65   2.0000      -6.050658      -164.6468
  66   2.0000      -6.050060      -164.6305
  67   2.0000      -6.046379      -164.5303
  68   2.0000      -6.045610      -164.5094
  69   2.0000      -6.043624      -164.4554
  70   2.0000      -6.043460      -164.4509
  71   2.0000      -6.028849      -164.0533
  72   2.0000      -6.024775      -163.9425
  73   2.0000      -6.021475      -163.8527
  74   2.0000      -1.216056       -33.0906
  75   2.0000      -1.168675       -31.8013
  76   2.0000      -1.145658       -31.1749
  77   2.0000      -1.127493       -30.6806
  78   2.0000      -1.111168       -30.2364
  79   2.0000      -1.040826       -28.3223
  80   2.0000      -1.020263       -27.7628
  81   2.0000      -1.017455       -27.6864
  82   2.0000      -1.011210       -27.5164
  83   2.0000      -1.005743       -27.3677
  84   2.0000      -1.001606       -27.2551
  85   2.0000      -0.997032       -27.1306
  86   2.0000      -0.988598       -26.9011
  87   2.0000      -0.987197       -26.8630
  88   2.0000      -0.975384       -26.5416
  89   2.0000      -0.966450       -26.2984
  90   2.0000      -0.957922       -26.0664
  91   2.0000      -0.955874       -26.0107
  92   2.0000      -0.947889       -25.7934
  93   2.0000      -0.930625       -25.3236
  94   2.0000      -0.910321       -24.7711
  95   2.0000      -0.906081       -24.6557
  96   2.0000      -0.889216       -24.1968
  97   2.0000      -0.869085       -23.6490
  98   2.0000      -0.863472       -23.4963
  99   2.0000      -0.860311       -23.4103
 100   2.0000      -0.857608       -23.3367
 101   2.0000      -0.846873       -23.0446
 102   2.0000      -0.842327       -22.9209
 103   2.0000      -0.828809       -22.5530
 104   2.0000      -0.809433       -22.0258
 105   2.0000      -0.804476       -21.8909
 106   2.0000      -0.787867       -21.4389
 107   2.0000      -0.783338       -21.3157
 108   2.0000      -0.774592       -21.0777
 109   2.0000      -0.764561       -20.8048
 110   2.0000      -0.762055       -20.7366
 111   2.0000      -0.750645       -20.4261
 112   2.0000      -0.748939       -20.3797
 113   2.0000      -0.723304       -19.6821
 114   2.0000      -0.714836       -19.4517
 115   2.0000      -0.709742       -19.3131
 116   2.0000      -0.702708       -19.1217
 117   2.0000      -0.701012       -19.0755
 118   2.0000      -0.690051       -18.7772
 119   2.0000      -0.681812       -18.5530
 120   2.0000      -0.672162       -18.2904
 121   2.0000      -0.663676       -18.0595
 122   2.0000      -0.655224       -17.8296
 123   2.0000      -0.647943       -17.6314
 124   2.0000      -0.637571       -17.3492
 125   2.0000      -0.632881       -17.2216
 126   2.0000      -0.620854       -16.8943
 127   2.0000      -0.615475       -16.7479
 128   2.0000      -0.613487       -16.6938
 129   2.0000      -0.612425       -16.6649
 130   2.0000      -0.606584       -16.5060
 131   2.0000      -0.604456       -16.4481
 132   2.0000      -0.601937       -16.3795
 133   2.0000      -0.600202       -16.3323
 134   2.0000      -0.591541       -16.0966
 135   2.0000      -0.590941       -16.0803
 136   2.0000      -0.579196       -15.7607
 137   2.0000      -0.575127       -15.6500
 138   2.0000      -0.567659       -15.4468
 139   2.0000      -0.561136       -15.2693
 140   2.0000      -0.556666       -15.1477
 141   2.0000      -0.550375       -14.9765
 142   2.0000      -0.548012       -14.9122
 143   2.0000      -0.543643       -14.7933
 144   2.0000      -0.540641       -14.7116
 145   2.0000      -0.539309       -14.6754
 146   2.0000      -0.536457       -14.5977
 147   2.0000      -0.533186       -14.5087
 148   2.0000      -0.527811       -14.3625
 149   2.0000      -0.526533       -14.3277
 150   2.0000      -0.520404       -14.1609
 151   2.0000      -0.517579       -14.0840
 152   2.0000      -0.516390       -14.0517
 153   2.0000      -0.508784       -13.8447
 154   2.0000      -0.507129       -13.7997
 155   2.0000      -0.505087       -13.7441
 156   2.0000      -0.503309       -13.6957
 157   2.0000      -0.501731       -13.6528
 158   2.0000      -0.499317       -13.5871
 159   2.0000      -0.496405       -13.5079
 160   2.0000      -0.490781       -13.3548
 161   2.0000      -0.490370       -13.3436
 162   2.0000      -0.486802       -13.2466
 163   2.0000      -0.476982       -12.9793
 164   2.0000      -0.470229       -12.7956
 165   2.0000      -0.461335       -12.5536
 166   2.0000      -0.461136       -12.5482
 167   2.0000      -0.460559       -12.5324
 168   2.0000      -0.457170       -12.4402
 169   2.0000      -0.455803       -12.4030
 170   2.0000      -0.455467       -12.3939
 171   2.0000      -0.453214       -12.3326
 172   2.0000      -0.449956       -12.2439
 173   2.0000      -0.446164       -12.1407
 174   2.0000      -0.444338       -12.0911
 175   2.0000      -0.442216       -12.0333
 176   2.0000      -0.441131       -12.0038
 177   2.0000      -0.440899       -11.9975
 178   2.0000      -0.438530       -11.9330
 179   2.0000      -0.436988       -11.8911
 180   2.0000      -0.436919       -11.8892
 181   2.0000      -0.434989       -11.8367
 182   2.0000      -0.428346       -11.6559
 183   2.0000      -0.426358       -11.6018
 184   2.0000      -0.421694       -11.4749
 185   2.0000      -0.418717       -11.3939
 186   2.0000      -0.413760       -11.2590
 187   2.0000      -0.410485       -11.1699
 188   2.0000      -0.407718       -11.0946
 189   2.0000      -0.406110       -11.0508
 190   2.0000      -0.402444       -10.9510
 191   2.0000      -0.399482       -10.8705
 192   2.0000      -0.397710       -10.8222
 193   2.0000      -0.395690       -10.7673
 194   2.0000      -0.390709       -10.6317
 195   2.0000      -0.389398       -10.5961
 196   2.0000      -0.383896       -10.4463
 197   2.0000      -0.374832       -10.1997
 198   2.0000      -0.373258       -10.1569
 199   2.0000      -0.371393       -10.1061
 200   2.0000      -0.367403        -9.9976
 201   2.0000      -0.354298        -9.6409
 202   2.0000      -0.344460        -9.3732
 203   2.0000      -0.342323        -9.3151
 204   2.0000      -0.323303        -8.7975
 205   2.0000      -0.321534        -8.7494
 206   2.0000      -0.319207        -8.6861
 207   2.0000      -0.316005        -8.5989
 208   2.0000      -0.297397        -8.0926
 209   2.0000      -0.291195        -7.9238
 210   2.0000      -0.275698        -7.5021
 211   2.0000      -0.267927        -7.2907
 212   2.0000      -0.252899        -6.8817
 213   0.0000      -0.100437        -2.7330
 214   0.0000      -0.061101        -1.6626
 215   0.0000      -0.035166        -0.9569
 216   0.0000      -0.029045        -0.7903
 217   0.0000      -0.003463        -0.0942

MULLIKEN ATOMIC CHARGES
-----------------------
   0 C :   -0.082451
   1 C :    0.036810
   2 C :   -0.032918
   3 C :   -0.118526
   4 S :    0.181085
   5 C :   -0.096841
   6 C :    0.009294
   7 C :    0.301414
   8 C :   -0.299638
   9 C :   -0.174911
  10 N :    0.156049
  11 C :   -0.190496
  12 N :    0.172040
  13 C :   -0.067137
  14 C :   -0.065654
  15 S :    0.179069
  16 C :   -0.087982
  17 S :    0.143775
  18 C :   -0.246092
  19 C :    0.008542
  20 C :   -0.091498
  21 C :    0.105721
  22 C :   -0.044235
  23 C :   -0.252935
  24 N :    0.149093
  25 C :   -0.078284
  26 C :   -0.242476
  27 N :    0.136226
  28 C :    0.163757
  29 C :   -0.046636
  30 C :    0.068309
  31 O :   -0.341648
  32 C :    0.218505
  33 C :    0.156860
  34 O :   -0.264446
  35 C :    0.212336
  36 C :    0.018375
  37 C :    0.045009
  38 C :   -0.007479
  39 N :   -0.274586
  40 S :    0.489351
  41 N :   -0.238149
  42 C :   -0.159897
  43 N :    0.013621
  44 C :    0.012892
  45 C :   -0.070458
  46 N :   -0.056814
  47 N :   -0.020116
  48 C :    0.111943
  49 C :   -0.046944
  50 C :    0.039802
  51 C :   -0.039121
  52 C :    0.012792
  53 C :   -0.017833
  54 N :   -0.085579
  55 N :   -0.072850
  56 N :   -0.045646
  57 C :    0.148914
  58 H :    0.036310
  59 H :    0.011187
  60 H :   -0.006418
  61 H :    0.068427
  62 H :    0.054663
  63 H :    0.057169
  64 H :    0.049993
  65 H :    0.030668
  66 H :    0.064357
  67 H :    0.032140
  68 H :    0.024674
  69 H :    0.033989
  70 H :    0.033839
  71 H :    0.019752
  72 H :    0.020353
  73 H :    0.010072
  74 H :   -0.000473
  75 H :   -0.008937
  76 H :   -0.021006
  77 H :    0.053608
  78 H :    0.051336
  79 H :    0.052983
Sum of atomic charges:   -0.0000000

LOEWDIN ATOMIC CHARGES
----------------------
   0 C :   -0.179093
   1 C :   -0.033634
   2 C :   -0.078816
   3 C :   -0.182189
   4 S :    0.477351
   5 C :   -0.182055
   6 C :   -0.072091
   7 C :    0.086305
   8 C :   -0.106740
   9 C :   -0.012156
  10 N :   -0.042739
  11 C :   -0.017448
  12 N :   -0.033994
  13 C :   -0.038955
  14 C :   -0.173590
  15 S :    0.467972
  16 C :   -0.189187
  17 S :    0.443294
  18 C :   -0.163900
  19 C :   -0.046132
  20 C :   -0.054012
  21 C :   -0.009764
  22 C :   -0.032228
  23 C :   -0.035707
  24 N :   -0.051183
  25 C :   -0.036155
  26 C :   -0.032870
  27 N :   -0.060787
  28 C :   -0.007115
  29 C :   -0.092546
  30 C :    0.039944
  31 O :   -0.105710
  32 C :    0.081517
  33 C :    0.070269
  34 O :   -0.066331
  35 C :    0.081954
  36 C :   -0.077676
  37 C :   -0.042998
  38 C :   -0.053124
  39 N :   -0.289006
  40 S :    0.625251
  41 N :   -0.273800
  42 C :    0.007836
  43 N :   -0.036640
  44 C :    0.035533
  45 C :   -0.029257
  46 N :   -0.024411
  47 N :   -0.043758
  48 C :   -0.047051
  49 C :    0.008920
  50 C :   -0.025723
  51 C :   -0.012699
  52 C :   -0.057025
  53 C :   -0.042073
  54 N :   -0.105423
  55 N :    0.155418
  56 N :   -0.087388
  57 C :    0.033254
  58 H :    0.027457
  59 H :    0.042404
  60 H :    0.035941
  61 H :    0.046563
  62 H :    0.047489
  63 H :    0.063979
  64 H :    0.060664
  65 H :    0.038910
  66 H :    0.043736
  67 H :    0.012340
  68 H :    0.021490
  69 H :    0.024748
  70 H :    0.025076
  71 H :    0.014795
  72 H :    0.016105
  73 H :    0.023487
  74 H :    0.034799
  75 H :    0.031401
  76 H :    0.034982
  77 H :    0.040939
  78 H :    0.042127
  79 H :    0.040930

  Mayer bond orders larger than 0.100000
B(  0-C ,  1-C ) :   1.5503 B(  0-C ,  4-S ) :   1.1477 B(  0-C , 58-H ) :   0.9644
B(  1-C ,  2-C ) :   1.2756 B(  1-C , 59-H ) :   0.9968 B(  2-C ,  3-C ) :   1.4605
B(  2-C ,  7-C ) :   1.0138 B(  3-C ,  4-S ) :   1.1386 B(  3-C ,  5-C ) :   1.1774
B(  5-C ,  6-C ) :   1.4688 B(  5-C , 15-S ) :   1.1217 B(  6-C ,  7-C ) :   0.9992
B(  6-C , 13-C ) :   1.2597 B(  7-C ,  8-C ) :   1.7032 B(  8-C ,  9-C ) :   1.1379
B(  8-C , 11-C ) :   1.1304 B(  9-C , 10-N ) :   2.9734 B( 11-C , 12-N ) :   3.0025
B( 13-C , 14-C ) :   1.4898 B( 13-C , 60-H ) :   0.9868 B( 14-C , 15-S ) :   1.1003
B( 14-C , 16-C ) :   1.1084 B( 16-C , 17-S ) :   1.1114 B( 16-C , 18-C ) :   0.1218
B( 16-C , 20-C ) :   1.5762 B( 17-S , 18-C ) :   1.1239 B( 18-C , 19-C ) :   1.6041
B( 18-C , 29-C ) :   0.9772 B( 19-C , 20-C ) :   1.2747 B( 19-C , 28-C ) :   1.0439
B( 20-C , 21-C ) :   1.0501 B( 21-C , 22-C ) :   1.0487 B( 21-C , 61-H ) :   0.8962
B( 21-C , 62-H ) :   0.9068 B( 22-C , 23-C ) :   1.1155 B( 22-C , 25-C ) :   1.0772
B( 22-C , 63-H ) :   0.8535 B( 23-C , 24-N ) :   3.1002 B( 25-C , 26-C ) :   1.1024
B( 25-C , 28-C ) :   1.0534 B( 25-C , 64-H ) :   0.8528 B( 26-C , 27-N ) :   3.0924
B( 28-C , 65-H ) :   0.9134 B( 28-C , 66-H ) :   0.8814 B( 29-C , 30-C ) :   1.4385
B( 29-C , 36-C ) :   0.1202 B( 29-C , 38-C ) :   1.2155 B( 30-C , 31-O ) :   1.1721
B( 30-C , 33-C ) :   1.0859 B( 31-O , 32-C ) :   0.9249 B( 32-C , 67-H ) :   0.9642
B( 32-C , 68-H ) :   0.9634 B( 32-C , 69-H ) :   0.9745 B( 33-C , 34-O ) :   1.2859
B( 33-C , 36-C ) :   1.4836 B( 34-O , 35-C ) :   0.9259 B( 35-C , 70-H ) :   0.9761
B( 35-C , 71-H ) :   0.9737 B( 35-C , 72-H ) :   0.9764 B( 36-C , 37-C ) :   1.2265
B( 36-C , 42-C ) :   0.9351 B( 37-C , 38-C ) :   1.1552 B( 37-C , 41-N ) :   1.5664
B( 38-C , 39-N ) :   1.5508 B( 39-N , 40-S ) :   1.2346 B( 39-N , 41-N ) :   0.1460
B( 40-S , 41-N ) :   1.2563 B( 42-C , 43-N ) :   1.5246 B( 42-C , 47-N ) :   1.5760
B( 43-N , 44-C ) :   1.5989 B( 44-C , 45-C ) :   1.2874 B( 44-C , 73-H ) :   0.9497
B( 45-C , 46-N ) :   1.5717 B( 45-C , 48-C ) :   0.9936 B( 46-N , 47-N ) :   1.3387
B( 48-C , 49-C ) :   1.5188 B( 48-C , 51-C ) :   0.1131 B( 48-C , 53-C ) :   1.1966
B( 49-C , 50-C ) :   1.2131 B( 49-C , 74-H ) :   0.9925 B( 50-C , 51-C ) :   1.4644
B( 50-C , 75-H ) :   0.9866 B( 51-C , 52-C ) :   1.2215 B( 51-C , 76-H ) :   1.0190
B( 52-C , 53-C ) :   1.2325 B( 52-C , 56-N ) :   1.4470 B( 53-C , 54-N ) :   1.4438
B( 54-N , 55-N ) :   1.2030 B( 54-N , 56-N ) :   0.1673 B( 55-N , 56-N ) :   1.2585
B( 55-N , 57-C ) :   0.9534 B( 57-C , 77-H ) :   0.9698 B( 57-C , 78-H ) :   0.9667
B( 57-C , 79-H ) :   0.9703

-----------------------------------------------------------------------------
         ABSORPTION SPECTRUM VIA TRANSITION ELECTRIC DIPOLE MOMENTS
-----------------------------------------------------------------------------
State   Energy  Wavelength   fosc         T2         TX        TY        TZ
        (cm-1)    (nm)                  (au**2)     (au)      (au)      (au)
-----------------------------------------------------------------------------
   0   13963.9    716.1   0.062210575   1.46668  -0.03942  -1.06535  -0.57458
   1   22716.9    440.2   0.022729048   0.32939  -0.17239   0.52555   0.15317
   2   25225.7    396.4   0.749685364   9.78387   0.49867  -3.08642  -0.09601
   3   25863.5    386.6   0.054879362   0.69855   0.02297   0.75761   0.35220
   4   26192.9    381.8   0.120770243   1.51793  -0.20652   1.20234  -0.17219
   5   28608.7    349.5   0.020409252   0.23486   0.45974  -0.04839   0.14545
   6   29414.9    340.0   0.247338394   2.76821   0.92209  -1.38397  -0.05078
   7   30360.2    329.4   0.005333647   0.05784  -0.03717   0.18857   0.14455
   8   31106.7    321.5   0.027886365   0.29513   0.17074  -0.42782   0.28801
   9   31330.5    319.2   0.305676370   3.21196  -0.12916  -1.78742  -0.02039
  10   31396.9    318.5   0.485678952   5.09258  -0.49714   1.83912  -1.20957
  11   31851.3    314.0   0.153234666   1.58382  -0.48709   1.08395   0.41428
  12   32737.7    305.5   0.598206039   6.01560   0.38699   1.17283   2.11903
  13   33056.0    302.5   0.409427335   4.07758  -0.34512  -1.49983   1.30728
  14   33431.9    299.1   0.087451183   0.86115  -0.71080  -0.57774  -0.14877
  15   33738.5    296.4   0.143744919   1.40263   0.45708  -1.04853   0.30708
  16   34519.4    289.7   0.080895551   0.77150   0.22299  -0.32568  -0.78467
  17   35643.1    280.6   0.029007224   0.26792  -0.36711   0.36369  -0.02965
  18   35858.6    278.9   0.020545323   0.18862   0.34793  -0.09638  -0.24141
  19   36559.7    273.5   0.077119507   0.69444   0.08215   0.79201  -0.24578
  20   37649.2    265.6   0.069712140   0.60958   0.08203  -0.49513  -0.59807
  21   38199.2    261.8   0.047925224   0.41303  -0.06635  -0.53458   0.35051
  22   38491.7    259.8   0.016258192   0.13905  -0.09528  -0.30468  -0.19273
  23   39195.7    255.1   0.009884364   0.08302  -0.02068  -0.28215  -0.05463
  24   39701.8    251.9   0.145373482   1.20545   0.88203  -0.64131  -0.12727
  25   40222.8    248.6   0.005706042   0.04670   0.07403  -0.18949   0.07290

FINAL SINGLE POINT ENERGY     -3934.135581037046

DIPOLE MOMENT
-------------
                                X             Y             Z
Electronic contribution:     -6.33789     -34.72059      -2.05441
Nuclear contribution   :      5.56650      35.91793       0.11574
                        -----------------------------------------
Total Dipole Moment    :     -0.77140       1.19734      -1.93868
                        -----------------------------------------
Magnitude (a.u.)       :      2.40565
Magnitude (Debye)      :      6.11467

Rotational constants in cm-1:     0.002898     0.000461     0.000437
Rotational constants in MHz :    86.865507    13.831708    13.108050

                             ****ORCA TERMINATED NORMALLY****
TOTAL RUN TIME: 0 days 0 hours 10 minutes 24 seconds 688 msec
