                         Program Version 4.2.0 -  RELEASE  -
|  1> # ORCA input file
|  2> # SCF done       -214.235895032462          0.000970696326
|  3> ! CAM-B3LYP def2-SVP def2/J RIJCOSX Grid4 TightSCF
|  4> %maxcore 5000
|  5> %tddft
|  6>     Mode sTDDFT
|  7>     Ethresh 5.0
|  8>     maxcore 5000
|  9> end
| 10>
| 11> %pal
| 12>   nprocs 6
| 13>   end
| 14> * xyz 0 1
| 15>    C        1.68581        -4.91898         9.87392
| 16>    C        2.68040        -5.71222        10.37400
| 17>    F        3.56399        -5.21346        11.24910
| 18>    C        2.79020        -7.05978         9.97804
| 19>    F        3.77537        -7.81537        10.48392
| 20>    C        1.90335        -7.59608         9.08691
| 21>    C        0.86796        -6.80428         8.55427
| 22>    C        0.75540        -5.44140         8.95352
| 23>    C       -0.27682        -4.62658         8.43225
| 24>    C       -1.16930        -5.15870         7.54006
| 25>    C       -1.04769        -6.52098         7.14875
| 26>    C       -0.06308        -7.33239         7.63217
| 27>    C       -2.12244        -6.84348         6.19414
| 28>    O       -2.30451        -7.92553         5.65923
| 29>    C       -2.90352        -5.61819         6.02482
| 30>    C       -2.31823        -4.57779         6.84557
| 31>    C       -2.73363        -3.27595         6.96981
| 32>    C       -3.83116        -2.69049         6.30589
| 33>    N       -4.70591        -2.13547         5.80874
| 34>    C       -2.10166        -2.32172         7.79419
| 35>    N       -1.63539        -1.49566         8.44120
| 36>    C       -4.01315        -5.48256         5.22223
| 37>    C       -4.65728        -6.41319         4.40143
| 38>    C       -5.79263        -6.08079         3.65241
| 39>    C       -6.27122        -7.13961         2.91038
| 40>    C       -5.51063        -8.31586         3.07685
| 41>    S       -4.19194        -8.09561         4.16269
| 42>    C       -6.02757        -9.36024         2.31152
| 43>    C       -7.16311        -8.99023         1.56256
| 44>    S       -7.62168        -7.32881         1.80848
| 45>    C       -7.56353       -10.10440         0.83598
| 46>    C       -6.67900       -11.13642         1.16803
| 47>    N       -5.74543       -10.66738         2.06277
| 48>    C       -4.57351       -11.32110         2.57891
| 49>    C       -6.72235       -12.48248         0.66484
| 50>    C       -6.32270       -13.58647         1.36835
| 51>    C       -6.34775       -14.89788         0.88295
| 52>    C       -6.84342       -15.19826        -0.46289
| 53>    C       -7.32519       -14.26910        -1.31671
| 54>    S       -7.38474       -12.59065        -0.96429
| 55>    C       -6.71144       -16.60638        -0.60176
| 56>    C       -6.16990       -17.15524         0.56311
| 57>    C       -6.03876       -18.55869         0.46075
| 58>    C       -6.46581       -19.01969        -0.74438
| 59>    S       -7.04576       -17.78489        -1.80596
| 60>    C       -5.93957       -16.08874         1.50937
| 61>    C       -5.41237       -16.16068         2.81988
| 62>    C       -4.89185       -17.25706         3.42851
| 63>    C       -4.39267       -17.26268         4.75536
| 64>    C       -4.39299       -16.25684         5.70422
| 65>    C       -3.81099       -16.65682         6.90375
| 66>    C       -3.34674       -17.97896         6.89865
| 67>    S       -3.65020       -18.73066         5.37270
| 68>    C       -2.77290       -18.33550         8.12076
| 69>    C       -2.81783       -17.27428         9.05992
| 70>    S       -3.54772       -15.82975         8.42113
| 71>    C       -2.26333       -17.72904        10.23831
| 72>    C       -1.86190       -19.05910        10.00534
| 73>    N       -2.16955       -19.39382         8.69919
| 74>    C       -1.98590       -20.68498         8.09671
| 75>    C       -1.14010       -19.91994        10.85117
| 76>    C       -0.98942       -19.83404        12.20943
| 77>    C        0.18439       -20.46071        12.86037
| 78>    O        0.96888       -21.23574        12.35768
| 79>    C        0.22099       -19.89212        14.22571
| 80>    C        1.16719       -20.04351        15.19682
| 81>    C        1.00473       -19.36514        16.42669
| 82>    C       -0.14021       -18.54064        16.62526
| 83>    C       -0.29256       -17.86234        17.85079
| 84>    C        0.64659       -17.99751        18.83448
| 85>    C        1.77805       -18.81311        18.63757
| 86>    C        1.95454       -19.48362        17.45956
| 87>    F        2.68498       -18.92621        19.61881
| 88>    F        0.49901       -17.35183        19.99989
| 89>    C       -1.10927       -18.41032        15.60346
| 90>    C       -0.93153       -19.07901        14.42310
| 91>    C       -1.75735       -19.15082        13.21975
| 92>    C       -3.09877       -18.86008        13.16229
| 93>    C       -3.91350       -19.20745        12.06771
| 94>    N       -4.61102       -19.53010        11.21428
| 95>    C       -3.82125       -18.27518        14.21922
| 96>    N       -4.44650       -17.77939        15.04528
| 97>    H        1.61617        -3.88921        10.18791
| 98>    H        2.00050        -8.62970         8.79375
| 99>    H       -0.33250        -3.60025         8.75626
|100>    H        0.00352        -8.36275         7.31743
|101>    H       -4.48693        -4.50871         5.20765
|102>    H       -6.22547        -5.09693         3.67062
|103>    H       -8.39817       -10.18840         0.17006
|104>    H       -4.18923       -12.03806         1.85378
|105>    H       -4.78534       -11.83397         3.52085
|106>    H       -3.81262       -10.56520         2.77470
|107>    H       -5.99984       -13.43416         2.38665
|108>    H       -7.70284       -14.51860        -2.29564
|109>    H       -5.66023       -19.21263         1.22425
|110>    H       -6.47901       -20.03536        -1.08868
|111>    H       -5.42404       -15.23463         3.37809
|112>    H       -4.82424       -18.19180         2.89472
|113>    H       -4.80615       -15.27960         5.54146
|114>    H       -2.11183       -17.17486        11.14256
|115>    H       -2.48950       -21.45432         8.68483
|116>    H       -0.92369       -20.93033         8.02505
|117>    H       -2.41148       -20.66801         7.09500
|118>    H       -0.54136       -20.68963        10.37517
|119>    H        2.03010       -20.67031        15.03076
|120>    H       -1.15501       -17.23630        18.01858
|121>    H        2.82680       -20.10390        17.32474
|122>    H       -1.96361       -17.77508        15.77598
|123> *
|124>
|125>                          ****END OF INPUT****

CARTESIAN COORDINATES (ANGSTROEM)
---------------------------------
  C      1.685810   -4.918980    9.873920
  C      2.680400   -5.712220   10.374000
  F      3.563990   -5.213460   11.249100
  C      2.790200   -7.059780    9.978040
  F      3.775370   -7.815370   10.483920
  C      1.903350   -7.596080    9.086910
  C      0.867960   -6.804280    8.554270
  C      0.755400   -5.441400    8.953520
  C     -0.276820   -4.626580    8.432250
  C     -1.169300   -5.158700    7.540060
  C     -1.047690   -6.520980    7.148750
  C     -0.063080   -7.332390    7.632170
  C     -2.122440   -6.843480    6.194140
  O     -2.304510   -7.925530    5.659230
  C     -2.903520   -5.618190    6.024820
  C     -2.318230   -4.577790    6.845570
  C     -2.733630   -3.275950    6.969810
  C     -3.831160   -2.690490    6.305890
  N     -4.705910   -2.135470    5.808740
  C     -2.101660   -2.321720    7.794190
  N     -1.635390   -1.495660    8.441200
  C     -4.013150   -5.482560    5.222230
  C     -4.657280   -6.413190    4.401430
  C     -5.792630   -6.080790    3.652410
  C     -6.271220   -7.139610    2.910380
  C     -5.510630   -8.315860    3.076850
  S     -4.191940   -8.095610    4.162690
  C     -6.027570   -9.360240    2.311520
  C     -7.163110   -8.990230    1.562560
  S     -7.621680   -7.328810    1.808480
  C     -7.563530  -10.104400    0.835980
  C     -6.679000  -11.136420    1.168030
  N     -5.745430  -10.667380    2.062770
  C     -4.573510  -11.321100    2.578910
  C     -6.722350  -12.482480    0.664840
  C     -6.322700  -13.586470    1.368350
  C     -6.347750  -14.897880    0.882950
  C     -6.843420  -15.198260   -0.462890
  C     -7.325190  -14.269100   -1.316710
  S     -7.384740  -12.590650   -0.964290
  C     -6.711440  -16.606380   -0.601760
  C     -6.169900  -17.155240    0.563110
  C     -6.038760  -18.558690    0.460750
  C     -6.465810  -19.019690   -0.744380
  S     -7.045760  -17.784890   -1.805960
  C     -5.939570  -16.088740    1.509370
  C     -5.412370  -16.160680    2.819880
  C     -4.891850  -17.257060    3.428510
  C     -4.392670  -17.262680    4.755360
  C     -4.392990  -16.256840    5.704220
  C     -3.810990  -16.656820    6.903750
  C     -3.346740  -17.978960    6.898650
  S     -3.650200  -18.730660    5.372700
  C     -2.772900  -18.335500    8.120760
  C     -2.817830  -17.274280    9.059920
  S     -3.547720  -15.829750    8.421130
  C     -2.263330  -17.729040   10.238310
  C     -1.861900  -19.059100   10.005340
  N     -2.169550  -19.393820    8.699190
  C     -1.985900  -20.684980    8.096710
  C     -1.140100  -19.919940   10.851170
  C     -0.989420  -19.834040   12.209430
  C      0.184390  -20.460710   12.860370
  O      0.968880  -21.235740   12.357680
  C      0.220990  -19.892120   14.225710
  C      1.167190  -20.043510   15.196820
  C      1.004730  -19.365140   16.426690
  C     -0.140210  -18.540640   16.625260
  C     -0.292560  -17.862340   17.850790
  C      0.646590  -17.997510   18.834480
  C      1.778050  -18.813110   18.637570
  C      1.954540  -19.483620   17.459560
  F      2.684980  -18.926210   19.618810
  F      0.499010  -17.351830   19.999890
  C     -1.109270  -18.410320   15.603460
  C     -0.931530  -19.079010   14.423100
  C     -1.757350  -19.150820   13.219750
  C     -3.098770  -18.860080   13.162290
  C     -3.913500  -19.207450   12.067710
  N     -4.611020  -19.530100   11.214280
  C     -3.821250  -18.275180   14.219220
  N     -4.446500  -17.779390   15.045280
  H      1.616170   -3.889210   10.187910
  H      2.000500   -8.629700    8.793750
  H     -0.332500   -3.600250    8.756260
  H      0.003520   -8.362750    7.317430
  H     -4.486930   -4.508710    5.207650
  H     -6.225470   -5.096930    3.670620
  H     -8.398170  -10.188400    0.170060
  H     -4.189230  -12.038060    1.853780
  H     -4.785340  -11.833970    3.520850
  H     -3.812620  -10.565200    2.774700
  H     -5.999840  -13.434160    2.386650
  H     -7.702840  -14.518600   -2.295640
  H     -5.660230  -19.212630    1.224250
  H     -6.479010  -20.035360   -1.088680
  H     -5.424040  -15.234630    3.378090
  H     -4.824240  -18.191800    2.894720
  H     -4.806150  -15.279600    5.541460
  H     -2.111830  -17.174860   11.142560
  H     -2.489500  -21.454320    8.684830
  H     -0.923690  -20.930330    8.025050
  H     -2.411480  -20.668010    7.095000
  H     -0.541360  -20.689630   10.375170
  H      2.030100  -20.670310   15.030760
  H     -1.155010  -17.236300   18.018580
  H      2.826800  -20.103900   17.324740
  H     -1.963610  -17.775080   15.775980

 Total Charge           Charge          ....    0
 Multiplicity           Mult            ....    1
 Number of Electrons    NEL             ....  600
 Basis Dimension        Dim             .... 1302

ORBITAL ENERGIES
----------------

  NO   OCC          E(Eh)            E(eV)
   0   2.0000     -88.983469     -2421.3633
   1   2.0000     -88.971369     -2421.0340
   2   2.0000     -88.969977     -2420.9962
   3   2.0000     -88.963830     -2420.8289
   4   2.0000     -88.963738     -2420.8264
   5   2.0000     -88.959213     -2420.7033
   6   2.0000     -24.797374      -674.7708
   7   2.0000     -24.796203      -674.7390
   8   2.0000     -24.792568      -674.6401
   9   2.0000     -24.792043      -674.6258
  10   2.0000     -19.220959      -523.0289
  11   2.0000     -19.205567      -522.6101
  12   2.0000     -14.490935      -394.3184
  13   2.0000     -14.483524      -394.1167
  14   2.0000     -14.415452      -392.2644
  15   2.0000     -14.411575      -392.1589
  16   2.0000     -14.407213      -392.0402
  17   2.0000     -14.406808      -392.0292
  18   2.0000     -10.380288      -282.4620
  19   2.0000     -10.379455      -282.4393
  20   2.0000     -10.375135      -282.3218
  21   2.0000     -10.374639      -282.3083
  22   2.0000     -10.369263      -282.1620
  23   2.0000     -10.357760      -281.8490
  24   2.0000     -10.339921      -281.3636
  25   2.0000     -10.338029      -281.3121
  26   2.0000     -10.336340      -281.2661
  27   2.0000     -10.335602      -281.2460
  28   2.0000     -10.335479      -281.2427
  29   2.0000     -10.334666      -281.2206
  30   2.0000     -10.332884      -281.1721
  31   2.0000     -10.331230      -281.1271
  32   2.0000     -10.329213      -281.0722
  33   2.0000     -10.328833      -281.0618
  34   2.0000     -10.323570      -280.9186
  35   2.0000     -10.321808      -280.8707
  36   2.0000     -10.319636      -280.8116
  37   2.0000     -10.319192      -280.7995
  38   2.0000     -10.318724      -280.7868
  39   2.0000     -10.317653      -280.7576
  40   2.0000     -10.317450      -280.7521
  41   2.0000     -10.315195      -280.6907
  42   2.0000     -10.314012      -280.6585
  43   2.0000     -10.312881      -280.6278
  44   2.0000     -10.312788      -280.6252
  45   2.0000     -10.311579      -280.5923
  46   2.0000     -10.310816      -280.5716
  47   2.0000     -10.309110      -280.5251
  48   2.0000     -10.309089      -280.5246
  49   2.0000     -10.308684      -280.5136
  50   2.0000     -10.307705      -280.4869
  51   2.0000     -10.307155      -280.4719
  52   2.0000     -10.307057      -280.4693
  53   2.0000     -10.305796      -280.4350
  54   2.0000     -10.305330      -280.4223
  55   2.0000     -10.303789      -280.3804
  56   2.0000     -10.303502      -280.3725
  57   2.0000     -10.302853      -280.3549
  58   2.0000     -10.301466      -280.3171
  59   2.0000     -10.300259      -280.2843
  60   2.0000     -10.300213      -280.2830
  61   2.0000     -10.300075      -280.2793
  62   2.0000     -10.299122      -280.2533
  63   2.0000     -10.298912      -280.2476
  64   2.0000     -10.295380      -280.1515
  65   2.0000     -10.295241      -280.1478
  66   2.0000     -10.294801      -280.1358
  67   2.0000     -10.294611      -280.1306
  68   2.0000     -10.294378      -280.1243
  69   2.0000     -10.294365      -280.1239
  70   2.0000     -10.294272      -280.1214
  71   2.0000     -10.291810      -280.0544
  72   2.0000     -10.289561      -279.9932
  73   2.0000     -10.287996      -279.9506
  74   2.0000     -10.287637      -279.9408
  75   2.0000     -10.286795      -279.9179
  76   2.0000     -10.286238      -279.9028
  77   2.0000     -10.285504      -279.8828
  78   2.0000     -10.285322      -279.8778
  79   2.0000     -10.284341      -279.8511
  80   2.0000     -10.282659      -279.8054
  81   2.0000     -10.282203      -279.7930
  82   2.0000      -8.078809      -219.8356
  83   2.0000      -8.064644      -219.4501
  84   2.0000      -8.063864      -219.4289
  85   2.0000      -8.059275      -219.3040
  86   2.0000      -8.058731      -219.2892
  87   2.0000      -8.054287      -219.1683
  88   2.0000      -6.048456      -164.5868
  89   2.0000      -6.043805      -164.4603
  90   2.0000      -6.040589      -164.3728
  91   2.0000      -6.034203      -164.1990
  92   2.0000      -6.033681      -164.1848
  93   2.0000      -6.030179      -164.0895
  94   2.0000      -6.029020      -164.0580
  95   2.0000      -6.028710      -164.0495
  96   2.0000      -6.028695      -164.0491
  97   2.0000      -6.026297      -163.9839
  98   2.0000      -6.025527      -163.9629
  99   2.0000      -6.024789      -163.9428
 100   2.0000      -6.024441      -163.9334
 101   2.0000      -6.024213      -163.9272
 102   2.0000      -6.021321      -163.8485
 103   2.0000      -6.020335      -163.8216
 104   2.0000      -6.019318      -163.7940
 105   2.0000      -6.014920      -163.6743
 106   2.0000      -1.319483       -35.9050
 107   2.0000      -1.314861       -35.7792
 108   2.0000      -1.304635       -35.5009
 109   2.0000      -1.300063       -35.3765
 110   2.0000      -1.136167       -30.9167
 111   2.0000      -1.120421       -30.4882
 112   2.0000      -1.114662       -30.3315
 113   2.0000      -1.109025       -30.1781
 114   2.0000      -1.018223       -27.7073
 115   2.0000      -1.014643       -27.6098
 116   2.0000      -1.011993       -27.5377
 117   2.0000      -1.011432       -27.5225
 118   2.0000      -1.008416       -27.4404
 119   2.0000      -1.003204       -27.2986
 120   2.0000      -0.996437       -27.1144
 121   2.0000      -0.992181       -26.9986
 122   2.0000      -0.985840       -26.8261
 123   2.0000      -0.980505       -26.6809
 124   2.0000      -0.979495       -26.6534
 125   2.0000      -0.973805       -26.4986
 126   2.0000      -0.957553       -26.0563
 127   2.0000      -0.953913       -25.9573
 128   2.0000      -0.937569       -25.5126
 129   2.0000      -0.929875       -25.3032
 130   2.0000      -0.927240       -25.2315
 131   2.0000      -0.916608       -24.9422
 132   2.0000      -0.910374       -24.7725
 133   2.0000      -0.903769       -24.5928
 134   2.0000      -0.896625       -24.3984
 135   2.0000      -0.894528       -24.3413
 136   2.0000      -0.890094       -24.2207
 137   2.0000      -0.886683       -24.1279
 138   2.0000      -0.883055       -24.0291
 139   2.0000      -0.877423       -23.8759
 140   2.0000      -0.876172       -23.8418
 141   2.0000      -0.863148       -23.4874
 142   2.0000      -0.855969       -23.2921
 143   2.0000      -0.843447       -22.9514
 144   2.0000      -0.839324       -22.8392
 145   2.0000      -0.833676       -22.6855
 146   2.0000      -0.831458       -22.6251
 147   2.0000      -0.824076       -22.4242
 148   2.0000      -0.823400       -22.4058
 149   2.0000      -0.815179       -22.1822
 150   2.0000      -0.809423       -22.0255
 151   2.0000      -0.799235       -21.7483
 152   2.0000      -0.789745       -21.4900
 153   2.0000      -0.782879       -21.3032
 154   2.0000      -0.776509       -21.1299
 155   2.0000      -0.766842       -20.8668
 156   2.0000      -0.764882       -20.8135
 157   2.0000      -0.757355       -20.6087
 158   2.0000      -0.746689       -20.3184
 159   2.0000      -0.741510       -20.1775
 160   2.0000      -0.728139       -19.8137
 161   2.0000      -0.725459       -19.7408
 162   2.0000      -0.715003       -19.4562
 163   2.0000      -0.711821       -19.3696
 164   2.0000      -0.708798       -19.2874
 165   2.0000      -0.697586       -18.9823
 166   2.0000      -0.692285       -18.8380
 167   2.0000      -0.685672       -18.6581
 168   2.0000      -0.682504       -18.5719
 169   2.0000      -0.677892       -18.4464
 170   2.0000      -0.671941       -18.2844
 171   2.0000      -0.668822       -18.1996
 172   2.0000      -0.665144       -18.0995
 173   2.0000      -0.658824       -17.9275
 174   2.0000      -0.655939       -17.8490
 175   2.0000      -0.650117       -17.6906
 176   2.0000      -0.648601       -17.6493
 177   2.0000      -0.644453       -17.5364
 178   2.0000      -0.642469       -17.4825
 179   2.0000      -0.641050       -17.4438
 180   2.0000      -0.639441       -17.4001
 181   2.0000      -0.635386       -17.2897
 182   2.0000      -0.631963       -17.1966
 183   2.0000      -0.627121       -17.0648
 184   2.0000      -0.619219       -16.8498
 185   2.0000      -0.615546       -16.7498
 186   2.0000      -0.607291       -16.5252
 187   2.0000      -0.604569       -16.4512
 188   2.0000      -0.600546       -16.3417
 189   2.0000      -0.594128       -16.1670
 190   2.0000      -0.589024       -16.0282
 191   2.0000      -0.586396       -15.9566
 192   2.0000      -0.584323       -15.9002
 193   2.0000      -0.584174       -15.8962
 194   2.0000      -0.582293       -15.8450
 195   2.0000      -0.579637       -15.7727
 196   2.0000      -0.578198       -15.7336
 197   2.0000      -0.573933       -15.6175
 198   2.0000      -0.572699       -15.5839
 199   2.0000      -0.571471       -15.5505
 200   2.0000      -0.566556       -15.4168
 201   2.0000      -0.563722       -15.3396
 202   2.0000      -0.555407       -15.1134
 203   2.0000      -0.552693       -15.0395
 204   2.0000      -0.551704       -15.0126
 205   2.0000      -0.547550       -14.8996
 206   2.0000      -0.545849       -14.8533
 207   2.0000      -0.542273       -14.7560
 208   2.0000      -0.541461       -14.7339
 209   2.0000      -0.540388       -14.7047
 210   2.0000      -0.538112       -14.6428
 211   2.0000      -0.535890       -14.5823
 212   2.0000      -0.532251       -14.4833
 213   2.0000      -0.531203       -14.4548
 214   2.0000      -0.529479       -14.4078
 215   2.0000      -0.526659       -14.3311
 216   2.0000      -0.526462       -14.3258
 217   2.0000      -0.524206       -14.2644
 218   2.0000      -0.520271       -14.1573
 219   2.0000      -0.518531       -14.1099
 220   2.0000      -0.517302       -14.0765
 221   2.0000      -0.516570       -14.0566
 222   2.0000      -0.515484       -14.0270
 223   2.0000      -0.514470       -13.9994
 224   2.0000      -0.513632       -13.9766
 225   2.0000      -0.512898       -13.9567
 226   2.0000      -0.511631       -13.9222
 227   2.0000      -0.509518       -13.8647
 228   2.0000      -0.506568       -13.7844
 229   2.0000      -0.501086       -13.6352
 230   2.0000      -0.500026       -13.6064
 231   2.0000      -0.496580       -13.5126
 232   2.0000      -0.496436       -13.5087
 233   2.0000      -0.491366       -13.3707
 234   2.0000      -0.490728       -13.3534
 235   2.0000      -0.488924       -13.3043
 236   2.0000      -0.485735       -13.2175
 237   2.0000      -0.482120       -13.1192
 238   2.0000      -0.480973       -13.0880
 239   2.0000      -0.480232       -13.0678
 240   2.0000      -0.473538       -12.8856
 241   2.0000      -0.472820       -12.8661
 242   2.0000      -0.470606       -12.8059
 243   2.0000      -0.469059       -12.7637
 244   2.0000      -0.467958       -12.7338
 245   2.0000      -0.464513       -12.6400
 246   2.0000      -0.462635       -12.5889
 247   2.0000      -0.459099       -12.4927
 248   2.0000      -0.455930       -12.4065
 249   2.0000      -0.454388       -12.3645
 250   2.0000      -0.448462       -12.2033
 251   2.0000      -0.447502       -12.1772
 252   2.0000      -0.445738       -12.1291
 253   2.0000      -0.443746       -12.0750
 254   2.0000      -0.441875       -12.0240
 255   2.0000      -0.441193       -12.0055
 256   2.0000      -0.439747       -11.9661
 257   2.0000      -0.437850       -11.9145
 258   2.0000      -0.436324       -11.8730
 259   2.0000      -0.435877       -11.8608
 260   2.0000      -0.434258       -11.8168
 261   2.0000      -0.431633       -11.7453
 262   2.0000      -0.430267       -11.7082
 263   2.0000      -0.427268       -11.6266
 264   2.0000      -0.426155       -11.5963
 265   2.0000      -0.423699       -11.5294
 266   2.0000      -0.421392       -11.4667
 267   2.0000      -0.421293       -11.4640
 268   2.0000      -0.419557       -11.4167
 269   2.0000      -0.418314       -11.3829
 270   2.0000      -0.418067       -11.3762
 271   2.0000      -0.411596       -11.2001
 272   2.0000      -0.409840       -11.1523
 273   2.0000      -0.404303       -11.0016
 274   2.0000      -0.403743       -10.9864
 275   2.0000      -0.398450       -10.8424
 276   2.0000      -0.397389       -10.8135
 277   2.0000      -0.392352       -10.6764
 278   2.0000      -0.386470       -10.5164
 279   2.0000      -0.382544       -10.4095
 280   2.0000      -0.376993       -10.2585
 281   2.0000      -0.367355        -9.9962
 282   2.0000      -0.356217        -9.6932
 283   2.0000      -0.347423        -9.4539
 284   2.0000      -0.342562        -9.3216
 285   2.0000      -0.341707        -9.2983
 286   2.0000      -0.336204        -9.1486
 287   2.0000      -0.329161        -8.9569
 288   2.0000      -0.327695        -8.9170
 289   2.0000      -0.317031        -8.6269
 290   2.0000      -0.316563        -8.6141
 291   2.0000      -0.309881        -8.4323
 292   2.0000      -0.300125        -8.1668
 293   2.0000      -0.294610        -8.0168
 294   2.0000      -0.290649        -7.9090
 295   2.0000      -0.288782        -7.8582
 296   2.0000      -0.285597        -7.7715
 297   2.0000      -0.270700        -7.3661
 298   2.0000      -0.253502        -6.8981
 299   2.0000      -0.224667        -6.1135
 300   0.0000      -0.097826        -2.6620
 301   0.0000      -0.089816        -2.4440
 302   0.0000      -0.064723        -1.7612
 303   0.0000      -0.059503        -1.6192
 304   0.0000      -0.049603        -1.3498

MULLIKEN ATOMIC CHARGES
-----------------------
   0 C :   -0.108923
   1 C :    0.240101
   2 F :   -0.171775
   3 C :    0.238228
   4 F :   -0.173492
   5 C :   -0.104252
   6 C :    0.116857
   7 C :    0.113426
   8 C :   -0.084158
   9 C :    0.046726
  10 C :    0.000355
  11 C :   -0.085752
  12 C :    0.168338
  13 O :   -0.191448
  14 C :   -0.106662
  15 C :    0.336766
  16 C :   -0.362174
  17 C :   -0.188982
  18 N :    0.141993
  19 C :   -0.185160
  20 N :    0.144622
  21 C :   -0.016305
  22 C :   -0.047575
  23 C :   -0.042671
  24 C :   -0.022480
  25 C :   -0.033761
  26 S :    0.186094
  27 C :    0.015589
  28 C :   -0.003958
  29 S :    0.157575
  30 C :   -0.132310
  31 C :    0.126252
  32 N :   -0.175996
  33 C :    0.109339
  34 C :   -0.105444
  35 C :   -0.040579
  36 C :    0.036048
  37 C :    0.070662
  38 C :   -0.127202
  39 S :    0.142011
  40 C :   -0.113674
  41 C :    0.052337
  42 C :   -0.008596
  43 C :   -0.066827
  44 S :    0.132160
  45 C :    0.101896
  46 C :   -0.022519
  47 C :    0.045354
  48 C :   -0.049471
  49 C :   -0.045434
  50 C :   -0.039939
  51 C :   -0.081244
  52 S :    0.134996
  53 C :    0.052427
  54 C :   -0.019688
  55 S :    0.152377
  56 C :   -0.081331
  57 C :    0.107091
  58 N :   -0.166125
  59 C :    0.124474
  60 C :    0.008884
  61 C :   -0.148461
  62 C :    0.138713
  63 O :   -0.155639
  64 C :    0.016867
  65 C :   -0.089882
  66 C :    0.114946
  67 C :    0.113310
  68 C :   -0.109489
  69 C :    0.240774
  70 C :    0.238302
  71 C :   -0.107171
  72 F :   -0.175184
  73 F :   -0.173336
  74 C :   -0.087016
  75 C :    0.032979
  76 C :    0.271899
  77 C :   -0.347974
  78 C :   -0.200087
  79 N :    0.155415
  80 C :   -0.172900
  81 N :    0.144325
  82 H :    0.007890
  83 H :   -0.003082
  84 H :   -0.007339
  85 H :   -0.014431
  86 H :    0.006958
  87 H :    0.010271
  88 H :   -0.010339
  89 H :    0.059457
  90 H :    0.051039
  91 H :    0.053908
  92 H :   -0.032014
  93 H :    0.037358
  94 H :   -0.011807
  95 H :    0.027064
  96 H :   -0.044043
  97 H :   -0.043742
  98 H :   -0.022463
  99 H :   -0.002893
 100 H :    0.057847
 101 H :    0.051903
 102 H :    0.040550
 103 H :    0.006866
 104 H :   -0.012398
 105 H :    0.004427
 106 H :   -0.002695
 107 H :   -0.005754
Sum of atomic charges:   -0.0000000

LOEWDIN ATOMIC CHARGES
----------------------
   0 C :   -0.028977
   1 C :    0.065862
   2 F :   -0.049673
   3 C :    0.066981
   4 F :   -0.050985
   5 C :   -0.034213
   6 C :   -0.009612
   7 C :   -0.007097
   8 C :    0.017154
   9 C :   -0.021252
  10 C :   -0.050605
  11 C :    0.026761
  12 C :    0.084140
  13 O :   -0.177741
  14 C :   -0.120866
  15 C :    0.077483
  16 C :   -0.148338
  17 C :   -0.021079
  18 N :   -0.058338
  19 C :   -0.017678
  20 N :   -0.059197
  21 C :    0.058045
  22 C :   -0.183011
  23 C :   -0.015379
  24 C :   -0.194546
  25 C :   -0.195936
  26 S :    0.483736
  27 C :   -0.053484
  28 C :   -0.173150
  29 S :    0.393443
  30 C :   -0.088987
  31 C :   -0.012508
  32 N :    0.054941
  33 C :    0.035328
  34 C :   -0.172265
  35 C :   -0.030455
  36 C :   -0.021032
  37 C :   -0.049472
  38 C :   -0.140372
  39 S :    0.459982
  40 C :   -0.200818
  41 C :   -0.037417
  42 C :   -0.066573
  43 C :   -0.164855
  44 S :    0.426841
  45 C :   -0.050526
  46 C :   -0.006348
  47 C :   -0.061939
  48 C :   -0.143755
  49 C :   -0.077834
  50 C :   -0.168405
  51 C :   -0.230674
  52 S :    0.417744
  53 C :   -0.009131
  54 C :   -0.187454
  55 S :    0.393675
  56 C :   -0.027251
  57 C :   -0.021745
  58 N :    0.060899
  59 C :    0.039774
  60 C :    0.052127
  61 C :   -0.110409
  62 C :    0.079419
  63 O :   -0.157491
  64 C :   -0.051513
  65 C :    0.025766
  66 C :   -0.010549
  67 C :   -0.007085
  68 C :   -0.031162
  69 C :    0.065050
  70 C :    0.065303
  71 C :   -0.034112
  72 F :   -0.052293
  73 F :   -0.051389
  74 C :    0.010522
  75 C :   -0.018989
  76 C :    0.064761
  77 C :   -0.152711
  78 C :   -0.015357
  79 N :   -0.056252
  80 C :   -0.021664
  81 N :   -0.062690
  82 H :    0.047869
  83 H :    0.043821
  84 H :    0.039923
  85 H :    0.038585
  86 H :    0.051206
  87 H :    0.043310
  88 H :    0.027144
  89 H :    0.039819
  90 H :    0.029578
  91 H :    0.034864
  92 H :    0.033198
  93 H :    0.037029
  94 H :    0.028660
  95 H :    0.024297
  96 H :    0.023131
  97 H :    0.024468
  98 H :    0.029144
  99 H :    0.033928
 100 H :    0.040356
 101 H :    0.034716
 102 H :    0.032452
 103 H :    0.042811
 104 H :    0.039170
 105 H :    0.046604
 106 H :    0.043866
 107 H :    0.038952

  Mayer bond orders larger than 0.100000
B(  0-C ,  1-C ) :   1.4388 B(  0-C ,  5-C ) :   0.1089 B(  0-C ,  7-C ) :   1.1914
B(  0-C , 82-H ) :   1.0063 B(  1-C ,  2-F ) :   1.1343 B(  1-C ,  3-C ) :   1.1950
B(  3-C ,  4-F ) :   1.1313 B(  3-C ,  5-C ) :   1.4412 B(  5-C ,  6-C ) :   1.1934
B(  5-C , 83-H ) :   1.0064 B(  6-C ,  7-C ) :   1.2567 B(  6-C , 11-C ) :   1.1840
B(  7-C ,  8-C ) :   1.2114 B(  8-C ,  9-C ) :   1.4588 B(  8-C , 84-H ) :   0.9883
B(  9-C , 10-C ) :   1.2202 B(  9-C , 15-C ) :   0.9768 B( 10-C , 11-C ) :   1.4725
B( 10-C , 12-C ) :   0.9573 B( 11-C , 85-H ) :   1.0162 B( 12-C , 13-O ) :   2.1143
B( 12-C , 14-C ) :   0.9910 B( 14-C , 15-C ) :   1.0951 B( 14-C , 21-C ) :   1.4465
B( 15-C , 16-C ) :   1.6085 B( 16-C , 17-C ) :   1.1474 B( 16-C , 19-C ) :   1.1521
B( 17-C , 18-N ) :   2.9544 B( 19-C , 20-N ) :   2.9575 B( 21-C , 22-C ) :   1.3051
B( 21-C , 86-H ) :   0.9375 B( 22-C , 23-C ) :   1.3387 B( 22-C , 26-S ) :   1.0483
B( 23-C , 24-C ) :   1.3575 B( 23-C , 87-H ) :   1.0127 B( 24-C , 25-C ) :   1.3491
B( 24-C , 29-S ) :   1.0341 B( 25-C , 26-S ) :   1.0321 B( 25-C , 27-C ) :   1.2951
B( 27-C , 28-C ) :   1.3738 B( 27-C , 32-N ) :   1.1883 B( 28-C , 29-S ) :   1.0218
B( 28-C , 30-C ) :   1.3409 B( 30-C , 31-C ) :   1.4121 B( 30-C , 88-H ) :   1.0074
B( 31-C , 32-N ) :   1.1983 B( 31-C , 34-C ) :   1.0643 B( 32-N , 33-C ) :   0.9609
B( 33-C , 89-H ) :   0.9654 B( 33-C , 90-H ) :   0.9655 B( 33-C , 91-H ) :   0.9625
B( 34-C , 35-C ) :   1.5525 B( 34-C , 39-S ) :   1.0696 B( 35-C , 36-C ) :   1.2106
B( 35-C , 92-H ) :   0.9642 B( 36-C , 37-C ) :   1.0533 B( 36-C , 45-C ) :   1.3870
B( 37-C , 38-C ) :   1.6120 B( 37-C , 40-C ) :   1.1753 B( 38-C , 39-S ) :   1.1288
B( 38-C , 93-H ) :   0.9402 B( 40-C , 41-C ) :   1.4567 B( 40-C , 44-S ) :   1.0799
B( 41-C , 42-C ) :   1.2142 B( 41-C , 45-C ) :   1.0696 B( 42-C , 43-C ) :   1.5855
B( 42-C , 94-H ) :   0.9999 B( 43-C , 44-S ) :   1.1583 B( 43-C , 95-H ) :   0.9651
B( 45-C , 46-C ) :   1.1819 B( 46-C , 47-C ) :   1.6417 B( 46-C , 96-H ) :   0.9568
B( 47-C , 48-C ) :   1.1240 B( 47-C , 97-H ) :   0.9650 B( 48-C , 49-C ) :   1.4932
B( 48-C , 52-S ) :   1.0895 B( 49-C , 50-C ) :   1.2907 B( 49-C , 98-H ) :   0.9943
B( 50-C , 51-C ) :   1.4371 B( 50-C , 55-S ) :   1.0541 B( 51-C , 52-S ) :   1.0399
B( 51-C , 53-C ) :   1.2837 B( 53-C , 54-C ) :   1.3272 B( 53-C , 58-N ) :   1.2482
B( 54-C , 55-S ) :   1.0044 B( 54-C , 56-C ) :   1.4280 B( 56-C , 57-C ) :   1.3306
B( 56-C , 99-H ) :   1.0071 B( 57-C , 58-N ) :   1.1191 B( 57-C , 60-C ) :   1.1585
B( 58-N , 59-C ) :   0.9681 B( 59-C ,100-H ) :   0.9690 B( 59-C ,101-H ) :   0.9651
B( 59-C ,102-H ) :   0.9689 B( 60-C , 61-C ) :   1.5644 B( 60-C ,103-H ) :   0.9365
B( 61-C , 62-C ) :   0.9650 B( 61-C , 76-C ) :   1.0735 B( 62-C , 63-O ) :   2.2545
B( 62-C , 64-C ) :   0.9138 B( 64-C , 65-C ) :   1.4805 B( 64-C , 75-C ) :   1.2227
B( 65-C , 66-C ) :   1.1871 B( 65-C ,104-H ) :   1.0156 B( 66-C , 67-C ) :   1.2625
B( 66-C , 71-C ) :   1.1943 B( 67-C , 68-C ) :   1.1907 B( 67-C , 74-C ) :   1.2062
B( 68-C , 69-C ) :   1.4390 B( 68-C , 71-C ) :   0.1094 B( 68-C ,105-H ) :   1.0069
B( 69-C , 70-C ) :   1.1965 B( 69-C , 73-F ) :   1.1328 B( 70-C , 71-C ) :   1.4409
B( 70-C , 72-F ) :   1.1294 B( 71-C ,106-H ) :   1.0068 B( 74-C , 75-C ) :   1.4644
B( 74-C ,107-H ) :   0.9940 B( 75-C , 76-C ) :   0.9897 B( 76-C , 77-C ) :   1.6221
B( 77-C , 78-C ) :   1.1650 B( 77-C , 80-C ) :   1.1363 B( 78-C , 79-N ) :   2.9981
B( 80-C , 81-N ) :   2.9795

-----------------------------------------------------------------------------
         ABSORPTION SPECTRUM VIA TRANSITION ELECTRIC DIPOLE MOMENTS
-----------------------------------------------------------------------------
State   Energy  Wavelength   fosc         T2         TX        TY        TZ
        (cm-1)    (nm)                  (au**2)     (au)      (au)      (au)
-----------------------------------------------------------------------------
   0   14519.7    688.7   1.129791424  25.61626   0.51487  -3.99587   3.06336
   1   17004.9    588.1   1.219663492  23.61252   1.91227   1.96351   4.01253
   2   20291.8    492.8   0.223515091   3.62629   0.17713   1.65435   0.92630
   3   21251.7    470.6   0.771429343  11.95029  -2.10527  -0.82908  -2.61357
   4   23239.6    430.3   0.091983387   1.30304   1.06149  -0.09786   0.40830
   5   24073.5    415.4   0.268783945   3.67569   0.63514  -0.69842   1.66868
   6   24615.3    406.3   0.234057138   3.13034   1.07528  -0.46975   1.32418
   7   25062.9    399.0   0.043648436   0.57334   0.27337  -0.70131  -0.08233
   8   25410.5    393.5   0.018921137   0.24514  -0.27775   0.40894   0.02755
   9   25886.0    386.3   0.094601210   1.20311  -0.37475   0.90752  -0.48897
  10   27062.0    369.5   0.166760353   2.02866  -0.79857  -0.00403  -1.17938
  11   27312.5    366.1   0.075660118   0.91197  -0.41421  -0.26431  -0.81886
  12   28347.8    352.8   0.136427870   1.58438  -0.84840   0.00043  -0.92984
  13   28464.0    351.3   0.012869255   0.14884   0.18554   0.16497   0.29530
  14   28889.3    346.1   0.120124893   1.36890  -0.99778   0.21360  -0.57245
  15   28969.9    345.2   0.005009954   0.05693   0.23148  -0.01102   0.05681
  16   29215.6    342.3   0.015733409   0.17729  -0.03923   0.24590   0.33954
  17   29666.5    337.1   0.011023474   0.12233   0.28392  -0.00188   0.20425
  18   29845.4    335.1   0.021262116   0.23453  -0.13169  -0.36519  -0.28953
  19   30107.8    332.1   0.036890346   0.40337   0.36701  -0.38209  -0.35027
  20   30302.1    330.0   0.016412921   0.17832   0.28845   0.06001   0.30251
  21   30491.5    328.0   0.372197181   4.01855  -0.96970  -0.33373  -1.72246
  22   31229.7    320.2   0.005945614   0.06268   0.03502   0.24619   0.02898
  23   32018.8    312.3   0.123109044   1.26579   0.85204  -0.56562   0.46892
  24   32495.0    307.7   0.036770375   0.37253  -0.33259  -0.48521  -0.16271
  25   32671.6    306.1   0.114545270   1.15420  -0.55942  -0.76043  -0.51284
  26   33141.1    301.7   0.081800030   0.81257  -0.71667  -0.19058  -0.51249
  27   33237.9    300.9   0.038371357   0.38006   0.47053  -0.36646   0.15609
  28   33466.3    298.8   0.000197185   0.00194   0.03461   0.01656  -0.02163
  29   33748.4    296.3   0.151153613   1.47449   0.84603   0.10362   0.86486
  30   33869.2    295.3   0.043590061   0.42370  -0.59519   0.15810  -0.21084
  31   34201.6    292.4   0.866369087   8.33934  -1.90143   1.93622  -0.98741
  32   34463.7    290.2   0.119050252   1.13722   0.44560  -0.94593   0.20947
  33   34652.5    288.6   0.041695265   0.39612   0.09309  -0.61925  -0.06308
  34   34703.0    288.2   0.155928813   1.47923  -0.38431   1.15363   0.02593
  35   35168.6    284.3   0.535817651   5.01577   1.60389   0.19467   1.55094
  36   35830.6    279.1   0.137244968   1.26101   0.83758  -0.39773   0.63347
  37   35870.4    278.8   0.181129625   1.66238  -0.36074   1.23767   0.02024
  38   36024.3    277.6   0.009118764   0.08333   0.18904  -0.08940   0.19901
  39   36431.9    274.5   0.004130782   0.03733   0.11792   0.15276  -0.00927
  40   36664.1    272.7   0.026997014   0.24241  -0.10641  -0.06362  -0.47649
  41   36892.8    271.1   0.034823460   0.31075  -0.02707   0.55678  -0.00222
  42   37032.8    270.0   0.006717220   0.05971  -0.10737   0.21908   0.01375
  43   37267.6    268.3   0.027775683   0.24536   0.11164  -0.47089  -0.10563
  44   37555.2    266.3   0.023751821   0.20821  -0.07800  -0.39874  -0.20769
  45   37698.6    265.3   0.043296960   0.37810   0.14248  -0.54304  -0.25082
  46   37945.0    263.5   0.022238173   0.19294  -0.35132   0.19175  -0.18096
  47   38034.8    262.9   0.005280713   0.04571   0.03511   0.18584   0.09969
  48   38338.6    260.8   0.026414004   0.22682   0.28065  -0.04171   0.38251
  49   38952.8    256.7   0.100991388   0.85353  -0.73096  -0.38704  -0.41163
  50   38990.7    256.5   0.194118633   1.63901   0.18719  -1.19022  -0.43285
  51   39159.6    255.4   0.023004711   0.19340   0.34786   0.15830   0.21756
  52   39613.9    252.4   0.058717462   0.48797  -0.49281   0.42282  -0.25754
  53   39698.1    251.9   0.021061666   0.17466   0.01943   0.01670   0.41714
  54   39900.4    250.6   0.045845817   0.37827  -0.38217   0.27043  -0.39885
  55   39960.4    250.2   0.047993130   0.39539  -0.44882   0.43141   0.08849
  56   40088.4    249.4   0.030310444   0.24891   0.10788  -0.22776   0.43058

FINAL SINGLE POINT ENERGY     -5716.979321355367

DIPOLE MOMENT
-------------
                                X             Y             Z
Electronic contribution:     20.53282      27.57696      40.19182
Nuclear contribution   :    -20.27885     -30.04208     -44.57102
                        -----------------------------------------
Total Dipole Moment    :      0.25397      -2.46512      -4.37920
                        -----------------------------------------
Magnitude (a.u.)       :      5.03177
Magnitude (Debye)      :     12.78973

Rotational constants in cm-1:     0.000469     0.000292     0.000190
Rotational constants in MHz :    14.070426     8.755602     5.709396

                             ****ORCA TERMINATED NORMALLY****
TOTAL RUN TIME: 0 days 0 hours 12 minutes 20 seconds 130 msec
