                         Program Version 4.2.0 -  RELEASE  -
|  1> # ORCA input file
|  2> # SCF done       -212.758402711065          0.000983557060
|  3> ! CAM-B3LYP def2-SVP def2/J RIJCOSX Grid4 TightSCF
|  4> %maxcore 5000
|  5> %tddft
|  6>     Mode sTDDFT
|  7>     Ethresh 5.0
|  8>     maxcore 5000
|  9> end
| 10>
| 11> %pal
| 12>   nprocs 6
| 13>   end
| 14> * xyz 0 1
| 15>    C       -8.66159        -0.06654         7.48259
| 16>    C       -8.93143        -0.38597         8.78433
| 17>    F       -9.57896         0.48493         9.56976
| 18>    C       -8.53217        -1.62935         9.31417
| 19>    F       -8.81579        -1.92361        10.59401
| 20>    C       -7.87032        -2.53748         8.53833
| 21>    C       -7.59332        -2.24225         7.18991
| 22>    C       -7.99157        -0.98566         6.64932
| 23>    C       -7.71745        -0.67394         5.29823
| 24>    C       -7.09021        -1.60209         4.50699
| 25>    C       -6.71881        -2.86381         5.05159
| 26>    C       -6.94011        -3.18050         6.36138
| 27>    C       -6.09894        -3.69244         4.00354
| 28>    O       -5.57027        -4.77089         4.15629
| 29>    C       -6.15453        -2.86843         2.75900
| 30>    C       -6.70007        -1.56488         3.10136
| 31>    C       -6.86458        -0.49959         2.25690
| 32>    C       -7.42659         0.73689         2.64126
| 33>    N       -7.87455         1.76432         2.88806
| 34>    C       -6.49325        -0.47204         0.89578
| 35>    N       -6.21936        -0.37287        -0.21500
| 36>    C       -5.66961        -3.26603         1.55596
| 37>    C       -5.34459        -4.62779         1.23815
| 38>    C       -4.25353        -4.97545         0.44261
| 39>    C       -3.87695        -6.31784         0.19355
| 40>    N       -2.75536        -6.44916        -0.56668
| 41>    C       -2.27167        -5.31861        -0.90277
| 42>    S       -3.11594        -3.90758        -0.31568
| 43>    C       -4.59681        -7.39304         0.74192
| 44>    C       -5.76077        -7.04313         1.43069
| 45>    C       -6.14388        -5.70304         1.66852
| 46>    N       -7.35316        -5.56346         2.27678
| 47>    C       -7.89589        -6.68927         2.51960
| 48>    S       -6.99959        -8.10218         2.03744
| 49>    C       -4.14481        -8.76189         0.61405
| 50>    C       -4.30977        -9.65587         1.64116
| 51>    C       -3.91461       -10.99294         1.61399
| 52>    C       -3.22844       -11.53284         0.43384
| 53>    C       -2.95247       -10.81301        -0.67978
| 54>    S       -3.35029        -9.16178        -0.88767
| 55>    C       -2.91332       -12.87958         0.75745
| 56>    C       -3.34975       -13.16115         2.05223
| 57>    C       -3.05630       -14.48764         2.43783
| 58>    C       -2.41667       -15.16297         1.44776
| 59>    S       -2.14609       -14.22665         0.01505
| 60>    C       -3.99211       -11.99628         2.60460
| 61>    C       -4.52405       -11.99099         3.91545
| 62>    C       -5.35493       -11.07482         4.47992
| 63>    C       -5.79378       -11.08535         5.83454
| 64>    C       -6.62423       -10.05799         6.31016
| 65>    C       -7.07211        -9.93882         7.64088
| 66>    N       -7.89527        -8.87646         7.86221
| 67>    C       -8.06757        -8.17952         6.80566
| 68>    S       -7.25181        -8.73027         5.37829
| 69>    C       -6.69057       -10.87982         8.62315
| 70>    C       -5.91026       -11.94006         8.14192
| 71>    C       -5.45190       -12.05271         6.80945
| 72>    N       -4.67619       -13.15125         6.58972
| 73>    C       -4.51575       -13.84813         7.64512
| 74>    S       -5.29609       -13.25706         9.08689
| 75>    C       -7.08630       -10.82484         9.98903
| 76>    C       -7.45036        -9.75408        10.74874
| 77>    C       -8.22708        -9.97734        11.99789
| 78>    O       -8.40146       -11.02850        12.56982
| 79>    C       -8.77912        -8.65160        12.34970
| 80>    C       -9.65225        -8.32314        13.34521
| 81>    C      -10.06577        -6.97837        13.48194
| 82>    C       -9.56030        -5.99470        12.58267
| 83>    C       -9.97891        -4.65592        12.72442
| 84>    C      -10.86016        -4.31249        13.71154
| 85>    C      -11.35948        -5.28613        14.59941
| 86>    C      -10.97003        -6.59160        14.48956
| 87>    F      -12.22363        -4.92066        15.55705
| 88>    F      -11.26190        -3.04259        13.84577
| 89>    C       -8.64924        -6.36516        11.56651
| 90>    C       -8.26434        -7.67429        11.45001
| 91>    C       -7.33350        -8.33239        10.53934
| 92>    C       -6.38044        -7.70275         9.77745
| 93>    C       -5.30773        -8.37862         9.16401
| 94>    N       -4.39480        -8.88121         8.68215
| 95>    C       -6.36230        -6.32311         9.52603
| 96>    N       -6.33339        -5.21318         9.22843
| 97>    H       -8.96956         0.89180         7.09442
| 98>    H       -7.54215        -3.47860         8.95281
| 99>    H       -8.01596         0.29111         4.92194
|100>    H       -6.62918        -4.13227         6.76497
|101>    H       -5.48894        -2.54271         0.77072
|102>    H       -1.39460        -5.20697        -1.50934
|103>    H       -8.85174        -6.79908         2.99317
|104>    H       -4.72839        -9.26454         2.55481
|105>    H       -2.43597       -11.24351        -1.52361
|106>    H       -3.30115       -14.91960         3.39099
|107>    H       -2.07382       -16.17916         1.46020
|108>    H       -4.23286       -12.83268         4.52968
|109>    H       -5.75271       -10.25986         3.89167
|110>    H       -8.67546        -7.29594         6.77486
|111>    H       -3.93794       -14.75095         7.67723
|112>    H       -7.15707       -11.78595        10.49227
|113>    H      -10.02418        -9.07829        14.02086
|114>    H       -9.60382        -3.89223        12.06118
|115>    H      -11.36001        -7.32493        15.17791
|116>    H       -8.28482        -5.60233        10.89732
|117> *
|118>
|119>                          ****END OF INPUT****

CARTESIAN COORDINATES (ANGSTROEM)
---------------------------------
  C     -8.661590   -0.066540    7.482590
  C     -8.931430   -0.385970    8.784330
  F     -9.578960    0.484930    9.569760
  C     -8.532170   -1.629350    9.314170
  F     -8.815790   -1.923610   10.594010
  C     -7.870320   -2.537480    8.538330
  C     -7.593320   -2.242250    7.189910
  C     -7.991570   -0.985660    6.649320
  C     -7.717450   -0.673940    5.298230
  C     -7.090210   -1.602090    4.506990
  C     -6.718810   -2.863810    5.051590
  C     -6.940110   -3.180500    6.361380
  C     -6.098940   -3.692440    4.003540
  O     -5.570270   -4.770890    4.156290
  C     -6.154530   -2.868430    2.759000
  C     -6.700070   -1.564880    3.101360
  C     -6.864580   -0.499590    2.256900
  C     -7.426590    0.736890    2.641260
  N     -7.874550    1.764320    2.888060
  C     -6.493250   -0.472040    0.895780
  N     -6.219360   -0.372870   -0.215000
  C     -5.669610   -3.266030    1.555960
  C     -5.344590   -4.627790    1.238150
  C     -4.253530   -4.975450    0.442610
  C     -3.876950   -6.317840    0.193550
  N     -2.755360   -6.449160   -0.566680
  C     -2.271670   -5.318610   -0.902770
  S     -3.115940   -3.907580   -0.315680
  C     -4.596810   -7.393040    0.741920
  C     -5.760770   -7.043130    1.430690
  C     -6.143880   -5.703040    1.668520
  N     -7.353160   -5.563460    2.276780
  C     -7.895890   -6.689270    2.519600
  S     -6.999590   -8.102180    2.037440
  C     -4.144810   -8.761890    0.614050
  C     -4.309770   -9.655870    1.641160
  C     -3.914610  -10.992940    1.613990
  C     -3.228440  -11.532840    0.433840
  C     -2.952470  -10.813010   -0.679780
  S     -3.350290   -9.161780   -0.887670
  C     -2.913320  -12.879580    0.757450
  C     -3.349750  -13.161150    2.052230
  C     -3.056300  -14.487640    2.437830
  C     -2.416670  -15.162970    1.447760
  S     -2.146090  -14.226650    0.015050
  C     -3.992110  -11.996280    2.604600
  C     -4.524050  -11.990990    3.915450
  C     -5.354930  -11.074820    4.479920
  C     -5.793780  -11.085350    5.834540
  C     -6.624230  -10.057990    6.310160
  C     -7.072110   -9.938820    7.640880
  N     -7.895270   -8.876460    7.862210
  C     -8.067570   -8.179520    6.805660
  S     -7.251810   -8.730270    5.378290
  C     -6.690570  -10.879820    8.623150
  C     -5.910260  -11.940060    8.141920
  C     -5.451900  -12.052710    6.809450
  N     -4.676190  -13.151250    6.589720
  C     -4.515750  -13.848130    7.645120
  S     -5.296090  -13.257060    9.086890
  C     -7.086300  -10.824840    9.989030
  C     -7.450360   -9.754080   10.748740
  C     -8.227080   -9.977340   11.997890
  O     -8.401460  -11.028500   12.569820
  C     -8.779120   -8.651600   12.349700
  C     -9.652250   -8.323140   13.345210
  C    -10.065770   -6.978370   13.481940
  C     -9.560300   -5.994700   12.582670
  C     -9.978910   -4.655920   12.724420
  C    -10.860160   -4.312490   13.711540
  C    -11.359480   -5.286130   14.599410
  C    -10.970030   -6.591600   14.489560
  F    -12.223630   -4.920660   15.557050
  F    -11.261900   -3.042590   13.845770
  C     -8.649240   -6.365160   11.566510
  C     -8.264340   -7.674290   11.450010
  C     -7.333500   -8.332390   10.539340
  C     -6.380440   -7.702750    9.777450
  C     -5.307730   -8.378620    9.164010
  N     -4.394800   -8.881210    8.682150
  C     -6.362300   -6.323110    9.526030
  N     -6.333390   -5.213180    9.228430
  H     -8.969560    0.891800    7.094420
  H     -7.542150   -3.478600    8.952810
  H     -8.015960    0.291110    4.921940
  H     -6.629180   -4.132270    6.764970
  H     -5.488940   -2.542710    0.770720
  H     -1.394600   -5.206970   -1.509340
  H     -8.851740   -6.799080    2.993170
  H     -4.728390   -9.264540    2.554810
  H     -2.435970  -11.243510   -1.523610
  H     -3.301150  -14.919600    3.390990
  H     -2.073820  -16.179160    1.460200
  H     -4.232860  -12.832680    4.529680
  H     -5.752710  -10.259860    3.891670
  H     -8.675460   -7.295940    6.774860
  H     -3.937940  -14.750950    7.677230
  H     -7.157070  -11.785950   10.492270
  H    -10.024180   -9.078290   14.020860
  H     -9.603820   -3.892230   12.061180
  H    -11.360010   -7.324930   15.177910
  H     -8.284820   -5.602330   10.897320

 Total Charge           Charge          ....    0
 Multiplicity           Mult            ....    1
 Number of Electrons    NEL             ....  596
 Basis Dimension        Dim             .... 1272

ORBITAL ENERGIES
----------------

  NO   OCC          E(Eh)            E(eV)
   0   2.0000     -88.980196     -2421.2742
   1   2.0000     -88.977819     -2421.2095
   2   2.0000     -88.975851     -2421.1560
   3   2.0000     -88.972549     -2421.0662
   4   2.0000     -88.971003     -2421.0241
   5   2.0000     -88.955289     -2420.5965
   6   2.0000     -24.798904      -674.8125
   7   2.0000     -24.794793      -674.7006
   8   2.0000     -24.794006      -674.6792
   9   2.0000     -24.793165      -674.6563
  10   2.0000     -19.214705      -522.8587
  11   2.0000     -19.212470      -522.7979
  12   2.0000     -14.429898      -392.6575
  13   2.0000     -14.425853      -392.5474
  14   2.0000     -14.424333      -392.5060
  15   2.0000     -14.423330      -392.4788
  16   2.0000     -14.422274      -392.4500
  17   2.0000     -14.419897      -392.3854
  18   2.0000     -14.417687      -392.3252
  19   2.0000     -14.410116      -392.1192
  20   2.0000     -10.377444      -282.3846
  21   2.0000     -10.377253      -282.3794
  22   2.0000     -10.376679      -282.3638
  23   2.0000     -10.375205      -282.3237
  24   2.0000     -10.366873      -282.0969
  25   2.0000     -10.363087      -281.9939
  26   2.0000     -10.353022      -281.7200
  27   2.0000     -10.350972      -281.6643
  28   2.0000     -10.349967      -281.6369
  29   2.0000     -10.346077      -281.5311
  30   2.0000     -10.344475      -281.4875
  31   2.0000     -10.343506      -281.4611
  32   2.0000     -10.336876      -281.2807
  33   2.0000     -10.335779      -281.2508
  34   2.0000     -10.330803      -281.1154
  35   2.0000     -10.330638      -281.1110
  36   2.0000     -10.329420      -281.0778
  37   2.0000     -10.329231      -281.0727
  38   2.0000     -10.328523      -281.0534
  39   2.0000     -10.328463      -281.0518
  40   2.0000     -10.324861      -280.9538
  41   2.0000     -10.323820      -280.9254
  42   2.0000     -10.322814      -280.8980
  43   2.0000     -10.322291      -280.8838
  44   2.0000     -10.320967      -280.8478
  45   2.0000     -10.320446      -280.8336
  46   2.0000     -10.320217      -280.8274
  47   2.0000     -10.317559      -280.7551
  48   2.0000     -10.314976      -280.6848
  49   2.0000     -10.313371      -280.6411
  50   2.0000     -10.311994      -280.6036
  51   2.0000     -10.311283      -280.5843
  52   2.0000     -10.310179      -280.5542
  53   2.0000     -10.307273      -280.4752
  54   2.0000     -10.306653      -280.4583
  55   2.0000     -10.306136      -280.4442
  56   2.0000     -10.305379      -280.4236
  57   2.0000     -10.304651      -280.4038
  58   2.0000     -10.304329      -280.3950
  59   2.0000     -10.303571      -280.3744
  60   2.0000     -10.301425      -280.3160
  61   2.0000     -10.301300      -280.3126
  62   2.0000     -10.299699      -280.2691
  63   2.0000     -10.299621      -280.2669
  64   2.0000     -10.299358      -280.2598
  65   2.0000     -10.299238      -280.2565
  66   2.0000     -10.297490      -280.2089
  67   2.0000     -10.296174      -280.1731
  68   2.0000     -10.295719      -280.1608
  69   2.0000     -10.295589      -280.1572
  70   2.0000     -10.295408      -280.1523
  71   2.0000     -10.292702      -280.0787
  72   2.0000     -10.290775      -280.0262
  73   2.0000     -10.289949      -280.0037
  74   2.0000     -10.288663      -279.9688
  75   2.0000     -10.287834      -279.9462
  76   2.0000     -10.285255      -279.8760
  77   2.0000     -10.279183      -279.7108
  78   2.0000     -10.275004      -279.5971
  79   2.0000     -10.274177      -279.5746
  80   2.0000     -10.273427      -279.5541
  81   2.0000     -10.271688      -279.5069
  82   2.0000      -8.074911      -219.7295
  83   2.0000      -8.074101      -219.7075
  84   2.0000      -8.071481      -219.6362
  85   2.0000      -8.068421      -219.5529
  86   2.0000      -8.067431      -219.5260
  87   2.0000      -8.050691      -219.0704
  88   2.0000      -6.044350      -164.4751
  89   2.0000      -6.043425      -164.4500
  90   2.0000      -6.040948      -164.3826
  91   2.0000      -6.039567      -164.3450
  92   2.0000      -6.039304      -164.3378
  93   2.0000      -6.037637      -164.2925
  94   2.0000      -6.037211      -164.2809
  95   2.0000      -6.036707      -164.2672
  96   2.0000      -6.036649      -164.2656
  97   2.0000      -6.035876      -164.2445
  98   2.0000      -6.033560      -164.1815
  99   2.0000      -6.033165      -164.1708
 100   2.0000      -6.032609      -164.1556
 101   2.0000      -6.030418      -164.0960
 102   2.0000      -6.029330      -164.0664
 103   2.0000      -6.020187      -163.8176
 104   2.0000      -6.015925      -163.7017
 105   2.0000      -6.012633      -163.6121
 106   2.0000      -1.318331       -35.8736
 107   2.0000      -1.316957       -35.8362
 108   2.0000      -1.303525       -35.4707
 109   2.0000      -1.302016       -35.4297
 110   2.0000      -1.131064       -30.7778
 111   2.0000      -1.127487       -30.6805
 112   2.0000      -1.089671       -29.6515
 113   2.0000      -1.083827       -29.4924
 114   2.0000      -1.081233       -29.4219
 115   2.0000      -1.075564       -29.2676
 116   2.0000      -1.021092       -27.7853
 117   2.0000      -1.020263       -27.7628
 118   2.0000      -1.007493       -27.4153
 119   2.0000      -1.003676       -27.3114
 120   2.0000      -1.002438       -27.2777
 121   2.0000      -0.997033       -27.1307
 122   2.0000      -0.994693       -27.0670
 123   2.0000      -0.983209       -26.7545
 124   2.0000      -0.979750       -26.6604
 125   2.0000      -0.977766       -26.6064
 126   2.0000      -0.964664       -26.2498
 127   2.0000      -0.961488       -26.1634
 128   2.0000      -0.944520       -25.7017
 129   2.0000      -0.942639       -25.6505
 130   2.0000      -0.928208       -25.2578
 131   2.0000      -0.925672       -25.1888
 132   2.0000      -0.922024       -25.0895
 133   2.0000      -0.905938       -24.6518
 134   2.0000      -0.899356       -24.4727
 135   2.0000      -0.898042       -24.4370
 136   2.0000      -0.895971       -24.3806
 137   2.0000      -0.889139       -24.1947
 138   2.0000      -0.888632       -24.1809
 139   2.0000      -0.887331       -24.1455
 140   2.0000      -0.876034       -23.8381
 141   2.0000      -0.874363       -23.7926
 142   2.0000      -0.866888       -23.5892
 143   2.0000      -0.848850       -23.0984
 144   2.0000      -0.844608       -22.9829
 145   2.0000      -0.836987       -22.7756
 146   2.0000      -0.835859       -22.7449
 147   2.0000      -0.834555       -22.7094
 148   2.0000      -0.832100       -22.6426
 149   2.0000      -0.822680       -22.3863
 150   2.0000      -0.810477       -22.0542
 151   2.0000      -0.799333       -21.7509
 152   2.0000      -0.789564       -21.4851
 153   2.0000      -0.771369       -20.9900
 154   2.0000      -0.765721       -20.8363
 155   2.0000      -0.762629       -20.7522
 156   2.0000      -0.757607       -20.6155
 157   2.0000      -0.750058       -20.4101
 158   2.0000      -0.736648       -20.0452
 159   2.0000      -0.734115       -19.9763
 160   2.0000      -0.729553       -19.8522
 161   2.0000      -0.722741       -19.6668
 162   2.0000      -0.714662       -19.4469
 163   2.0000      -0.713206       -19.4073
 164   2.0000      -0.704646       -19.1744
 165   2.0000      -0.699805       -19.0427
 166   2.0000      -0.695962       -18.9381
 167   2.0000      -0.694287       -18.8925
 168   2.0000      -0.685867       -18.6634
 169   2.0000      -0.680869       -18.5274
 170   2.0000      -0.677489       -18.4354
 171   2.0000      -0.668705       -18.1964
 172   2.0000      -0.666902       -18.1473
 173   2.0000      -0.663612       -18.0578
 174   2.0000      -0.660292       -17.9675
 175   2.0000      -0.655236       -17.8299
 176   2.0000      -0.651386       -17.7251
 177   2.0000      -0.645804       -17.5732
 178   2.0000      -0.640726       -17.4351
 179   2.0000      -0.638697       -17.3798
 180   2.0000      -0.637255       -17.3406
 181   2.0000      -0.633395       -17.2355
 182   2.0000      -0.625698       -17.0261
 183   2.0000      -0.619450       -16.8561
 184   2.0000      -0.616302       -16.7704
 185   2.0000      -0.610512       -16.6129
 186   2.0000      -0.608723       -16.5642
 187   2.0000      -0.601793       -16.3756
 188   2.0000      -0.596560       -16.2332
 189   2.0000      -0.590009       -16.0550
 190   2.0000      -0.586751       -15.9663
 191   2.0000      -0.583895       -15.8886
 192   2.0000      -0.582455       -15.8494
 193   2.0000      -0.581540       -15.8245
 194   2.0000      -0.581458       -15.8223
 195   2.0000      -0.577759       -15.7216
 196   2.0000      -0.572847       -15.5880
 197   2.0000      -0.571884       -15.5618
 198   2.0000      -0.568367       -15.4660
 199   2.0000      -0.560187       -15.2435
 200   2.0000      -0.554899       -15.0996
 201   2.0000      -0.553232       -15.0542
 202   2.0000      -0.552170       -15.0253
 203   2.0000      -0.550462       -14.9788
 204   2.0000      -0.549251       -14.9459
 205   2.0000      -0.546862       -14.8809
 206   2.0000      -0.546671       -14.8757
 207   2.0000      -0.544920       -14.8280
 208   2.0000      -0.543081       -14.7780
 209   2.0000      -0.541356       -14.7311
 210   2.0000      -0.537364       -14.6224
 211   2.0000      -0.535203       -14.5636
 212   2.0000      -0.534532       -14.5453
 213   2.0000      -0.530976       -14.4486
 214   2.0000      -0.528508       -14.3814
 215   2.0000      -0.527612       -14.3571
 216   2.0000      -0.525082       -14.2882
 217   2.0000      -0.521389       -14.1877
 218   2.0000      -0.520419       -14.1613
 219   2.0000      -0.517324       -14.0771
 220   2.0000      -0.515531       -14.0283
 221   2.0000      -0.514326       -13.9955
 222   2.0000      -0.512902       -13.9568
 223   2.0000      -0.511055       -13.9065
 224   2.0000      -0.510773       -13.8988
 225   2.0000      -0.509867       -13.8742
 226   2.0000      -0.506633       -13.7862
 227   2.0000      -0.505983       -13.7685
 228   2.0000      -0.499467       -13.5912
 229   2.0000      -0.497339       -13.5333
 230   2.0000      -0.496571       -13.5124
 231   2.0000      -0.495657       -13.4875
 232   2.0000      -0.489671       -13.3246
 233   2.0000      -0.488002       -13.2792
 234   2.0000      -0.487125       -13.2554
 235   2.0000      -0.480871       -13.0852
 236   2.0000      -0.480511       -13.0754
 237   2.0000      -0.478636       -13.0243
 238   2.0000      -0.469882       -12.7861
 239   2.0000      -0.468300       -12.7431
 240   2.0000      -0.467731       -12.7276
 241   2.0000      -0.465620       -12.6702
 242   2.0000      -0.463836       -12.6216
 243   2.0000      -0.461879       -12.5684
 244   2.0000      -0.461361       -12.5543
 245   2.0000      -0.459551       -12.5050
 246   2.0000      -0.454159       -12.3583
 247   2.0000      -0.452827       -12.3221
 248   2.0000      -0.451471       -12.2852
 249   2.0000      -0.448483       -12.2038
 250   2.0000      -0.446715       -12.1557
 251   2.0000      -0.443500       -12.0682
 252   2.0000      -0.441052       -12.0016
 253   2.0000      -0.440087       -11.9754
 254   2.0000      -0.437416       -11.9027
 255   2.0000      -0.435456       -11.8494
 256   2.0000      -0.434260       -11.8168
 257   2.0000      -0.431817       -11.7503
 258   2.0000      -0.431171       -11.7328
 259   2.0000      -0.430043       -11.7021
 260   2.0000      -0.429643       -11.6912
 261   2.0000      -0.426338       -11.6013
 262   2.0000      -0.425188       -11.5699
 263   2.0000      -0.422619       -11.5000
 264   2.0000      -0.420729       -11.4486
 265   2.0000      -0.420152       -11.4329
 266   2.0000      -0.416861       -11.3434
 267   2.0000      -0.411965       -11.2101
 268   2.0000      -0.409860       -11.1529
 269   2.0000      -0.408322       -11.1110
 270   2.0000      -0.404516       -11.0074
 271   2.0000      -0.392987       -10.6937
 272   2.0000      -0.390046       -10.6137
 273   2.0000      -0.381529       -10.3819
 274   2.0000      -0.380401       -10.3512
 275   2.0000      -0.378197       -10.2913
 276   2.0000      -0.372214       -10.1285
 277   2.0000      -0.369409       -10.0521
 278   2.0000      -0.366267        -9.9666
 279   2.0000      -0.360496        -9.8096
 280   2.0000      -0.356601        -9.7036
 281   2.0000      -0.353246        -9.6123
 282   2.0000      -0.350813        -9.5461
 283   2.0000      -0.341318        -9.2877
 284   2.0000      -0.340290        -9.2598
 285   2.0000      -0.337232        -9.1766
 286   2.0000      -0.330676        -8.9981
 287   2.0000      -0.327177        -8.9029
 288   2.0000      -0.316474        -8.6117
 289   2.0000      -0.314251        -8.5512
 290   2.0000      -0.313167        -8.5217
 291   2.0000      -0.310288        -8.4434
 292   2.0000      -0.299462        -8.1488
 293   2.0000      -0.294014        -8.0005
 294   2.0000      -0.292423        -7.9572
 295   2.0000      -0.286613        -7.7991
 296   2.0000      -0.271077        -7.3764
 297   2.0000      -0.230700        -6.2777
 298   0.0000      -0.103092        -2.8053
 299   0.0000      -0.094740        -2.5780
 300   0.0000      -0.065856        -1.7920
 301   0.0000      -0.057282        -1.5587
 302   0.0000      -0.050602        -1.3770

MULLIKEN ATOMIC CHARGES
-----------------------
   0 C :   -0.111681
   1 C :    0.246832
   2 F :   -0.172222
   3 C :    0.238131
   4 F :   -0.173786
   5 C :   -0.077546
   6 C :    0.112591
   7 C :    0.110531
   8 C :   -0.089878
   9 C :    0.057109
  10 C :    0.002072
  11 C :   -0.083002
  12 C :    0.158801
  13 O :   -0.142069
  14 C :   -0.052845
  15 C :    0.311818
  16 C :   -0.349869
  17 C :   -0.180638
  18 N :    0.151676
  19 C :   -0.185754
  20 N :    0.153265
  21 C :   -0.087533
  22 C :    0.042442
  23 C :   -0.098002
  24 C :    0.010518
  25 N :   -0.071550
  26 C :    0.017775
  27 S :    0.127036
  28 C :    0.061737
  29 C :   -0.122274
  30 C :    0.053189
  31 N :   -0.060211
  32 C :    0.023385
  33 S :    0.114633
  34 C :   -0.145248
  35 C :   -0.053716
  36 C :    0.050824
  37 C :    0.059851
  38 C :   -0.133915
  39 S :    0.213435
  40 C :   -0.106759
  41 C :    0.048069
  42 C :    0.012409
  43 C :   -0.067494
  44 S :    0.122475
  45 C :    0.091729
  46 C :    0.008656
  47 C :   -0.112718
  48 C :    0.115914
  49 C :   -0.097969
  50 C :   -0.009791
  51 N :   -0.068631
  52 C :    0.039681
  53 S :    0.088905
  54 C :    0.056106
  55 C :   -0.082359
  56 C :    0.008696
  57 N :   -0.059647
  58 C :    0.020655
  59 S :    0.114783
  60 C :   -0.047230
  61 C :   -0.121647
  62 C :    0.133616
  63 O :   -0.143984
  64 C :    0.009860
  65 C :   -0.082190
  66 C :    0.105783
  67 C :    0.122681
  68 C :   -0.105944
  69 C :    0.239450
  70 C :    0.234859
  71 C :   -0.103670
  72 F :   -0.173603
  73 F :   -0.169640
  74 C :   -0.085592
  75 C :    0.048593
  76 C :    0.340019
  77 C :   -0.348273
  78 C :   -0.212032
  79 N :    0.181175
  80 C :   -0.145271
  81 N :    0.128854
  82 H :    0.003671
  83 H :   -0.030200
  84 H :   -0.008163
  85 H :   -0.011435
  86 H :    0.030459
  87 H :    0.051000
  88 H :    0.040543
  89 H :    0.001442
  90 H :    0.036880
  91 H :   -0.012908
  92 H :    0.025140
  93 H :   -0.004010
  94 H :   -0.038577
  95 H :    0.043761
  96 H :    0.043944
  97 H :    0.019730
  98 H :   -0.010644
  99 H :   -0.011351
 100 H :   -0.001474
 101 H :   -0.022246
Sum of atomic charges:   -0.0000000

LOEWDIN ATOMIC CHARGES
----------------------
   0 C :   -0.034056
   1 C :    0.067508
   2 F :   -0.050011
   3 C :    0.061968
   4 F :   -0.054493
   5 C :   -0.025903
   6 C :   -0.006782
   7 C :   -0.006242
   8 C :    0.016054
   9 C :   -0.024005
  10 C :   -0.054752
  11 C :    0.037636
  12 C :    0.086636
  13 O :   -0.135541
  14 C :   -0.064462
  15 C :    0.076454
  16 C :   -0.133099
  17 C :   -0.016786
  18 N :   -0.049811
  19 C :   -0.019437
  20 N :   -0.048971
  21 C :    0.064392
  22 C :   -0.048643
  23 C :   -0.151479
  24 C :   -0.040389
  25 N :   -0.098678
  26 C :   -0.094902
  27 S :    0.412196
  28 C :   -0.040580
  29 C :   -0.162364
  30 C :   -0.005474
  31 N :   -0.079144
  32 C :   -0.099909
  33 S :    0.413687
  34 C :   -0.169931
  35 C :   -0.022018
  36 C :   -0.009761
  37 C :   -0.048689
  38 C :   -0.144232
  39 S :    0.518548
  40 C :   -0.206769
  41 C :   -0.035921
  42 C :   -0.062368
  43 C :   -0.163638
  44 S :    0.415860
  45 C :   -0.060477
  46 C :    0.029228
  47 C :   -0.066223
  48 C :    0.003215
  49 C :   -0.169782
  50 C :   -0.017615
  51 N :   -0.086605
  52 C :   -0.099790
  53 S :    0.414681
  54 C :   -0.072608
  55 C :   -0.139228
  56 C :   -0.034458
  57 N :   -0.078339
  58 C :   -0.101397
  59 S :    0.412717
  60 C :    0.068147
  61 C :   -0.086198
  62 C :    0.084086
  63 O :   -0.143544
  64 C :   -0.052989
  65 C :    0.029542
  66 C :   -0.010265
  67 C :   -0.005961
  68 C :   -0.031697
  69 C :    0.066213
  70 C :    0.066190
  71 C :   -0.034120
  72 F :   -0.051127
  73 F :   -0.047980
  74 C :    0.008214
  75 C :   -0.016025
  76 C :    0.084906
  77 C :   -0.145870
  78 C :   -0.020574
  79 N :   -0.048925
  80 C :    0.012935
  81 N :   -0.073446
  82 H :    0.046316
  83 H :    0.035694
  84 H :    0.039024
  85 H :    0.040926
  86 H :    0.040732
  87 H :    0.024503
  88 H :    0.019092
  89 H :    0.030728
  90 H :    0.036752
  91 H :    0.032156
  92 H :    0.022998
  93 H :    0.031772
  94 H :    0.008987
  95 H :    0.021528
  96 H :    0.021681
  97 H :    0.039142
  98 H :    0.040075
  99 H :    0.041269
 100 H :    0.044318
 101 H :    0.035774

  Mayer bond orders larger than 0.100000
B(  0-C ,  1-C ) :   1.4452 B(  0-C ,  5-C ) :   0.1144 B(  0-C ,  7-C ) :   1.1870
B(  0-C , 82-H ) :   1.0072 B(  1-C ,  2-F ) :   1.1333 B(  1-C ,  3-C ) :   1.1904
B(  3-C ,  4-F ) :   1.0960 B(  3-C ,  5-C ) :   1.4342 B(  5-C ,  6-C ) :   1.2146
B(  5-C , 83-H ) :   0.9876 B(  6-C ,  7-C ) :   1.2436 B(  6-C , 11-C ) :   1.1966
B(  7-C ,  8-C ) :   1.2221 B(  8-C ,  9-C ) :   1.4409 B(  8-C , 84-H ) :   0.9890
B(  9-C , 10-C ) :   1.2152 B(  9-C , 15-C ) :   0.9946 B( 10-C , 11-C ) :   1.4471
B( 10-C , 12-C ) :   0.9465 B( 11-C , 85-H ) :   1.0193 B( 12-C , 13-O ) :   2.2302
B( 12-C , 14-C ) :   0.9156 B( 14-C , 15-C ) :   1.0591 B( 14-C , 21-C ) :   1.7034
B( 15-C , 16-C ) :   1.6422 B( 16-C , 17-C ) :   1.1443 B( 16-C , 19-C ) :   1.1439
B( 17-C , 18-N ) :   2.9634 B( 19-C , 20-N ) :   2.9647 B( 21-C , 22-C ) :   1.0638
B( 21-C , 86-H ) :   0.9284 B( 22-C , 23-C ) :   1.3739 B( 22-C , 30-C ) :   1.3229
B( 23-C , 24-C ) :   1.2873 B( 23-C , 27-S ) :   1.0849 B( 24-C , 25-N ) :   1.3177
B( 24-C , 28-C ) :   1.3331 B( 25-N , 26-C ) :   1.7612 B( 25-N , 27-S ) :   0.1043
B( 26-C , 27-S ) :   1.1148 B( 26-C , 87-H ) :   0.9637 B( 28-C , 29-C ) :   1.3918
B( 28-C , 34-C ) :   1.0335 B( 29-C , 30-C ) :   1.2862 B( 29-C , 33-S ) :   1.0700
B( 30-C , 31-N ) :   1.3239 B( 31-N , 32-C ) :   1.7593 B( 31-N , 33-S ) :   0.1040
B( 32-C , 33-S ) :   1.1071 B( 32-C , 88-H ) :   0.9615 B( 34-C , 35-C ) :   1.5331
B( 34-C , 39-S ) :   1.1048 B( 35-C , 36-C ) :   1.2464 B( 35-C , 89-H ) :   0.9596
B( 36-C , 37-C ) :   1.0744 B( 36-C , 45-C ) :   1.3492 B( 37-C , 38-C ) :   1.5645
B( 37-C , 40-C ) :   1.1864 B( 38-C , 39-S ) :   1.1685 B( 38-C , 90-H ) :   0.9403
B( 40-C , 41-C ) :   1.4375 B( 40-C , 44-S ) :   1.0681 B( 41-C , 42-C ) :   1.2227
B( 41-C , 45-C ) :   1.1055 B( 42-C , 43-C ) :   1.5857 B( 42-C , 91-H ) :   0.9965
B( 43-C , 44-S ) :   1.1519 B( 43-C , 92-H ) :   0.9660 B( 45-C , 46-C ) :   1.1584
B( 46-C , 47-C ) :   1.5851 B( 46-C , 93-H ) :   0.9393 B( 47-C , 48-C ) :   1.1665
B( 47-C , 94-H ) :   0.9631 B( 48-C , 49-C ) :   1.3204 B( 48-C , 56-C ) :   1.2499
B( 49-C , 50-C ) :   1.3126 B( 49-C , 53-S ) :   1.0692 B( 50-C , 51-N ) :   1.3570
B( 50-C , 54-C ) :   1.2740 B( 51-N , 52-C ) :   1.7073 B( 51-N , 53-S ) :   0.1075
B( 52-C , 53-S ) :   1.1432 B( 52-C , 95-H ) :   0.9632 B( 54-C , 55-C ) :   1.3420
B( 54-C , 60-C ) :   1.0945 B( 55-C , 56-C ) :   1.3199 B( 55-C , 59-S ) :   1.0962
B( 56-C , 57-N ) :   1.3219 B( 57-N , 58-C ) :   1.7546 B( 57-N , 59-S ) :   0.1044
B( 57-N , 93-H ) :   0.1002 B( 58-C , 59-S ) :   1.1106 B( 58-C , 96-H ) :   0.9643
B( 60-C , 61-C ) :   1.6525 B( 60-C , 97-H ) :   0.9377 B( 61-C , 62-C ) :   0.9436
B( 61-C , 76-C ) :   1.0563 B( 62-C , 63-O ) :   2.2686 B( 62-C , 64-C ) :   0.9139
B( 64-C , 65-C ) :   1.4781 B( 64-C , 75-C ) :   1.2151 B( 65-C , 66-C ) :   1.1924
B( 65-C , 98-H ) :   1.0150 B( 66-C , 67-C ) :   1.2543 B( 66-C , 71-C ) :   1.1951
B( 67-C , 68-C ) :   1.1857 B( 67-C , 74-C ) :   1.2164 B( 68-C , 69-C ) :   1.4450
B( 68-C , 71-C ) :   0.1096 B( 68-C , 99-H ) :   0.9989 B( 69-C , 70-C ) :   1.1920
B( 69-C , 73-F ) :   1.1369 B( 70-C , 71-C ) :   1.4418 B( 70-C , 72-F ) :   1.1319
B( 71-C ,100-H ) :   1.0066 B( 74-C , 75-C ) :   1.4543 B( 74-C ,101-H ) :   0.9950
B( 75-C , 76-C ) :   1.0132 B( 76-C , 77-C ) :   1.6075 B( 77-C , 78-C ) :   1.1656
B( 77-C , 80-C ) :   1.1687 B( 78-C , 79-N ) :   3.0161 B( 80-C , 81-N ) :   2.8972
B( 81-N , 83-H ) :   0.1013

-----------------------------------------------------------------------------
         ABSORPTION SPECTRUM VIA TRANSITION ELECTRIC DIPOLE MOMENTS
-----------------------------------------------------------------------------
State   Energy  Wavelength   fosc         T2         TX        TY        TZ
        (cm-1)    (nm)                  (au**2)     (au)      (au)      (au)
-----------------------------------------------------------------------------
   0   13472.7    742.2   0.481566154  11.76727  -0.74501  -1.13522   3.15016
   1   16350.2    611.6   0.551906635  11.11269  -1.11043   2.25454   2.19013
   2   21448.7    466.2   0.439209745   6.74135  -0.39841   2.55585   0.22412
   3   22020.7    454.1   0.371063481   5.54744  -0.91228   1.39379   1.66509
   4   23646.1    422.9   0.003941526   0.05488   0.10009   0.21150   0.01124
   5   24187.7    413.4   0.102624255   1.39679   0.39986  -0.07274  -1.10978
   6   24929.4    401.1   0.127125242   1.67879  -0.44579   0.47180   1.12137
   7   25708.6    389.0   0.026071990   0.33387  -0.35208   0.45535  -0.05060
   8   25895.6    386.2   0.016267320   0.20681  -0.35209  -0.07614   0.27757
   9   26157.8    382.3   0.258196451   3.24956   1.07157   0.05543  -1.44853
  10   26676.8    374.9   0.102472183   1.26458   0.38644  -0.75870  -0.73459
  11   26925.9    371.4   0.021947655   0.26834   0.01227  -0.25753   0.44931
  12   27544.6    363.0   0.005603143   0.06697  -0.09655   0.21497  -0.10694
  13   27762.2    360.2   0.017838402   0.21153   0.12932  -0.34778  -0.27176
  14   28259.2    353.9   0.031793077   0.37038  -0.40809   0.44453  -0.07896
  15   28375.3    352.4   0.096726393   1.12222  -0.04291  -0.57076   0.89141
  16   28685.4    348.6   0.007121204   0.08173  -0.00984   0.27450   0.07926
  17   28935.2    345.6   0.040143027   0.45673   0.36063   0.40474  -0.40356
  18   29075.5    343.9   0.012962029   0.14676  -0.24008   0.23175  -0.18820
  19   29454.6    339.5   0.005734950   0.06410   0.19140  -0.09064  -0.13874
  20   29827.5    335.3   0.042975801   0.47433  -0.28608  -0.44715   0.43879
  21   30292.3    330.1   0.032634120   0.35466   0.09125   0.46020   0.36682
  22   30882.1    323.8   0.063859366   0.68076   0.04895   0.15741   0.80845
  23   31221.0    320.3   0.017921258   0.18897  -0.26168   0.25847   0.23171
  24   31508.2    317.4   0.039632642   0.41410  -0.42145   0.12908   0.46884
  25   31551.1    316.9   0.093996391   0.98078   0.22211   0.02485  -0.96480
  26   32639.7    306.4   0.374640585   3.77871  -1.29039   0.14190   1.44688
  27   33093.5    302.2   0.136991164   1.36278  -0.41061   0.90250   0.61617
  28   33246.9    300.8   0.200646501   1.98681  -0.12699  -0.19972   1.38953
  29   33583.7    297.8   0.030692947   0.30087   0.42281  -0.32544  -0.12726
  30   33784.8    296.0   0.456820264   4.45143   0.95803   0.29977  -1.85573
  31   34171.1    292.6   0.055060481   0.53046  -0.26063   0.66965   0.11874
  32   34291.5    291.6   0.027567658   0.26466   0.00397  -0.08297   0.50770
  33   34446.4    290.3   0.040195752   0.38416  -0.45614   0.32817   0.26153
  34   34511.9    289.8   0.030703285   0.29288   0.19839   0.12062  -0.48885
  35   34636.0    288.7   0.205998215   1.95799   0.74633  -0.69201  -0.96027
  36   34746.6    287.8   0.230182955   2.18091   1.13683  -0.67219  -0.66082
  37   35107.5    284.8   0.020646052   0.19360   0.30425   0.16827  -0.26966
  38   35225.0    283.9   0.049007595   0.45802   0.18609  -0.33006  -0.56076
  39   35466.9    282.0   0.265788329   2.46711   0.05052   1.29484  -0.88767
  40   35851.0    278.9   0.038597799   0.35444  -0.26517   0.30605   0.43641
  41   35959.2    278.1   0.031447652   0.28791  -0.04145  -0.34915  -0.40532
  42   36024.3    277.6   0.074887845   0.68437   0.28997   0.26331  -0.72867
  43   36235.5    276.0   0.194823812   1.77004  -0.52487  -0.68133   1.01506
  44   36400.2    274.7   0.042562308   0.38494  -0.11619   0.56641   0.22500
  45   36551.2    273.6   0.206283728   1.85797   0.37113   0.25128  -1.28728
  46   36947.6    270.7   0.096533533   0.86014  -0.66177   0.62921   0.16214
  47   37155.9    269.1   0.052630093   0.46632   0.10489  -0.66627  -0.10674
  48   37363.4    267.6   0.008361245   0.07367  -0.12305  -0.23993  -0.03106
  49   37570.0    266.2   0.018956244   0.16611   0.27826  -0.29501   0.04059
  50   37681.5    265.4   0.005055770   0.04417  -0.02496   0.10739   0.17893
  51   37858.6    264.1   0.024320918   0.21149  -0.27224   0.24414   0.27888
  52   38399.4    260.4   0.001949305   0.01671   0.04479  -0.07292   0.09690
  53   38500.4    259.7   0.140424422   1.20075   0.55669  -0.81700  -0.47260
  54   38679.8    258.5   0.017758950   0.15115  -0.30105  -0.24459   0.02643
  55   38724.1    258.2   0.155137944   1.31890  -0.59333   0.97710   0.11018
  56   38849.1    257.4   0.092620858   0.78488  -0.60591   0.63606   0.11484
  57   39005.7    256.4   0.035949661   0.30342   0.00977  -0.49574   0.23993
  58   39088.6    255.8   0.266555548   2.24498  -0.46167   1.41406  -0.17969
  59   39207.1    255.1   0.073652194   0.61844  -0.59322   0.34176   0.38694
  60   39235.0    254.9   0.009576288   0.08035  -0.28033   0.03126   0.02807
  61   39343.0    254.2   0.032458848   0.27161   0.30865  -0.38248  -0.17335
  62   39629.9    252.3   0.314173287   2.60989   0.28258  -1.56407   0.28935
  63   39751.5    251.6   0.013819907   0.11445   0.00591   0.16448   0.29557
  64   40055.3    249.7   0.031710236   0.26062   0.00097  -0.47458   0.18814
  65   40187.6    248.8   0.048249399   0.39525   0.44940  -0.36181  -0.24977

FINAL SINGLE POINT ENERGY     -5746.669758951305

DIPOLE MOMENT
-------------
                                X             Y             Z
Electronic contribution:    -14.40798      27.80780      17.73689
Nuclear contribution   :     14.82802     -30.75433     -18.93646
                        -----------------------------------------
Total Dipole Moment    :      0.42004      -2.94653      -1.19957
                        -----------------------------------------
Magnitude (a.u.)       :      3.20896
Magnitude (Debye)      :      8.15653

Rotational constants in cm-1:     0.000773     0.000504     0.000315
Rotational constants in MHz :    23.165171    15.107647     9.458400

                             ****ORCA TERMINATED NORMALLY****
TOTAL RUN TIME: 0 days 0 hours 12 minutes 6 seconds 447 msec
