                         Program Version 4.2.0 -  RELEASE  -
|  1> # ORCA input file
|  2> # SCF done       -188.044479994276          0.000527466206
|  3> ! CAM-B3LYP def2-SVP def2/J RIJCOSX Grid4 TightSCF
|  4> %maxcore 5000
|  5> %tddft
|  6>     Mode sTDDFT
|  7>     Ethresh 5.0
|  8>     maxcore 5000
|  9> end
| 10>
| 11> %pal
| 12>   nprocs 6
| 13>   end
| 14> * xyz 0 1
| 15>    C       -7.85367         6.39861         8.43681
| 16>    C       -7.22493         5.23448         8.11816
| 17>    C       -6.41452         5.38491         6.97583
| 18>    C       -6.45779         6.68553         6.45741
| 19>    S       -7.48109         7.70846         7.36244
| 20>    C       -5.62190         6.74604         5.30661
| 21>    C       -5.05485         5.48139         5.10673
| 22>    C       -5.53094         4.58333         6.15310
| 23>    C       -5.20480         3.26708         6.31023
| 24>    C       -4.32341         2.60577         5.43018
| 25>    N       -3.60419         2.06898         4.71563
| 26>    C       -5.72391         2.48341         7.36142
| 27>    N       -6.13995         1.84326         8.21713
| 28>    C       -4.21226         5.42578         3.99647
| 29>    C       -4.13691         6.64033         3.33837
| 30>    S       -5.11520         7.87447         4.12935
| 31>    C       -3.39049         6.97577         2.17903
| 32>    S       -2.90008         8.61308         1.90379
| 33>    C       -2.10875         8.23446         0.40824
| 34>    C       -2.18921         6.85773         0.15245
| 35>    C       -2.93923         6.14665         1.14272
| 36>    C       -3.15656         4.76587         0.97222
| 37>    C       -2.58270         4.09902        -0.07347
| 38>    S       -2.84256         2.33557        -0.16711
| 39>    C       -1.23055         1.81168         0.54301
| 40>    C       -1.18211         0.30128         0.63841
| 41>    C       -1.77317         4.78711        -1.01179
| 42>    S       -0.91269         3.94805        -2.31941
| 43>    C       -2.29567         3.21933        -3.29250
| 44>    C       -2.04828         1.75336        -3.58020
| 45>    C       -1.58352         6.13936        -0.89473
| 46>    C       -1.53401         9.28955        -0.34372
| 47>    C       -1.36383         9.31286        -1.68625
| 48>    C       -0.76684        10.42597        -2.36324
| 49>    C       -0.82732        10.56200        -3.76201
| 50>    N       -0.25522        11.54893        -4.40693
| 51>    C        0.42047        12.46240        -3.68549
| 52>    C        0.44009        12.35163        -2.27903
| 53>    N       -0.13559        11.36884        -1.63850
| 54>    C        1.09131        13.51655        -4.37330
| 55>    S        2.27069        14.48670        -3.55810
| 56>    C        2.61490        15.43362        -4.97150
| 57>    C        1.80340        15.01944        -6.04222
| 58>    C        0.94866        13.92671        -5.70591
| 59>    C        0.08772        13.39230        -6.68034
| 60>    C        0.05863        13.93291        -7.93909
| 61>    S       -1.05160        13.19831        -9.11695
| 62>    C        0.11200        12.66572       -10.44111
| 63>    C       -0.36413        13.11482       -11.80697
| 64>    C        0.86334        15.05750        -8.25622
| 65>    S        0.78247        15.86519        -9.84248
| 66>    C       -0.90666        16.58179        -9.71841
| 67>    C       -1.21070        17.37963       -10.96954
| 68>    C        1.73569        15.57030        -7.33296
| 69>    C        3.60367        16.43630        -4.98208
| 70>    C        4.37621        16.76284        -3.91093
| 71>    C        5.40356        17.73372        -3.91709
| 72>    C        5.85091        18.53987        -4.95500
| 73>    C        6.90914        19.35617        -4.56714
| 74>    C        7.27950        19.18062        -3.22475
| 75>    S        6.31920        18.00829        -2.43954
| 76>    C        8.36836        20.04959        -2.94241
| 77>    C        8.68318        20.76857        -4.10384
| 78>    C        7.78231        20.36401        -5.16260
| 79>    C        7.74734        20.81919        -6.44920
| 80>    C        8.64582        21.79552        -6.92657
| 81>    N        9.37252        22.59052        -7.32075
| 82>    C        6.80781        20.34204        -7.38586
| 83>    N        6.04236        19.95655        -8.14829
| 84>    C        9.76061        21.65551        -3.91113
| 85>    C       10.23209        21.59406        -2.63624
| 86>    S        9.38400        20.46039        -1.63307
| 87>    H       -8.52780         6.58134         9.24936
| 88>    H       -7.33986         4.32188         8.67393
| 89>    H       -3.64243         4.56222         3.71161
| 90>    H       -3.77263         4.21515         1.66320
| 91>    H       -1.15607         2.27267         1.52841
| 92>    H       -0.44657         2.19938        -0.10793
| 93>    H       -1.98926        -0.06519         1.26859
| 94>    H       -0.23272        -0.00690         1.07122
| 95>    H       -1.27902        -0.15013        -0.34675
| 96>    H       -2.34979         3.80002        -4.21391
| 97>    H       -3.20531         3.36381        -2.71406
| 98>    H       -1.09903         1.61916        -4.09399
| 99>    H       -2.84608         1.36392        -4.20920
|100>    H       -2.02961         1.18662        -2.65289
|101>    H       -0.94191         6.64250        -1.59877
|102>    H       -1.26310        10.18321         0.20408
|103>    H       -1.72531         8.50994        -2.31119
|104>    H       -1.35951         9.84262        -4.37132
|105>    H        0.93523        13.09925        -1.67150
|106>    H       -0.53261        12.54791        -6.43002
|107>    H        0.15767        11.57829       -10.37627
|108>    H        1.08571        13.08655       -10.20029
|109>    H       -1.37208        12.75362       -11.99857
|110>    H        0.30070        12.72222       -12.57368
|111>    H       -0.36192        14.19997       -11.86937
|112>    H       -0.91372        17.21611        -8.83139
|113>    H       -1.60870        15.75877        -9.58909
|114>    H       -0.47927        18.17342       -11.10482
|115>    H       -2.20014        17.82475       -10.88807
|116>    H       -1.18926        16.73872       -11.84825
|117>    H        2.34585        16.41817        -7.60195
|118>    H        3.74891        16.94963        -5.92127
|119>    H        4.21606        16.24021        -2.97649
|120>    H        5.42273        18.52227        -5.93976
|121>    H       10.16661        22.30190        -4.66762
|122>    H       11.04019        22.15070        -2.20584
|123> *
|124>
|125>                          ****END OF INPUT****

CARTESIAN COORDINATES (ANGSTROEM)
---------------------------------
  C     -7.853670    6.398610    8.436810
  C     -7.224930    5.234480    8.118160
  C     -6.414520    5.384910    6.975830
  C     -6.457790    6.685530    6.457410
  S     -7.481090    7.708460    7.362440
  C     -5.621900    6.746040    5.306610
  C     -5.054850    5.481390    5.106730
  C     -5.530940    4.583330    6.153100
  C     -5.204800    3.267080    6.310230
  C     -4.323410    2.605770    5.430180
  N     -3.604190    2.068980    4.715630
  C     -5.723910    2.483410    7.361420
  N     -6.139950    1.843260    8.217130
  C     -4.212260    5.425780    3.996470
  C     -4.136910    6.640330    3.338370
  S     -5.115200    7.874470    4.129350
  C     -3.390490    6.975770    2.179030
  S     -2.900080    8.613080    1.903790
  C     -2.108750    8.234460    0.408240
  C     -2.189210    6.857730    0.152450
  C     -2.939230    6.146650    1.142720
  C     -3.156560    4.765870    0.972220
  C     -2.582700    4.099020   -0.073470
  S     -2.842560    2.335570   -0.167110
  C     -1.230550    1.811680    0.543010
  C     -1.182110    0.301280    0.638410
  C     -1.773170    4.787110   -1.011790
  S     -0.912690    3.948050   -2.319410
  C     -2.295670    3.219330   -3.292500
  C     -2.048280    1.753360   -3.580200
  C     -1.583520    6.139360   -0.894730
  C     -1.534010    9.289550   -0.343720
  C     -1.363830    9.312860   -1.686250
  C     -0.766840   10.425970   -2.363240
  C     -0.827320   10.562000   -3.762010
  N     -0.255220   11.548930   -4.406930
  C      0.420470   12.462400   -3.685490
  C      0.440090   12.351630   -2.279030
  N     -0.135590   11.368840   -1.638500
  C      1.091310   13.516550   -4.373300
  S      2.270690   14.486700   -3.558100
  C      2.614900   15.433620   -4.971500
  C      1.803400   15.019440   -6.042220
  C      0.948660   13.926710   -5.705910
  C      0.087720   13.392300   -6.680340
  C      0.058630   13.932910   -7.939090
  S     -1.051600   13.198310   -9.116950
  C      0.112000   12.665720  -10.441110
  C     -0.364130   13.114820  -11.806970
  C      0.863340   15.057500   -8.256220
  S      0.782470   15.865190   -9.842480
  C     -0.906660   16.581790   -9.718410
  C     -1.210700   17.379630  -10.969540
  C      1.735690   15.570300   -7.332960
  C      3.603670   16.436300   -4.982080
  C      4.376210   16.762840   -3.910930
  C      5.403560   17.733720   -3.917090
  C      5.850910   18.539870   -4.955000
  C      6.909140   19.356170   -4.567140
  C      7.279500   19.180620   -3.224750
  S      6.319200   18.008290   -2.439540
  C      8.368360   20.049590   -2.942410
  C      8.683180   20.768570   -4.103840
  C      7.782310   20.364010   -5.162600
  C      7.747340   20.819190   -6.449200
  C      8.645820   21.795520   -6.926570
  N      9.372520   22.590520   -7.320750
  C      6.807810   20.342040   -7.385860
  N      6.042360   19.956550   -8.148290
  C      9.760610   21.655510   -3.911130
  C     10.232090   21.594060   -2.636240
  S      9.384000   20.460390   -1.633070
  H     -8.527800    6.581340    9.249360
  H     -7.339860    4.321880    8.673930
  H     -3.642430    4.562220    3.711610
  H     -3.772630    4.215150    1.663200
  H     -1.156070    2.272670    1.528410
  H     -0.446570    2.199380   -0.107930
  H     -1.989260   -0.065190    1.268590
  H     -0.232720   -0.006900    1.071220
  H     -1.279020   -0.150130   -0.346750
  H     -2.349790    3.800020   -4.213910
  H     -3.205310    3.363810   -2.714060
  H     -1.099030    1.619160   -4.093990
  H     -2.846080    1.363920   -4.209200
  H     -2.029610    1.186620   -2.652890
  H     -0.941910    6.642500   -1.598770
  H     -1.263100   10.183210    0.204080
  H     -1.725310    8.509940   -2.311190
  H     -1.359510    9.842620   -4.371320
  H      0.935230   13.099250   -1.671500
  H     -0.532610   12.547910   -6.430020
  H      0.157670   11.578290  -10.376270
  H      1.085710   13.086550  -10.200290
  H     -1.372080   12.753620  -11.998570
  H      0.300700   12.722220  -12.573680
  H     -0.361920   14.199970  -11.869370
  H     -0.913720   17.216110   -8.831390
  H     -1.608700   15.758770   -9.589090
  H     -0.479270   18.173420  -11.104820
  H     -2.200140   17.824750  -10.888070
  H     -1.189260   16.738720  -11.848250
  H      2.345850   16.418170   -7.601950
  H      3.748910   16.949630   -5.921270
  H      4.216060   16.240210   -2.976490
  H      5.422730   18.522270   -5.939760
  H     10.166610   22.301900   -4.667620
  H     11.040190   22.150700   -2.205840

 Total Charge           Charge          ....    0
 Multiplicity           Mult            ....    1
 Number of Electrons    NEL             ....  574
 Basis Dimension        Dim             .... 1228

ORBITAL ENERGIES
----------------

  NO   OCC          E(Eh)            E(eV)
   0   2.0000     -88.985884     -2421.4290
   1   2.0000     -88.984937     -2421.4032
   2   2.0000     -88.983893     -2421.3748
   3   2.0000     -88.983628     -2421.3676
   4   2.0000     -88.974240     -2421.1121
   5   2.0000     -88.971392     -2421.0347
   6   2.0000     -88.910405     -2419.3751
   7   2.0000     -88.908022     -2419.3103
   8   2.0000     -88.907926     -2419.3077
   9   2.0000     -88.906581     -2419.2711
  10   2.0000     -14.427866      -392.6022
  11   2.0000     -14.426509      -392.5653
  12   2.0000     -14.426151      -392.5555
  13   2.0000     -14.425486      -392.5374
  14   2.0000     -14.420891      -392.4124
  15   2.0000     -14.420774      -392.4092
  16   2.0000     -10.360216      -281.9158
  17   2.0000     -10.358910      -281.8803
  18   2.0000     -10.348012      -281.5837
  19   2.0000     -10.346899      -281.5534
  20   2.0000     -10.328426      -281.0508
  21   2.0000     -10.327241      -281.0185
  22   2.0000     -10.327000      -281.0120
  23   2.0000     -10.326907      -281.0094
  24   2.0000     -10.326298      -280.9929
  25   2.0000     -10.326196      -280.9901
  26   2.0000     -10.325995      -280.9846
  27   2.0000     -10.325951      -280.9834
  28   2.0000     -10.325753      -280.9780
  29   2.0000     -10.323884      -280.9272
  30   2.0000     -10.318743      -280.7873
  31   2.0000     -10.318548      -280.7820
  32   2.0000     -10.316381      -280.7230
  33   2.0000     -10.316229      -280.7189
  34   2.0000     -10.313542      -280.6457
  35   2.0000     -10.312365      -280.6137
  36   2.0000     -10.310014      -280.5498
  37   2.0000     -10.308571      -280.5105
  38   2.0000     -10.307624      -280.4847
  39   2.0000     -10.307153      -280.4719
  40   2.0000     -10.300117      -280.2804
  41   2.0000     -10.298605      -280.2393
  42   2.0000     -10.298194      -280.2281
  43   2.0000     -10.298047      -280.2241
  44   2.0000     -10.296799      -280.1901
  45   2.0000     -10.296154      -280.1726
  46   2.0000     -10.295657      -280.1591
  47   2.0000     -10.294846      -280.1370
  48   2.0000     -10.294810      -280.1360
  49   2.0000     -10.294513      -280.1280
  50   2.0000     -10.294455      -280.1264
  51   2.0000     -10.294300      -280.1221
  52   2.0000     -10.293762      -280.1075
  53   2.0000     -10.293485      -280.1000
  54   2.0000     -10.290487      -280.0184
  55   2.0000     -10.288958      -279.9768
  56   2.0000     -10.288417      -279.9621
  57   2.0000     -10.285923      -279.8942
  58   2.0000     -10.284912      -279.8667
  59   2.0000     -10.283253      -279.8215
  60   2.0000     -10.281258      -279.7673
  61   2.0000     -10.280231      -279.7393
  62   2.0000     -10.279553      -279.7209
  63   2.0000     -10.278998      -279.7058
  64   2.0000     -10.278697      -279.6976
  65   2.0000     -10.278689      -279.6973
  66   2.0000     -10.278367      -279.6886
  67   2.0000     -10.267781      -279.4005
  68   2.0000     -10.256180      -279.0848
  69   2.0000     -10.253833      -279.0210
  70   2.0000     -10.250155      -278.9209
  71   2.0000     -10.248668      -278.8804
  72   2.0000      -8.080650      -219.8857
  73   2.0000      -8.079911      -219.8656
  74   2.0000      -8.078709      -219.8329
  75   2.0000      -8.078643      -219.8310
  76   2.0000      -8.069592      -219.5847
  77   2.0000      -8.066368      -219.4970
  78   2.0000      -8.005372      -217.8372
  79   2.0000      -8.002693      -217.7643
  80   2.0000      -8.002546      -217.7604
  81   2.0000      -8.001482      -217.7314
  82   2.0000      -6.049935      -164.6271
  83   2.0000      -6.049174      -164.6064
  84   2.0000      -6.047959      -164.5733
  85   2.0000      -6.047808      -164.5692
  86   2.0000      -6.045729      -164.5126
  87   2.0000      -6.044728      -164.4854
  88   2.0000      -6.043767      -164.4593
  89   2.0000      -6.043517      -164.4524
  90   2.0000      -6.042936      -164.4366
  91   2.0000      -6.042537      -164.4258
  92   2.0000      -6.041261      -164.3911
  93   2.0000      -6.041117      -164.3871
  94   2.0000      -6.038543      -164.3171
  95   2.0000      -6.035299      -164.2288
  96   2.0000      -6.034440      -164.2055
  97   2.0000      -6.032417      -164.1504
  98   2.0000      -6.031348      -164.1213
  99   2.0000      -6.029153      -164.0616
 100   2.0000      -5.975824      -162.6104
 101   2.0000      -5.973167      -162.5381
 102   2.0000      -5.973076      -162.5357
 103   2.0000      -5.972085      -162.5087
 104   2.0000      -5.971945      -162.5049
 105   2.0000      -5.969457      -162.4372
 106   2.0000      -5.969344      -162.4341
 107   2.0000      -5.968222      -162.4036
 108   2.0000      -5.964787      -162.3101
 109   2.0000      -5.962096      -162.2369
 110   2.0000      -5.961867      -162.2307
 111   2.0000      -5.960879      -162.2038
 112   2.0000      -1.077898       -29.3311
 113   2.0000      -1.039721       -28.2922
 114   2.0000      -1.037889       -28.2424
 115   2.0000      -1.018728       -27.7210
 116   2.0000      -1.017006       -27.6741
 117   2.0000      -1.008393       -27.4398
 118   2.0000      -1.006451       -27.3869
 119   2.0000      -1.004514       -27.3342
 120   2.0000      -1.003383       -27.3034
 121   2.0000      -0.994562       -27.0634
 122   2.0000      -0.989296       -26.9201
 123   2.0000      -0.987398       -26.8685
 124   2.0000      -0.955684       -26.0055
 125   2.0000      -0.953151       -25.9366
 126   2.0000      -0.949640       -25.8410
 127   2.0000      -0.949181       -25.8285
 128   2.0000      -0.919952       -25.0332
 129   2.0000      -0.914659       -24.8891
 130   2.0000      -0.904695       -24.6180
 131   2.0000      -0.896536       -24.3960
 132   2.0000      -0.889001       -24.1910
 133   2.0000      -0.885974       -24.1086
 134   2.0000      -0.884683       -24.0735
 135   2.0000      -0.881928       -23.9985
 136   2.0000      -0.873820       -23.7778
 137   2.0000      -0.864448       -23.5228
 138   2.0000      -0.858750       -23.3678
 139   2.0000      -0.851854       -23.1801
 140   2.0000      -0.849539       -23.1171
 141   2.0000      -0.847319       -23.0567
 142   2.0000      -0.843160       -22.9436
 143   2.0000      -0.837353       -22.7855
 144   2.0000      -0.835433       -22.7333
 145   2.0000      -0.827840       -22.5267
 146   2.0000      -0.814760       -22.1707
 147   2.0000      -0.791999       -21.5514
 148   2.0000      -0.783768       -21.3274
 149   2.0000      -0.777884       -21.1673
 150   2.0000      -0.773400       -21.0453
 151   2.0000      -0.772644       -21.0247
 152   2.0000      -0.768450       -20.9106
 153   2.0000      -0.767675       -20.8895
 154   2.0000      -0.756437       -20.5837
 155   2.0000      -0.748025       -20.3548
 156   2.0000      -0.744926       -20.2705
 157   2.0000      -0.721218       -19.6253
 158   2.0000      -0.707610       -19.2551
 159   2.0000      -0.701529       -19.0896
 160   2.0000      -0.699280       -19.0284
 161   2.0000      -0.698829       -19.0161
 162   2.0000      -0.695913       -18.9367
 163   2.0000      -0.693399       -18.8683
 164   2.0000      -0.679024       -18.4772
 165   2.0000      -0.677032       -18.4230
 166   2.0000      -0.675596       -18.3839
 167   2.0000      -0.671917       -18.2838
 168   2.0000      -0.667289       -18.1579
 169   2.0000      -0.663912       -18.0660
 170   2.0000      -0.661642       -18.0042
 171   2.0000      -0.651470       -17.7274
 172   2.0000      -0.644856       -17.5474
 173   2.0000      -0.642264       -17.4769
 174   2.0000      -0.630879       -17.1671
 175   2.0000      -0.626690       -17.0531
 176   2.0000      -0.625324       -17.0159
 177   2.0000      -0.616111       -16.7652
 178   2.0000      -0.611483       -16.6393
 179   2.0000      -0.610049       -16.6003
 180   2.0000      -0.608496       -16.5580
 181   2.0000      -0.603452       -16.4208
 182   2.0000      -0.597720       -16.2648
 183   2.0000      -0.587329       -15.9820
 184   2.0000      -0.581513       -15.8238
 185   2.0000      -0.569405       -15.4943
 186   2.0000      -0.562390       -15.3034
 187   2.0000      -0.556856       -15.1528
 188   2.0000      -0.554804       -15.0970
 189   2.0000      -0.551351       -15.0030
 190   2.0000      -0.548689       -14.9306
 191   2.0000      -0.542701       -14.7676
 192   2.0000      -0.542304       -14.7568
 193   2.0000      -0.540558       -14.7093
 194   2.0000      -0.534044       -14.5321
 195   2.0000      -0.530107       -14.4249
 196   2.0000      -0.529207       -14.4004
 197   2.0000      -0.527964       -14.3666
 198   2.0000      -0.527149       -14.3445
 199   2.0000      -0.524259       -14.2658
 200   2.0000      -0.522106       -14.2072
 201   2.0000      -0.519445       -14.1348
 202   2.0000      -0.517185       -14.0733
 203   2.0000      -0.515371       -14.0240
 204   2.0000      -0.511732       -13.9249
 205   2.0000      -0.511023       -13.9056
 206   2.0000      -0.508637       -13.8407
 207   2.0000      -0.504961       -13.7407
 208   2.0000      -0.502850       -13.6832
 209   2.0000      -0.501971       -13.6593
 210   2.0000      -0.499443       -13.5905
 211   2.0000      -0.498246       -13.5580
 212   2.0000      -0.497445       -13.5362
 213   2.0000      -0.493207       -13.4208
 214   2.0000      -0.490969       -13.3600
 215   2.0000      -0.489531       -13.3208
 216   2.0000      -0.486267       -13.2320
 217   2.0000      -0.479290       -13.0421
 218   2.0000      -0.478248       -13.0138
 219   2.0000      -0.478138       -13.0108
 220   2.0000      -0.476386       -12.9631
 221   2.0000      -0.468539       -12.7496
 222   2.0000      -0.467367       -12.7177
 223   2.0000      -0.466190       -12.6857
 224   2.0000      -0.463972       -12.6253
 225   2.0000      -0.461520       -12.5586
 226   2.0000      -0.459117       -12.4932
 227   2.0000      -0.458794       -12.4844
 228   2.0000      -0.457475       -12.4485
 229   2.0000      -0.455241       -12.3877
 230   2.0000      -0.454510       -12.3678
 231   2.0000      -0.453116       -12.3299
 232   2.0000      -0.452988       -12.3264
 233   2.0000      -0.451883       -12.2964
 234   2.0000      -0.450006       -12.2453
 235   2.0000      -0.446521       -12.1505
 236   2.0000      -0.444676       -12.1002
 237   2.0000      -0.440889       -11.9972
 238   2.0000      -0.437461       -11.9039
 239   2.0000      -0.436821       -11.8865
 240   2.0000      -0.436420       -11.8756
 241   2.0000      -0.435963       -11.8632
 242   2.0000      -0.434924       -11.8349
 243   2.0000      -0.434164       -11.8142
 244   2.0000      -0.432685       -11.7740
 245   2.0000      -0.430620       -11.7178
 246   2.0000      -0.429061       -11.6754
 247   2.0000      -0.428246       -11.6532
 248   2.0000      -0.425325       -11.5737
 249   2.0000      -0.424869       -11.5613
 250   2.0000      -0.423313       -11.5189
 251   2.0000      -0.422056       -11.4847
 252   2.0000      -0.421724       -11.4757
 253   2.0000      -0.421119       -11.4592
 254   2.0000      -0.415133       -11.2964
 255   2.0000      -0.410460       -11.1692
 256   2.0000      -0.409134       -11.1331
 257   2.0000      -0.408790       -11.1237
 258   2.0000      -0.402802       -10.9608
 259   2.0000      -0.402675       -10.9574
 260   2.0000      -0.396236       -10.7821
 261   2.0000      -0.395835       -10.7712
 262   2.0000      -0.388136       -10.5617
 263   2.0000      -0.386215       -10.5095
 264   2.0000      -0.380497       -10.3539
 265   2.0000      -0.377395       -10.2694
 266   2.0000      -0.372047       -10.1239
 267   2.0000      -0.367982       -10.0133
 268   2.0000      -0.363129        -9.8812
 269   2.0000      -0.350259        -9.5310
 270   2.0000      -0.343625        -9.3505
 271   2.0000      -0.342668        -9.3245
 272   2.0000      -0.334951        -9.1145
 273   2.0000      -0.324964        -8.8427
 274   2.0000      -0.321324        -8.7437
 275   2.0000      -0.321021        -8.7354
 276   2.0000      -0.318463        -8.6658
 277   2.0000      -0.317377        -8.6363
 278   2.0000      -0.316530        -8.6132
 279   2.0000      -0.298840        -8.1319
 280   2.0000      -0.291758        -7.9391
 281   2.0000      -0.287576        -7.8253
 282   2.0000      -0.279247        -7.5987
 283   2.0000      -0.274187        -7.4610
 284   2.0000      -0.270264        -7.3543
 285   2.0000      -0.241634        -6.5752
 286   2.0000      -0.221359        -6.0235
 287   0.0000      -0.101123        -2.7517
 288   0.0000      -0.098744        -2.6870
 289   0.0000      -0.079924        -2.1748
 290   0.0000      -0.057346        -1.5605
 291   0.0000      -0.020840        -0.5671

MULLIKEN ATOMIC CHARGES
-----------------------
   0 C :   -0.083736
   1 C :    0.035630
   2 C :   -0.031894
   3 C :   -0.117556
   4 S :    0.179591
   5 C :   -0.100454
   6 C :    0.001032
   7 C :    0.297549
   8 C :   -0.296502
   9 C :   -0.184402
  10 N :    0.166003
  11 C :   -0.191336
  12 N :    0.173457
  13 C :   -0.039399
  14 C :   -0.081811
  15 S :    0.182312
  16 C :   -0.122261
  17 S :    0.170939
  18 C :   -0.113821
  19 C :    0.120089
  20 C :    0.140426
  21 C :   -0.022599
  22 C :   -0.090875
  23 S :   -0.045059
  24 C :   -0.085958
  25 C :    0.016884
  26 C :   -0.068999
  27 S :   -0.028279
  28 C :   -0.092884
  29 C :    0.030624
  30 C :   -0.038190
  31 C :    0.052918
  32 C :   -0.022569
  33 C :   -0.008240
  34 C :    0.019824
  35 N :   -0.044162
  36 C :   -0.022978
  37 C :   -0.015871
  38 N :   -0.034133
  39 C :   -0.079887
  40 S :    0.133894
  41 C :   -0.081938
  42 C :    0.124641
  43 C :    0.105253
  44 C :   -0.015858
  45 C :   -0.063633
  46 S :   -0.028730
  47 C :   -0.097198
  48 C :    0.031203
  49 C :   -0.082018
  50 S :   -0.043350
  51 C :   -0.098014
  52 C :    0.015009
  53 C :   -0.021138
  54 C :   -0.006586
  55 C :    0.038567
  56 C :   -0.076837
  57 C :   -0.036870
  58 C :    0.004159
  59 C :   -0.108655
  60 S :    0.182446
  61 C :   -0.114702
  62 C :   -0.038574
  63 C :    0.301820
  64 C :   -0.296211
  65 C :   -0.191260
  66 N :    0.170836
  67 C :   -0.182587
  68 N :    0.163857
  69 C :    0.038858
  70 C :   -0.083214
  71 S :    0.176964
  72 H :    0.035950
  73 H :    0.011375
  74 H :    0.012493
  75 H :   -0.028309
  76 H :    0.045602
  77 H :    0.048258
  78 H :    0.032562
  79 H :    0.025691
  80 H :    0.021495
  81 H :    0.046538
  82 H :    0.051967
  83 H :    0.016578
  84 H :    0.016666
  85 H :    0.023454
  86 H :   -0.029767
  87 H :    0.007963
  88 H :   -0.004343
  89 H :   -0.001370
  90 H :    0.004335
  91 H :   -0.019478
  92 H :    0.049759
  93 H :    0.054627
  94 H :    0.015808
  95 H :    0.016485
  96 H :    0.021821
  97 H :    0.043321
  98 H :    0.055211
  99 H :    0.025948
 100 H :    0.025848
 101 H :    0.023899
 102 H :   -0.029312
 103 H :   -0.001039
 104 H :   -0.013427
 105 H :    0.003708
 106 H :    0.011450
 107 H :    0.034679
Sum of atomic charges:   -0.0000000

LOEWDIN ATOMIC CHARGES
----------------------
   0 C :   -0.180080
   1 C :   -0.033719
   2 C :   -0.080030
   3 C :   -0.181356
   4 S :    0.475371
   5 C :   -0.186040
   6 C :   -0.069393
   7 C :    0.084991
   8 C :   -0.105484
   9 C :   -0.014407
  10 N :   -0.037720
  11 C :   -0.017164
  12 N :   -0.034388
  13 C :   -0.034065
  14 C :   -0.177344
  15 S :    0.465112
  16 C :   -0.199654
  17 S :    0.477022
  18 C :   -0.177198
  19 C :   -0.040489
  20 C :   -0.043637
  21 C :   -0.022157
  22 C :   -0.168241
  23 S :    0.261169
  24 C :   -0.119232
  25 C :   -0.069766
  26 C :   -0.169835
  27 S :    0.265238
  28 C :   -0.125455
  29 C :   -0.073016
  30 C :   -0.027567
  31 C :   -0.015848
  32 C :   -0.041067
  33 C :   -0.019852
  34 C :    0.009940
  35 N :   -0.042126
  36 C :   -0.030111
  37 C :   -0.000513
  38 N :   -0.044463
  39 C :   -0.184900
  40 S :    0.475837
  41 C :   -0.166911
  42 C :   -0.043599
  43 C :   -0.032072
  44 C :   -0.017608
  45 C :   -0.170925
  46 S :    0.270488
  47 C :   -0.125064
  48 C :   -0.073542
  49 C :   -0.169571
  50 S :    0.262023
  51 C :   -0.124356
  52 C :   -0.070412
  53 C :   -0.026332
  54 C :   -0.030430
  55 C :   -0.052731
  56 C :   -0.162355
  57 C :   -0.030060
  58 C :   -0.065694
  59 C :   -0.191095
  60 S :    0.471859
  61 C :   -0.179634
  62 C :   -0.081135
  63 C :    0.084603
  64 C :   -0.106036
  65 C :   -0.016919
  66 N :   -0.035095
  67 C :   -0.015371
  68 N :   -0.037851
  69 C :   -0.033984
  70 C :   -0.180277
  71 S :    0.473009
  72 H :    0.027160
  73 H :    0.042383
  74 H :    0.039321
  75 H :    0.029620
  76 H :    0.020551
  77 H :    0.010090
  78 H :    0.028601
  79 H :    0.032182
  80 H :    0.024064
  81 H :    0.018770
  82 H :    0.020235
  83 H :    0.021896
  84 H :    0.027084
  85 H :    0.017158
  86 H :    0.027817
  87 H :    0.033653
  88 H :    0.030239
  89 H :    0.025228
  90 H :    0.017043
  91 H :    0.027936
  92 H :    0.019887
  93 H :    0.022070
  94 H :    0.021461
  95 H :    0.027024
  96 H :    0.016989
  97 H :    0.018673
  98 H :    0.005754
  99 H :    0.025564
 100 H :    0.031775
 101 H :    0.025145
 102 H :    0.027854
 103 H :    0.037131
 104 H :    0.021244
 105 H :    0.037937
 106 H :    0.042357
 107 H :    0.026815

  Mayer bond orders larger than 0.100000
B(  0-C ,  1-C ) :   1.5528 B(  0-C ,  4-S ) :   1.1446 B(  0-C , 72-H ) :   0.9644
B(  1-C ,  2-C ) :   1.2739 B(  1-C , 73-H ) :   0.9963 B(  2-C ,  3-C ) :   1.4547
B(  2-C ,  7-C ) :   1.0195 B(  3-C ,  4-S ) :   1.1394 B(  3-C ,  5-C ) :   1.1844
B(  5-C ,  6-C ) :   1.4606 B(  5-C , 15-S ) :   1.1149 B(  6-C ,  7-C ) :   0.9910
B(  6-C , 13-C ) :   1.2851 B(  7-C ,  8-C ) :   1.7080 B(  8-C ,  9-C ) :   1.1334
B(  8-C , 11-C ) :   1.1305 B(  9-C , 10-N ) :   2.9863 B( 11-C , 12-N ) :   3.0037
B( 13-C , 14-C ) :   1.4717 B( 13-C , 74-H ) :   0.9909 B( 14-C , 15-S ) :   1.1051
B( 14-C , 16-C ) :   1.1189 B( 16-C , 17-S ) :   1.1656 B( 16-C , 18-C ) :   0.1200
B( 16-C , 20-C ) :   1.3717 B( 17-S , 18-C ) :   1.1412 B( 18-C , 19-C ) :   1.3500
B( 18-C , 31-C ) :   1.1156 B( 19-C , 20-C ) :   1.2108 B( 19-C , 30-C ) :   1.1824
B( 20-C , 21-C ) :   1.1652 B( 21-C , 22-C ) :   1.5627 B( 21-C , 75-H ) :   0.9904
B( 22-C , 23-S ) :   1.0224 B( 22-C , 26-C ) :   1.2261 B( 23-S , 24-C ) :   0.9791
B( 24-C , 25-C ) :   1.0872 B( 24-C , 76-H ) :   0.9522 B( 24-C , 77-H ) :   0.9446
B( 25-C , 78-H ) :   0.9698 B( 25-C , 79-H ) :   0.9660 B( 25-C , 80-H ) :   0.9724
B( 26-C , 27-S ) :   1.0210 B( 26-C , 30-C ) :   1.5511 B( 27-S , 28-C ) :   0.9653
B( 28-C , 29-C ) :   1.0718 B( 28-C , 81-H ) :   0.9551 B( 28-C , 82-H ) :   0.9529
B( 29-C , 83-H ) :   0.9709 B( 29-C , 84-H ) :   0.9618 B( 29-C , 85-H ) :   0.9687
B( 30-C , 86-H ) :   0.9913 B( 31-C , 32-C ) :   1.6901 B( 31-C , 87-H ) :   0.9494
B( 32-C , 33-C ) :   1.0966 B( 32-C , 88-H ) :   0.9720 B( 33-C , 34-C ) :   1.2811
B( 33-C , 38-N ) :   1.4792 B( 34-C , 35-N ) :   1.5849 B( 34-C , 89-H ) :   0.9808
B( 35-N , 36-C ) :   1.5037 B( 36-C , 37-C ) :   1.2690 B( 36-C , 39-C ) :   1.0964
B( 37-C , 38-N ) :   1.6345 B( 37-C , 90-H ) :   0.9740 B( 39-C , 40-S ) :   1.1515
B( 39-C , 41-C ) :   0.1086 B( 39-C , 43-C ) :   1.3499 B( 40-S , 41-C ) :   1.1355
B( 41-C , 42-C ) :   1.3035 B( 41-C , 54-C ) :   1.2080 B( 42-C , 43-C ) :   1.1991
B( 42-C , 53-C ) :   1.1861 B( 43-C , 44-C ) :   1.2098 B( 44-C , 45-C ) :   1.5186
B( 44-C , 91-H ) :   0.9869 B( 45-C , 46-S ) :   1.0267 B( 45-C , 49-C ) :   1.2223
B( 46-S , 47-C ) :   0.9674 B( 47-C , 48-C ) :   1.0730 B( 47-C , 92-H ) :   0.9558
B( 47-C , 93-H ) :   0.9532 B( 48-C , 94-H ) :   0.9706 B( 48-C , 95-H ) :   0.9609
B( 48-C , 96-H ) :   0.9685 B( 49-C , 50-S ) :   1.0201 B( 49-C , 53-C ) :   1.5587
B( 50-S , 51-C ) :   0.9803 B( 51-C , 52-C ) :   1.0878 B( 51-C , 97-H ) :   0.9523
B( 51-C , 98-H ) :   0.9377 B( 52-C , 99-H ) :   0.9695 B( 52-C ,100-H ) :   0.9663
B( 52-C ,101-H ) :   0.9727 B( 53-C ,102-H ) :   0.9930 B( 54-C , 55-C ) :   1.6412
B( 54-C ,103-H ) :   0.9673 B( 55-C , 56-C ) :   1.1393 B( 55-C ,104-H ) :   0.9582
B( 56-C , 57-C ) :   1.4457 B( 56-C , 60-S ) :   1.1053 B( 57-C , 58-C ) :   1.3096
B( 57-C ,105-H ) :   0.9895 B( 58-C , 59-C ) :   1.4473 B( 58-C , 63-C ) :   0.9924
B( 59-C , 60-S ) :   1.1199 B( 59-C , 61-C ) :   1.1897 B( 61-C , 62-C ) :   1.4533
B( 61-C , 71-S ) :   1.1379 B( 62-C , 63-C ) :   1.0234 B( 62-C , 69-C ) :   1.2714
B( 63-C , 64-C ) :   1.7046 B( 64-C , 65-C ) :   1.1288 B( 64-C , 67-C ) :   1.1349
B( 65-C , 66-N ) :   3.0022 B( 67-C , 68-N ) :   2.9828 B( 69-C , 70-C ) :   1.5537
B( 69-C ,106-H ) :   0.9962 B( 70-C , 71-S ) :   1.1428 B( 70-C ,107-H ) :   0.9645

-----------------------------------------------------------------------------
         ABSORPTION SPECTRUM VIA TRANSITION ELECTRIC DIPOLE MOMENTS
-----------------------------------------------------------------------------
State   Energy  Wavelength   fosc         T2         TX        TY        TZ
        (cm-1)    (nm)                  (au**2)     (au)      (au)      (au)
-----------------------------------------------------------------------------
   0   11643.9    858.8   0.348626221   9.85681   2.22137   2.06620  -0.80816
   1   12062.6    829.0   0.106929758   2.91831  -0.59796  -0.19681   1.58809
   2   16216.0    616.7   1.676676181  34.03925  -3.27452  -4.21085   2.36338
   3   20045.7    498.9   0.009160176   0.15044   0.21062   0.23007  -0.23053
   4   20898.4    478.5   0.069294794   1.09160  -0.57286  -0.45030  -0.74877
   5   21350.7    468.4   0.381455960   5.88177  -0.28133  -0.02948  -2.40868
   6   23114.3    432.6   0.036650357   0.52200   0.13766   0.12205   0.69868
   7   23880.5    418.8   0.005519076   0.07608   0.25847   0.02086  -0.09403
   8   24803.6    403.2   0.040146959   0.53286  -0.26364  -0.20321  -0.64966
   9   24987.0    400.2   0.034164893   0.45013  -0.57383   0.26955   0.21953
  10   25316.1    395.0   0.097662213   1.27001  -0.75717  -0.30540  -0.77680
  11   26966.4    370.8   0.178599737   2.18038  -1.46084   0.02325   0.21396
  12   27536.9    363.1   0.108316698   1.29496   0.19041   0.67862   0.89341
  13   27665.9    361.5   0.017577163   0.20916  -0.19916  -0.41023   0.03478
  14   28680.7    348.7   0.028357998   0.32551   0.32380   0.29854  -0.36268
  15   28768.3    347.6   0.006065962   0.06942   0.17365   0.18390  -0.07377
  16   29130.9    343.3   0.006904515   0.07803  -0.22544  -0.00600  -0.16484
  17   29689.1    336.8   0.011622595   0.12888  -0.31539  -0.00214  -0.17148
  18   30201.6    331.1   0.061697471   0.67253  -0.40945  -0.69951   0.12475
  19   30718.6    325.5   0.010473865   0.11225   0.25902  -0.03892  -0.20891
  20   30800.1    324.7   0.035408272   0.37847   0.36948   0.47931   0.11053
  21   31063.6    321.9   0.092260693   0.97778   0.63283   0.69370   0.30999
  22   31619.8    316.3   0.034079707   0.35482  -0.24291  -0.12959  -0.52823
  23   31965.2    312.8   0.430607441   4.43485   0.26076  -0.60013   2.00167
  24   32118.6    311.3   0.137594655   1.41033   0.27672  -0.63376   0.96546
  25   32228.9    310.3   0.395547790   4.04045   0.31488  -1.95973  -0.31743
  26   32734.6    305.5   0.419347227   4.21737   0.85727  -1.12040   1.49236
  27   33044.4    302.6   0.076177261   0.75893  -0.13235  -0.37436   0.77541
  28   33198.3    301.2   0.252685405   2.50576  -0.37877   0.97771   1.18591
  29   33217.4    301.0   0.090086964   0.89284   0.67106  -0.46422  -0.47646
  30   33559.3    298.0   0.236478580   2.31982  -1.11516  -0.98794  -0.31655
  31   33946.4    294.6   0.204431556   1.98258  -0.81596  -0.19151   1.13142
  32   34187.9    292.5   0.051906702   0.49984   0.15406  -0.59298  -0.35281
  33   34594.1    289.1   0.047634364   0.45331  -0.15583  -0.44853  -0.47733
  34   34945.2    286.2   0.040658197   0.38303   0.12769   0.40220  -0.45273
  35   35094.1    284.9   0.007925112   0.07434   0.04016  -0.11871   0.24216
  36   35231.0    283.8   0.015180791   0.14186  -0.09657  -0.21948   0.29044
  37   35276.7    283.5   0.191726584   1.78924  -0.31290   0.08639   1.29764
  38   35362.8    282.8   0.150279739   1.39904  -0.28779   0.11501  -1.14149
  39   35719.2    280.0   0.109459548   1.00885   0.19504  -0.31547   0.93343
  40   36053.2    277.4   0.066696528   0.60902  -0.63145  -0.44970  -0.08979
  41   36762.1    272.0   0.085568845   0.76629  -0.19785   0.36107  -0.77251
  42   37213.3    268.7   0.017088569   0.15118   0.28219  -0.04710  -0.26329
  43   37386.3    267.5   0.040509123   0.35671   0.20145   0.39629  -0.39885
  44   37654.5    265.6   0.210872171   1.84365  -0.21392   1.33277   0.14701
  45   37795.6    264.6   0.020921819   0.18224  -0.38403  -0.13500  -0.12858
  46   38126.0    262.3   0.024441065   0.21104   0.09144  -0.11720  -0.43468
  47   38216.4    261.7   0.017252600   0.14862   0.19511  -0.18447  -0.27662
  48   38313.0    261.0   0.018796531   0.16151  -0.02657   0.00425  -0.40098
  49   38391.0    260.5   0.099821809   0.85600   0.28047  -0.41507  -0.77785
  50   38725.7    258.2   0.069591580   0.59161  -0.31586   0.56746   0.41210
  51   38810.5    257.7   0.023277804   0.19746   0.14192  -0.39910  -0.13429
  52   38856.5    257.4   0.001723515   0.01460  -0.11445   0.03272  -0.02080
  53   38986.9    256.5   0.010124769   0.08550  -0.09162  -0.19761   0.19507
  54   39367.9    254.0   0.009948405   0.08319   0.12800   0.25845  -0.00349
  55   39563.7    252.8   0.044850909   0.37321   0.28476   0.18217  -0.50885
  56   39912.2    250.5   0.027045987   0.22309   0.03871  -0.12784  -0.45304
  57   40101.7    249.4   0.002203655   0.01809  -0.04824  -0.10066  -0.07504

FINAL SINGLE POINT ENERGY     -6461.516645147008

DIPOLE MOMENT
-------------
                                X             Y             Z
Electronic contribution:     17.07510      44.48263      77.88781
Nuclear contribution   :    -17.53699     -43.30406     -76.00479
                        -----------------------------------------
Total Dipole Moment    :     -0.46189       1.17857       1.88303
                        -----------------------------------------
Magnitude (a.u.)       :      2.26896
Magnitude (Debye)      :      5.76723

Rotational constants in cm-1:     0.000927     0.000192     0.000174
Rotational constants in MHz :    27.798779     5.765128     5.223962

                             ****ORCA TERMINATED NORMALLY****
TOTAL RUN TIME: 0 days 0 hours 10 minutes 18 seconds 66 msec
