                         Program Version 4.2.0 -  RELEASE  -
|  1> # ORCA input file
|  2> # SCF done       -206.069055328542          0.000507256222
|  3> ! CAM-B3LYP def2-SVP def2/J RIJCOSX Grid4 TightSCF
|  4> %maxcore 5000
|  5> %tddft
|  6>     Mode sTDDFT
|  7>     Ethresh 5.0
|  8>     maxcore 5000
|  9> end
| 10>
| 11> %pal
| 12>   nprocs 6
| 13>   end
| 14> * xyz 0 1
| 15>    C       -7.30765         2.01970        -2.09749
| 16>    C       -6.40524         2.79189        -2.77369
| 17>    F       -6.69140         4.07001        -3.05844
| 18>    C       -5.16643         2.25771        -3.17952
| 19>    F       -4.29947         3.03746        -3.84206
| 20>    C       -4.84686         0.95793        -2.90338
| 21>    C       -5.75586         0.13665        -2.20895
| 22>    C       -7.00856         0.67570        -1.79669
| 23>    C       -7.93579        -0.12980        -1.09606
| 24>    C       -7.61792        -1.43216        -0.81367
| 25>    C       -6.36719        -1.96311        -1.23329
| 26>    C       -5.45420        -1.21185        -1.91473
| 27>    C       -6.26986        -3.37995        -0.82657
| 28>    O       -5.36386        -4.13778        -1.10671
| 29>    C       -7.54266        -3.68106        -0.12832
| 30>    C       -8.35366        -2.48137        -0.11380
| 31>    C       -9.56391        -2.32147         0.51147
| 32>    C      -10.23662        -3.32172         1.24381
| 33>    N      -10.84278        -4.07513         1.86349
| 34>    C      -10.29447        -1.11572         0.52035
| 35>    N      -10.93542        -0.16380         0.55849
| 36>    C       -7.94067        -4.93145         0.24922
| 37>    C       -7.09509        -6.07765         0.35714
| 38>    C       -5.76359        -5.98379         0.84430
| 39>    O       -5.44302        -4.81972         1.43456
| 40>    C       -4.28452        -4.68995         2.23193
| 41>    C       -4.92257        -7.09491         0.73109
| 42>    O       -3.56261        -6.93862         0.94374
| 43>    C       -2.86199        -6.64644        -0.25283
| 44>    C       -5.41695        -8.34530         0.31094
| 45>    C       -6.77448        -8.43226        -0.05964
| 46>    C       -7.58387        -7.33181        -0.03726
| 47>    C       -4.63908        -9.54247         0.24524
| 48>    C       -3.47888        -9.90474         0.87345
| 49>    C       -2.90529       -11.20718         0.74887
| 50>    C       -1.81962       -11.42593         1.53118
| 51>    C       -1.46651       -10.30846         2.32756
| 52>    S       -2.54254        -8.96281         2.01488
| 53>    C       -0.42630       -10.19913         3.22451
| 54>    C        0.54287       -11.17564         3.56295
| 55>    C        1.43864       -10.74905         4.48743
| 56>    C        1.23573        -9.40966         4.93884
| 57>    S       -0.13539        -8.71225         4.10260
| 58>    C        1.96654        -8.83891         5.94532
| 59>    C        1.81630        -7.57588         6.59621
| 60>    C        1.20209        -6.44702         6.01405
| 61>    O        0.90640        -6.45307         4.65987
| 62>    C        2.04157        -6.35093         3.82465
| 63>    C        0.94002        -5.30480         6.77240
| 64>    O        0.27896        -4.20908         6.34799
| 65>    C       -0.51696        -4.23039         5.18010
| 66>    C        1.37573        -5.24713         8.12385
| 67>    C        2.09736        -6.33006         8.64685
| 68>    C        2.31329        -7.45842         7.90817
| 69>    C        1.16327        -4.04940         8.87177
| 70>    C        1.10000        -3.88968        10.22224
| 71>    C        1.32550        -2.54593        10.81584
| 72>    O        1.36784        -1.48780        10.23082
| 73>    C        1.54716        -2.78996        12.25774
| 74>    C        1.91520        -1.90692        13.23075
| 75>    C        2.10641        -2.37769        14.54954
| 76>    C        1.91467        -3.76107        14.83259
| 77>    C        2.11719        -4.22548        16.14768
| 78>    C        2.48918        -3.35743        17.13541
| 79>    C        2.67597        -1.98945        16.85492
| 80>    C        2.48854        -1.50828        15.58953
| 81>    F        3.04234        -1.16067        17.84320
| 82>    F        2.68168        -3.80182        18.38532
| 83>    C        1.52332        -4.65067        13.80559
| 84>    C        1.33677        -4.17035        12.53718
| 85>    C        0.91605        -4.83225        11.30423
| 86>    C        0.24054        -6.02418        11.23832
| 87>    C       -0.38961        -6.50401        10.07196
| 88>    N       -0.97156        -6.91571         9.17226
| 89>    C        0.02471        -6.86249        12.34950
| 90>    N       -0.15352        -7.58706        13.22243
| 91>    H       -8.25129         2.44469        -1.79289
| 92>    H       -3.89445         0.56370        -3.22169
| 93>    H       -8.87772         0.30547        -0.80416
| 94>    H       -4.51271        -1.63975        -2.22449
| 95>    H       -8.99553        -5.10965         0.41851
| 96>    H       -4.45850        -3.80142         2.84003
| 97>    H       -3.39154        -4.53920         1.62204
| 98>    H       -4.13898        -5.55790         2.87764
| 99>    H       -3.26780        -5.74953        -0.73064
|100>    H       -2.91907        -7.48175        -0.95865
|101>    H       -1.82552        -6.48450         0.03780
|102>    H       -7.16812        -9.38785        -0.37114
|103>    H       -8.60944        -7.40383        -0.36697
|104>    H       -5.09387       -10.33183        -0.34323
|105>    H       -3.33116       -11.93661         0.08206
|106>    H       -1.26797       -12.34861         1.55969
|107>    H        0.54994       -12.15435         3.11744
|108>    H        2.24328       -11.34782         4.87726
|109>    H        2.70610        -9.49164         6.39549
|110>    H        1.67059        -6.43303         2.80465
|111>    H        2.76228        -7.15164         4.01602
|112>    H        2.54091        -5.38497         3.95993
|113>    H        0.08736        -4.12941         4.27578
|114>    H       -1.17458        -3.36547         5.27144
|115>    H       -1.11135        -5.14286         5.11760
|116>    H        2.50800        -6.25095         9.64224
|117>    H        2.84815        -8.29189         8.33770
|118>    H        1.10866        -3.13218         8.29494
|119>    H        2.06027        -0.86291        12.99825
|120>    H        1.97447        -5.26919        16.38037
|121>    H        2.63574        -0.45825        15.39080
|122>    H        1.39025        -5.69356        14.04577
|123> *
|124>
|125>                          ****END OF INPUT****

CARTESIAN COORDINATES (ANGSTROEM)
---------------------------------
  C     -7.307650    2.019700   -2.097490
  C     -6.405240    2.791890   -2.773690
  F     -6.691400    4.070010   -3.058440
  C     -5.166430    2.257710   -3.179520
  F     -4.299470    3.037460   -3.842060
  C     -4.846860    0.957930   -2.903380
  C     -5.755860    0.136650   -2.208950
  C     -7.008560    0.675700   -1.796690
  C     -7.935790   -0.129800   -1.096060
  C     -7.617920   -1.432160   -0.813670
  C     -6.367190   -1.963110   -1.233290
  C     -5.454200   -1.211850   -1.914730
  C     -6.269860   -3.379950   -0.826570
  O     -5.363860   -4.137780   -1.106710
  C     -7.542660   -3.681060   -0.128320
  C     -8.353660   -2.481370   -0.113800
  C     -9.563910   -2.321470    0.511470
  C    -10.236620   -3.321720    1.243810
  N    -10.842780   -4.075130    1.863490
  C    -10.294470   -1.115720    0.520350
  N    -10.935420   -0.163800    0.558490
  C     -7.940670   -4.931450    0.249220
  C     -7.095090   -6.077650    0.357140
  C     -5.763590   -5.983790    0.844300
  O     -5.443020   -4.819720    1.434560
  C     -4.284520   -4.689950    2.231930
  C     -4.922570   -7.094910    0.731090
  O     -3.562610   -6.938620    0.943740
  C     -2.861990   -6.646440   -0.252830
  C     -5.416950   -8.345300    0.310940
  C     -6.774480   -8.432260   -0.059640
  C     -7.583870   -7.331810   -0.037260
  C     -4.639080   -9.542470    0.245240
  C     -3.478880   -9.904740    0.873450
  C     -2.905290  -11.207180    0.748870
  C     -1.819620  -11.425930    1.531180
  C     -1.466510  -10.308460    2.327560
  S     -2.542540   -8.962810    2.014880
  C     -0.426300  -10.199130    3.224510
  C      0.542870  -11.175640    3.562950
  C      1.438640  -10.749050    4.487430
  C      1.235730   -9.409660    4.938840
  S     -0.135390   -8.712250    4.102600
  C      1.966540   -8.838910    5.945320
  C      1.816300   -7.575880    6.596210
  C      1.202090   -6.447020    6.014050
  O      0.906400   -6.453070    4.659870
  C      2.041570   -6.350930    3.824650
  C      0.940020   -5.304800    6.772400
  O      0.278960   -4.209080    6.347990
  C     -0.516960   -4.230390    5.180100
  C      1.375730   -5.247130    8.123850
  C      2.097360   -6.330060    8.646850
  C      2.313290   -7.458420    7.908170
  C      1.163270   -4.049400    8.871770
  C      1.100000   -3.889680   10.222240
  C      1.325500   -2.545930   10.815840
  O      1.367840   -1.487800   10.230820
  C      1.547160   -2.789960   12.257740
  C      1.915200   -1.906920   13.230750
  C      2.106410   -2.377690   14.549540
  C      1.914670   -3.761070   14.832590
  C      2.117190   -4.225480   16.147680
  C      2.489180   -3.357430   17.135410
  C      2.675970   -1.989450   16.854920
  C      2.488540   -1.508280   15.589530
  F      3.042340   -1.160670   17.843200
  F      2.681680   -3.801820   18.385320
  C      1.523320   -4.650670   13.805590
  C      1.336770   -4.170350   12.537180
  C      0.916050   -4.832250   11.304230
  C      0.240540   -6.024180   11.238320
  C     -0.389610   -6.504010   10.071960
  N     -0.971560   -6.915710    9.172260
  C      0.024710   -6.862490   12.349500
  N     -0.153520   -7.587060   13.222430
  H     -8.251290    2.444690   -1.792890
  H     -3.894450    0.563700   -3.221690
  H     -8.877720    0.305470   -0.804160
  H     -4.512710   -1.639750   -2.224490
  H     -8.995530   -5.109650    0.418510
  H     -4.458500   -3.801420    2.840030
  H     -3.391540   -4.539200    1.622040
  H     -4.138980   -5.557900    2.877640
  H     -3.267800   -5.749530   -0.730640
  H     -2.919070   -7.481750   -0.958650
  H     -1.825520   -6.484500    0.037800
  H     -7.168120   -9.387850   -0.371140
  H     -8.609440   -7.403830   -0.366970
  H     -5.093870  -10.331830   -0.343230
  H     -3.331160  -11.936610    0.082060
  H     -1.267970  -12.348610    1.559690
  H      0.549940  -12.154350    3.117440
  H      2.243280  -11.347820    4.877260
  H      2.706100   -9.491640    6.395490
  H      1.670590   -6.433030    2.804650
  H      2.762280   -7.151640    4.016020
  H      2.540910   -5.384970    3.959930
  H      0.087360   -4.129410    4.275780
  H     -1.174580   -3.365470    5.271440
  H     -1.111350   -5.142860    5.117600
  H      2.508000   -6.250950    9.642240
  H      2.848150   -8.291890    8.337700
  H      1.108660   -3.132180    8.294940
  H      2.060270   -0.862910   12.998250
  H      1.974470   -5.269190   16.380370
  H      2.635740   -0.458250   15.390800
  H      1.390250   -5.693560   14.045770

 Total Charge           Charge          ....    0
 Multiplicity           Mult            ....    1
 Number of Electrons    NEL             ....  536
 Basis Dimension        Dim             .... 1232

ORBITAL ENERGIES
----------------

  NO   OCC          E(Eh)            E(eV)
   0   2.0000     -88.946339     -2420.3529
   1   2.0000     -88.946205     -2420.3493
   2   2.0000     -24.797048      -674.7620
   3   2.0000     -24.795557      -674.7214
   4   2.0000     -24.794976      -674.7056
   5   2.0000     -24.794179      -674.6839
   6   2.0000     -19.256940      -524.0080
   7   2.0000     -19.254756      -523.9485
   8   2.0000     -19.248149      -523.7688
   9   2.0000     -19.243799      -523.6504
  10   2.0000     -19.213856      -522.8356
  11   2.0000     -19.208644      -522.6938
  12   2.0000     -14.411676      -392.1616
  13   2.0000     -14.411584      -392.1591
  14   2.0000     -14.411039      -392.1443
  15   2.0000     -14.407161      -392.0388
  16   2.0000     -10.379859      -282.4503
  17   2.0000     -10.378784      -282.4211
  18   2.0000     -10.377732      -282.3925
  19   2.0000     -10.377253      -282.3794
  20   2.0000     -10.364199      -282.0242
  21   2.0000     -10.360287      -281.9177
  22   2.0000     -10.351614      -281.6817
  23   2.0000     -10.350537      -281.6524
  24   2.0000     -10.337738      -281.3041
  25   2.0000     -10.337207      -281.2897
  26   2.0000     -10.336575      -281.2725
  27   2.0000     -10.336323      -281.2657
  28   2.0000     -10.335018      -281.2301
  29   2.0000     -10.331430      -281.1325
  30   2.0000     -10.324836      -280.9531
  31   2.0000     -10.322095      -280.8785
  32   2.0000     -10.320883      -280.8455
  33   2.0000     -10.317733      -280.7598
  34   2.0000     -10.315522      -280.6996
  35   2.0000     -10.315346      -280.6948
  36   2.0000     -10.314694      -280.6771
  37   2.0000     -10.314562      -280.6735
  38   2.0000     -10.313924      -280.6561
  39   2.0000     -10.312816      -280.6260
  40   2.0000     -10.309193      -280.5274
  41   2.0000     -10.309077      -280.5242
  42   2.0000     -10.308666      -280.5131
  43   2.0000     -10.308402      -280.5059
  44   2.0000     -10.308155      -280.4992
  45   2.0000     -10.307931      -280.4931
  46   2.0000     -10.306634      -280.4578
  47   2.0000     -10.306289      -280.4484
  48   2.0000     -10.303943      -280.3845
  49   2.0000     -10.303287      -280.3667
  50   2.0000     -10.299826      -280.2725
  51   2.0000     -10.299748      -280.2704
  52   2.0000     -10.299354      -280.2597
  53   2.0000     -10.298574      -280.2385
  54   2.0000     -10.298161      -280.2272
  55   2.0000     -10.297978      -280.2222
  56   2.0000     -10.297613      -280.2123
  57   2.0000     -10.296986      -280.1952
  58   2.0000     -10.296872      -280.1921
  59   2.0000     -10.296772      -280.1894
  60   2.0000     -10.291797      -280.0540
  61   2.0000     -10.291695      -280.0513
  62   2.0000     -10.291658      -280.0503
  63   2.0000     -10.290056      -280.0067
  64   2.0000     -10.289380      -279.9883
  65   2.0000     -10.289147      -279.9819
  66   2.0000     -10.288831      -279.9733
  67   2.0000     -10.288686      -279.9694
  68   2.0000     -10.286869      -279.9199
  69   2.0000     -10.286388      -279.9069
  70   2.0000     -10.285876      -279.8929
  71   2.0000     -10.285601      -279.8854
  72   2.0000     -10.283832      -279.8373
  73   2.0000     -10.282632      -279.8046
  74   2.0000     -10.275576      -279.6126
  75   2.0000     -10.274253      -279.5766
  76   2.0000      -8.041459      -218.8192
  77   2.0000      -8.041067      -218.8086
  78   2.0000      -6.011269      -163.5749
  79   2.0000      -6.010917      -163.5654
  80   2.0000      -6.007013      -163.4591
  81   2.0000      -6.006625      -163.4486
  82   2.0000      -6.002385      -163.3332
  83   2.0000      -6.002004      -163.3228
  84   2.0000      -1.318893       -35.8889
  85   2.0000      -1.317146       -35.8414
  86   2.0000      -1.304033       -35.4845
  87   2.0000      -1.302324       -35.4380
  88   2.0000      -1.168035       -31.7838
  89   2.0000      -1.167815       -31.7779
  90   2.0000      -1.144373       -31.1400
  91   2.0000      -1.141647       -31.0658
  92   2.0000      -1.126246       -30.6467
  93   2.0000      -1.123808       -30.5804
  94   2.0000      -1.015552       -27.6346
  95   2.0000      -1.014397       -27.6032
  96   2.0000      -1.001118       -27.2418
  97   2.0000      -0.999121       -27.1875
  98   2.0000      -0.997050       -27.1311
  99   2.0000      -0.989969       -26.9384
 100   2.0000      -0.988262       -26.8920
 101   2.0000      -0.978564       -26.6281
 102   2.0000      -0.976929       -26.5836
 103   2.0000      -0.976157       -26.5626
 104   2.0000      -0.963038       -26.2056
 105   2.0000      -0.961510       -26.1640
 106   2.0000      -0.929023       -25.2800
 107   2.0000      -0.927300       -25.2331
 108   2.0000      -0.911042       -24.7907
 109   2.0000      -0.906447       -24.6657
 110   2.0000      -0.894883       -24.3510
 111   2.0000      -0.892296       -24.2806
 112   2.0000      -0.888240       -24.1702
 113   2.0000      -0.885987       -24.1089
 114   2.0000      -0.876750       -23.8576
 115   2.0000      -0.862354       -23.4659
 116   2.0000      -0.855237       -23.2722
 117   2.0000      -0.851589       -23.1729
 118   2.0000      -0.849453       -23.1148
 119   2.0000      -0.840382       -22.8680
 120   2.0000      -0.837938       -22.8015
 121   2.0000      -0.836309       -22.7571
 122   2.0000      -0.833053       -22.6685
 123   2.0000      -0.823783       -22.4163
 124   2.0000      -0.808449       -21.9990
 125   2.0000      -0.802423       -21.8350
 126   2.0000      -0.800461       -21.7816
 127   2.0000      -0.787769       -21.4363
 128   2.0000      -0.768383       -20.9088
 129   2.0000      -0.766593       -20.8600
 130   2.0000      -0.764708       -20.8088
 131   2.0000      -0.763439       -20.7742
 132   2.0000      -0.759970       -20.6798
 133   2.0000      -0.745789       -20.2939
 134   2.0000      -0.736227       -20.0337
 135   2.0000      -0.725415       -19.7395
 136   2.0000      -0.718155       -19.5420
 137   2.0000      -0.713209       -19.4074
 138   2.0000      -0.709937       -19.3184
 139   2.0000      -0.696990       -18.9661
 140   2.0000      -0.692850       -18.8534
 141   2.0000      -0.688756       -18.7420
 142   2.0000      -0.687863       -18.7177
 143   2.0000      -0.680520       -18.5179
 144   2.0000      -0.676197       -18.4003
 145   2.0000      -0.673362       -18.3231
 146   2.0000      -0.668786       -18.1986
 147   2.0000      -0.656309       -17.8591
 148   2.0000      -0.652109       -17.7448
 149   2.0000      -0.648466       -17.6457
 150   2.0000      -0.642096       -17.4723
 151   2.0000      -0.639688       -17.4068
 152   2.0000      -0.638043       -17.3620
 153   2.0000      -0.634513       -17.2660
 154   2.0000      -0.628368       -17.0988
 155   2.0000      -0.623995       -16.9798
 156   2.0000      -0.619605       -16.8603
 157   2.0000      -0.615637       -16.7523
 158   2.0000      -0.613254       -16.6875
 159   2.0000      -0.610354       -16.6086
 160   2.0000      -0.608420       -16.5560
 161   2.0000      -0.598969       -16.2988
 162   2.0000      -0.597523       -16.2594
 163   2.0000      -0.589816       -16.0497
 164   2.0000      -0.588220       -16.0063
 165   2.0000      -0.583663       -15.8823
 166   2.0000      -0.581917       -15.8348
 167   2.0000      -0.581115       -15.8129
 168   2.0000      -0.578585       -15.7441
 169   2.0000      -0.572612       -15.5816
 170   2.0000      -0.570550       -15.5254
 171   2.0000      -0.568460       -15.4686
 172   2.0000      -0.566360       -15.4114
 173   2.0000      -0.563411       -15.3312
 174   2.0000      -0.561577       -15.2813
 175   2.0000      -0.557314       -15.1653
 176   2.0000      -0.552097       -15.0233
 177   2.0000      -0.550575       -14.9819
 178   2.0000      -0.545757       -14.8508
 179   2.0000      -0.545328       -14.8391
 180   2.0000      -0.543923       -14.8009
 181   2.0000      -0.543671       -14.7940
 182   2.0000      -0.542723       -14.7682
 183   2.0000      -0.537875       -14.6363
 184   2.0000      -0.534730       -14.5507
 185   2.0000      -0.533042       -14.5048
 186   2.0000      -0.532239       -14.4830
 187   2.0000      -0.531930       -14.4745
 188   2.0000      -0.529773       -14.4159
 189   2.0000      -0.528578       -14.3834
 190   2.0000      -0.526230       -14.3195
 191   2.0000      -0.524686       -14.2774
 192   2.0000      -0.521600       -14.1935
 193   2.0000      -0.519410       -14.1339
 194   2.0000      -0.516301       -14.0493
 195   2.0000      -0.514499       -14.0002
 196   2.0000      -0.511528       -13.9194
 197   2.0000      -0.509774       -13.8716
 198   2.0000      -0.507358       -13.8059
 199   2.0000      -0.502652       -13.6779
 200   2.0000      -0.499465       -13.5911
 201   2.0000      -0.498113       -13.5543
 202   2.0000      -0.495750       -13.4901
 203   2.0000      -0.494697       -13.4614
 204   2.0000      -0.493246       -13.4219
 205   2.0000      -0.490313       -13.3421
 206   2.0000      -0.489270       -13.3137
 207   2.0000      -0.488358       -13.2889
 208   2.0000      -0.482106       -13.1188
 209   2.0000      -0.481940       -13.1143
 210   2.0000      -0.475402       -12.9363
 211   2.0000      -0.472221       -12.8498
 212   2.0000      -0.470078       -12.7915
 213   2.0000      -0.468117       -12.7381
 214   2.0000      -0.464842       -12.6490
 215   2.0000      -0.464356       -12.6358
 216   2.0000      -0.462554       -12.5867
 217   2.0000      -0.461437       -12.5563
 218   2.0000      -0.460940       -12.5428
 219   2.0000      -0.458731       -12.4827
 220   2.0000      -0.454613       -12.3707
 221   2.0000      -0.449662       -12.2359
 222   2.0000      -0.446532       -12.1507
 223   2.0000      -0.445721       -12.1287
 224   2.0000      -0.443749       -12.0750
 225   2.0000      -0.441692       -12.0190
 226   2.0000      -0.441167       -12.0048
 227   2.0000      -0.439738       -11.9659
 228   2.0000      -0.438225       -11.9247
 229   2.0000      -0.436694       -11.8830
 230   2.0000      -0.431626       -11.7452
 231   2.0000      -0.429139       -11.6775
 232   2.0000      -0.427233       -11.6256
 233   2.0000      -0.423593       -11.5266
 234   2.0000      -0.422928       -11.5085
 235   2.0000      -0.422096       -11.4858
 236   2.0000      -0.420880       -11.4527
 237   2.0000      -0.419313       -11.4101
 238   2.0000      -0.418548       -11.3893
 239   2.0000      -0.418108       -11.3773
 240   2.0000      -0.411573       -11.1995
 241   2.0000      -0.409222       -11.1355
 242   2.0000      -0.406503       -11.0615
 243   2.0000      -0.405284       -11.0283
 244   2.0000      -0.396765       -10.7965
 245   2.0000      -0.394024       -10.7219
 246   2.0000      -0.387090       -10.5333
 247   2.0000      -0.385380       -10.4867
 248   2.0000      -0.381078       -10.3697
 249   2.0000      -0.378662       -10.3039
 250   2.0000      -0.363479        -9.8908
 251   2.0000      -0.361950        -9.8492
 252   2.0000      -0.353517        -9.6197
 253   2.0000      -0.350760        -9.5447
 254   2.0000      -0.338156        -9.2017
 255   2.0000      -0.336839        -9.1659
 256   2.0000      -0.333345        -9.0708
 257   2.0000      -0.328139        -8.9291
 258   2.0000      -0.319245        -8.6871
 259   2.0000      -0.315092        -8.5741
 260   2.0000      -0.312658        -8.5078
 261   2.0000      -0.306759        -8.3473
 262   2.0000      -0.299412        -8.1474
 263   2.0000      -0.298358        -8.1187
 264   2.0000      -0.296906        -8.0792
 265   2.0000      -0.287433        -7.8215
 266   2.0000      -0.272828        -7.4240
 267   2.0000      -0.221549        -6.0286
 268   0.0000      -0.100076        -2.7232
 269   0.0000      -0.086721        -2.3598
 270   0.0000      -0.067471        -1.8360
 271   0.0000      -0.054907        -1.4941
 272   0.0000      -0.049802        -1.3552

MULLIKEN ATOMIC CHARGES
-----------------------
   0 C :   -0.108436
   1 C :    0.241541
   2 F :   -0.172156
   3 C :    0.238355
   4 F :   -0.174295
   5 C :   -0.106609
   6 C :    0.120056
   7 C :    0.113657
   8 C :   -0.088045
   9 C :    0.052121
  10 C :   -0.000649
  11 C :   -0.087969
  12 C :    0.157831
  13 O :   -0.156843
  14 C :   -0.072611
  15 C :    0.303434
  16 C :   -0.346801
  17 C :   -0.202578
  18 N :    0.159720
  19 C :   -0.182232
  20 N :    0.143631
  21 C :   -0.019490
  22 C :    0.011725
  23 C :    0.219526
  24 O :   -0.299558
  25 C :    0.201176
  26 C :   -0.001072
  27 O :   -0.381724
  28 C :    0.198583
  29 C :    0.140346
  30 C :   -0.042764
  31 C :    0.010556
  32 C :   -0.087086
  33 C :   -0.003196
  34 C :    0.030673
  35 C :    0.036271
  36 C :   -0.050979
  37 S :    0.117398
  38 C :   -0.055294
  39 C :    0.036046
  40 C :    0.033026
  41 C :   -0.007084
  42 S :    0.119538
  43 C :   -0.092012
  44 C :    0.127553
  45 C :    0.016946
  46 O :   -0.373266
  47 C :    0.202210
  48 C :    0.222786
  49 O :   -0.302100
  50 C :    0.201115
  51 C :   -0.057026
  52 C :    0.024627
  53 C :   -0.042155
  54 C :    0.054665
  55 C :   -0.120390
  56 C :    0.135999
  57 O :   -0.142750
  58 C :    0.016386
  59 C :   -0.087915
  60 C :    0.114235
  61 C :    0.113415
  62 C :   -0.109569
  63 C :    0.240689
  64 C :    0.238675
  65 C :   -0.104531
  66 F :   -0.173367
  67 F :   -0.172973
  68 C :   -0.086492
  69 C :    0.036857
  70 C :    0.264974
  71 C :   -0.342000
  72 C :   -0.194302
  73 N :    0.174246
  74 C :   -0.176843
  75 N :    0.145484
  76 H :    0.006709
  77 H :   -0.004382
  78 H :   -0.006831
  79 H :   -0.018601
  80 H :    0.032636
  81 H :    0.029683
  82 H :    0.015643
  83 H :    0.036807
  84 H :    0.037278
  85 H :    0.022554
  86 H :    0.027674
  87 H :   -0.025749
  88 H :   -0.015743
  89 H :   -0.015640
  90 H :   -0.011056
  91 H :   -0.013913
  92 H :   -0.014755
  93 H :   -0.011703
  94 H :   -0.014617
  95 H :    0.033589
  96 H :    0.032258
  97 H :    0.016369
  98 H :    0.013431
  99 H :    0.031941
 100 H :    0.041048
 101 H :   -0.009168
 102 H :   -0.025855
 103 H :    0.031950
 104 H :   -0.010423
 105 H :    0.005569
 106 H :   -0.001732
 107 H :   -0.005885
Sum of atomic charges:   -0.0000000

LOEWDIN ATOMIC CHARGES
----------------------
   0 C :   -0.029013
   1 C :    0.065498
   2 F :   -0.050332
   3 C :    0.066918
   4 F :   -0.051490
   5 C :   -0.034927
   6 C :   -0.009421
   7 C :   -0.007468
   8 C :    0.016418
   9 C :   -0.022117
  10 C :   -0.049296
  11 C :    0.024686
  12 C :    0.087309
  13 O :   -0.148569
  14 C :   -0.094739
  15 C :    0.075046
  16 C :   -0.141186
  17 C :   -0.023639
  18 N :   -0.051669
  19 C :   -0.017125
  20 N :   -0.057499
  21 C :    0.089671
  22 C :   -0.065585
  23 C :    0.079724
  24 O :   -0.073562
  25 C :    0.082159
  26 C :   -0.004687
  27 O :   -0.136476
  28 C :    0.072498
  29 C :   -0.016255
  30 C :   -0.036931
  31 C :    0.006051
  32 C :   -0.065322
  33 C :   -0.136597
  34 C :   -0.029452
  35 C :   -0.030234
  36 C :   -0.181930
  37 S :    0.414826
  38 C :   -0.182537
  39 C :   -0.029787
  40 C :   -0.030492
  41 C :   -0.136370
  42 S :    0.416017
  43 C :   -0.067691
  44 C :   -0.015708
  45 C :   -0.002294
  46 O :   -0.132705
  47 C :    0.071936
  48 C :    0.073865
  49 O :   -0.087012
  50 C :    0.083014
  51 C :   -0.070397
  52 C :    0.003926
  53 C :   -0.026577
  54 C :    0.093405
  55 C :   -0.100689
  56 C :    0.082181
  57 O :   -0.144803
  58 C :   -0.052664
  59 C :    0.028245
  60 C :   -0.009786
  61 C :   -0.006503
  62 C :   -0.030816
  63 C :    0.065995
  64 C :    0.066050
  65 C :   -0.033317
  66 F :   -0.051358
  67 F :   -0.050764
  68 C :    0.012036
  69 C :   -0.020127
  70 C :    0.065396
  71 C :   -0.139657
  72 C :   -0.018217
  73 N :   -0.045351
  74 C :   -0.018694
  75 N :   -0.057715
  76 H :    0.047560
  77 H :    0.043343
  78 H :    0.039703
  79 H :    0.037038
  80 H :    0.045919
  81 H :    0.023050
  82 H :    0.015676
  83 H :    0.021923
  84 H :    0.020048
  85 H :    0.015623
  86 H :    0.019922
  87 H :    0.028844
  88 H :    0.034525
  89 H :    0.035158
  90 H :    0.032934
  91 H :    0.031155
  92 H :    0.031267
  93 H :    0.032962
  94 H :    0.034882
  95 H :    0.022631
  96 H :    0.016341
  97 H :    0.013681
  98 H :    0.013704
  99 H :    0.023688
 100 H :    0.024068
 101 H :    0.032546
 102 H :    0.029821
 103 H :    0.046626
 104 H :    0.039927
 105 H :    0.046858
 106 H :    0.044350
 107 H :    0.038911

  Mayer bond orders larger than 0.100000
B(  0-C ,  1-C ) :   1.4405 B(  0-C ,  5-C ) :   0.1090 B(  0-C ,  7-C ) :   1.1882
B(  0-C , 76-H ) :   1.0070 B(  1-C ,  2-F ) :   1.1333 B(  1-C ,  3-C ) :   1.1931
B(  3-C ,  4-F ) :   1.1306 B(  3-C ,  5-C ) :   1.4427 B(  5-C ,  6-C ) :   1.1907
B(  5-C , 77-H ) :   1.0069 B(  6-C ,  7-C ) :   1.2593 B(  6-C , 11-C ) :   1.1863
B(  7-C ,  8-C ) :   1.2135 B(  8-C ,  9-C ) :   1.4503 B(  8-C , 78-H ) :   0.9898
B(  9-C , 10-C ) :   1.2223 B(  9-C , 15-C ) :   0.9826 B( 10-C , 11-C ) :   1.4724
B( 10-C , 12-C ) :   0.9444 B( 11-C , 79-H ) :   1.0162 B( 12-C , 13-O ) :   2.1824
B( 12-C , 14-C ) :   0.9507 B( 14-C , 15-C ) :   1.0840 B( 14-C , 21-C ) :   1.5976
B( 15-C , 16-C ) :   1.6342 B( 16-C , 17-C ) :   1.1416 B( 16-C , 19-C ) :   1.1468
B( 17-C , 18-N ) :   2.9865 B( 19-C , 20-N ) :   2.9608 B( 21-C , 22-C ) :   1.1235
B( 21-C , 80-H ) :   0.9453 B( 22-C , 23-C ) :   1.2942 B( 22-C , 31-C ) :   1.2933
B( 23-C , 24-O ) :   1.2211 B( 23-C , 26-C ) :   1.3113 B( 24-O , 25-C ) :   0.9318
B( 25-C , 81-H ) :   0.9771 B( 25-C , 82-H ) :   0.9749 B( 25-C , 83-H ) :   0.9719
B( 26-C , 27-O ) :   1.0655 B( 26-C , 29-C ) :   1.3162 B( 27-O , 28-C ) :   0.9171
B( 28-C , 84-H ) :   0.9640 B( 28-C , 85-H ) :   0.9685 B( 28-C , 86-H ) :   0.9764
B( 29-C , 30-C ) :   1.2647 B( 29-C , 32-C ) :   1.1100 B( 30-C , 31-C ) :   1.4114
B( 30-C , 87-H ) :   1.0012 B( 31-C , 88-H ) :   0.9988 B( 32-C , 33-C ) :   1.5909
B( 32-C , 89-H ) :   0.9597 B( 33-C , 34-C ) :   1.1174 B( 33-C , 37-S ) :   1.0558
B( 34-C , 35-C ) :   1.6112 B( 34-C , 90-H ) :   1.0000 B( 35-C , 36-C ) :   1.1642
B( 35-C , 91-H ) :   0.9941 B( 36-C , 37-S ) :   1.0162 B( 36-C , 38-C ) :   1.5390
B( 38-C , 39-C ) :   1.1648 B( 38-C , 42-S ) :   1.0216 B( 39-C , 40-C ) :   1.6112
B( 39-C , 92-H ) :   0.9940 B( 40-C , 41-C ) :   1.1190 B( 40-C , 93-H ) :   1.0000
B( 41-C , 42-S ) :   1.0605 B( 41-C , 43-C ) :   1.5875 B( 43-C , 44-C ) :   1.1040
B( 43-C , 94-H ) :   0.9598 B( 44-C , 45-C ) :   1.3021 B( 44-C , 53-C ) :   1.2678
B( 45-C , 46-O ) :   1.0665 B( 45-C , 48-C ) :   1.3245 B( 46-O , 47-C ) :   0.9283
B( 47-C , 95-H ) :   0.9783 B( 47-C , 96-H ) :   0.9676 B( 47-C , 97-H ) :   0.9673
B( 48-C , 49-O ) :   1.2496 B( 48-C , 51-C ) :   1.3033 B( 49-O , 50-C ) :   0.9283
B( 50-C , 98-H ) :   0.9765 B( 50-C , 99-H ) :   0.9772 B( 50-C ,100-H ) :   0.9730
B( 51-C , 52-C ) :   1.3051 B( 51-C , 54-C ) :   1.0952 B( 52-C , 53-C ) :   1.4204
B( 52-C ,101-H ) :   0.9932 B( 53-C ,102-H ) :   1.0009 B( 54-C , 55-C ) :   1.6303
B( 54-C ,103-H ) :   0.9403 B( 55-C , 56-C ) :   0.9447 B( 55-C , 70-C ) :   1.0417
B( 56-C , 57-O ) :   2.2745 B( 56-C , 58-C ) :   0.9125 B( 58-C , 59-C ) :   1.4759
B( 58-C , 69-C ) :   1.2252 B( 59-C , 60-C ) :   1.1916 B( 59-C ,104-H ) :   1.0160
B( 60-C , 61-C ) :   1.2606 B( 60-C , 65-C ) :   1.1926 B( 61-C , 62-C ) :   1.1886
B( 61-C , 68-C ) :   1.2122 B( 62-C , 63-C ) :   1.4420 B( 62-C , 65-C ) :   0.1094
B( 62-C ,105-H ) :   1.0068 B( 63-C , 64-C ) :   1.1934 B( 63-C , 67-F ) :   1.1331
B( 64-C , 65-C ) :   1.4432 B( 64-C , 66-F ) :   1.1323 B( 65-C ,106-H ) :   1.0069
B( 68-C , 69-C ) :   1.4573 B( 68-C ,107-H ) :   0.9944 B( 69-C , 70-C ) :   0.9925
B( 70-C , 71-C ) :   1.6544 B( 71-C , 72-C ) :   1.1581 B( 71-C , 74-C ) :   1.1365
B( 72-C , 73-N ) :   3.0143 B( 74-C , 75-N ) :   2.9804

-----------------------------------------------------------------------------
         ABSORPTION SPECTRUM VIA TRANSITION ELECTRIC DIPOLE MOMENTS
-----------------------------------------------------------------------------
State   Energy  Wavelength   fosc         T2         TX        TY        TZ
        (cm-1)    (nm)                  (au**2)     (au)      (au)      (au)
-----------------------------------------------------------------------------
   0   12818.6    780.1   1.200138068  30.82230   3.55478  -0.51452   4.23333
   1   16898.0    591.8   0.542810205  10.57519   1.35533  -2.71618  -1.16646
   2   21482.2    465.5   0.331087829   5.07387  -1.64665  -0.89974  -1.24614
   3   22415.0    446.1   0.275556324   4.04713   0.71329  -1.73837  -0.71863
   4   23777.9    420.6   0.088479714   1.22503   0.67157   0.40931  -0.77877
   5   24188.2    413.4   0.118471196   1.61245   0.37521   0.45535   1.12442
   6   25871.2    386.5   0.073520224   0.93555   0.80898  -0.50699  -0.15513
   7   26494.3    377.4   0.223798765   2.78087   0.70920  -1.48296  -0.28056
   8   27307.5    366.2   0.070477105   0.84965  -0.30433  -0.82689  -0.27071
   9   28314.0    353.2   0.169470793   1.97046   0.23092   0.85123   1.09204
  10   28510.6    350.7   0.013691326   0.15809  -0.38000  -0.11392   0.02676
  11   28552.7    350.2   0.237909213   2.74308  -0.29964  -1.59238   0.34298
  12   29027.7    344.5   0.019462090   0.22073   0.29351  -0.11873  -0.34710
  13   29282.6    341.5   0.013095657   0.14723   0.08879   0.06260  -0.36800
  14   29755.5    336.1   0.090318481   0.99928  -0.58845   0.74718   0.30777
  15   30114.8    332.1   0.008081450   0.08835  -0.15339  -0.25079   0.04380
  16   30181.5    331.3   0.032522716   0.35475  -0.07848   0.59036  -0.00837
  17   30430.8    328.6   0.038660555   0.41824   0.13796  -0.04152   0.63047
  18   31023.2    322.3   0.270451984   2.86998  -0.33091  -1.64752   0.21482
  19   31546.8    317.0   0.087236619   0.91037   0.22684   0.33266  -0.86502
  20   31786.6    314.6   0.009676274   0.10022   0.13873   0.21926   0.18137
  21   32546.1    307.3   0.150592056   1.52328   0.01288  -1.09427  -0.57068
  22   33348.6    299.9   0.052523275   0.51850  -0.29760   0.12375   0.64391
  23   33634.3    297.3   0.037089196   0.36303  -0.47349  -0.31336  -0.20160
  24   33853.4    295.4   0.199638574   1.94141   0.19395   1.02404   0.92474
  25   34038.4    293.8   0.130941403   1.26644  -0.36921   0.11264   1.05709
  26   34297.6    291.6   0.040235226   0.38620  -0.47273  -0.09074  -0.39306
  27   34617.8    288.9   0.528802472   5.02887   1.59182   1.33018  -0.85182
  28   34948.8    286.1   0.094621796   0.89132   0.74881   0.57399   0.03383
  29   35083.1    285.0   0.223886869   2.10090   0.14583  -0.25747  -1.41892
  30   35352.6    282.9   0.478727787   4.45803   1.21863   1.48507   0.87609
  31   35783.4    279.5   0.012311897   0.11327   0.01948  -0.12975  -0.30993
  32   36026.4    277.6   0.010635114   0.09718  -0.16914  -0.21483   0.14975
  33   36321.0    275.3   0.022469704   0.20366   0.15357  -0.04482   0.42199
  34   36765.8    272.0   0.027444309   0.24574  -0.19209  -0.42064   0.17864
  35   36928.8    270.8   0.007020396   0.06259   0.19026   0.04300  -0.15664
  36   37011.4    270.2   0.038044810   0.33840   0.12493  -0.51366   0.24280
  37   37637.0    265.7   0.028317750   0.24770   0.12109   0.14374  -0.46084
  38   38091.5    262.5   0.102040115   0.88190   0.61443  -0.40808  -0.58124
  39   38412.0    260.3   0.055772143   0.47800   0.04079  -0.38424   0.57332
  40   38485.3    259.8   0.076933003   0.65810   0.51602   0.58291   0.22814
  41   38801.8    257.7   0.078155117   0.66310  -0.78501   0.13544   0.16887
  42   38953.4    256.7   0.038243897   0.32322   0.41381  -0.28991  -0.26064
  43   39116.2    255.6   0.003982941   0.03352  -0.05876  -0.07246  -0.15754
  44   39299.1    254.5   0.012926449   0.10829  -0.13343  -0.29720  -0.04644
  45   39795.5    251.3   0.111382285   0.92142   0.10238  -0.95181  -0.07070
  46   39894.5    250.7   0.042766893   0.35292   0.30310   0.47642   0.18460
  47   40041.9    249.7   0.006439136   0.05294  -0.20470  -0.09975  -0.03297
  48   40245.9    248.5   0.024459139   0.20008  -0.30888   0.16943   0.27561

FINAL SINGLE POINT ENERGY     -4167.182779329552

DIPOLE MOMENT
-------------
                                X             Y             Z
Electronic contribution:    -11.25869      48.33809      35.59232
Nuclear contribution   :     15.02868     -50.27936     -38.35754
                        -----------------------------------------
Total Dipole Moment    :      3.77000      -1.94127      -2.76522
                        -----------------------------------------
Magnitude (a.u.)       :      5.06240
Magnitude (Debye)      :     12.86759

Rotational constants in cm-1:     0.000907     0.000300     0.000252
Rotational constants in MHz :    27.184498     8.996566     7.560523

                             ****ORCA TERMINATED NORMALLY****
TOTAL RUN TIME: 0 days 0 hours 11 minutes 30 seconds 181 msec
