                         Program Version 4.2.0 -  RELEASE  -
|  1> # ORCA input file
|  2> # SCF done       -162.332145821755          0.000737289358
|  3> ! CAM-B3LYP def2-SVP def2/J RIJCOSX Grid4 TightSCF
|  4> %maxcore 5000
|  5> %tddft
|  6>     Mode sTDDFT
|  7>     Ethresh 5.0
|  8>     maxcore 5000
|  9> end
| 10>
| 11> %pal
| 12>   nprocs 6
| 13>   end
| 14> * xyz 0 1
| 15>    C       -0.05251        18.18502         4.27797
| 16>    C       -0.96732        17.43078         4.94422
| 17>    C       -0.91241        16.08082         4.54222
| 18>    C        0.06485        15.85488         3.56173
| 19>    S        0.90204        17.28218         3.14298
| 20>    C        0.05086        14.47723         3.21492
| 21>    C       -0.93512        13.83777         3.97912
| 22>    C       -1.57561        14.83109         4.83694
| 23>    C       -2.59442        14.61401         5.72290
| 24>    C       -3.16376        13.34064         5.90374
| 25>    N       -3.62881        12.30080         6.04553
| 26>    C       -3.14482        15.64786         6.50724
| 27>    N       -3.59770        16.48365         7.14927
| 28>    C       -1.03191        12.47263         3.71797
| 29>    C       -0.12557        12.05981         2.75401
| 30>    S        0.85833        13.39405         2.16816
| 31>    C        0.06775        10.74920         2.22557
| 32>    C       -0.60788         9.64228         2.68161
| 33>    C       -0.44923         8.35088         2.17988
| 34>    C        0.48592         8.07139         1.08579
| 35>    C        1.26205         9.00139         0.49087
| 36>    S        1.25681        10.65998         0.92789
| 37>    C        0.37173         6.67569         0.84563
| 38>    C       -0.55801         6.11079         1.72243
| 39>    C       -0.70498         4.72344         1.48738
| 40>    C        0.09557         4.29058         0.47877
| 41>    S        1.06112         5.53448        -0.23616
| 42>    C       -1.07835         7.15263         2.57662
| 43>    C       -2.02349         7.06024         3.62765
| 44>    C       -2.56187         5.91015         4.10569
| 45>    C       -3.50545         5.75300         5.17170
| 46>    C       -4.11988         6.80756         5.89891
| 47>    O       -3.80918         8.08544         5.55972
| 48>    C       -4.43083         9.14697         6.25251
| 49>    C       -5.00281         6.49185         6.91106
| 50>    C       -5.34147         5.17774         7.27227
| 51>    C       -4.73488         4.12443         6.53984
| 52>    C       -3.85040         4.43971         5.52807
| 53>    O       -5.05746         2.85011         6.88142
| 54>    C       -4.46307         1.77758         6.19094
| 55>    C       -6.26440         5.01428         8.35124
| 56>    C       -6.77491         3.86829         8.87661
| 57>    C       -7.67910         3.88235         9.96054
| 58>    C       -8.21973         2.75409        10.50924
| 59>    C       -9.11151         2.81119        11.59434
| 60>    C       -9.70308         1.72755        12.19343
| 61>    C      -10.61874         1.75327        13.31329
| 62>    C      -11.05097         2.85701        14.00831
| 63>    C      -11.94631         2.80926        15.09573
| 64>    N      -12.67081         2.84904        15.98628
| 65>    C      -10.67481         4.19156        13.75680
| 66>    N      -10.42557         5.30646        13.63027
| 67>    C      -11.01369         0.37668        13.59699
| 68>    C      -10.35461        -0.48280        12.68396
| 69>    C       -9.50955         0.32023        11.77846
| 70>    O       -8.81018        -0.11074        10.88259
| 71>    C      -10.52379        -1.84562        12.69558
| 72>    C      -11.38488        -2.38959        13.65381
| 73>    C      -12.03830        -1.52416        14.56171
| 74>    C      -11.86728        -0.14469        14.55046
| 75>    S      -13.05347        -2.41188        15.65589
| 76>    C      -12.60256        -3.90274        14.90274
| 77>    C      -11.73357        -3.75128        13.87993
| 78>    H        0.13205        19.23579         4.37727
| 79>    H       -1.64172        17.82434         5.68266
| 80>    H       -1.72914        11.81284         4.19923
| 81>    H       -1.31037         9.79079         3.48829
| 82>    H        1.94746         8.76689        -0.30810
| 83>    H       -1.36702         4.06185         2.01457
| 84>    H        0.18406         3.29283         0.09525
| 85>    H       -2.31213         7.99272         4.08325
| 86>    H       -2.24128         4.97859         3.66158
| 87>    H       -4.04290        10.06310         5.81245
| 88>    H       -4.18042         9.13207         7.31705
| 89>    H       -5.51732         9.12229         6.12957
| 90>    H       -5.47238         7.28399         7.47187
| 91>    H       -3.38123         3.64536         4.96874
| 92>    H       -4.86967         0.87675         6.64846
| 93>    H       -3.37440         1.77873         6.30423
| 94>    H       -4.72209         1.78902         5.12750
| 95>    H       -6.59293         5.94568         8.80078
| 96>    H       -6.49811         2.90854         8.47279
| 97>    H       -7.95314         4.84595        10.37592
| 98>    H       -7.96212         1.78565        10.10685
| 99>    H       -9.34027         3.79814        11.97639
|100>    H      -10.00669        -2.47265        11.98570
|101>    H      -12.38960         0.47024        15.26400
|102>    H      -13.02391        -4.81441        15.27964
|103>    H      -11.34356        -4.56503        13.29547
|104> *
|105>
|106>                          ****END OF INPUT****

CARTESIAN COORDINATES (ANGSTROEM)
---------------------------------
  C     -0.052510   18.185020    4.277970
  C     -0.967320   17.430780    4.944220
  C     -0.912410   16.080820    4.542220
  C      0.064850   15.854880    3.561730
  S      0.902040   17.282180    3.142980
  C      0.050860   14.477230    3.214920
  C     -0.935120   13.837770    3.979120
  C     -1.575610   14.831090    4.836940
  C     -2.594420   14.614010    5.722900
  C     -3.163760   13.340640    5.903740
  N     -3.628810   12.300800    6.045530
  C     -3.144820   15.647860    6.507240
  N     -3.597700   16.483650    7.149270
  C     -1.031910   12.472630    3.717970
  C     -0.125570   12.059810    2.754010
  S      0.858330   13.394050    2.168160
  C      0.067750   10.749200    2.225570
  C     -0.607880    9.642280    2.681610
  C     -0.449230    8.350880    2.179880
  C      0.485920    8.071390    1.085790
  C      1.262050    9.001390    0.490870
  S      1.256810   10.659980    0.927890
  C      0.371730    6.675690    0.845630
  C     -0.558010    6.110790    1.722430
  C     -0.704980    4.723440    1.487380
  C      0.095570    4.290580    0.478770
  S      1.061120    5.534480   -0.236160
  C     -1.078350    7.152630    2.576620
  C     -2.023490    7.060240    3.627650
  C     -2.561870    5.910150    4.105690
  C     -3.505450    5.753000    5.171700
  C     -4.119880    6.807560    5.898910
  O     -3.809180    8.085440    5.559720
  C     -4.430830    9.146970    6.252510
  C     -5.002810    6.491850    6.911060
  C     -5.341470    5.177740    7.272270
  C     -4.734880    4.124430    6.539840
  C     -3.850400    4.439710    5.528070
  O     -5.057460    2.850110    6.881420
  C     -4.463070    1.777580    6.190940
  C     -6.264400    5.014280    8.351240
  C     -6.774910    3.868290    8.876610
  C     -7.679100    3.882350    9.960540
  C     -8.219730    2.754090   10.509240
  C     -9.111510    2.811190   11.594340
  C     -9.703080    1.727550   12.193430
  C    -10.618740    1.753270   13.313290
  C    -11.050970    2.857010   14.008310
  C    -11.946310    2.809260   15.095730
  N    -12.670810    2.849040   15.986280
  C    -10.674810    4.191560   13.756800
  N    -10.425570    5.306460   13.630270
  C    -11.013690    0.376680   13.596990
  C    -10.354610   -0.482800   12.683960
  C     -9.509550    0.320230   11.778460
  O     -8.810180   -0.110740   10.882590
  C    -10.523790   -1.845620   12.695580
  C    -11.384880   -2.389590   13.653810
  C    -12.038300   -1.524160   14.561710
  C    -11.867280   -0.144690   14.550460
  S    -13.053470   -2.411880   15.655890
  C    -12.602560   -3.902740   14.902740
  C    -11.733570   -3.751280   13.879930
  H      0.132050   19.235790    4.377270
  H     -1.641720   17.824340    5.682660
  H     -1.729140   11.812840    4.199230
  H     -1.310370    9.790790    3.488290
  H      1.947460    8.766890   -0.308100
  H     -1.367020    4.061850    2.014570
  H      0.184060    3.292830    0.095250
  H     -2.312130    7.992720    4.083250
  H     -2.241280    4.978590    3.661580
  H     -4.042900   10.063100    5.812450
  H     -4.180420    9.132070    7.317050
  H     -5.517320    9.122290    6.129570
  H     -5.472380    7.283990    7.471870
  H     -3.381230    3.645360    4.968740
  H     -4.869670    0.876750    6.648460
  H     -3.374400    1.778730    6.304230
  H     -4.722090    1.789020    5.127500
  H     -6.592930    5.945680    8.800780
  H     -6.498110    2.908540    8.472790
  H     -7.953140    4.845950   10.375920
  H     -7.962120    1.785650   10.106850
  H     -9.340270    3.798140   11.976390
  H    -10.006690   -2.472650   11.985700
  H    -12.389600    0.470240   15.264000
  H    -13.023910   -4.814410   15.279640
  H    -11.343560   -4.565030   13.295470

 Total Charge           Charge          ....    0
 Multiplicity           Mult            ....    1
 Number of Electrons    NEL             ....  464
 Basis Dimension        Dim             .... 1032

ORBITAL ENERGIES
----------------

  NO   OCC          E(Eh)            E(eV)
   0   2.0000     -88.990985     -2421.5678
   1   2.0000     -88.988423     -2421.4981
   2   2.0000     -88.976873     -2421.1838
   3   2.0000     -88.957865     -2420.6666
   4   2.0000     -88.955635     -2420.6059
   5   2.0000     -19.249908      -523.8166
   6   2.0000     -19.242012      -523.6018
   7   2.0000     -19.198894      -522.4285
   8   2.0000     -14.437915      -392.8756
   9   2.0000     -14.430768      -392.6812
  10   2.0000     -14.400601      -391.8603
  11   2.0000     -14.398656      -391.8074
  12   2.0000     -10.364755      -282.0393
  13   2.0000     -10.354134      -281.7503
  14   2.0000     -10.349552      -281.6256
  15   2.0000     -10.340329      -281.3747
  16   2.0000     -10.332768      -281.1689
  17   2.0000     -10.331586      -281.1367
  18   2.0000     -10.331289      -281.1287
  19   2.0000     -10.329499      -281.0800
  20   2.0000     -10.329041      -281.0675
  21   2.0000     -10.328907      -281.0639
  22   2.0000     -10.328764      -281.0600
  23   2.0000     -10.327085      -281.0143
  24   2.0000     -10.326267      -280.9920
  25   2.0000     -10.324447      -280.9425
  26   2.0000     -10.323038      -280.9041
  27   2.0000     -10.311564      -280.5919
  28   2.0000     -10.308580      -280.5107
  29   2.0000     -10.307982      -280.4944
  30   2.0000     -10.304290      -280.3940
  31   2.0000     -10.303652      -280.3766
  32   2.0000     -10.303347      -280.3683
  33   2.0000     -10.302567      -280.3471
  34   2.0000     -10.301998      -280.3316
  35   2.0000     -10.298867      -280.2464
  36   2.0000     -10.298444      -280.2349
  37   2.0000     -10.298277      -280.2304
  38   2.0000     -10.298187      -280.2279
  39   2.0000     -10.297043      -280.1968
  40   2.0000     -10.295958      -280.1673
  41   2.0000     -10.291712      -280.0517
  42   2.0000     -10.289521      -279.9921
  43   2.0000     -10.289302      -279.9862
  44   2.0000     -10.287981      -279.9502
  45   2.0000     -10.286547      -279.9112
  46   2.0000     -10.285460      -279.8816
  47   2.0000     -10.284376      -279.8521
  48   2.0000     -10.283788      -279.8361
  49   2.0000     -10.282670      -279.8057
  50   2.0000     -10.279153      -279.7100
  51   2.0000     -10.278777      -279.6998
  52   2.0000     -10.276221      -279.6302
  53   2.0000     -10.276024      -279.6248
  54   2.0000     -10.275414      -279.6082
  55   2.0000     -10.275173      -279.6017
  56   2.0000     -10.274678      -279.5882
  57   2.0000     -10.270478      -279.4739
  58   2.0000     -10.269287      -279.4415
  59   2.0000     -10.266836      -279.3748
  60   2.0000     -10.265420      -279.3363
  61   2.0000     -10.263611      -279.2870
  62   2.0000     -10.263039      -279.2715
  63   2.0000      -8.085501      -220.0177
  64   2.0000      -8.083410      -219.9608
  65   2.0000      -8.072513      -219.6642
  66   2.0000      -8.053381      -219.1437
  67   2.0000      -8.051781      -219.1001
  68   2.0000      -6.054801      -164.7595
  69   2.0000      -6.052691      -164.7021
  70   2.0000      -6.050560      -164.6441
  71   2.0000      -6.048195      -164.5798
  72   2.0000      -6.047849      -164.5703
  73   2.0000      -6.046029      -164.5208
  74   2.0000      -6.042175      -164.4159
  75   2.0000      -6.037656      -164.2930
  76   2.0000      -6.034149      -164.1975
  77   2.0000      -6.022754      -163.8875
  78   2.0000      -6.021324      -163.8486
  79   2.0000      -6.018578      -163.7738
  80   2.0000      -6.016995      -163.7307
  81   2.0000      -6.015463      -163.6891
  82   2.0000      -6.013474      -163.6349
  83   2.0000      -1.154112       -31.4050
  84   2.0000      -1.145226       -31.1632
  85   2.0000      -1.112463       -30.2717
  86   2.0000      -1.044429       -28.4204
  87   2.0000      -1.026105       -27.9217
  88   2.0000      -1.011447       -27.5229
  89   2.0000      -1.007793       -27.4234
  90   2.0000      -1.004862       -27.3437
  91   2.0000      -0.997044       -27.1309
  92   2.0000      -0.994913       -27.0730
  93   2.0000      -0.978432       -26.6245
  94   2.0000      -0.971957       -26.4483
  95   2.0000      -0.969684       -26.3864
  96   2.0000      -0.955969       -26.0132
  97   2.0000      -0.953312       -25.9409
  98   2.0000      -0.928226       -25.2583
  99   2.0000      -0.921410       -25.0729
 100   2.0000      -0.912903       -24.8414
 101   2.0000      -0.909885       -24.7592
 102   2.0000      -0.895959       -24.3803
 103   2.0000      -0.888035       -24.1647
 104   2.0000      -0.878808       -23.9136
 105   2.0000      -0.868354       -23.6291
 106   2.0000      -0.866253       -23.5719
 107   2.0000      -0.860683       -23.4204
 108   2.0000      -0.853954       -23.2373
 109   2.0000      -0.846635       -23.0381
 110   2.0000      -0.841964       -22.9110
 111   2.0000      -0.830153       -22.5896
 112   2.0000      -0.820308       -22.3217
 113   2.0000      -0.810375       -22.0514
 114   2.0000      -0.807667       -21.9777
 115   2.0000      -0.803491       -21.8641
 116   2.0000      -0.793007       -21.5788
 117   2.0000      -0.777739       -21.1633
 118   2.0000      -0.774466       -21.0743
 119   2.0000      -0.767416       -20.8824
 120   2.0000      -0.751983       -20.4625
 121   2.0000      -0.742078       -20.1930
 122   2.0000      -0.732310       -19.9272
 123   2.0000      -0.730687       -19.8830
 124   2.0000      -0.707224       -19.2445
 125   2.0000      -0.703898       -19.1541
 126   2.0000      -0.690328       -18.7848
 127   2.0000      -0.686120       -18.6703
 128   2.0000      -0.681664       -18.5490
 129   2.0000      -0.675561       -18.3829
 130   2.0000      -0.668700       -18.1963
 131   2.0000      -0.663562       -18.0565
 132   2.0000      -0.656953       -17.8766
 133   2.0000      -0.652311       -17.7503
 134   2.0000      -0.649864       -17.6837
 135   2.0000      -0.645093       -17.5539
 136   2.0000      -0.641308       -17.4509
 137   2.0000      -0.640221       -17.4213
 138   2.0000      -0.629321       -17.1247
 139   2.0000      -0.620271       -16.8784
 140   2.0000      -0.615487       -16.7483
 141   2.0000      -0.607894       -16.5416
 142   2.0000      -0.604896       -16.4601
 143   2.0000      -0.602237       -16.3877
 144   2.0000      -0.597329       -16.2542
 145   2.0000      -0.586874       -15.9697
 146   2.0000      -0.582770       -15.8580
 147   2.0000      -0.579138       -15.7592
 148   2.0000      -0.571273       -15.5451
 149   2.0000      -0.564620       -15.3641
 150   2.0000      -0.558656       -15.2018
 151   2.0000      -0.558031       -15.1848
 152   2.0000      -0.552226       -15.0268
 153   2.0000      -0.547083       -14.8869
 154   2.0000      -0.546156       -14.8616
 155   2.0000      -0.545200       -14.8356
 156   2.0000      -0.538619       -14.6566
 157   2.0000      -0.534264       -14.5381
 158   2.0000      -0.532217       -14.4824
 159   2.0000      -0.525775       -14.3071
 160   2.0000      -0.523168       -14.2361
 161   2.0000      -0.522873       -14.2281
 162   2.0000      -0.519955       -14.1487
 163   2.0000      -0.516215       -14.0469
 164   2.0000      -0.514724       -14.0064
 165   2.0000      -0.512947       -13.9580
 166   2.0000      -0.508689       -13.8421
 167   2.0000      -0.506692       -13.7878
 168   2.0000      -0.505343       -13.7511
 169   2.0000      -0.496628       -13.5139
 170   2.0000      -0.495875       -13.4935
 171   2.0000      -0.493331       -13.4242
 172   2.0000      -0.490255       -13.3405
 173   2.0000      -0.488023       -13.2798
 174   2.0000      -0.487268       -13.2592
 175   2.0000      -0.484445       -13.1824
 176   2.0000      -0.477645       -12.9974
 177   2.0000      -0.476909       -12.9774
 178   2.0000      -0.476250       -12.9594
 179   2.0000      -0.476003       -12.9527
 180   2.0000      -0.473952       -12.8969
 181   2.0000      -0.470534       -12.8039
 182   2.0000      -0.464925       -12.6512
 183   2.0000      -0.461639       -12.5618
 184   2.0000      -0.459876       -12.5139
 185   2.0000      -0.457750       -12.4560
 186   2.0000      -0.457680       -12.4541
 187   2.0000      -0.451601       -12.2887
 188   2.0000      -0.448836       -12.2135
 189   2.0000      -0.446822       -12.1586
 190   2.0000      -0.445072       -12.1110
 191   2.0000      -0.444968       -12.1082
 192   2.0000      -0.443751       -12.0751
 193   2.0000      -0.441733       -12.0202
 194   2.0000      -0.438774       -11.9396
 195   2.0000      -0.436693       -11.8830
 196   2.0000      -0.434245       -11.8164
 197   2.0000      -0.432909       -11.7800
 198   2.0000      -0.430817       -11.7231
 199   2.0000      -0.428498       -11.6600
 200   2.0000      -0.426877       -11.6159
 201   2.0000      -0.423791       -11.5319
 202   2.0000      -0.423146       -11.5144
 203   2.0000      -0.420202       -11.4343
 204   2.0000      -0.420170       -11.4334
 205   2.0000      -0.419199       -11.4070
 206   2.0000      -0.414029       -11.2663
 207   2.0000      -0.412654       -11.2289
 208   2.0000      -0.411494       -11.1973
 209   2.0000      -0.407189       -11.0802
 210   2.0000      -0.396864       -10.7992
 211   2.0000      -0.396835       -10.7984
 212   2.0000      -0.394114       -10.7244
 213   2.0000      -0.391769       -10.6606
 214   2.0000      -0.383876       -10.4458
 215   2.0000      -0.380051       -10.3417
 216   2.0000      -0.373490       -10.1632
 217   2.0000      -0.362312        -9.8590
 218   2.0000      -0.358485        -9.7549
 219   2.0000      -0.349445        -9.5089
 220   2.0000      -0.344187        -9.3658
 221   2.0000      -0.330621        -8.9967
 222   2.0000      -0.323050        -8.7906
 223   2.0000      -0.318623        -8.6702
 224   2.0000      -0.309687        -8.4270
 225   2.0000      -0.300822        -8.1858
 226   2.0000      -0.294228        -8.0064
 227   2.0000      -0.284686        -7.7467
 228   2.0000      -0.279195        -7.5973
 229   2.0000      -0.271650        -7.3920
 230   2.0000      -0.251323        -6.8389
 231   2.0000      -0.217441        -5.9169
 232   0.0000      -0.106146        -2.8884
 233   0.0000      -0.084951        -2.3116
 234   0.0000      -0.058854        -1.6015
 235   0.0000      -0.044619        -1.2142
 236   0.0000      -0.031456        -0.8560

MULLIKEN ATOMIC CHARGES
-----------------------
   0 C :   -0.084216
   1 C :    0.040728
   2 C :   -0.041653
   3 C :   -0.115452
   4 S :    0.180812
   5 C :   -0.102928
   6 C :    0.012729
   7 C :    0.305818
   8 C :   -0.302745
   9 C :   -0.174047
  10 N :    0.172681
  11 C :   -0.192212
  12 N :    0.177267
  13 C :   -0.045788
  14 C :   -0.061704
  15 S :    0.180912
  16 C :   -0.023275
  17 C :   -0.064974
  18 C :    0.047475
  19 C :    0.071236
  20 C :   -0.126886
  21 S :    0.108525
  22 C :   -0.117039
  23 C :    0.051717
  24 C :   -0.004175
  25 C :   -0.068254
  26 S :    0.127242
  27 C :    0.096307
  28 C :    0.002932
  29 C :   -0.039466
  30 C :    0.120618
  31 C :    0.216896
  32 O :   -0.321309
  33 C :    0.188313
  34 C :   -0.153562
  35 C :    0.094038
  36 C :    0.234921
  37 C :   -0.170691
  38 O :   -0.313163
  39 C :    0.180499
  40 C :   -0.010271
  41 C :    0.013723
  42 C :    0.060802
  43 C :   -0.013977
  44 C :   -0.026882
  45 C :   -0.078501
  46 C :    0.330809
  47 C :   -0.362869
  48 C :   -0.186724
  49 N :    0.141268
  50 C :   -0.193046
  51 N :    0.137267
  52 C :    0.013586
  53 C :   -0.012314
  54 C :    0.139907
  55 O :   -0.161578
  56 C :   -0.071351
  57 C :    0.114408
  58 C :   -0.097679
  59 C :   -0.026022
  60 S :    0.133777
  61 C :   -0.050308
  62 C :    0.024536
  63 H :    0.036903
  64 H :    0.012195
  65 H :    0.004313
  66 H :   -0.018889
  67 H :    0.035381
  68 H :   -0.010609
  69 H :    0.023280
  70 H :   -0.017727
  71 H :   -0.067610
  72 H :    0.027802
  73 H :    0.021105
  74 H :    0.019774
  75 H :   -0.036994
  76 H :   -0.045700
  77 H :    0.041020
  78 H :    0.027360
  79 H :    0.026115
  80 H :   -0.019054
  81 H :    0.011039
  82 H :    0.003267
  83 H :    0.018537
  84 H :    0.004243
  85 H :   -0.017134
  86 H :   -0.008785
  87 H :    0.034070
  88 H :   -0.010593
Sum of atomic charges:    0.0000000

LOEWDIN ATOMIC CHARGES
----------------------
   0 C :   -0.179666
   1 C :   -0.032286
   2 C :   -0.083686
   3 C :   -0.177569
   4 S :    0.476752
   5 C :   -0.190089
   6 C :   -0.068065
   7 C :    0.089926
   8 C :   -0.111214
   9 C :    0.002972
  10 N :   -0.038765
  11 C :   -0.018376
  12 N :   -0.032147
  13 C :   -0.031983
  14 C :   -0.179032
  15 S :    0.467232
  16 C :   -0.189004
  17 C :   -0.011983
  18 C :   -0.024810
  19 C :   -0.048243
  20 C :   -0.142224
  21 S :    0.425864
  22 C :   -0.199391
  23 C :   -0.036706
  24 C :   -0.065888
  25 C :   -0.167375
  26 S :    0.423379
  27 C :   -0.040182
  28 C :   -0.010650
  29 C :   -0.034779
  30 C :   -0.019762
  31 C :    0.047260
  32 O :   -0.096587
  33 C :    0.073661
  34 C :   -0.049121
  35 C :   -0.051436
  36 C :    0.058771
  37 C :   -0.065920
  38 O :   -0.090331
  39 C :    0.077627
  40 C :    0.021318
  41 C :   -0.039114
  42 C :    0.041254
  43 C :   -0.046368
  44 C :    0.069285
  45 C :   -0.108463
  46 C :    0.077319
  47 C :   -0.151571
  48 C :   -0.018079
  49 N :   -0.064946
  50 C :   -0.019944
  51 N :   -0.063531
  52 C :   -0.021309
  53 C :   -0.051355
  54 C :    0.083195
  55 O :   -0.155370
  56 C :    0.018869
  57 C :   -0.037195
  58 C :   -0.146940
  59 C :   -0.011184
  60 S :    0.423551
  61 C :   -0.153146
  62 C :   -0.059319
  63 H :    0.027656
  64 H :    0.042768
  65 H :    0.037361
  66 H :    0.039472
  67 H :    0.036199
  68 H :    0.027728
  69 H :    0.022992
  70 H :    0.025384
  71 H :    0.022130
  72 H :    0.018718
  73 H :    0.015529
  74 H :    0.015276
  75 H :    0.029581
  76 H :    0.026072
  77 H :    0.030860
  78 H :    0.016921
  79 H :    0.016470
  80 H :    0.030511
  81 H :    0.030717
  82 H :    0.032053
  83 H :    0.032907
  84 H :    0.040448
  85 H :    0.038048
  86 H :    0.039898
  87 H :    0.027474
  88 H :    0.033694

  Mayer bond orders larger than 0.100000
B(  0-C ,  1-C ) :   1.5568 B(  0-C ,  4-S ) :   1.1413 B(  0-C , 63-H ) :   0.9640
B(  1-C ,  2-C ) :   1.2691 B(  1-C , 64-H ) :   0.9967 B(  2-C ,  3-C ) :   1.4477
B(  2-C ,  7-C ) :   1.0286 B(  3-C ,  4-S ) :   1.1420 B(  3-C ,  5-C ) :   1.1898
B(  5-C ,  6-C ) :   1.4546 B(  5-C , 15-S ) :   1.1174 B(  6-C ,  7-C ) :   0.9952
B(  6-C , 13-C ) :   1.2981 B(  7-C ,  8-C ) :   1.6943 B(  8-C ,  9-C ) :   1.1381
B(  8-C , 11-C ) :   1.1281 B(  9-C , 10-N ) :   2.9759 B( 11-C , 12-N ) :   3.0042
B( 13-C , 14-C ) :   1.4865 B( 13-C , 65-H ) :   0.9870 B( 14-C , 15-S ) :   1.1090
B( 14-C , 16-C ) :   1.1154 B( 16-C , 17-C ) :   1.5627 B( 16-C , 21-S ) :   1.0278
B( 17-C , 18-C ) :   1.2362 B( 17-C , 66-H ) :   0.9693 B( 18-C , 19-C ) :   1.0418
B( 18-C , 27-C ) :   1.3816 B( 19-C , 20-C ) :   1.6191 B( 19-C , 22-C ) :   1.1768
B( 20-C , 21-S ) :   1.1285 B( 20-C , 67-H ) :   0.9411 B( 22-C , 23-C ) :   1.4540
B( 22-C , 26-S ) :   1.0795 B( 23-C , 24-C ) :   1.2113 B( 23-C , 27-C ) :   1.0687
B( 24-C , 25-C ) :   1.5872 B( 24-C , 68-H ) :   0.9980 B( 25-C , 26-S ) :   1.1548
B( 25-C , 69-H ) :   0.9641 B( 27-C , 28-C ) :   1.1607 B( 28-C , 29-C ) :   1.6064
B( 28-C , 70-H ) :   0.9532 B( 29-C , 30-C ) :   1.1281 B( 29-C , 71-H ) :   0.9775
B( 30-C , 31-C ) :   1.2848 B( 30-C , 37-C ) :   1.2858 B( 31-C , 32-O ) :   1.1473
B( 31-C , 34-C ) :   1.3207 B( 32-O , 33-C ) :   0.9373 B( 33-C , 72-H ) :   0.9624
B( 33-C , 73-H ) :   0.9666 B( 33-C , 74-H ) :   0.9644 B( 34-C , 35-C ) :   1.2686
B( 34-C , 75-H ) :   0.9988 B( 35-C , 36-C ) :   1.2956 B( 35-C , 40-C ) :   1.1251
B( 36-C , 37-C ) :   1.3049 B( 36-C , 38-O ) :   1.1484 B( 37-C , 76-H ) :   0.9982
B( 38-O , 39-C ) :   0.9582 B( 39-C , 77-H ) :   0.9770 B( 39-C , 78-H ) :   0.9686
B( 39-C , 79-H ) :   0.9687 B( 40-C , 41-C ) :   1.5837 B( 40-C , 80-H ) :   0.9779
B( 41-C , 42-C ) :   1.1432 B( 41-C , 81-H ) :   0.9799 B( 42-C , 43-C ) :   1.4999
B( 42-C , 82-H ) :   0.9920 B( 43-C , 44-C ) :   1.1912 B( 43-C , 83-H ) :   0.9889
B( 44-C , 45-C ) :   1.4978 B( 44-C , 84-H ) :   0.9573 B( 45-C , 46-C ) :   1.0870
B( 45-C , 54-C ) :   0.9565 B( 46-C , 47-C ) :   1.6034 B( 46-C , 52-C ) :   0.9974
B( 47-C , 48-C ) :   1.1470 B( 47-C , 50-C ) :   1.1520 B( 48-C , 49-N ) :   2.9648
B( 50-C , 51-N ) :   2.9590 B( 52-C , 53-C ) :   1.2724 B( 52-C , 59-C ) :   1.4157
B( 53-C , 54-C ) :   0.9418 B( 53-C , 56-C ) :   1.4317 B( 54-C , 55-O ) :   2.1944
B( 56-C , 57-C ) :   1.2438 B( 56-C , 85-H ) :   1.0151 B( 57-C , 58-C ) :   1.3083
B( 57-C , 62-C ) :   1.1698 B( 58-C , 59-C ) :   1.3222 B( 58-C , 60-S ) :   1.0945
B( 59-C , 86-H ) :   0.9807 B( 60-S , 61-C ) :   1.1252 B( 61-C , 62-C ) :   1.6281
B( 61-C , 87-H ) :   0.9694 B( 62-C , 88-H ) :   0.9991

-----------------------------------------------------------------------------
         ABSORPTION SPECTRUM VIA TRANSITION ELECTRIC DIPOLE MOMENTS
-----------------------------------------------------------------------------
State   Energy  Wavelength   fosc         T2         TX        TY        TZ
        (cm-1)    (nm)                  (au**2)     (au)      (au)      (au)
-----------------------------------------------------------------------------
   0    9890.0   1011.1   0.188844136   6.28615   0.68742   2.39465  -0.28155
   1   15878.9    629.8   1.891706974  39.22007  -3.69544  -3.32471   3.80921
   2   17195.7    581.5   0.072464060   1.38733  -0.66777  -0.68260   0.68953
   3   20342.4    491.6   0.257508963   4.16740   0.88464  -1.14453  -1.44043
   4   22218.7    450.1   0.255841858   3.79077  -0.32664   1.71521   0.86148
   5   22709.2    440.3   0.090295728   1.30900   0.73891   0.31072  -0.81637
   6   24023.5    416.3   0.108321057   1.48441   0.76261   0.36014  -0.87928
   7   25426.1    393.3   0.053196382   0.68878  -0.43961   0.34470   0.61376
   8   25885.1    386.3   0.007578664   0.09639   0.06361   0.30295  -0.02369
   9   26443.7    378.2   0.123092217   1.53244   0.60699   0.82872  -0.69082
  10   27669.5    361.4   0.032728967   0.38941   0.33764   0.40828  -0.32972
  11   28326.3    353.0   0.496178774   5.76665   1.02183   1.93811  -0.98297
  12   28511.9    350.7   0.168711899   1.94803  -0.74632   0.63602   0.99324
  13   28520.1    350.6   0.020492850   0.23655  -0.23306   0.28282   0.31976
  14   30010.4    333.2   0.033447824   0.36692   0.15353   0.57920  -0.08871
  15   30530.2    327.5   0.050572364   0.54533   0.45663   0.27187  -0.51275
  16   30794.8    324.7   0.143102808   1.52984   0.45940  -0.89064  -0.72495
  17   31206.3    320.4   0.685131850   7.22783   1.97763   0.07749  -1.81956
  18   31908.5    313.4   0.000415747   0.00429   0.03542   0.05480  -0.00571
  19   32369.9    308.9   0.155201038   1.57845   0.63268   1.00012  -0.42182
  20   32752.8    305.3   0.627394723   6.30620   0.40050   2.47892  -0.02788
  21   33065.0    302.4   0.061524005   0.61256  -0.15608   0.72256   0.25711
  22   33322.9    300.1   0.168892669   1.66857  -0.41957   0.88599   0.84116
  23   33426.7    299.2   0.045347768   0.44662   0.10308  -0.56303  -0.34495
  24   33872.8    295.2   0.168218838   1.63493  -0.15084  -1.26918   0.03689
  25   34326.9    291.3   0.502894508   4.82300   0.02185  -2.14159  -0.48591
  26   34731.6    287.9   0.038389798   0.36389   0.32480   0.46379  -0.20806
  27   35137.5    284.6   0.181377556   1.69937   0.39569   1.22927  -0.17804
  28   35418.9    282.3   0.004224833   0.03927   0.00391   0.19808   0.00401
  29   35770.6    279.6   0.189984413   1.74851   0.92156   0.54955  -0.77280
  30   36206.4    276.2   0.128551737   1.16888   0.07680  -1.00899  -0.38069
  31   36883.8    271.1   0.231305866   2.06456   0.00036  -1.38880  -0.36849
  32   37056.9    269.9   0.009111528   0.08095   0.15999   0.22312  -0.07460
  33   37472.1    266.9   0.105127375   0.92360  -0.08959  -0.94790  -0.13058
  34   38282.3    261.2   0.060053207   0.51643   0.05271  -0.69522  -0.17415
  35   38527.5    259.6   0.078171106   0.66796   0.53165  -0.11780  -0.60945
  36   38643.6    258.8   0.000274934   0.00234  -0.00238   0.03533   0.03299
  37   38855.2    257.4   0.062328915   0.52810  -0.32405   0.39412   0.51745
  38   39003.4    256.4   0.006080422   0.05132   0.14143  -0.05960  -0.16663
  39   39956.0    250.3   0.008470627   0.06979   0.10319  -0.16590  -0.17782
  40   40057.8    249.6   0.077145042   0.63401   0.47912  -0.17718  -0.61078
  41   40161.4    249.0   0.000224444   0.00184  -0.03004   0.00024   0.03062
  42   40282.0    248.2   0.054688206   0.44695  -0.30641  -0.51636   0.29400

FINAL SINGLE POINT ENERGY     -4390.899862950482

DIPOLE MOMENT
-------------
                                X             Y             Z
Electronic contribution:     14.21849      37.08654      -6.79628
Nuclear contribution   :    -10.51006     -37.20468       2.70829
                        -----------------------------------------
Total Dipole Moment    :      3.70844      -0.11814      -4.08800
                        -----------------------------------------
Magnitude (a.u.)       :      5.52070
Magnitude (Debye)      :     14.03251

Rotational constants in cm-1:     0.001647     0.000259     0.000224
Rotational constants in MHz :    49.374624     7.761740     6.715998

                             ****ORCA TERMINATED NORMALLY****
TOTAL RUN TIME: 0 days 0 hours 8 minutes 15 seconds 110 msec
