                         Program Version 4.2.0 -  RELEASE  -
|  1> # ORCA input file
|  2> # SCF done       -188.747917512853          0.000912795893
|  3> ! CAM-B3LYP def2-SVP def2/J RIJCOSX Grid4 TightSCF
|  4> %maxcore 5000
|  5> %tddft
|  6>     Mode sTDDFT
|  7>     Ethresh 5.0
|  8>     maxcore 5000
|  9> end
| 10>
| 11> %pal
| 12>   nprocs 6
| 13>   end
| 14> * xyz 0 1
| 15>    C        4.27998        12.00882        -1.25350
| 16>    C        3.89160        11.35440        -2.38526
| 17>    C        3.20269        10.16846        -2.07649
| 18>    C        3.09127         9.95818        -0.69381
| 19>    S        3.82545        11.20781         0.20988
| 20>    C        2.39278         8.73953        -0.46677
| 21>    C        2.05702         8.19609        -1.72343
| 22>    C        2.56104         9.06817        -2.77385
| 23>    C        2.46718         8.85710        -4.11850
| 24>    C        1.80424         7.72552        -4.63895
| 25>    N        1.25114         6.80119        -5.03324
| 26>    C        3.01518         9.75157        -5.06204
| 27>    N        3.45436        10.48901        -5.82137
| 28>    C        1.39028         6.98344        -1.62445
| 29>    C        1.23367         6.58246        -0.30510
| 30>    S        1.86830         7.76707         0.82924
| 31>    C        0.64536         5.39322         0.18319
| 32>    N        0.15346         5.31144         1.41053
| 33>    C       -0.38998         4.08273         1.50873
| 34>    C       -0.22141         3.32260         0.26113
| 35>    C       -0.81006         1.97968         0.38726
| 36>    O       -0.86132         1.10032        -0.44671
| 37>    C       -1.32168         1.98394         1.76800
| 38>    C       -1.04782         3.28467         2.41494
| 39>    N       -1.49818         3.28732         3.69178
| 40>    C       -2.01639         2.09603         3.87518
| 41>    C       -1.93407         1.23018         2.71811
| 42>    C        0.48220         4.13482        -0.59149
| 43>    C        1.06032         3.87935        -1.86291
| 44>    C        0.78058         2.80103        -2.63532
| 45>    C        1.37489         2.60133        -3.90858
| 46>    C        2.19895         3.46193        -4.62423
| 47>    C        2.59687         2.91654        -5.83773
| 48>    C        2.06846         1.62774        -6.06137
| 49>    S        1.08243         1.10277        -4.77236
| 50>    C        2.53505         1.15754        -7.31321
| 51>    C        3.36015         2.15786        -7.87776
| 52>    C        3.42438         3.29216        -6.97340
| 53>    C        4.12361         4.45063        -7.15560
| 54>    C        4.88776         4.67772        -8.32075
| 55>    N        5.51799         4.84443        -9.26435
| 56>    C        4.16786         5.47572        -6.18893
| 57>    N        4.23891         6.30108        -5.39526
| 58>    C        3.88390         1.79058        -9.10903
| 59>    C        3.45773         0.52883        -9.49964
| 60>    S        2.42216        -0.22905        -8.29526
| 61>    C        3.78341        -0.21902       -10.65367
| 62>    N        3.61549        -1.53531       -10.65986
| 63>    C        4.10507        -1.96390       -11.83849
| 64>    C        4.61177        -0.84453       -12.64428
| 65>    C        5.14541        -1.33005       -13.92530
| 66>    O        5.65775        -0.69046       -14.82077
| 67>    C        4.91429        -2.78326       -13.83926
| 68>    C        4.28230        -3.12766       -12.55033
| 69>    N        4.05412        -4.46019       -12.46918
| 70>    C        4.49079        -4.95157       -13.60488
| 71>    C        5.03396        -3.96008       -14.50828
| 72>    C        4.37310         0.29461       -11.91519
| 73>    C        4.53368         1.66589       -12.24300
| 74>    C        5.24428         2.12281       -13.30349
| 75>    C        5.40754         3.50490       -13.57800
| 76>    C        4.94382         4.59442       -12.85473
| 77>    C        5.32134         5.80370       -13.42794
| 78>    C        6.08596         5.64336       -14.59544
| 79>    S        6.33143         4.00355       -14.98741
| 80>    C        6.42296         6.93704       -15.08566
| 81>    C        5.87221         7.90084       -14.23088
| 82>    C        5.15511         7.22665       -13.16395
| 83>    C        4.45360         7.79415       -12.14015
| 84>    C        4.35093         9.19364       -11.99170
| 85>    N        4.26187        10.33109       -11.87856
| 86>    C        3.76235         7.03015       -11.17704
| 87>    N        3.17989         6.42214       -10.39787
| 88>    C        6.16099         9.21451       -14.64659
| 89>    C        6.91015         9.22101       -15.78393
| 90>    S        7.28398         7.63830       -16.38179
| 91>    H        4.81761        12.93362        -1.18563
| 92>    H        4.09153        11.70841        -3.37994
| 93>    H        0.98249         6.44736        -2.46043
| 94>    H       -2.45504         1.83552         4.82272
| 95>    H       -2.29256         0.22119         2.66618
| 96>    H        1.79955         4.58739        -2.20485
| 97>    H        0.08146         2.05282        -2.28604
| 98>    H        2.47320         4.44462        -4.28859
| 99>    H        4.58463         2.38365        -9.66552
|100>    H        4.43012        -6.00873       -13.79717
|101>    H        5.43501        -4.15640       -15.48296
|102>    H        4.02753         2.37602       -11.60785
|103>    H        5.72588         1.42101       -13.97140
|104>    H        4.37524         4.51185       -11.94755
|105>    H        5.83767        10.10495       -14.13933
|106>    H        7.27630        10.07100       -16.32413
|107> *
|108>
|109>                          ****END OF INPUT****

CARTESIAN COORDINATES (ANGSTROEM)
---------------------------------
  C      4.279980   12.008820   -1.253500
  C      3.891600   11.354400   -2.385260
  C      3.202690   10.168460   -2.076490
  C      3.091270    9.958180   -0.693810
  S      3.825450   11.207810    0.209880
  C      2.392780    8.739530   -0.466770
  C      2.057020    8.196090   -1.723430
  C      2.561040    9.068170   -2.773850
  C      2.467180    8.857100   -4.118500
  C      1.804240    7.725520   -4.638950
  N      1.251140    6.801190   -5.033240
  C      3.015180    9.751570   -5.062040
  N      3.454360   10.489010   -5.821370
  C      1.390280    6.983440   -1.624450
  C      1.233670    6.582460   -0.305100
  S      1.868300    7.767070    0.829240
  C      0.645360    5.393220    0.183190
  N      0.153460    5.311440    1.410530
  C     -0.389980    4.082730    1.508730
  C     -0.221410    3.322600    0.261130
  C     -0.810060    1.979680    0.387260
  O     -0.861320    1.100320   -0.446710
  C     -1.321680    1.983940    1.768000
  C     -1.047820    3.284670    2.414940
  N     -1.498180    3.287320    3.691780
  C     -2.016390    2.096030    3.875180
  C     -1.934070    1.230180    2.718110
  C      0.482200    4.134820   -0.591490
  C      1.060320    3.879350   -1.862910
  C      0.780580    2.801030   -2.635320
  C      1.374890    2.601330   -3.908580
  C      2.198950    3.461930   -4.624230
  C      2.596870    2.916540   -5.837730
  C      2.068460    1.627740   -6.061370
  S      1.082430    1.102770   -4.772360
  C      2.535050    1.157540   -7.313210
  C      3.360150    2.157860   -7.877760
  C      3.424380    3.292160   -6.973400
  C      4.123610    4.450630   -7.155600
  C      4.887760    4.677720   -8.320750
  N      5.517990    4.844430   -9.264350
  C      4.167860    5.475720   -6.188930
  N      4.238910    6.301080   -5.395260
  C      3.883900    1.790580   -9.109030
  C      3.457730    0.528830   -9.499640
  S      2.422160   -0.229050   -8.295260
  C      3.783410   -0.219020  -10.653670
  N      3.615490   -1.535310  -10.659860
  C      4.105070   -1.963900  -11.838490
  C      4.611770   -0.844530  -12.644280
  C      5.145410   -1.330050  -13.925300
  O      5.657750   -0.690460  -14.820770
  C      4.914290   -2.783260  -13.839260
  C      4.282300   -3.127660  -12.550330
  N      4.054120   -4.460190  -12.469180
  C      4.490790   -4.951570  -13.604880
  C      5.033960   -3.960080  -14.508280
  C      4.373100    0.294610  -11.915190
  C      4.533680    1.665890  -12.243000
  C      5.244280    2.122810  -13.303490
  C      5.407540    3.504900  -13.578000
  C      4.943820    4.594420  -12.854730
  C      5.321340    5.803700  -13.427940
  C      6.085960    5.643360  -14.595440
  S      6.331430    4.003550  -14.987410
  C      6.422960    6.937040  -15.085660
  C      5.872210    7.900840  -14.230880
  C      5.155110    7.226650  -13.163950
  C      4.453600    7.794150  -12.140150
  C      4.350930    9.193640  -11.991700
  N      4.261870   10.331090  -11.878560
  C      3.762350    7.030150  -11.177040
  N      3.179890    6.422140  -10.397870
  C      6.160990    9.214510  -14.646590
  C      6.910150    9.221010  -15.783930
  S      7.283980    7.638300  -16.381790
  H      4.817610   12.933620   -1.185630
  H      4.091530   11.708410   -3.379940
  H      0.982490    6.447360   -2.460430
  H     -2.455040    1.835520    4.822720
  H     -2.292560    0.221190    2.666180
  H      1.799550    4.587390   -2.204850
  H      0.081460    2.052820   -2.286040
  H      2.473200    4.444620   -4.288590
  H      4.584630    2.383650   -9.665520
  H      4.430120   -6.008730  -13.797170
  H      5.435010   -4.156400  -15.482960
  H      4.027530    2.376020  -11.607850
  H      5.725880    1.421010  -13.971400
  H      4.375240    4.511850  -11.947550
  H      5.837670   10.104950  -14.139330
  H      7.276300   10.071000  -16.324130

 Total Charge           Charge          ....    0
 Multiplicity           Mult            ....    1
 Number of Electrons    NEL             ....  546
 Basis Dimension        Dim             .... 1168

ORBITAL ENERGIES
----------------

  NO   OCC          E(Eh)            E(eV)
   0   2.0000     -88.998248     -2421.7654
   1   2.0000     -88.994585     -2421.6658
   2   2.0000     -88.993919     -2421.6476
   3   2.0000     -88.992299     -2421.6036
   4   2.0000     -88.982063     -2421.3250
   5   2.0000     -88.981758     -2421.3167
   6   2.0000     -19.213801      -522.8341
   7   2.0000     -19.206240      -522.6284
   8   2.0000     -14.434284      -392.7768
   9   2.0000     -14.432463      -392.7273
  10   2.0000     -14.431607      -392.7040
  11   2.0000     -14.428893      -392.6301
  12   2.0000     -14.423194      -392.4751
  13   2.0000     -14.421503      -392.4290
  14   2.0000     -14.413157      -392.2020
  15   2.0000     -14.407248      -392.0411
  16   2.0000     -14.403531      -391.9400
  17   2.0000     -14.396743      -391.7553
  18   2.0000     -10.373029      -282.2645
  19   2.0000     -10.366971      -282.0996
  20   2.0000     -10.366643      -282.0907
  21   2.0000     -10.365664      -282.0641
  22   2.0000     -10.355725      -281.7936
  23   2.0000     -10.354831      -281.7693
  24   2.0000     -10.354069      -281.7485
  25   2.0000     -10.353180      -281.7243
  26   2.0000     -10.347395      -281.5669
  27   2.0000     -10.345429      -281.5134
  28   2.0000     -10.343733      -281.4673
  29   2.0000     -10.343230      -281.4536
  30   2.0000     -10.335583      -281.2455
  31   2.0000     -10.335360      -281.2394
  32   2.0000     -10.334604      -281.2189
  33   2.0000     -10.334293      -281.2104
  34   2.0000     -10.333991      -281.2022
  35   2.0000     -10.332539      -281.1627
  36   2.0000     -10.328764      -281.0600
  37   2.0000     -10.328745      -281.0594
  38   2.0000     -10.327591      -281.0281
  39   2.0000     -10.326920      -281.0098
  40   2.0000     -10.325172      -280.9622
  41   2.0000     -10.324114      -280.9334
  42   2.0000     -10.324072      -280.9323
  43   2.0000     -10.323745      -280.9234
  44   2.0000     -10.321964      -280.8749
  45   2.0000     -10.321359      -280.8585
  46   2.0000     -10.320887      -280.8456
  47   2.0000     -10.320489      -280.8348
  48   2.0000     -10.316569      -280.7281
  49   2.0000     -10.314064      -280.6600
  50   2.0000     -10.314045      -280.6594
  51   2.0000     -10.312617      -280.6206
  52   2.0000     -10.312592      -280.6199
  53   2.0000     -10.311022      -280.5772
  54   2.0000     -10.309868      -280.5458
  55   2.0000     -10.309799      -280.5439
  56   2.0000     -10.309354      -280.5318
  57   2.0000     -10.307291      -280.4757
  58   2.0000     -10.306508      -280.4544
  59   2.0000     -10.304864      -280.4096
  60   2.0000     -10.303803      -280.3807
  61   2.0000     -10.302868      -280.3553
  62   2.0000     -10.299859      -280.2734
  63   2.0000     -10.294569      -280.1295
  64   2.0000     -10.294185      -280.1190
  65   2.0000     -10.293724      -280.1065
  66   2.0000     -10.292680      -280.0781
  67   2.0000     -10.292196      -280.0649
  68   2.0000     -10.291796      -280.0540
  69   2.0000     -10.291650      -280.0500
  70   2.0000     -10.288039      -279.9518
  71   2.0000     -10.286658      -279.9142
  72   2.0000     -10.283643      -279.8322
  73   2.0000     -10.282792      -279.8090
  74   2.0000     -10.281134      -279.7639
  75   2.0000     -10.279343      -279.7151
  76   2.0000      -8.092427      -220.2061
  77   2.0000      -8.089615      -220.1296
  78   2.0000      -8.087859      -220.0818
  79   2.0000      -8.086959      -220.0573
  80   2.0000      -8.077057      -219.7879
  81   2.0000      -8.076373      -219.7693
  82   2.0000      -6.061672      -164.9465
  83   2.0000      -6.058836      -164.8693
  84   2.0000      -6.057339      -164.8286
  85   2.0000      -6.057116      -164.8225
  86   2.0000      -6.056074      -164.7941
  87   2.0000      -6.054909      -164.7624
  88   2.0000      -6.054422      -164.7492
  89   2.0000      -6.052720      -164.7029
  90   2.0000      -6.052234      -164.6897
  91   2.0000      -6.051917      -164.6810
  92   2.0000      -6.050420      -164.6403
  93   2.0000      -6.049540      -164.6163
  94   2.0000      -6.046313      -164.5285
  95   2.0000      -6.045487      -164.5061
  96   2.0000      -6.041872      -164.4077
  97   2.0000      -6.041376      -164.3942
  98   2.0000      -6.039672      -164.3478
  99   2.0000      -6.038962      -164.3285
 100   2.0000      -1.127632       -30.6844
 101   2.0000      -1.119863       -30.4730
 102   2.0000      -1.081513       -29.4295
 103   2.0000      -1.075522       -29.2665
 104   2.0000      -1.059058       -28.8184
 105   2.0000      -1.052543       -28.6411
 106   2.0000      -1.049155       -28.5490
 107   2.0000      -1.047161       -28.4947
 108   2.0000      -1.035637       -28.1811
 109   2.0000      -1.025375       -27.9019
 110   2.0000      -1.022466       -27.8227
 111   2.0000      -1.013913       -27.5900
 112   2.0000      -1.010455       -27.4959
 113   2.0000      -1.008030       -27.4299
 114   2.0000      -1.001399       -27.2495
 115   2.0000      -1.000359       -27.2212
 116   2.0000      -0.999671       -27.2024
 117   2.0000      -0.987869       -26.8813
 118   2.0000      -0.962634       -26.1946
 119   2.0000      -0.961191       -26.1553
 120   2.0000      -0.950021       -25.8514
 121   2.0000      -0.936741       -25.4900
 122   2.0000      -0.931910       -25.3586
 123   2.0000      -0.927761       -25.2457
 124   2.0000      -0.919742       -25.0275
 125   2.0000      -0.913284       -24.8517
 126   2.0000      -0.906042       -24.6547
 127   2.0000      -0.896413       -24.3926
 128   2.0000      -0.877704       -23.8835
 129   2.0000      -0.873797       -23.7772
 130   2.0000      -0.863912       -23.5082
 131   2.0000      -0.862413       -23.4675
 132   2.0000      -0.861021       -23.4296
 133   2.0000      -0.858446       -23.3595
 134   2.0000      -0.857386       -23.3307
 135   2.0000      -0.849100       -23.1052
 136   2.0000      -0.845420       -23.0050
 137   2.0000      -0.842271       -22.9194
 138   2.0000      -0.827464       -22.5164
 139   2.0000      -0.815120       -22.1805
 140   2.0000      -0.786800       -21.4099
 141   2.0000      -0.785116       -21.3641
 142   2.0000      -0.782886       -21.3034
 143   2.0000      -0.773812       -21.0565
 144   2.0000      -0.769955       -20.9515
 145   2.0000      -0.765593       -20.8328
 146   2.0000      -0.753359       -20.4999
 147   2.0000      -0.750177       -20.4134
 148   2.0000      -0.730885       -19.8884
 149   2.0000      -0.723857       -19.6972
 150   2.0000      -0.720193       -19.5974
 151   2.0000      -0.710437       -19.3320
 152   2.0000      -0.706545       -19.2261
 153   2.0000      -0.695772       -18.9329
 154   2.0000      -0.695211       -18.9177
 155   2.0000      -0.687617       -18.7110
 156   2.0000      -0.685591       -18.6559
 157   2.0000      -0.673049       -18.3146
 158   2.0000      -0.672241       -18.2926
 159   2.0000      -0.670059       -18.2332
 160   2.0000      -0.663077       -18.0432
 161   2.0000      -0.650323       -17.6962
 162   2.0000      -0.643342       -17.5062
 163   2.0000      -0.641286       -17.4503
 164   2.0000      -0.636784       -17.3278
 165   2.0000      -0.628791       -17.1103
 166   2.0000      -0.626393       -17.0450
 167   2.0000      -0.624374       -16.9901
 168   2.0000      -0.621916       -16.9232
 169   2.0000      -0.620845       -16.8940
 170   2.0000      -0.618191       -16.8218
 171   2.0000      -0.615645       -16.7525
 172   2.0000      -0.610728       -16.6187
 173   2.0000      -0.605836       -16.4856
 174   2.0000      -0.600973       -16.3533
 175   2.0000      -0.597766       -16.2660
 176   2.0000      -0.588691       -16.0191
 177   2.0000      -0.580089       -15.7850
 178   2.0000      -0.568250       -15.4629
 179   2.0000      -0.565386       -15.3849
 180   2.0000      -0.560591       -15.2545
 181   2.0000      -0.555713       -15.1217
 182   2.0000      -0.553105       -15.0508
 183   2.0000      -0.550447       -14.9784
 184   2.0000      -0.547697       -14.9036
 185   2.0000      -0.546874       -14.8812
 186   2.0000      -0.545181       -14.8351
 187   2.0000      -0.540490       -14.7075
 188   2.0000      -0.539684       -14.6855
 189   2.0000      -0.537623       -14.6295
 190   2.0000      -0.534341       -14.5402
 191   2.0000      -0.530222       -14.4281
 192   2.0000      -0.523537       -14.2462
 193   2.0000      -0.517340       -14.0775
 194   2.0000      -0.514200       -13.9921
 195   2.0000      -0.512655       -13.9501
 196   2.0000      -0.510277       -13.8853
 197   2.0000      -0.508539       -13.8380
 198   2.0000      -0.506836       -13.7917
 199   2.0000      -0.502828       -13.6827
 200   2.0000      -0.502198       -13.6655
 201   2.0000      -0.500328       -13.6146
 202   2.0000      -0.499419       -13.5899
 203   2.0000      -0.499220       -13.5845
 204   2.0000      -0.495964       -13.4959
 205   2.0000      -0.495241       -13.4762
 206   2.0000      -0.492330       -13.3970
 207   2.0000      -0.491852       -13.3840
 208   2.0000      -0.486791       -13.2462
 209   2.0000      -0.485012       -13.1979
 210   2.0000      -0.477746       -13.0001
 211   2.0000      -0.477380       -12.9902
 212   2.0000      -0.475215       -12.9313
 213   2.0000      -0.474455       -12.9106
 214   2.0000      -0.472271       -12.8511
 215   2.0000      -0.471110       -12.8195
 216   2.0000      -0.470099       -12.7920
 217   2.0000      -0.467133       -12.7113
 218   2.0000      -0.466394       -12.6912
 219   2.0000      -0.465114       -12.6564
 220   2.0000      -0.463669       -12.6171
 221   2.0000      -0.462083       -12.5739
 222   2.0000      -0.459573       -12.5056
 223   2.0000      -0.458671       -12.4811
 224   2.0000      -0.458139       -12.4666
 225   2.0000      -0.456650       -12.4261
 226   2.0000      -0.456199       -12.4138
 227   2.0000      -0.454309       -12.3624
 228   2.0000      -0.451190       -12.2775
 229   2.0000      -0.449842       -12.2408
 230   2.0000      -0.447905       -12.1881
 231   2.0000      -0.446909       -12.1610
 232   2.0000      -0.445882       -12.1331
 233   2.0000      -0.444470       -12.0946
 234   2.0000      -0.442793       -12.0490
 235   2.0000      -0.439605       -11.9623
 236   2.0000      -0.438320       -11.9273
 237   2.0000      -0.435927       -11.8622
 238   2.0000      -0.433436       -11.7944
 239   2.0000      -0.430995       -11.7280
 240   2.0000      -0.429495       -11.6872
 241   2.0000      -0.427653       -11.6370
 242   2.0000      -0.426002       -11.5921
 243   2.0000      -0.424816       -11.5598
 244   2.0000      -0.418264       -11.3815
 245   2.0000      -0.417088       -11.3495
 246   2.0000      -0.413457       -11.2508
 247   2.0000      -0.404577       -11.0091
 248   2.0000      -0.394968       -10.7476
 249   2.0000      -0.385765       -10.4972
 250   2.0000      -0.380321       -10.3491
 251   2.0000      -0.364200        -9.9104
 252   2.0000      -0.363910        -9.9025
 253   2.0000      -0.358422        -9.7532
 254   2.0000      -0.353789        -9.6271
 255   2.0000      -0.352652        -9.5961
 256   2.0000      -0.351252        -9.5580
 257   2.0000      -0.346172        -9.4198
 258   2.0000      -0.343105        -9.3364
 259   2.0000      -0.339712        -9.2440
 260   2.0000      -0.336892        -9.1673
 261   2.0000      -0.331678        -9.0254
 262   2.0000      -0.331607        -9.0235
 263   2.0000      -0.326489        -8.8842
 264   2.0000      -0.325848        -8.8668
 265   2.0000      -0.324437        -8.8284
 266   2.0000      -0.322902        -8.7866
 267   2.0000      -0.314784        -8.5657
 268   2.0000      -0.309928        -8.4336
 269   2.0000      -0.301298        -8.1987
 270   2.0000      -0.278116        -7.5679
 271   2.0000      -0.257113        -6.9964
 272   2.0000      -0.248840        -6.7713
 273   0.0000      -0.122452        -3.3321
 274   0.0000      -0.114306        -3.1104
 275   0.0000      -0.102248        -2.7823
 276   0.0000      -0.099524        -2.7082
 277   0.0000      -0.093653        -2.5484

MULLIKEN ATOMIC CHARGES
-----------------------
   0 C :   -0.070763
   1 C :    0.031980
   2 C :   -0.016164
   3 C :   -0.130098
   4 S :    0.195429
   5 C :   -0.079985
   6 C :   -0.004444
   7 C :    0.299408
   8 C :   -0.282474
   9 C :   -0.157906
  10 N :    0.152248
  11 C :   -0.187330
  12 N :    0.183720
  13 C :   -0.029594
  14 C :   -0.140981
  15 S :    0.264169
  16 C :    0.054965
  17 N :   -0.050622
  18 C :    0.083164
  19 C :   -0.169206
  20 C :    0.213295
  21 O :   -0.145360
  22 C :   -0.017449
  23 C :   -0.042890
  24 N :   -0.056211
  25 C :    0.087950
  26 C :   -0.094388
  27 C :    0.056852
  28 C :   -0.064969
  29 C :    0.065476
  30 C :   -0.086837
  31 C :   -0.003996
  32 C :    0.012892
  33 C :   -0.115375
  34 S :    0.223082
  35 C :   -0.078657
  36 C :   -0.002096
  37 C :    0.314680
  38 C :   -0.297566
  39 C :   -0.167608
  40 N :    0.162099
  41 C :   -0.151017
  42 N :    0.151665
  43 C :   -0.029565
  44 C :   -0.133798
  45 S :    0.268392
  46 C :    0.057215
  47 N :   -0.058374
  48 C :    0.082222
  49 C :   -0.177506
  50 C :    0.213664
  51 O :   -0.148759
  52 C :   -0.018420
  53 C :   -0.049555
  54 N :   -0.056115
  55 C :    0.083180
  56 C :   -0.095590
  57 C :    0.068554
  58 C :   -0.073191
  59 C :    0.072789
  60 C :   -0.096107
  61 C :   -0.008968
  62 C :    0.002740
  63 C :   -0.103271
  64 S :    0.206189
  65 C :   -0.120985
  66 C :   -0.030083
  67 C :    0.304310
  68 C :   -0.302027
  69 C :   -0.194189
  70 N :    0.170804
  71 C :   -0.161065
  72 N :    0.157140
  73 C :    0.038682
  74 C :   -0.081880
  75 S :    0.180422
  76 H :    0.041644
  77 H :    0.016515
  78 H :    0.020983
  79 H :    0.006871
  80 H :   -0.007115
  81 H :   -0.009718
  82 H :    0.007543
  83 H :   -0.000192
  84 H :    0.016289
  85 H :    0.004787
  86 H :   -0.010771
  87 H :   -0.015194
  88 H :    0.002942
  89 H :    0.003677
  90 H :    0.011209
  91 H :    0.034586
Sum of atomic charges:   -0.0000000

LOEWDIN ATOMIC CHARGES
----------------------
   0 C :   -0.166266
   1 C :   -0.032663
   2 C :   -0.059677
   3 C :   -0.193189
   4 S :    0.487708
   5 C :   -0.158024
   6 C :   -0.074044
   7 C :    0.077367
   8 C :   -0.088695
   9 C :   -0.003238
  10 N :   -0.044474
  11 C :   -0.015375
  12 N :   -0.024421
  13 C :   -0.003386
  14 C :   -0.190143
  15 S :    0.528996
  16 C :    0.048928
  17 N :   -0.118238
  18 C :    0.048540
  19 C :   -0.047468
  20 C :    0.069047
  21 O :   -0.146475
  22 C :   -0.043516
  23 C :    0.015291
  24 N :   -0.096054
  25 C :    0.068777
  26 C :   -0.036151
  27 C :   -0.023795
  28 C :   -0.032628
  29 C :   -0.003769
  30 C :   -0.157325
  31 C :   -0.013960
  32 C :   -0.052016
  33 C :   -0.192317
  34 S :    0.501743
  35 C :   -0.155949
  36 C :   -0.075364
  37 C :    0.083144
  38 C :   -0.095087
  39 C :   -0.004731
  40 N :   -0.037826
  41 C :    0.001378
  42 N :   -0.042382
  43 C :   -0.001264
  44 C :   -0.186377
  45 S :    0.534069
  46 C :    0.048340
  47 N :   -0.123130
  48 C :    0.048837
  49 C :   -0.055296
  50 C :    0.068899
  51 O :   -0.150363
  52 C :   -0.044373
  53 C :    0.010943
  54 N :   -0.097656
  55 C :    0.063944
  56 C :   -0.039067
  57 C :   -0.019843
  58 C :   -0.046692
  59 C :    0.003120
  60 C :   -0.172490
  61 C :   -0.011484
  62 C :   -0.067151
  63 C :   -0.182093
  64 S :    0.490313
  65 C :   -0.183054
  66 C :   -0.075144
  67 C :    0.084551
  68 C :   -0.102921
  69 C :   -0.016297
  70 N :   -0.034423
  71 C :   -0.006855
  72 N :   -0.043321
  73 C :   -0.034178
  74 C :   -0.178254
  75 S :    0.476876
  76 H :    0.030365
  77 H :    0.044913
  78 H :    0.042606
  79 H :    0.022696
  80 H :    0.033749
  81 H :    0.029537
  82 H :    0.034826
  83 H :    0.036715
  84 H :    0.042395
  85 H :    0.021474
  86 H :    0.032211
  87 H :    0.027786
  88 H :    0.033892
  89 H :    0.036972
  90 H :    0.042397
  91 H :    0.027027

  Mayer bond orders larger than 0.100000
B(  0-C ,  1-C ) :   1.5360 B(  0-C ,  4-S ) :   1.1653 B(  0-C , 76-H ) :   0.9634
B(  1-C ,  2-C ) :   1.2875 B(  1-C , 77-H ) :   0.9974 B(  2-C ,  3-C ) :   1.4491
B(  2-C ,  7-C ) :   1.0105 B(  3-C ,  4-S ) :   1.1294 B(  3-C ,  5-C ) :   1.1958
B(  5-C ,  6-C ) :   1.4141 B(  5-C , 15-S ) :   1.1554 B(  6-C ,  7-C ) :   0.9949
B(  6-C , 13-C ) :   1.3325 B(  7-C ,  8-C ) :   1.7223 B(  8-C ,  9-C ) :   1.1422
B(  8-C , 11-C ) :   1.1344 B(  9-C , 10-N ) :   2.9247 B( 11-C , 12-N ) :   3.0032
B( 13-C , 14-C ) :   1.4215 B( 13-C , 78-H ) :   0.9823 B( 14-C , 15-S ) :   1.0920
B( 14-C , 16-C ) :   1.1328 B( 16-C , 17-N ) :   1.6228 B( 16-C , 18-C ) :   0.1236
B( 16-C , 27-C ) :   1.0319 B( 17-N , 18-C ) :   1.3559 B( 18-C , 19-C ) :   1.0566
B( 18-C , 23-C ) :   1.4042 B( 19-C , 20-C ) :   0.8993 B( 19-C , 27-C ) :   1.5484
B( 20-C , 21-O ) :   2.1954 B( 20-C , 22-C ) :   0.9285 B( 22-C , 23-C ) :   1.0720
B( 22-C , 26-C ) :   1.5932 B( 23-C , 24-N ) :   1.3202 B( 24-N , 25-C ) :   1.6481
B( 25-C , 26-C ) :   1.0796 B( 25-C , 79-H ) :   0.9893 B( 26-C , 80-H ) :   1.0102
B( 27-C , 28-C ) :   1.1192 B( 28-C , 29-C ) :   1.6775 B( 28-C , 81-H ) :   0.9556
B( 29-C , 30-C ) :   1.1115 B( 29-C , 82-H ) :   0.9505 B( 30-C , 31-C ) :   1.4286
B( 30-C , 34-S ) :   1.1222 B( 31-C , 32-C ) :   1.3289 B( 31-C , 83-H ) :   0.9820
B( 32-C , 33-C ) :   1.4178 B( 32-C , 37-C ) :   0.9937 B( 33-C , 34-S ) :   1.1222
B( 33-C , 35-C ) :   1.2065 B( 35-C , 36-C ) :   1.3913 B( 35-C , 45-S ) :   1.1560
B( 36-C , 37-C ) :   0.9976 B( 36-C , 43-C ) :   1.3360 B( 37-C , 38-C ) :   1.7124
B( 38-C , 39-C ) :   1.1438 B( 38-C , 41-C ) :   1.1458 B( 39-C , 40-N ) :   2.9352
B( 41-C , 42-N ) :   2.9473 B( 43-C , 44-C ) :   1.4226 B( 43-C , 84-H ) :   0.9793
B( 44-C , 45-S ) :   1.0868 B( 44-C , 46-C ) :   1.1367 B( 46-C , 47-N ) :   1.6136
B( 46-C , 48-C ) :   0.1224 B( 46-C , 57-C ) :   1.0320 B( 47-N , 48-C ) :   1.3631
B( 48-C , 49-C ) :   1.0588 B( 48-C , 53-C ) :   1.4010 B( 49-C , 50-C ) :   0.9021
B( 49-C , 57-C ) :   1.5422 B( 50-C , 51-O ) :   2.1929 B( 50-C , 52-C ) :   0.9269
B( 52-C , 53-C ) :   1.0771 B( 52-C , 56-C ) :   1.5927 B( 53-C , 54-N ) :   1.3219
B( 54-N , 55-C ) :   1.6482 B( 55-C , 56-C ) :   1.0818 B( 55-C , 85-H ) :   0.9896
B( 56-C , 86-H ) :   1.0099 B( 57-C , 58-C ) :   1.1230 B( 58-C , 59-C ) :   1.6709
B( 58-C , 87-H ) :   0.9540 B( 59-C , 60-C ) :   1.1154 B( 59-C , 88-H ) :   0.9510
B( 60-C , 61-C ) :   1.4426 B( 60-C , 64-S ) :   1.1057 B( 61-C , 62-C ) :   1.3183
B( 61-C , 89-H ) :   0.9830 B( 62-C , 63-C ) :   1.4358 B( 62-C , 67-C ) :   0.9991
B( 63-C , 64-S ) :   1.1370 B( 63-C , 65-C ) :   1.1861 B( 65-C , 66-C ) :   1.4575
B( 65-C , 75-S ) :   1.1368 B( 66-C , 67-C ) :   1.0160 B( 66-C , 73-C ) :   1.2771
B( 67-C , 68-C ) :   1.7067 B( 68-C , 69-C ) :   1.1312 B( 68-C , 71-C ) :   1.1420
B( 69-C , 70-N ) :   3.0018 B( 71-C , 72-N ) :   2.9564 B( 73-C , 74-C ) :   1.5478
B( 73-C , 90-H ) :   0.9961 B( 74-C , 75-S ) :   1.1499 B( 74-C , 91-H ) :   0.9645

-----------------------------------------------------------------------------
         ABSORPTION SPECTRUM VIA TRANSITION ELECTRIC DIPOLE MOMENTS
-----------------------------------------------------------------------------
State   Energy  Wavelength   fosc         T2         TX        TY        TZ
        (cm-1)    (nm)                  (au**2)     (au)      (au)      (au)
-----------------------------------------------------------------------------
   0   13338.5    749.7   0.439428313  10.84565   1.04279  -1.03173  -2.94852
   1   14020.6    713.2   0.163256889   3.83336   0.26242   1.91173  -0.33131
   2   14707.4    679.9   0.003279104   0.07340  -0.08381  -0.23374   0.10835
   3   15378.8    650.2   0.115730837   2.47744   0.66801  -0.13165  -1.41911
   4   17030.4    587.2   0.205698761   3.97633   0.81942   1.78191  -0.36012
   5   17985.0    556.0   0.055960448   1.02434   0.04207   1.01053   0.03737
   6   18812.5    531.6   0.946384301  16.56139   1.02387  -2.05718  -3.35873
   7   20017.8    499.6   0.066820746   1.09893  -0.44539  -0.88854   0.33325
   8   20499.8    487.8   0.561883375   9.02344   1.36006   2.22970  -1.48395
   9   21152.2    472.8   0.002647429   0.04120  -0.05162   0.17908   0.08044
  10   22347.9    447.5   0.006575809   0.09687  -0.02192   0.07521   0.30122
  11   22448.2    445.5   0.018728451   0.27466   0.17355   0.41595  -0.26744
  12   23694.3    422.0   0.021994404   0.30559   0.28741   0.41709  -0.22141
  13   23967.1    417.2   0.154987008   2.12890   0.45861   0.80780  -1.12519
  14   24246.1    412.4   0.044786288   0.60811   0.31769   0.06155  -0.70950
  15   24858.6    402.3   0.491820793   6.51337   0.35612   2.47895  -0.49129
  16   24924.4    401.2   0.131095589   1.73157   0.08594  -1.18495  -0.56576
  17   25256.2    395.9   0.140460041   1.83088   0.23954  -1.20244  -0.57240
  18   25477.8    392.5   0.054510035   0.70435   0.43788   0.03409  -0.71516
  19   26242.6    381.1   0.054190824   0.67982  -0.41843  -0.29740   0.64520
  20   26340.3    379.6   0.033821088   0.42271  -0.37546  -0.00878   0.53072
  21   26538.8    376.8   0.198918816   2.46757  -0.75380  -0.74601   1.15881
  22   27484.6    363.8   0.033116304   0.39667  -0.09261  -0.60588  -0.14490
  23   27711.6    360.9   0.181238345   2.15310   0.59907   0.90609  -0.98651
  24   28161.1    355.1   0.123386196   1.44242  -0.34597   0.87693   0.74413
  25   28336.8    352.9   0.013835141   0.16073   0.34830  -0.16166  -0.11528
  26   28755.4    347.8   0.080750192   0.92448   0.29560  -0.31194  -0.86011
  27   28996.9    344.9   0.033324464   0.37834  -0.24334  -0.26997   0.49623
  28   29371.5    340.5   0.088065424   0.98709  -0.37701  -0.60207  -0.69460
  29   29618.0    337.6   0.111597756   1.24044   0.03794   0.45185   1.01727
  30   30155.6    331.6   0.154146549   1.68283  -0.74728  -0.11390   1.05424
  31   30207.0    331.0   0.358078676   3.90253   0.55436   1.89609   0.00803
  32   30622.7    326.6   0.006203230   0.06669  -0.01176   0.08819   0.24243
  33   30750.5    325.2   0.060838904   0.65134   0.26158   0.71056  -0.27931
  34   30905.8    323.6   0.260388766   2.77369  -0.21258  -1.45299  -0.78569
  35   30931.5    323.3   0.220519716   2.34705  -0.41575  -1.44124   0.31147
  36   31032.0    322.2   0.023270685   0.24687   0.08132  -0.35989  -0.33278
  37   31472.7    317.7   0.003547587   0.03711  -0.05007  -0.16965   0.07629
  38   31755.3    314.9   0.037304914   0.38675  -0.44004  -0.39329   0.19604
  39   31843.9    314.0   0.399022949   4.12522   1.19751   0.79300  -1.43608
  40   31903.8    313.4   0.130002515   1.34148  -0.57109  -0.21704   0.98399
  41   32223.5    310.3   0.041045918   0.41935  -0.04191  -0.60294  -0.23248
  42   32338.0    309.2   0.591957048   6.02632   0.77601  -0.86263  -2.16333
  43   32441.8    308.2   0.182228487   1.84921   0.59972   0.83901   0.88634
  44   32624.1    306.5   0.121659719   1.22767   0.43745  -0.99733  -0.20404
  45   32980.1    303.2   0.043730777   0.43653   0.54295   0.35599  -0.12248
  46   33302.4    300.3   0.189090787   1.86926  -0.09904  -0.43794  -1.29138
  47   33599.2    297.6   0.118491953   1.16101   0.44762   0.64616   0.73697
  48   33829.9    295.6   0.083846044   0.81594   0.34948  -0.76936  -0.31920
  49   33884.9    295.1   0.051548946   0.50083  -0.07214   0.35332   0.60892
  50   33973.8    294.3   0.098063122   0.95025  -0.10157   0.49025   0.83641
  51   34224.1    292.2   0.070192471   0.67520   0.20087   0.31474  -0.73198
  52   34323.0    291.4   0.132783279   1.27360  -0.34643  -0.58058   0.90361
  53   34360.9    291.0   0.082036503   0.78599   0.39112   0.76878  -0.20492
  54   34558.9    289.4   0.061094292   0.58199  -0.19748  -0.63457   0.37459
  55   34786.9    287.5   0.168227212   1.59205   0.22494   1.23817  -0.09160
  56   34856.7    286.9   0.117862789   1.11318   0.48280   0.73166  -0.58717
  57   34990.3    285.8   0.194813133   1.83293   0.34926   0.93516  -0.91456
  58   35102.5    284.9   0.157392414   1.47612   0.31211   1.07677   0.46825
  59   35772.4    279.5   0.002047805   0.01885   0.02793   0.01307   0.13377
  60   35920.2    278.4   0.047483554   0.43519  -0.36583  -0.40590   0.36961
  61   36194.8    276.3   0.004352228   0.03959  -0.08746  -0.16123   0.07709
  62   36624.1    273.0   0.005548333   0.04987  -0.04829  -0.03026  -0.21593
  63   36764.1    272.0   0.011912827   0.10668   0.00408   0.32617   0.01656
  64   36920.7    270.9   0.012547233   0.11188   0.09261  -0.28215  -0.15393
  65   36993.9    270.3   0.035487562   0.31581   0.24902   0.31859  -0.39025
  66   37096.4    269.6   0.018673060   0.16571  -0.23461  -0.08557   0.32148
  67   37237.3    268.5   0.049097707   0.43407   0.25780   0.57808   0.18285
  68   37299.2    268.1   0.015796186   0.13942   0.25336   0.09408  -0.25764
  69   37588.5    266.0   0.058314471   0.51074   0.24006  -0.10756  -0.66448
  70   37668.0    265.5   0.006139169   0.05366  -0.04661   0.05702   0.21962
  71   37753.9    264.9   0.038480264   0.33555  -0.32803  -0.38476   0.28266
  72   37883.5    264.0   0.000626043   0.00544  -0.04498   0.05451   0.02111
  73   38186.8    261.9   0.002435316   0.02100  -0.01425   0.09311   0.11010
  74   38274.1    261.3   0.009653391   0.08303   0.17608   0.12045  -0.19370
  75   38327.0    260.9   0.039203573   0.33674  -0.17992   0.35558   0.42182
  76   38479.1    259.9   0.004755792   0.04069  -0.03995  -0.04167   0.19328
  77   38598.3    259.1   0.005570016   0.04751  -0.04494  -0.15701  -0.14434
  78   38657.4    258.7   0.000736873   0.00628   0.04374   0.06453  -0.01406
  79   38922.2    256.9   0.017015361   0.14392   0.20159   0.04619  -0.31803
  80   39085.4    255.8   0.110956133   0.93457  -0.25750  -0.91189   0.19163
  81   39136.2    255.5   0.092024025   0.77410   0.10820  -0.80318  -0.34248
  82   39309.8    254.4   0.001164399   0.00975   0.09622   0.00687  -0.02112
  83   39455.7    253.4   0.051945003   0.43342  -0.27488  -0.43634   0.40923
  84   39572.8    252.7   0.032148439   0.26745   0.02440  -0.30505  -0.41689
  85   39724.6    251.7   0.038927725   0.32261   0.10685   0.55610   0.04412
  86   39791.1    251.3   0.002703992   0.02237   0.10792  -0.04777  -0.09189
  87   39926.8    250.5   0.005933113   0.04892   0.05574   0.19286  -0.09283
  88   40228.1    248.6   0.019647614   0.16079  -0.16923  -0.06679   0.35734
  89   40308.5    248.1   0.006397880   0.05225  -0.17979   0.02306   0.13927

FINAL SINGLE POINT ENERGY     -5302.164687265797

DIPOLE MOMENT
-------------
                                X             Y             Z
Electronic contribution:      0.70154       6.08579       3.66595
Nuclear contribution   :      0.24639      -5.02290      -2.92645
                        -----------------------------------------
Total Dipole Moment    :      0.94793       1.06289       0.73950
                        -----------------------------------------
Magnitude (a.u.)       :      1.60474
Magnitude (Debye)      :      4.07891

Rotational constants in cm-1:     0.000933     0.000379     0.000275
Rotational constants in MHz :    27.962089    11.360882     8.240652

                             ****ORCA TERMINATED NORMALLY****
TOTAL RUN TIME: 0 days 0 hours 10 minutes 19 seconds 590 msec
