                         Program Version 4.2.0 -  RELEASE  -
|  1> # ORCA input file
|  2> # SCF done       -183.182181728690          0.000803397131
|  3> ! CAM-B3LYP def2-SVP def2/J RIJCOSX Grid4 TightSCF
|  4> %maxcore 5000
|  5> %tddft
|  6>     Mode sTDDFT
|  7>     Ethresh 5.0
|  8>     maxcore 5000
|  9> end
| 10>
| 11> %pal
| 12>   nprocs 6
| 13>   end
| 14> * xyz 0 1
| 15>    C        5.34783        10.67241        10.28838
| 16>    C        6.27074        10.45207         9.31444
| 17>    C        5.71465         9.75329         8.22421
| 18>    C        4.35580         9.46069         8.41366
| 19>    S        3.77474        10.04007         9.91487
| 20>    C        3.88031         8.75719         7.27738
| 21>    C        4.94151         8.60644         6.37216
| 22>    C        6.13022         9.23286         6.94096
| 23>    C        7.37021         9.30810         6.36908
| 24>    C        7.64506         8.75788         5.10160
| 25>    N        7.87077         8.31059         4.06928
| 26>    C        8.45396         9.94258         7.00818
| 27>    N        9.34038        10.45811         7.52275
| 28>    C        4.58078         7.91936         5.21591
| 29>    C        3.24887         7.54066         5.22410
| 30>    S        2.43163         8.05238         6.70057
| 31>    C        2.54211         6.82394         4.21905
| 32>    C        1.20673         6.51117         4.32833
| 33>    C        0.46908         5.81001         3.38109
| 34>    C        1.08614         5.33180         2.14330
| 35>    C        2.38356         5.52463         1.82092
| 36>    S        3.50362         6.35977         2.81814
| 37>    C        0.04261         4.67150         1.43725
| 38>    C       -1.14631         4.72715         2.16794
| 39>    C       -2.20153         4.07566         1.48999
| 40>    C       -1.79529         3.56022         0.29998
| 41>    S       -0.12577         3.83755        -0.05415
| 42>    C       -0.89784         5.44234         3.39749
| 43>    C       -1.77602         5.75456         4.44734
| 44>    C       -3.10675         5.45174         4.52761
| 45>    C       -3.95151         5.79259         5.59499
| 46>    S       -5.63385         5.32014         5.50110
| 47>    C       -6.04539         6.03574         7.04216
| 48>    C       -4.90200         6.60023         7.59035
| 49>    C       -3.72585         6.48193         6.79856
| 50>    C       -2.62074         7.10907         7.41660
| 51>    C       -2.93408         7.67310         8.61905
| 52>    C       -2.07045         8.41711         9.52683
| 53>    O       -2.42461         8.87596        10.58849
| 54>    O       -0.82469         8.54041         9.03865
| 55>    C        0.08435         9.27191         9.84652
| 56>    S       -4.60719         7.46107         9.06864
| 57>    C       -7.37185         6.03253         7.54137
| 58>    C       -7.68854         6.59157         8.75805
| 59>    C       -8.96662         6.68314         9.29337
| 60>    C      -10.10664         6.00834         8.65921
| 61>    C      -10.03270         5.39386         7.45931
| 62>    S       -8.60293         5.31425         6.50440
| 63>    C      -11.18122         6.15822         9.58024
| 64>    C      -10.75054         6.87908        10.69816
| 65>    C      -11.78411         7.06600        11.64253
| 66>    C      -12.94526         6.49440        11.23069
| 67>    S      -12.83778         5.71408         9.68708
| 68>    C       -9.37405         7.24753        10.51831
| 69>    C       -8.57117         8.01297        11.40364
| 70>    C       -7.50651         8.74671        10.98137
| 71>    C       -6.50987         9.34824        11.78501
| 72>    C       -6.30066         9.28493        13.15517
| 73>    C       -5.10486         9.89396        13.52774
| 74>    C       -4.39420        10.42527        12.43936
| 75>    S       -5.20605        10.19980        10.96397
| 76>    C       -3.17430        10.96875        12.92107
| 77>    C       -3.11964        10.79241        14.31005
| 78>    C       -4.32726        10.11961        14.74220
| 79>    C       -4.67397         9.76473        16.01486
| 80>    C       -3.84655        10.03403        17.12379
| 81>    N       -3.17995        10.25237        18.03165
| 82>    C       -5.88692         9.10959        16.30715
| 83>    N       -6.87339         8.57873        16.55437
| 84>    C       -1.92681        11.29278        14.86846
| 85>    C       -1.11606        11.82233        13.91240
| 86>    S       -1.77682        11.72620        12.30910
| 87>    H        5.48351        11.17442        11.22516
| 88>    H        7.29401        10.77405         9.37847
| 89>    H        5.24402         7.69775         4.39921
| 90>    H        0.71221         6.84695         5.23046
| 91>    H        2.81563         5.16306         0.90139
| 92>    H       -3.21154         3.98022         1.84313
| 93>    H       -2.38474         3.01899        -0.41405
| 94>    H       -1.33456         6.29545         5.26865
| 95>    H       -3.57750         4.91216         3.72013
| 96>    H       -1.62379         7.16695         7.02405
| 97>    H        1.05470         9.18314         9.36462
| 98>    H        0.11632         8.85725        10.85612
| 99>    H       -0.21962        10.31944         9.90606
|100>    H       -6.86907         6.95609         9.35590
|101>    H      -10.87918         4.91236         6.99577
|102>    H      -11.67686         7.59071        12.57436
|103>    H      -13.88779         6.47733        11.74214
|104>    H       -8.83890         7.99838        12.45142
|105>    H       -7.37014         8.88753         9.91810
|106>    H       -6.98136         8.80062        13.83088
|107>    H       -1.67862        11.26313        15.91391
|108>    H       -0.15234        12.27234        14.04271
|109> *
|110>
|111>                          ****END OF INPUT****

CARTESIAN COORDINATES (ANGSTROEM)
---------------------------------
  C      5.347830   10.672410   10.288380
  C      6.270740   10.452070    9.314440
  C      5.714650    9.753290    8.224210
  C      4.355800    9.460690    8.413660
  S      3.774740   10.040070    9.914870
  C      3.880310    8.757190    7.277380
  C      4.941510    8.606440    6.372160
  C      6.130220    9.232860    6.940960
  C      7.370210    9.308100    6.369080
  C      7.645060    8.757880    5.101600
  N      7.870770    8.310590    4.069280
  C      8.453960    9.942580    7.008180
  N      9.340380   10.458110    7.522750
  C      4.580780    7.919360    5.215910
  C      3.248870    7.540660    5.224100
  S      2.431630    8.052380    6.700570
  C      2.542110    6.823940    4.219050
  C      1.206730    6.511170    4.328330
  C      0.469080    5.810010    3.381090
  C      1.086140    5.331800    2.143300
  C      2.383560    5.524630    1.820920
  S      3.503620    6.359770    2.818140
  C      0.042610    4.671500    1.437250
  C     -1.146310    4.727150    2.167940
  C     -2.201530    4.075660    1.489990
  C     -1.795290    3.560220    0.299980
  S     -0.125770    3.837550   -0.054150
  C     -0.897840    5.442340    3.397490
  C     -1.776020    5.754560    4.447340
  C     -3.106750    5.451740    4.527610
  C     -3.951510    5.792590    5.594990
  S     -5.633850    5.320140    5.501100
  C     -6.045390    6.035740    7.042160
  C     -4.902000    6.600230    7.590350
  C     -3.725850    6.481930    6.798560
  C     -2.620740    7.109070    7.416600
  C     -2.934080    7.673100    8.619050
  C     -2.070450    8.417110    9.526830
  O     -2.424610    8.875960   10.588490
  O     -0.824690    8.540410    9.038650
  C      0.084350    9.271910    9.846520
  S     -4.607190    7.461070    9.068640
  C     -7.371850    6.032530    7.541370
  C     -7.688540    6.591570    8.758050
  C     -8.966620    6.683140    9.293370
  C    -10.106640    6.008340    8.659210
  C    -10.032700    5.393860    7.459310
  S     -8.602930    5.314250    6.504400
  C    -11.181220    6.158220    9.580240
  C    -10.750540    6.879080   10.698160
  C    -11.784110    7.066000   11.642530
  C    -12.945260    6.494400   11.230690
  S    -12.837780    5.714080    9.687080
  C     -9.374050    7.247530   10.518310
  C     -8.571170    8.012970   11.403640
  C     -7.506510    8.746710   10.981370
  C     -6.509870    9.348240   11.785010
  C     -6.300660    9.284930   13.155170
  C     -5.104860    9.893960   13.527740
  C     -4.394200   10.425270   12.439360
  S     -5.206050   10.199800   10.963970
  C     -3.174300   10.968750   12.921070
  C     -3.119640   10.792410   14.310050
  C     -4.327260   10.119610   14.742200
  C     -4.673970    9.764730   16.014860
  C     -3.846550   10.034030   17.123790
  N     -3.179950   10.252370   18.031650
  C     -5.886920    9.109590   16.307150
  N     -6.873390    8.578730   16.554370
  C     -1.926810   11.292780   14.868460
  C     -1.116060   11.822330   13.912400
  S     -1.776820   11.726200   12.309100
  H      5.483510   11.174420   11.225160
  H      7.294010   10.774050    9.378470
  H      5.244020    7.697750    4.399210
  H      0.712210    6.846950    5.230460
  H      2.815630    5.163060    0.901390
  H     -3.211540    3.980220    1.843130
  H     -2.384740    3.018990   -0.414050
  H     -1.334560    6.295450    5.268650
  H     -3.577500    4.912160    3.720130
  H     -1.623790    7.166950    7.024050
  H      1.054700    9.183140    9.364620
  H      0.116320    8.857250   10.856120
  H     -0.219620   10.319440    9.906060
  H     -6.869070    6.956090    9.355900
  H    -10.879180    4.912360    6.995770
  H    -11.676860    7.590710   12.574360
  H    -13.887790    6.477330   11.742140
  H     -8.838900    7.998380   12.451420
  H     -7.370140    8.887530    9.918100
  H     -6.981360    8.800620   13.830880
  H     -1.678620   11.263130   15.913910
  H     -0.152340   12.272340   14.042710

 Total Charge           Charge          ....    0
 Multiplicity           Mult            ....    1
 Number of Electrons    NEL             ....  562
 Basis Dimension        Dim             .... 1158

ORBITAL ENERGIES
----------------

  NO   OCC          E(Eh)            E(eV)
   0   2.0000     -88.997639     -2421.7489
   1   2.0000     -88.995590     -2421.6931
   2   2.0000     -88.983626     -2421.3676
   3   2.0000     -88.972953     -2421.0771
   4   2.0000     -88.968561     -2420.9576
   5   2.0000     -88.968355     -2420.9520
   6   2.0000     -88.966313     -2420.8964
   7   2.0000     -88.963488     -2420.8196
   8   2.0000     -88.963102     -2420.8091
   9   2.0000     -88.949828     -2420.4479
  10   2.0000     -19.272560      -524.4330
  11   2.0000     -19.216005      -522.8941
  12   2.0000     -14.434488      -392.7824
  13   2.0000     -14.433757      -392.7625
  14   2.0000     -14.414899      -392.2493
  15   2.0000     -14.414541      -392.2396
  16   2.0000     -10.415236      -283.4130
  17   2.0000     -10.368810      -282.1497
  18   2.0000     -10.355857      -281.7972
  19   2.0000     -10.345365      -281.5117
  20   2.0000     -10.337205      -281.2897
  21   2.0000     -10.336697      -281.2758
  22   2.0000     -10.336449      -281.2691
  23   2.0000     -10.335423      -281.2412
  24   2.0000     -10.335036      -281.2306
  25   2.0000     -10.334889      -281.2266
  26   2.0000     -10.334720      -281.2220
  27   2.0000     -10.334183      -281.2074
  28   2.0000     -10.333772      -281.1962
  29   2.0000     -10.321746      -280.8690
  30   2.0000     -10.320066      -280.8233
  31   2.0000     -10.318491      -280.7804
  32   2.0000     -10.317872      -280.7636
  33   2.0000     -10.316165      -280.7171
  34   2.0000     -10.316091      -280.7151
  35   2.0000     -10.315803      -280.7073
  36   2.0000     -10.313776      -280.6521
  37   2.0000     -10.312646      -280.6214
  38   2.0000     -10.309523      -280.5364
  39   2.0000     -10.307928      -280.4930
  40   2.0000     -10.307132      -280.4713
  41   2.0000     -10.306561      -280.4558
  42   2.0000     -10.305236      -280.4197
  43   2.0000     -10.305187      -280.4184
  44   2.0000     -10.304862      -280.4095
  45   2.0000     -10.303360      -280.3687
  46   2.0000     -10.302157      -280.3360
  47   2.0000     -10.300977      -280.3038
  48   2.0000     -10.300561      -280.2925
  49   2.0000     -10.296728      -280.1882
  50   2.0000     -10.294407      -280.1250
  51   2.0000     -10.294197      -280.1193
  52   2.0000     -10.292308      -280.0679
  53   2.0000     -10.291355      -280.0420
  54   2.0000     -10.289805      -279.9998
  55   2.0000     -10.287178      -279.9283
  56   2.0000     -10.285948      -279.8949
  57   2.0000     -10.285471      -279.8819
  58   2.0000     -10.284218      -279.8478
  59   2.0000     -10.283773      -279.8357
  60   2.0000     -10.282177      -279.7923
  61   2.0000     -10.282106      -279.7903
  62   2.0000     -10.281448      -279.7724
  63   2.0000     -10.281221      -279.7662
  64   2.0000     -10.280123      -279.7364
  65   2.0000     -10.277892      -279.6757
  66   2.0000     -10.276579      -279.6399
  67   2.0000     -10.273299      -279.5507
  68   2.0000     -10.272231      -279.5216
  69   2.0000     -10.267866      -279.4028
  70   2.0000     -10.267355      -279.3889
  71   2.0000     -10.266313      -279.3606
  72   2.0000      -8.091272      -220.1747
  73   2.0000      -8.089927      -220.1381
  74   2.0000      -8.078724      -219.8332
  75   2.0000      -8.067782      -219.5355
  76   2.0000      -8.063846      -219.4284
  77   2.0000      -8.063560      -219.4206
  78   2.0000      -8.060670      -219.3420
  79   2.0000      -8.058615      -219.2861
  80   2.0000      -8.057648      -219.2597
  81   2.0000      -8.045266      -218.9228
  82   2.0000      -6.060610      -164.9176
  83   2.0000      -6.059266      -164.8810
  84   2.0000      -6.056548      -164.8070
  85   2.0000      -6.054804      -164.7596
  86   2.0000      -6.053559      -164.7257
  87   2.0000      -6.052582      -164.6991
  88   2.0000      -6.048412      -164.5857
  89   2.0000      -6.043766      -164.4592
  90   2.0000      -6.040489      -164.3701
  91   2.0000      -6.037040      -164.2762
  92   2.0000      -6.033508      -164.1801
  93   2.0000      -6.032934      -164.1645
  94   2.0000      -6.032669      -164.1573
  95   2.0000      -6.030371      -164.0947
  96   2.0000      -6.029797      -164.0791
  97   2.0000      -6.029029      -164.0582
  98   2.0000      -6.028760      -164.0509
  99   2.0000      -6.028028      -164.0310
 100   2.0000      -6.027453      -164.0153
 101   2.0000      -6.025713      -163.9680
 102   2.0000      -6.025635      -163.9659
 103   2.0000      -6.025456      -163.9610
 104   2.0000      -6.023768      -163.9151
 105   2.0000      -6.023234      -163.9005
 106   2.0000      -6.023121      -163.8975
 107   2.0000      -6.020680      -163.8310
 108   2.0000      -6.019007      -163.7855
 109   2.0000      -6.014725      -163.6690
 110   2.0000      -6.010472      -163.5533
 111   2.0000      -6.007271      -163.4661
 112   2.0000      -1.202869       -32.7317
 113   2.0000      -1.109110       -30.1804
 114   2.0000      -1.048605       -28.5340
 115   2.0000      -1.025755       -27.9122
 116   2.0000      -1.024405       -27.8755
 117   2.0000      -1.016233       -27.6531
 118   2.0000      -1.014576       -27.6080
 119   2.0000      -1.011168       -27.5153
 120   2.0000      -1.005550       -27.3624
 121   2.0000      -1.002292       -27.2737
 122   2.0000      -0.997711       -27.1491
 123   2.0000      -0.992542       -27.0084
 124   2.0000      -0.977847       -26.6086
 125   2.0000      -0.975593       -26.5472
 126   2.0000      -0.968300       -26.3488
 127   2.0000      -0.959641       -26.1131
 128   2.0000      -0.953054       -25.9339
 129   2.0000      -0.939905       -25.5761
 130   2.0000      -0.935982       -25.4694
 131   2.0000      -0.922610       -25.1055
 132   2.0000      -0.917646       -24.9704
 133   2.0000      -0.906317       -24.6622
 134   2.0000      -0.895942       -24.3798
 135   2.0000      -0.892136       -24.2762
 136   2.0000      -0.880308       -23.9544
 137   2.0000      -0.872135       -23.7320
 138   2.0000      -0.867396       -23.6030
 139   2.0000      -0.859785       -23.3959
 140   2.0000      -0.857204       -23.3257
 141   2.0000      -0.850551       -23.1447
 142   2.0000      -0.845291       -23.0015
 143   2.0000      -0.840497       -22.8711
 144   2.0000      -0.834282       -22.7020
 145   2.0000      -0.833217       -22.6730
 146   2.0000      -0.827970       -22.5302
 147   2.0000      -0.817831       -22.2543
 148   2.0000      -0.808431       -21.9985
 149   2.0000      -0.800190       -21.7743
 150   2.0000      -0.793215       -21.5845
 151   2.0000      -0.788033       -21.4435
 152   2.0000      -0.782888       -21.3035
 153   2.0000      -0.770463       -20.9654
 154   2.0000      -0.759819       -20.6757
 155   2.0000      -0.754402       -20.5283
 156   2.0000      -0.736549       -20.0425
 157   2.0000      -0.734913       -19.9980
 158   2.0000      -0.724701       -19.7201
 159   2.0000      -0.721468       -19.6322
 160   2.0000      -0.707809       -19.2605
 161   2.0000      -0.706201       -19.2167
 162   2.0000      -0.691415       -18.8144
 163   2.0000      -0.686639       -18.6844
 164   2.0000      -0.682400       -18.5690
 165   2.0000      -0.677456       -18.4345
 166   2.0000      -0.675817       -18.3899
 167   2.0000      -0.662418       -18.0253
 168   2.0000      -0.659023       -17.9329
 169   2.0000      -0.656335       -17.8598
 170   2.0000      -0.651407       -17.7257
 171   2.0000      -0.645633       -17.5686
 172   2.0000      -0.643759       -17.5176
 173   2.0000      -0.638365       -17.3708
 174   2.0000      -0.631880       -17.1943
 175   2.0000      -0.628457       -17.1012
 176   2.0000      -0.624397       -16.9907
 177   2.0000      -0.619422       -16.8553
 178   2.0000      -0.612681       -16.6719
 179   2.0000      -0.611302       -16.6344
 180   2.0000      -0.604675       -16.4540
 181   2.0000      -0.598053       -16.2738
 182   2.0000      -0.592358       -16.1189
 183   2.0000      -0.588257       -16.0073
 184   2.0000      -0.582785       -15.8584
 185   2.0000      -0.582457       -15.8495
 186   2.0000      -0.579800       -15.7772
 187   2.0000      -0.576759       -15.6944
 188   2.0000      -0.568882       -15.4801
 189   2.0000      -0.568474       -15.4690
 190   2.0000      -0.561141       -15.2694
 191   2.0000      -0.557816       -15.1789
 192   2.0000      -0.550963       -14.9925
 193   2.0000      -0.550035       -14.9672
 194   2.0000      -0.547107       -14.8875
 195   2.0000      -0.541743       -14.7416
 196   2.0000      -0.537167       -14.6171
 197   2.0000      -0.532720       -14.4960
 198   2.0000      -0.529332       -14.4038
 199   2.0000      -0.527170       -14.3450
 200   2.0000      -0.521834       -14.1998
 201   2.0000      -0.521532       -14.1916
 202   2.0000      -0.519356       -14.1324
 203   2.0000      -0.518051       -14.0969
 204   2.0000      -0.515744       -14.0341
 205   2.0000      -0.508982       -13.8501
 206   2.0000      -0.507942       -13.8218
 207   2.0000      -0.506360       -13.7788
 208   2.0000      -0.501141       -13.6367
 209   2.0000      -0.500150       -13.6098
 210   2.0000      -0.497894       -13.5484
 211   2.0000      -0.496737       -13.5169
 212   2.0000      -0.494312       -13.4509
 213   2.0000      -0.493017       -13.4157
 214   2.0000      -0.490971       -13.3600
 215   2.0000      -0.486010       -13.2250
 216   2.0000      -0.485694       -13.2164
 217   2.0000      -0.479078       -13.0364
 218   2.0000      -0.477958       -13.0059
 219   2.0000      -0.474493       -12.9116
 220   2.0000      -0.471221       -12.8226
 221   2.0000      -0.466932       -12.7059
 222   2.0000      -0.465120       -12.6566
 223   2.0000      -0.463749       -12.6192
 224   2.0000      -0.462667       -12.5898
 225   2.0000      -0.461076       -12.5465
 226   2.0000      -0.459011       -12.4903
 227   2.0000      -0.458787       -12.4842
 228   2.0000      -0.456569       -12.4239
 229   2.0000      -0.455506       -12.3950
 230   2.0000      -0.451682       -12.2909
 231   2.0000      -0.447693       -12.1823
 232   2.0000      -0.447434       -12.1753
 233   2.0000      -0.446210       -12.1420
 234   2.0000      -0.444334       -12.0909
 235   2.0000      -0.443814       -12.0768
 236   2.0000      -0.443520       -12.0688
 237   2.0000      -0.442335       -12.0365
 238   2.0000      -0.440396       -11.9838
 239   2.0000      -0.438438       -11.9305
 240   2.0000      -0.436910       -11.8889
 241   2.0000      -0.436411       -11.8754
 242   2.0000      -0.432092       -11.7578
 243   2.0000      -0.430902       -11.7254
 244   2.0000      -0.428115       -11.6496
 245   2.0000      -0.425719       -11.5844
 246   2.0000      -0.424804       -11.5595
 247   2.0000      -0.424151       -11.5417
 248   2.0000      -0.423011       -11.5107
 249   2.0000      -0.421447       -11.4682
 250   2.0000      -0.419692       -11.4204
 251   2.0000      -0.419206       -11.4072
 252   2.0000      -0.416521       -11.3341
 253   2.0000      -0.412283       -11.2188
 254   2.0000      -0.408519       -11.1164
 255   2.0000      -0.406700       -11.0669
 256   2.0000      -0.404032       -10.9943
 257   2.0000      -0.401146       -10.9157
 258   2.0000      -0.400438       -10.8965
 259   2.0000      -0.394046       -10.7225
 260   2.0000      -0.389296       -10.5933
 261   2.0000      -0.373555       -10.1650
 262   2.0000      -0.367626       -10.0036
 263   2.0000      -0.366965        -9.9856
 264   2.0000      -0.363164        -9.8822
 265   2.0000      -0.353558        -9.6208
 266   2.0000      -0.349535        -9.5113
 267   2.0000      -0.338028        -9.1982
 268   2.0000      -0.332864        -9.0577
 269   2.0000      -0.326045        -8.8721
 270   2.0000      -0.324684        -8.8351
 271   2.0000      -0.319235        -8.6868
 272   2.0000      -0.315778        -8.5928
 273   2.0000      -0.302977        -8.2444
 274   2.0000      -0.300740        -8.1836
 275   2.0000      -0.293984        -7.9997
 276   2.0000      -0.278050        -7.5661
 277   2.0000      -0.271826        -7.3968
 278   2.0000      -0.258564        -7.0359
 279   2.0000      -0.231945        -6.3116
 280   2.0000      -0.205228        -5.5846
 281   0.0000      -0.109923        -2.9912
 282   0.0000      -0.087614        -2.3841
 283   0.0000      -0.081311        -2.2126
 284   0.0000      -0.049698        -1.3524
 285   0.0000      -0.037499        -1.0204

MULLIKEN ATOMIC CHARGES
-----------------------
   0 C :   -0.066834
   1 C :    0.037894
   2 C :   -0.034813
   3 C :   -0.111873
   4 S :    0.154584
   5 C :   -0.095278
   6 C :    0.020753
   7 C :    0.298100
   8 C :   -0.296457
   9 C :   -0.186240
  10 N :    0.174080
  11 C :   -0.189502
  12 N :    0.177376
  13 C :   -0.058717
  14 C :   -0.058859
  15 S :    0.152129
  16 C :   -0.016617
  17 C :   -0.091032
  18 C :    0.057118
  19 C :    0.065156
  20 C :   -0.120684
  21 S :    0.133606
  22 C :   -0.113027
  23 C :    0.053013
  24 C :   -0.008808
  25 C :   -0.065416
  26 S :    0.133842
  27 C :    0.099889
  28 C :   -0.003229
  29 C :    0.051507
  30 C :   -0.104246
  31 S :    0.141026
  32 C :   -0.126508
  33 C :   -0.046630
  34 C :    0.131825
  35 C :    0.006353
  36 C :   -0.127337
  37 C :    0.216255
  38 O :   -0.211510
  39 O :   -0.308085
  40 C :    0.203611
  41 S :    0.125730
  42 C :   -0.036611
  43 C :   -0.094906
  44 C :    0.039081
  45 C :    0.071218
  46 C :   -0.133785
  47 S :    0.116487
  48 C :   -0.114353
  49 C :    0.063373
  50 C :    0.011390
  51 C :   -0.071780
  52 S :    0.123187
  53 C :    0.059581
  54 C :   -0.027490
  55 C :    0.020187
  56 C :   -0.088328
  57 C :   -0.028814
  58 C :   -0.005072
  59 C :   -0.089388
  60 S :    0.188599
  61 C :   -0.088362
  62 C :   -0.043606
  63 C :    0.303155
  64 C :   -0.307753
  65 C :   -0.191801
  66 N :    0.163138
  67 C :   -0.185805
  68 N :    0.161656
  69 C :    0.034948
  70 C :   -0.090943
  71 S :    0.165135
  72 H :    0.037684
  73 H :    0.014112
  74 H :    0.021820
  75 H :   -0.009164
  76 H :    0.039255
  77 H :   -0.009866
  78 H :    0.027755
  79 H :   -0.087573
  80 H :   -0.055825
  81 H :   -0.009753
  82 H :    0.006305
  83 H :    0.040393
  84 H :    0.030525
  85 H :   -0.012621
  86 H :    0.033942
  87 H :   -0.016127
  88 H :    0.025306
  89 H :   -0.007827
  90 H :   -0.012123
  91 H :   -0.000027
  92 H :    0.006759
  93 H :    0.022567
Sum of atomic charges:   -0.0000000

LOEWDIN ATOMIC CHARGES
----------------------
   0 C :   -0.175556
   1 C :   -0.031519
   2 C :   -0.077051
   3 C :   -0.181021
   4 S :    0.471672
   5 C :   -0.181596
   6 C :   -0.066619
   7 C :    0.082758
   8 C :   -0.100464
   9 C :   -0.016160
  10 N :   -0.032264
  11 C :   -0.017261
  12 N :   -0.030104
  13 C :   -0.040015
  14 C :   -0.178472
  15 S :    0.473843
  16 C :   -0.180066
  17 C :   -0.032438
  18 C :   -0.017889
  19 C :   -0.049286
  20 C :   -0.137874
  21 S :    0.461998
  22 C :   -0.198593
  23 C :   -0.037547
  24 C :   -0.065571
  25 C :   -0.164220
  26 S :    0.428672
  27 C :   -0.046494
  28 C :   -0.010945
  29 C :   -0.062311
  30 C :   -0.149985
  31 S :    0.443840
  32 C :   -0.218450
  33 C :   -0.179565
  34 C :   -0.084173
  35 C :   -0.010770
  36 C :   -0.209565
  37 C :    0.070830
  38 O :   -0.188205
  39 O :   -0.095399
  40 C :    0.078924
  41 S :    0.443214
  42 C :   -0.188557
  43 C :   -0.032665
  44 C :   -0.021123
  45 C :   -0.049012
  46 C :   -0.141211
  47 S :    0.425228
  48 C :   -0.205225
  49 C :   -0.040127
  50 C :   -0.062160
  51 C :   -0.166367
  52 S :    0.417603
  53 C :   -0.050138
  54 C :   -0.012362
  55 C :   -0.059024
  56 C :   -0.162398
  57 C :   -0.034741
  58 C :   -0.068045
  59 C :   -0.188883
  60 S :    0.488463
  61 C :   -0.164930
  62 C :   -0.085307
  63 C :    0.088617
  64 C :   -0.114337
  65 C :   -0.016209
  66 N :   -0.044079
  67 C :   -0.015225
  68 N :   -0.044324
  69 C :   -0.035749
  70 C :   -0.192315
  71 S :    0.472110
  72 H :    0.028417
  73 H :    0.043706
  74 H :    0.035229
  75 H :    0.024764
  76 H :    0.038168
  77 H :    0.029129
  78 H :    0.024550
  79 H :    0.023153
  80 H :    0.024816
  81 H :    0.030594
  82 H :    0.005526
  83 H :    0.025988
  84 H :    0.018327
  85 H :    0.019338
  86 H :    0.035260
  87 H :    0.031642
  88 H :    0.022709
  89 H :    0.029886
  90 H :    0.024073
  91 H :    0.036758
  92 H :    0.040451
  93 H :    0.021705

  Mayer bond orders larger than 0.100000
B(  0-C ,  1-C ) :   1.5592 B(  0-C ,  4-S ) :   1.1403 B(  0-C , 72-H ) :   0.9632
B(  1-C ,  2-C ) :   1.2726 B(  1-C , 73-H ) :   0.9948 B(  2-C ,  3-C ) :   1.4561
B(  2-C ,  7-C ) :   1.0202 B(  3-C ,  4-S ) :   1.1351 B(  3-C ,  5-C ) :   1.1844
B(  5-C ,  6-C ) :   1.4621 B(  5-C , 15-S ) :   1.1218 B(  6-C ,  7-C ) :   0.9938
B(  6-C , 13-C ) :   1.3028 B(  7-C ,  8-C ) :   1.7076 B(  8-C ,  9-C ) :   1.1373
B(  8-C , 11-C ) :   1.1310 B(  9-C , 10-N ) :   2.9872 B( 11-C , 12-N ) :   3.0017
B( 13-C , 14-C ) :   1.4558 B( 13-C , 74-H ) :   0.9790 B( 14-C , 15-S ) :   1.1027
B( 14-C , 16-C ) :   1.1703 B( 16-C , 17-C ) :   1.5201 B( 16-C , 21-S ) :   1.0556
B( 17-C , 18-C ) :   1.2622 B( 17-C , 75-H ) :   0.9582 B( 18-C , 19-C ) :   1.0515
B( 18-C , 27-C ) :   1.3530 B( 19-C , 20-C ) :   1.6109 B( 19-C , 22-C ) :   1.1723
B( 20-C , 21-S ) :   1.1347 B( 20-C , 76-H ) :   0.9405 B( 22-C , 23-C ) :   1.4566
B( 22-C , 26-S ) :   1.0817 B( 23-C , 24-C ) :   1.2128 B( 23-C , 27-C ) :   1.0598
B( 24-C , 25-C ) :   1.5880 B( 24-C , 77-H ) :   1.0011 B( 25-C , 26-S ) :   1.1583
B( 25-C , 78-H ) :   0.9642 B( 27-C , 28-C ) :   1.2331 B( 28-C , 29-C ) :   1.5640
B( 28-C , 79-H ) :   0.9447 B( 29-C , 30-C ) :   1.1953 B( 29-C , 80-H ) :   0.9558
B( 30-C , 31-S ) :   1.1302 B( 30-C , 32-C ) :   0.1005 B( 30-C , 34-C ) :   1.3240
B( 31-S , 32-C ) :   1.0995 B( 32-C , 33-C ) :   1.5099 B( 32-C , 42-C ) :   1.1747
B( 33-C , 34-C ) :   1.2635 B( 33-C , 41-S ) :   1.0607 B( 34-C , 35-C ) :   1.1435
B( 35-C , 36-C ) :   1.5991 B( 35-C , 81-H ) :   0.9936 B( 36-C , 37-C ) :   0.9759
B( 36-C , 41-S ) :   1.0688 B( 37-C , 38-O ) :   2.0858 B( 37-C , 39-O ) :   1.2248
B( 39-O , 40-C ) :   0.9226 B( 40-C , 82-H ) :   0.9777 B( 40-C , 83-H ) :   0.9728
B( 40-C , 84-H ) :   0.9757 B( 42-C , 43-C ) :   1.5245 B( 42-C , 47-S ) :   1.0315
B( 43-C , 44-C ) :   1.2589 B( 43-C , 85-H ) :   0.9549 B( 44-C , 45-C ) :   1.0511
B( 44-C , 53-C ) :   1.3946 B( 45-C , 46-C ) :   1.6223 B( 45-C , 48-C ) :   1.1678
B( 46-C , 47-S ) :   1.1285 B( 46-C , 86-H ) :   0.9396 B( 48-C , 49-C ) :   1.4406
B( 48-C , 52-S ) :   1.0751 B( 49-C , 50-C ) :   1.2218 B( 49-C , 53-C ) :   1.0966
B( 50-C , 51-C ) :   1.5823 B( 50-C , 87-H ) :   0.9991 B( 51-C , 52-S ) :   1.1540
B( 51-C , 88-H ) :   0.9667 B( 53-C , 54-C ) :   1.1477 B( 54-C , 55-C ) :   1.6610
B( 54-C , 89-H ) :   0.9626 B( 55-C , 56-C ) :   1.1279 B( 55-C , 90-H ) :   0.9557
B( 56-C , 57-C ) :   1.4429 B( 56-C , 60-S ) :   1.1233 B( 57-C , 58-C ) :   1.3052
B( 57-C , 91-H ) :   0.9913 B( 58-C , 59-C ) :   1.4432 B( 58-C , 63-C ) :   0.9953
B( 59-C , 60-S ) :   1.1258 B( 59-C , 61-C ) :   1.1900 B( 61-C , 62-C ) :   1.4577
B( 61-C , 71-S ) :   1.1434 B( 62-C , 63-C ) :   1.0218 B( 62-C , 69-C ) :   1.2691
B( 63-C , 64-C ) :   1.6956 B( 64-C , 65-C ) :   1.1313 B( 64-C , 67-C ) :   1.1356
B( 65-C , 66-N ) :   3.0020 B( 67-C , 68-N ) :   2.9900 B( 69-C , 70-C ) :   1.5561
B( 69-C , 92-H ) :   0.9960 B( 70-C , 71-S ) :   1.1400 B( 70-C , 93-H ) :   0.9638

-----------------------------------------------------------------------------
         ABSORPTION SPECTRUM VIA TRANSITION ELECTRIC DIPOLE MOMENTS
-----------------------------------------------------------------------------
State   Energy  Wavelength   fosc         T2         TX        TY        TZ
        (cm-1)    (nm)                  (au**2)     (au)      (au)      (au)
-----------------------------------------------------------------------------
   0    9134.7   1094.7   0.138513688   4.99199   2.17466   0.29471  -0.41953
   1   10739.2    931.2   0.121970941   3.73903  -0.14280  -0.99996  -1.64885
   2   13206.7    757.2   0.785641510  19.58416   3.57818  -0.51530  -2.55250
   3   14730.1    678.9   0.082829022   1.85119   1.27704   0.42745   0.19404
   4   17321.5    577.3   0.078041568   1.48326   1.16497   0.12633  -0.33187
   5   18160.8    550.6   0.140246562   2.54234   1.30935   0.74849   0.51741
   6   18624.9    536.9   0.154374592   2.72871  -0.86998  -0.92306  -1.05821
   7   19010.0    526.0   0.072969705   1.26368   1.05648   0.35733   0.14086
   8   20697.4    483.2   0.028245367   0.44927  -0.38699   0.13805   0.52958
   9   22264.5    449.1   0.168359120   2.48943  -1.52516  -0.39894  -0.06449
  10   23063.2    433.6   0.158943882   2.26882   0.47992   0.88966   1.11669
  11   23179.7    431.4   0.084563521   1.20102   0.00431   0.54715   0.94954
  12   23789.9    420.3   0.056512906   0.78204   0.50903  -0.15333  -0.70669
  13   24583.5    406.8   0.072310667   0.96835  -0.23872   0.38096   0.87535
  14   26139.3    382.6   0.243796048   3.07049   0.82140   0.85690   1.28900
  15   26712.2    374.4   0.244995441   3.01943  -0.92397  -0.82199  -1.22067
  16   27062.4    369.5   0.017193188   0.20915  -0.17702   0.18269   0.38005
  17   27324.3    366.0   0.171797127   2.06986  -0.45951   0.50803   1.26516
  18   27815.3    359.5   0.117915162   1.39560  -1.15873  -0.23004   0.00372
  19   28176.1    354.9   0.108052648   1.26250  -0.66802  -0.58025  -0.69251
  20   28678.1    348.7   0.612172950   7.02749   2.10633   0.98970   1.26939
  21   29314.8    341.1   0.020387772   0.22896  -0.43116  -0.10681   0.17791
  22   29602.0    337.8   0.043550211   0.48433  -0.64595  -0.14742   0.21297
  23   30521.2    327.6   0.125201247   1.35046  -1.03429  -0.39486  -0.35325
  24   30930.7    323.3   0.109044420   1.16062  -0.06714  -0.07614   1.07253
  25   31120.7    321.3   0.859525596   9.09254  -2.74460  -0.44103   1.16841
  26   31423.4    318.2   0.060384079   0.63262  -0.45807  -0.51746   0.39374
  27   31528.7    317.2   0.114340864   1.19391  -0.38102  -0.18105  -1.00795
  28   31729.5    315.2   0.069813547   0.72436   0.59486  -0.58951   0.15157
  29   31838.4    314.1   0.550003426   5.68708  -0.40814   0.27754   2.33312
  30   32407.4    308.6   0.064160861   0.65178  -0.60492   0.34519   0.40828
  31   32810.0    304.8   0.051584654   0.51760   0.63564   0.28586   0.17843
  32   32968.8    303.3   0.251586647   2.51223   0.97577   0.53402  -1.12913
  33   33391.4    299.5   0.127004618   1.25216   0.91114   0.48869   0.42798
  34   33513.4    298.4   0.051498249   0.50588   0.39196   0.43120   0.40781
  35   33551.1    298.1   0.137861655   1.35273   0.95061   0.60127   0.29588
  36   33813.8    295.7   0.172654716   1.68097   0.68534  -0.17833  -1.08604
  37   34205.3    292.4   0.183688120   1.76792   0.53874   0.56764   1.07493
  38   34489.6    289.9   0.148881918   1.42112  -0.97706  -0.51116  -0.45298
  39   34690.1    288.3   0.187993721   1.78408   0.94393   0.91383   0.24083
  40   35104.7    284.9   0.016914083   0.15862  -0.01203  -0.30411  -0.25689
  41   35174.6    284.3   0.012031523   0.11261   0.25459   0.17777   0.12724
  42   35291.1    283.4   0.434680689   4.05490  -1.36367  -0.76537  -1.26866
  43   35358.9    282.8   0.041819325   0.38936  -0.59252  -0.15299  -0.12196
  44   35620.1    280.7   0.156229692   1.44392  -1.11011  -0.45936  -0.02390
  45   35988.8    277.9   0.011169077   0.10217  -0.06819   0.11115   0.29183
  46   36170.7    276.5   0.004955040   0.04510  -0.15981   0.13980   0.00406
  47   36388.6    274.8   0.141476003   1.27995  -0.24634   0.47332   0.99762
  48   36821.8    271.6   0.034540471   0.30882  -0.34335   0.06182   0.43256
  49   36890.5    271.1   0.154500914   1.37877   1.01572   0.52411   0.26906
  50   37302.2    268.1   0.013222070   0.11669  -0.28549  -0.18392  -0.03686
  51   37366.4    267.6   0.291531515   2.56850  -1.50530  -0.54909  -0.03268
  52   37531.4    266.4   0.085651741   0.75131   0.83239   0.23688   0.04814
  53   37940.1    263.6   0.075892066   0.65853  -0.43238  -0.40664  -0.55337
  54   38106.2    262.4   0.050805310   0.43892  -0.30469   0.25548   0.52992
  55   38408.8    260.4   0.017416490   0.14928  -0.17256   0.12119   0.32376
  56   38508.8    259.7   0.008510368   0.07276   0.23330  -0.02918  -0.13219
  57   38659.3    258.7   0.046154858   0.39304   0.45999   0.27787   0.32286
  58   38976.7    256.6   0.027819091   0.23497   0.42190   0.19246   0.14117
  59   39301.9    254.4   0.012314003   0.10315   0.09088   0.13583   0.27648
  60   39374.2    254.0   0.007434531   0.06216   0.20601  -0.02043  -0.13893
  61   39539.6    252.9   0.008199634   0.06827  -0.04805   0.08050   0.24389
  62   39798.9    251.3   0.007970334   0.06593  -0.11201  -0.15369  -0.17252
  63   39950.7    250.3   0.012940709   0.10664  -0.23122  -0.18496  -0.13771
  64   40151.2    249.1   0.151917549   1.24562   1.01790   0.04447  -0.45553
  65   40202.8    248.7   0.001071030   0.00877   0.05483   0.07584  -0.00366

FINAL SINGLE POINT ENERGY     -6493.978548175081

DIPOLE MOMENT
-------------
                                X             Y             Z
Electronic contribution:      7.83444       0.00017      -6.22948
Nuclear contribution   :     -7.67854      -0.37113       3.19818
                        -----------------------------------------
Total Dipole Moment    :      0.15590      -0.37096      -3.03130
                        -----------------------------------------
Magnitude (a.u.)       :      3.05789
Magnitude (Debye)      :      7.77254

Rotational constants in cm-1:     0.000856     0.000443     0.000296
Rotational constants in MHz :    25.659488    13.275028     8.871504

                             ****ORCA TERMINATED NORMALLY****
TOTAL RUN TIME: 0 days 0 hours 10 minutes 44 seconds 305 msec
